Title t= 120.00000 step= 60000
44389
    1GLY      N    1   6.138   3.580   0.997
    1GLY    HT1    2   6.197   3.495   1.010
    1GLY    HT2    3   6.166   3.645   0.921
    1GLY    HT3    4   6.041   3.549   0.972
    1GLY     CA    5   6.127   3.665   1.114
    1GLY    HA1    6   6.042   3.728   1.094
    1GLY    HA2    7   6.220   3.714   1.136
    1GLY      C    8   6.099   3.591   1.238
    1GLY      O    9   6.071   3.470   1.237
    2PRO      N   10   6.101   3.646   1.360
    2PRO     CD   11   6.143   3.777   1.376
    2PRO    HD1   12   6.076   3.831   1.305
    2PRO    HD2   13   6.252   3.774   1.354
    2PRO     CA   14   6.030   3.595   1.477
    2PRO     HA   15   6.066   3.495   1.497
    2PRO     CB   16   6.059   3.690   1.594
    2PRO    HB1   17   6.150   3.651   1.644
    2PRO    HB2   18   5.981   3.700   1.672
    2PRO     CG   19   6.103   3.820   1.517
    2PRO    HG1   20   6.020   3.893   1.522
    2PRO    HG2   21   6.194   3.856   1.570
    2PRO      C   22   5.882   3.563   1.454
    2PRO      O   23   5.817   3.638   1.380
    3GLY      N   24   5.828   3.457   1.513
    3GLY     HN   25   5.874   3.390   1.570
    3GLY     CA   26   5.689   3.428   1.509
    3GLY    HA1   27   5.641   3.507   1.453
    3GLY    HA2   28   5.655   3.414   1.610
    3GLY      C   29   5.664   3.309   1.424
    3GLY      O   30   5.733   3.278   1.326
    4ASP      N   31   5.564   3.227   1.464
    4ASP     HN   32   5.515   3.242   1.550
    4ASP     CA   33   5.519   3.119   1.382
    4ASP     HA   34   5.598   3.046   1.368
    4ASP     CB   35   5.392   3.047   1.445
    4ASP    HB1   36   5.353   2.971   1.373
    4ASP    HB2   37   5.303   3.112   1.452
    4ASP     CG   38   5.422   2.974   1.576
    4ASP    OD1   39   5.517   2.893   1.575
    4ASP    OD2   40   5.350   2.989   1.677
    4ASP      C   41   5.485   3.156   1.236
    4ASP      O   42   5.416   3.255   1.206
    5PRO      N   43   5.521   3.079   1.131
    5PRO     CD   44   5.622   2.974   1.134
    5PRO    HD1   45   5.571   2.881   1.168
    5PRO    HD2   46   5.714   2.990   1.195
    5PRO     CA   47   5.455   3.077   1.003
    5PRO     HA   48   5.466   3.173   0.956
    5PRO     CB   49   5.525   2.965   0.920
    5PRO    HB1   50   5.532   2.989   0.812
    5PRO    HB2   51   5.483   2.865   0.944
    5PRO     CG   52   5.659   2.975   0.986
    5PRO    HG1   53   5.738   2.902   0.960
    5PRO    HG2   54   5.698   3.076   0.964
    5PRO      C   55   5.303   3.059   1.005
    5PRO      O   56   5.255   2.982   1.089
    6GLY      N   57   5.244   3.115   0.903
    6GLY     HN   58   5.300   3.166   0.838
    6GLY     CA   59   5.103   3.122   0.881
    6GLY    HA1   60   5.067   3.021   0.893
    6GLY    HA2   61   5.090   3.162   0.782
    6GLY      C   62   5.026   3.197   0.989
    6GLY      O   63   5.077   3.276   1.065
    7SER      N   64   4.905   3.159   1.005
    7SER     HN   65   4.860   3.103   0.936
    7SER     CA   66   4.820   3.224   1.108
    7SER     HA   67   4.867   3.277   1.189
    7SER     CB   68   4.728   3.321   1.032
    7SER    HB1   69   4.653   3.373   1.096
    7SER    HB2   70   4.673   3.273   0.949
    7SER     OG   71   4.805   3.435   0.989
    7SER    HG1   72   4.874   3.413   0.927
    7SER      C   73   4.724   3.128   1.181
    7SER      O   74   4.664   3.046   1.111
    8GLY      N   75   4.713   3.127   1.317
    8GLY     HN   76   4.753   3.204   1.366
    8GLY     CA   77   4.631   3.040   1.399
    8GLY    HA1   78   4.638   3.080   1.499
    8GLY    HA2   79   4.655   2.936   1.383
    8GLY      C   80   4.481   3.056   1.378
    8GLY      O   81   4.433   3.124   1.287
    9ASN      N   82   4.405   2.988   1.456
    9ASN     HN   83   4.444   2.931   1.527
    9ASN     CA   84   4.261   2.975   1.443
    9ASN     HA   85   4.244   2.937   1.343
    9ASN     CB   86   4.223   2.863   1.538
    9ASN    HB1   87   4.215   2.897   1.644
    9ASN    HB2   88   4.296   2.779   1.535
    9ASN     CG   89   4.084   2.799   1.512
    9ASN    OD1   90   3.994   2.799   1.591
    9ASN    ND2   91   4.058   2.751   1.389
    9ASN   HD21   92   3.970   2.704   1.382
    9ASN   HD22   93   4.128   2.757   1.318
    9ASN      C   94   4.187   3.113   1.448
    9ASN      O   95   4.232   3.204   1.518
   10PRO      N   96   4.071   3.143   1.375
   10PRO     CD   97   4.013   3.059   1.267
   10PRO    HD1   98   3.951   2.977   1.308
   10PRO    HD2   99   4.096   3.025   1.201
   10PRO     CA  100   3.994   3.264   1.398
   10PRO     HA  101   4.063   3.347   1.385
   10PRO     CB  102   3.879   3.250   1.296
   10PRO    HB1  103   3.843   3.348   1.260
   10PRO    HB2  104   3.797   3.199   1.351
   10PRO     CG  105   3.928   3.158   1.190
   10PRO    HG1  106   3.853   3.100   1.131
   10PRO    HG2  107   3.990   3.224   1.127
   10PRO      C  108   3.947   3.281   1.541
   10PRO      O  109   3.931   3.177   1.609
   11GLY      N  110   3.917   3.400   1.589
   11GLY     HN  111   3.944   3.480   1.535
   11GLY     CA  112   3.856   3.426   1.720
   11GLY    HA1  113   3.902   3.374   1.802
   11GLY    HA2  114   3.757   3.386   1.698
   11GLY      C  115   3.867   3.574   1.743
   11GLY      O  116   3.956   3.648   1.693
   12SER      N  117   3.785   3.621   1.837
   12SER     HN  118   3.719   3.555   1.872
   12SER     CA  119   3.779   3.755   1.888
   12SER     HA  120   3.855   3.815   1.839
   12SER     CB  121   3.646   3.823   1.846
   12SER    HB1  122   3.641   3.822   1.735
   12SER    HB2  123   3.642   3.928   1.880
   12SER     OG  124   3.532   3.748   1.891
   12SER    HG1  125   3.518   3.666   1.843
   12SER      C  126   3.800   3.757   2.032
   12SER      O  127   3.774   3.860   2.090
   13GLY      N  128   3.851   3.651   2.104
   13GLY     HN  129   3.881   3.565   2.064
   13GLY     CA  130   3.863   3.653   2.247
   13GLY    HA1  131   3.947   3.717   2.271
   13GLY    HA2  132   3.892   3.552   2.271
   13GLY      C  133   3.745   3.687   2.333
   13GLY      O  134   3.630   3.672   2.299
   14ASP      N  135   3.777   3.744   2.452
   14ASP     HN  136   3.873   3.764   2.473
   14ASP     CA  137   3.676   3.758   2.553
   14ASP     HA  138   3.609   3.674   2.559
   14ASP     CB  139   3.739   3.779   2.696
   14ASP    HB1  140   3.663   3.810   2.771
   14ASP    HB2  141   3.818   3.857   2.692
   14ASP     CG  142   3.811   3.662   2.751
   14ASP    OD1  143   3.886   3.675   2.851
   14ASP    OD2  144   3.795   3.546   2.706
   14ASP      C  145   3.596   3.885   2.531
   14ASP      O  146   3.639   3.981   2.467
   15PRO      N  147   3.467   3.888   2.570
   15PRO     CD  148   3.382   3.771   2.609
   15PRO    HD1  149   3.421   3.746   2.710
   15PRO    HD2  150   3.402   3.688   2.538
   15PRO     CA  151   3.388   4.007   2.537
   15PRO     HA  152   3.410   4.043   2.438
   15PRO     CB  153   3.242   3.950   2.523
   15PRO    HB1  154   3.234   3.908   2.420
   15PRO    HB2  155   3.165   4.026   2.545
   15PRO     CG  156   3.241   3.829   2.617
   15PRO    HG1  157   3.215   3.866   2.719
   15PRO    HG2  158   3.161   3.754   2.604
   15PRO      C  159   3.404   4.120   2.639
   15PRO    OT1  160   3.477   4.107   2.738
   15PRO    OT2  161   3.357   4.233   2.613
   16SOD    SOD  162   4.271   3.969   0.889
   17SOD    SOD  163   1.448   3.843   0.995
   18SOD    SOD  164   2.945   5.880   3.843
   19SOD    SOD  165   7.214   3.760   4.567
   20SOD    SOD  166   3.494   1.143   2.102
   21SOD    SOD  167   6.021   1.505   6.669
   22SOD    SOD  168   5.548   4.889   5.037
   23SOD    SOD  169   1.939   0.199   4.999
   24SOD    SOD  170   0.357   6.433   0.805
   25SOD    SOD  171   5.609   6.393   5.182
   26SOD    SOD  172   1.490   3.983   4.160
   27SOD    SOD  173   0.733   3.244   5.003
   28SOD    SOD  174   0.076   1.519   5.755
   29SOD    SOD  175   4.772   2.879   6.683
   30SOD    SOD  176   7.952   7.413   4.406
   31SOD    SOD  177   2.711   3.896   0.581
   32SOD    SOD  178   5.650   1.056   5.429
   33SOD    SOD  179   6.200   4.719   2.622
   34SOD    SOD  180   5.261   1.952   0.429
   35SOD    SOD  181   7.294   4.655   1.566
   36SOD    SOD  182   1.717   3.324   0.422
   37SOD    SOD  183   7.687   4.476   3.709
   38SOD    SOD  184   7.112   1.280   5.923
   39SOD    SOD  185   3.241   3.866   3.497
   40SOD    SOD  186   3.107   4.211   6.327
   41SOD    SOD  187   6.803   0.527   2.106
   42SOD    SOD  188   7.411   6.173   3.117
   43SOD    SOD  189   5.806   3.003   4.984
   44SOD    SOD  190   3.145   5.624   0.707
   45SOD    SOD  191   3.505   2.966   0.787
   46SOD    SOD  192   2.199   4.109   4.903
   47SOD    SOD  193   4.551   6.372   2.449
   48SOD    SOD  194   2.685   1.438   4.765
   49SOD    SOD  195   0.082   0.867   2.198
   50SOD    SOD  196   3.977   3.420   5.065
   51SOD    SOD  197   8.232   7.705   5.973
   52SOD    SOD  198   4.317   5.042   5.731
   53SOD    SOD  199   4.954   1.095   0.530
   54SOD    SOD  200   0.513   4.050   3.902
   55SOD    SOD  201   0.576   5.275   3.523
   56SOD    SOD  202   2.068   2.357   3.761
   57SOD    SOD  203   6.782   0.477   5.580
   58SOD    SOD  204   7.404   7.373   1.347
   59SOD    SOD  205   1.889   5.034   2.851
   60CLA    CLA  206   0.776   7.643   2.154
   61CLA    CLA  207   5.642   0.217   4.127
   62CLA    CLA  208   1.102   1.969   6.628
   63CLA    CLA  209   6.003   5.193   6.672
   64CLA    CLA  210   6.348   3.285   5.869
   65CLA    CLA  211   7.900   4.771   6.397
   66CLA    CLA  212   1.028   7.427   1.536
   67CLA    CLA  213   6.306   0.091   4.916
   68CLA    CLA  214   3.780   4.727   4.877
   69CLA    CLA  215   0.168   1.179   6.723
   70CLA    CLA  216   1.291   0.640   3.565
   71CLA    CLA  217   3.048   7.680   5.376
   72CLA    CLA  218   2.168   4.142   0.255
   73CLA    CLA  219   0.839   5.152   4.424
   74CLA    CLA  220   6.150   5.611   4.720
   75CLA    CLA  221   0.247   7.626   5.680
   76CLA    CLA  222   6.144   1.390   0.354
   77CLA    CLA  223   6.848   7.578   0.402
   78CLA    CLA  224   3.605   1.983   5.580
   79CLA    CLA  225   3.879   3.872   1.195
   80CLA    CLA  226   7.233   0.205   0.633
   81CLA    CLA  227   3.901   2.162   4.249
   82CLA    CLA  228   0.282   2.673   4.770
   83CLA    CLA  229   7.697   6.704   4.924
   84CLA    CLA  230   7.274   3.767   4.133
   85CLA    CLA  231   4.859   4.781   0.721
   86CLA    CLA  232   7.830   6.526   2.940
   87CLA    CLA  233   2.888   5.702   0.793
   88CLA    CLA  234   0.334   6.133   2.942
   89CLA    CLA  235   2.703   2.295   3.474
   90CLA    CLA  236   4.040   6.266   2.080
   91CLA    CLA  237   6.478   6.073   0.240
   92CLA    CLA  238   8.175   0.325   2.512
   93CLA    CLA  239   6.757   4.746   3.066
   94CLA    CLA  240   4.724   4.446   5.975
   95CLA    CLA  241   1.559   4.680   4.136
   96CLA    CLA  242   2.129   6.540   3.306
   97CLA    CLA  243   6.764   7.689   3.895
   98CLA    CLA  244   7.510   5.924   3.039
   99CLA    CLA  245   2.732   4.459   4.228
  100CLA    CLA  246   3.683   6.858   5.013
  101CLA    CLA  247   6.634   1.111   5.260
  102TIP3   OH2  248   6.695   7.567   2.680
  102TIP3    H1  249   6.602   7.591   2.683
  102TIP3    H2  250   6.711   7.543   2.589
  103TIP3   OH2  251   3.702   2.153   4.824
  103TIP3    H1  252   3.631   2.122   4.879
  103TIP3    H2  253   3.752   2.212   4.881
  104TIP3   OH2  254   3.572   7.385   5.741
  104TIP3    H1  255   3.507   7.321   5.767
  104TIP3    H2  256   3.585   7.440   5.818
  105TIP3   OH2  257   2.003   3.121   4.721
  105TIP3    H1  258   2.010   3.116   4.816
  105TIP3    H2  259   1.913   3.150   4.704
  106TIP3   OH2  260   6.305   4.872   2.807
  106TIP3    H1  261   6.356   4.836   2.879
  106TIP3    H2  262   6.241   4.929   2.850
  107TIP3   OH2  263   5.470   1.838   3.767
  107TIP3    H1  264   5.423   1.856   3.686
  107TIP3    H2  265   5.417   1.771   3.811
  108TIP3   OH2  266   5.816   0.719   4.041
  108TIP3    H1  267   5.722   0.725   4.023
  108TIP3    H2  268   5.854   0.691   3.957
  109TIP3   OH2  269   3.707   1.805   0.675
  109TIP3    H1  270   3.675   1.810   0.585
  109TIP3    H2  271   3.710   1.712   0.694
  110TIP3   OH2  272   5.447   7.525   3.434
  110TIP3    H1  273   5.437   7.572   3.352
  110TIP3    H2  274   5.532   7.481   3.427
  111TIP3   OH2  275   4.166   4.238   0.560
  111TIP3    H1  276   4.132   4.237   0.470
  111TIP3    H2  277   4.099   4.284   0.610
  112TIP3   OH2  278   3.339   2.084   2.515
  112TIP3    H1  279   3.358   2.059   2.425
  112TIP3    H2  280   3.244   2.074   2.523
  113TIP3   OH2  281   3.384   2.820   0.945
  113TIP3    H1  282   3.309   2.763   0.929
  113TIP3    H2  283   3.446   2.765   0.994
  114TIP3   OH2  284   5.315   0.180   1.503
  114TIP3    H1  285   5.225   0.207   1.521
  114TIP3    H2  286   5.324   0.097   1.550
  115TIP3   OH2  287   1.319   0.639   6.004
  115TIP3    H1  288   1.390   0.575   6.005
  115TIP3    H2  289   1.362   0.724   5.996
  116TIP3   OH2  290   1.795   4.374   6.661
  116TIP3    H1  291   1.808   4.287   6.623
  116TIP3    H2  292   1.882   4.400   6.691
  117TIP3   OH2  293   3.482   7.314   0.948
  117TIP3    H1  294   3.440   7.363   1.019
  117TIP3    H2  295   3.576   7.329   0.961
  118TIP3   OH2  296   5.842   1.870   3.439
  118TIP3    H1  297   5.777   1.856   3.507
  118TIP3    H2  298   5.850   1.966   3.433
  119TIP3   OH2  299   4.064   1.390   6.235
  119TIP3    H1  300   4.043   1.412   6.326
  119TIP3    H2  301   4.010   1.314   6.216
  120TIP3   OH2  302   4.504   3.492   2.279
  120TIP3    H1  303   4.460   3.479   2.195
  120TIP3    H2  304   4.460   3.431   2.339
  121TIP3   OH2  305   1.408   5.724   1.900
  121TIP3    H1  306   1.318   5.705   1.875
  121TIP3    H2  307   1.404   5.812   1.938
  122TIP3   OH2  308   2.795   2.061   1.482
  122TIP3    H1  309   2.846   2.023   1.411
  122TIP3    H2  310   2.715   2.093   1.440
  123TIP3   OH2  311   1.966   7.365   0.864
  123TIP3    H1  312   2.017   7.284   0.854
  123TIP3    H2  313   2.029   7.435   0.850
  124TIP3   OH2  314   0.378   5.183   1.509
  124TIP3    H1  315   0.418   5.194   1.423
  124TIP3    H2  316   0.422   5.107   1.547
  125TIP3   OH2  317   2.086   2.704   4.380
  125TIP3    H1  318   2.048   2.778   4.426
  125TIP3    H2  319   2.010   2.650   4.356
  126TIP3   OH2  320   5.402   2.780   0.171
  126TIP3    H1  321   5.470   2.798   0.107
  126TIP3    H2  322   5.445   2.726   0.237
  127TIP3   OH2  323   7.058   4.522   2.551
  127TIP3    H1  324   6.998   4.564   2.613
  127TIP3    H2  325   7.099   4.595   2.504
  128TIP3   OH2  326   0.038   7.417   3.033
  128TIP3    H1  327   0.092   7.452   3.103
  128TIP3    H2  328   0.101   7.382   2.970
  129TIP3   OH2  329   4.741   2.134   2.045
  129TIP3    H1  330   4.821   2.099   2.085
  129TIP3    H2  331   4.767   2.220   2.011
  130TIP3   OH2  332   0.696   0.461   0.695
  130TIP3    H1  333   0.697   0.375   0.736
  130TIP3    H2  334   0.626   0.508   0.739
  131TIP3   OH2  335   5.917   6.940   5.254
  131TIP3    H1  336   5.943   6.920   5.163
  131TIP3    H2  337   5.974   6.885   5.307
  132TIP3   OH2  338   0.203   4.824   0.739
  132TIP3    H1  339   0.168   4.913   0.733
  132TIP3    H2  340   0.298   4.835   0.738
  133TIP3   OH2  341   4.059   0.376   1.312
  133TIP3    H1  342   4.029   0.320   1.240
  133TIP3    H2  343   4.046   0.323   1.390
  134TIP3   OH2  344   4.302   3.045   2.534
  134TIP3    H1  345   4.260   3.131   2.528
  134TIP3    H2  346   4.265   2.995   2.461
  135TIP3   OH2  347   2.473   5.088   1.938
  135TIP3    H1  348   2.522   5.132   1.868
  135TIP3    H2  349   2.531   5.090   2.013
  136TIP3   OH2  350   0.873   6.503   0.956
  136TIP3    H1  351   0.897   6.461   1.038
  136TIP3    H2  352   0.859   6.595   0.980
  137TIP3   OH2  353   7.761   5.089   0.104
  137TIP3    H1  354   7.808   5.056   0.180
  137TIP3    H2  355   7.680   5.126   0.139
  138TIP3   OH2  356   5.439   0.474   4.140
  138TIP3    H1  357   5.503   0.409   4.109
  138TIP3    H2  358   5.443   0.468   4.235
  139TIP3   OH2  359   4.618   5.249   4.054
  139TIP3    H1  360   4.612   5.281   3.964
  139TIP3    H2  361   4.549   5.296   4.101
  140TIP3   OH2  362   0.814   2.777   1.733
  140TIP3    H1  363   0.791   2.684   1.733
  140TIP3    H2  364   0.778   2.810   1.815
  141TIP3   OH2  365   2.480   4.486   4.454
  141TIP3    H1  366   2.532   4.425   4.403
  141TIP3    H2  367   2.448   4.549   4.390
  142TIP3   OH2  368   1.389   5.046   3.812
  142TIP3    H1  369   1.388   5.044   3.908
  142TIP3    H2  370   1.396   4.954   3.786
  143TIP3   OH2  371   6.424   0.959   4.871
  143TIP3    H1  372   6.410   0.995   4.958
  143TIP3    H2  373   6.372   1.016   4.813
  144TIP3   OH2  374   2.435   2.198   4.499
  144TIP3    H1  375   2.486   2.177   4.578
  144TIP3    H2  376   2.472   2.281   4.469
  145TIP3   OH2  377   7.536   3.437   2.038
  145TIP3    H1  378   7.487   3.513   2.005
  145TIP3    H2  379   7.518   3.368   1.974
  146TIP3   OH2  380   5.125   5.901   1.208
  146TIP3    H1  381   5.083   5.942   1.283
  146TIP3    H2  382   5.192   5.843   1.246
  147TIP3   OH2  383   6.397   3.094   6.308
  147TIP3    H1  384   6.433   3.050   6.231
  147TIP3    H2  385   6.304   3.073   6.306
  148TIP3   OH2  386   7.636   1.963   2.091
  148TIP3    H1  387   7.551   1.919   2.096
  148TIP3    H2  388   7.692   1.904   2.040
  149TIP3   OH2  389   1.968   0.274   0.763
  149TIP3    H1  390   1.981   0.217   0.687
  149TIP3    H2  391   1.934   0.217   0.831
  150TIP3   OH2  392   1.399   3.086   3.830
  150TIP3    H1  393   1.410   3.144   3.906
  150TIP3    H2  394   1.351   3.138   3.766
  151TIP3   OH2  395   5.491   4.041   0.658
  151TIP3    H1  396   5.505   3.948   0.675
  151TIP3    H2  397   5.579   4.074   0.638
  152TIP3   OH2  398   1.112   2.103   3.968
  152TIP3    H1  399   1.050   2.037   3.938
  152TIP3    H2  400   1.057   2.173   4.005
  153TIP3   OH2  401   2.235   5.974   5.908
  153TIP3    H1  402   2.231   5.974   5.813
  153TIP3    H2  403   2.256   5.884   5.932
  154TIP3   OH2  404   4.771   7.070   6.008
  154TIP3    H1  405   4.856   7.113   5.998
  154TIP3    H2  406   4.778   6.992   5.954
  155TIP3   OH2  407   2.539   4.883   3.690
  155TIP3    H1  408   2.625   4.843   3.700
  155TIP3    H2  409   2.478   4.809   3.692
  156TIP3   OH2  410   4.412   2.901   1.085
  156TIP3    H1  411   4.448   2.838   1.022
  156TIP3    H2  412   4.485   2.961   1.103
  157TIP3   OH2  413   8.073   5.832   2.513
  157TIP3    H1  414   7.993   5.855   2.466
  157TIP3    H2  415   8.068   5.882   2.594
  158TIP3   OH2  416   6.436   5.086   4.947
  158TIP3    H1  417   6.385   5.045   5.017
  158TIP3    H2  418   6.404   5.046   4.866
  159TIP3   OH2  419   6.616   3.435   0.592
  159TIP3    H1  420   6.535   3.480   0.568
  159TIP3    H2  421   6.591   3.380   0.667
  160TIP3   OH2  422   4.527   5.823   0.186
  160TIP3    H1  423   4.560   5.866   0.107
  160TIP3    H2  424   4.515   5.895   0.249
  161TIP3   OH2  425   7.955   6.817   4.777
  161TIP3    H1  426   7.985   6.733   4.743
  161TIP3    H2  427   7.863   6.803   4.799
  162TIP3   OH2  428   7.830   7.009   1.646
  162TIP3    H1  429   7.759   7.020   1.709
  162TIP3    H2  430   7.808   6.929   1.598
  163TIP3   OH2  431   6.333   6.322   3.972
  163TIP3    H1  432   6.356   6.308   4.064
  163TIP3    H2  433   6.268   6.254   3.953
  164TIP3   OH2  434   2.740   5.197   1.893
  164TIP3    H1  435   2.764   5.264   1.830
  164TIP3    H2  436   2.819   5.143   1.901
  165TIP3   OH2  437   0.716   5.786   2.734
  165TIP3    H1  438   0.630   5.793   2.776
  165TIP3    H2  439   0.768   5.856   2.775
  166TIP3   OH2  440   1.678   1.193   2.547
  166TIP3    H1  441   1.593   1.195   2.590
  166TIP3    H2  442   1.699   1.100   2.539
  167TIP3   OH2  443   4.435   3.565   4.883
  167TIP3    H1  444   4.374   3.604   4.821
  167TIP3    H2  445   4.439   3.626   4.956
  168TIP3   OH2  446   4.218   2.583   2.421
  168TIP3    H1  447   4.265   2.597   2.339
  168TIP3    H2  448   4.266   2.514   2.465
  169TIP3   OH2  449   7.789   7.078   2.864
  169TIP3    H1  450   7.832   7.122   2.938
  169TIP3    H2  451   7.860   7.033   2.819
  170TIP3   OH2  452   2.619   3.292   2.622
  170TIP3    H1  453   2.548   3.248   2.669
  170TIP3    H2  454   2.609   3.384   2.645
  171TIP3   OH2  455   6.786   0.130   6.259
  171TIP3    H1  456   6.787   0.074   6.337
  171TIP3    H2  457   6.796   0.219   6.293
  172TIP3   OH2  458   5.077   1.360   3.961
  172TIP3    H1  459   5.004   1.305   3.932
  172TIP3    H2  460   5.105   1.321   4.044
  173TIP3   OH2  461   0.633   4.275   5.271
  173TIP3    H1  462   0.565   4.271   5.203
  173TIP3    H2  463   0.589   4.315   5.346
  174TIP3   OH2  464   4.024   2.876   4.678
  174TIP3    H1  465   3.969   2.847   4.605
  174TIP3    H2  466   3.981   2.954   4.711
  175TIP3   OH2  467   6.260   7.399   3.993
  175TIP3    H1  468   6.311   7.350   4.058
  175TIP3    H2  469   6.318   7.407   3.918
  176TIP3   OH2  470   7.328   0.513   2.261
  176TIP3    H1  471   7.388   0.580   2.227
  176TIP3    H2  472   7.353   0.504   2.353
  177TIP3   OH2  473   5.346   1.213   3.449
  177TIP3    H1  474   5.405   1.167   3.390
  177TIP3    H2  475   5.258   1.193   3.416
  178TIP3   OH2  476   6.319   2.218   1.174
  178TIP3    H1  477   6.267   2.287   1.133
  178TIP3    H2  478   6.267   2.191   1.250
  179TIP3   OH2  479   4.691   5.801   0.544
  179TIP3    H1  480   4.699   5.882   0.593
  179TIP3    H2  481   4.643   5.742   0.602
  180TIP3   OH2  482   2.499   1.980   0.653
  180TIP3    H1  483   2.583   1.962   0.695
  180TIP3    H2  484   2.501   2.074   0.633
  181TIP3   OH2  485   4.876   0.627   0.383
  181TIP3    H1  486   4.801   0.596   0.433
  181TIP3    H2  487   4.874   0.576   0.302
  182TIP3   OH2  488   4.496   2.128   1.914
  182TIP3    H1  489   4.584   2.135   1.951
  182TIP3    H2  490   4.438   2.156   1.985
  183TIP3   OH2  491   4.261   6.621   6.582
  183TIP3    H1  492   4.350   6.649   6.605
  183TIP3    H2  493   4.270   6.587   6.493
  184TIP3   OH2  494   4.125   4.990   2.378
  184TIP3    H1  495   4.135   4.900   2.409
  184TIP3    H2  496   4.045   5.022   2.420
  185TIP3   OH2  497   4.677   0.898   3.723
  185TIP3    H1  498   4.720   0.833   3.666
  185TIP3    H2  499   4.591   0.860   3.740
  186TIP3   OH2  500   3.608   6.247   3.067
  186TIP3    H1  501   3.512   6.252   3.069
  186TIP3    H2  502   3.629   6.166   3.113
  187TIP3   OH2  503   4.362   0.372   2.291
  187TIP3    H1  504   4.319   0.439   2.237
  187TIP3    H2  505   4.293   0.343   2.352
  188TIP3   OH2  506   7.896   7.520   1.727
  188TIP3    H1  507   7.886   7.604   1.773
  188TIP3    H2  508   7.967   7.476   1.773
  189TIP3   OH2  509   2.768   5.948   4.519
  189TIP3    H1  510   2.729   6.032   4.496
  189TIP3    H2  511   2.770   5.948   4.615
  190TIP3   OH2  512   4.522   6.750   6.591
  190TIP3    H1  513   4.555   6.815   6.653
  190TIP3    H2  514   4.500   6.800   6.513
  191TIP3   OH2  515   7.882   2.962   6.381
  191TIP3    H1  516   7.803   3.016   6.381
  191TIP3    H2  517   7.862   2.890   6.322
  192TIP3   OH2  518   0.731   3.467   4.416
  192TIP3    H1  519   0.685   3.511   4.488
  192TIP3    H2  520   0.824   3.480   4.435
  193TIP3   OH2  521   4.512   7.618   4.539
  193TIP3    H1  522   4.418   7.605   4.527
  193TIP3    H2  523   4.532   7.698   4.491
  194TIP3   OH2  524   6.408   4.608   2.559
  194TIP3    H1  525   6.459   4.667   2.616
  194TIP3    H2  526   6.463   4.596   2.482
  195TIP3   OH2  527   1.608   6.635   5.962
  195TIP3    H1  528   1.634   6.724   5.940
  195TIP3    H2  529   1.513   6.637   5.969
  196TIP3   OH2  530   5.062   4.969   1.910
  196TIP3    H1  531   5.110   4.930   1.837
  196TIP3    H2  532   5.093   5.060   1.913
  197TIP3   OH2  533   6.751   2.279   2.205
  197TIP3    H1  534   6.815   2.288   2.135
  197TIP3    H2  535   6.710   2.194   2.190
  198TIP3   OH2  536   7.329   1.705   2.898
  198TIP3    H1  537   7.320   1.648   2.974
  198TIP3    H2  538   7.423   1.717   2.888
  199TIP3   OH2  539   6.698   5.486   1.701
  199TIP3    H1  540   6.709   5.391   1.709
  199TIP3    H2  541   6.775   5.523   1.745
  200TIP3   OH2  542   7.256   1.864   2.550
  200TIP3    H1  543   7.225   1.926   2.484
  200TIP3    H2  544   7.348   1.850   2.527
  201TIP3   OH2  545   6.823   6.285   1.318
  201TIP3    H1  546   6.898   6.338   1.290
  201TIP3    H2  547   6.748   6.342   1.304
  202TIP3   OH2  548   6.206   1.994   5.791
  202TIP3    H1  549   6.291   1.989   5.836
  202TIP3    H2  550   6.158   2.063   5.838
  203TIP3   OH2  551   7.798   4.934   3.873
  203TIP3    H1  552   7.705   4.957   3.871
  203TIP3    H2  553   7.843   5.017   3.854
  204TIP3   OH2  554   0.299   6.377   3.614
  204TIP3    H1  555   0.327   6.319   3.684
  204TIP3    H2  556   0.358   6.452   3.620
  205TIP3   OH2  557   2.112   5.694   3.787
  205TIP3    H1  558   2.021   5.724   3.792
  205TIP3    H2  559   2.106   5.599   3.791
  206TIP3   OH2  560   2.535   1.740   5.083
  206TIP3    H1  561   2.529   1.835   5.095
  206TIP3    H2  562   2.508   1.704   5.168
  207TIP3   OH2  563   7.847   4.153   6.139
  207TIP3    H1  564   7.924   4.199   6.107
  207TIP3    H2  565   7.773   4.208   6.112
  208TIP3   OH2  566   0.043   0.286   0.361
  208TIP3    H1  567   0.074   0.356   0.304
  208TIP3    H2  568   0.019   0.331   0.442
  209TIP3   OH2  569   1.621   2.174   1.746
  209TIP3    H1  570   1.598   2.088   1.780
  209TIP3    H2  571   1.685   2.208   1.809
  210TIP3   OH2  572   7.027   5.946   5.080
  210TIP3    H1  573   6.999   5.865   5.125
  210TIP3    H2  574   7.097   5.917   5.021
  211TIP3   OH2  575   0.579   6.711   2.511
  211TIP3    H1  576   0.511   6.705   2.444
  211TIP3    H2  577   0.548   6.655   2.582
  212TIP3   OH2  578   4.139   5.823   3.957
  212TIP3    H1  579   4.072   5.857   4.016
  212TIP3    H2  580   4.217   5.874   3.978
  213TIP3   OH2  581   1.576   7.265   3.263
  213TIP3    H1  582   1.502   7.320   3.289
  213TIP3    H2  583   1.558   7.179   3.302
  214TIP3   OH2  584   4.341   7.244   0.175
  214TIP3    H1  585   4.344   7.242   0.080
  214TIP3    H2  586   4.274   7.310   0.196
  215TIP3   OH2  587   3.444   5.800   5.769
  215TIP3    H1  588   3.394   5.877   5.794
  215TIP3    H2  589   3.450   5.805   5.673
  216TIP3   OH2  590   7.136   1.986   1.130
  216TIP3    H1  591   7.172   2.074   1.130
  216TIP3    H2  592   7.041   1.998   1.120
  217TIP3   OH2  593   0.060   5.678   2.950
  217TIP3    H1  594   0.057   5.605   2.887
  217TIP3    H2  595   0.123   5.739   2.912
  218TIP3   OH2  596   7.216   7.227   1.899
  218TIP3    H1  597   7.259   7.178   1.970
  218TIP3    H2  598   7.169   7.297   1.943
  219TIP3   OH2  599   1.941   6.968   1.600
  219TIP3    H1  600   1.914   6.942   1.688
  219TIP3    H2  601   1.998   7.044   1.614
  220TIP3   OH2  602   8.246   2.447   2.530
  220TIP3    H1  603   8.341   2.447   2.530
  220TIP3    H2  604   8.221   2.505   2.458
  221TIP3   OH2  605   2.522   3.406   3.595
  221TIP3    H1  606   2.594   3.346   3.614
  221TIP3    H2  607   2.472   3.363   3.526
  222TIP3   OH2  608   2.405   1.722   0.620
  222TIP3    H1  609   2.455   1.803   0.626
  222TIP3    H2  610   2.314   1.749   0.618
  223TIP3   OH2  611   5.655   3.309   4.247
  223TIP3    H1  612   5.587   3.367   4.214
  223TIP3    H2  613   5.621   3.278   4.332
  224TIP3   OH2  614   2.420   6.301   2.075
  224TIP3    H1  615   2.425   6.361   2.001
  224TIP3    H2  616   2.329   6.308   2.105
  225TIP3   OH2  617   3.517   4.502   5.174
  225TIP3    H1  618   3.451   4.473   5.237
  225TIP3    H2  619   3.485   4.586   5.141
  226TIP3   OH2  620   7.364   6.063   4.671
  226TIP3    H1  621   7.305   6.046   4.745
  226TIP3    H2  622   7.448   6.028   4.700
  227TIP3   OH2  623   3.827   0.275   6.304
  227TIP3    H1  624   3.736   0.250   6.295
  227TIP3    H2  625   3.876   0.193   6.292
  228TIP3   OH2  626   3.639   7.686   6.706
  228TIP3    H1  627   3.545   7.670   6.699
  228TIP3    H2  628   3.678   7.613   6.658
  229TIP3   OH2  629   5.279   3.997   6.439
  229TIP3    H1  630   5.256   4.047   6.360
  229TIP3    H2  631   5.245   4.050   6.511
  230TIP3   OH2  632   8.115   4.915   3.625
  230TIP3    H1  633   8.208   4.934   3.638
  230TIP3    H2  634   8.090   4.867   3.704
  231TIP3   OH2  635   4.442   4.541   6.021
  231TIP3    H1  636   4.417   4.522   5.931
  231TIP3    H2  637   4.528   4.500   6.032
  232TIP3   OH2  638   3.575   7.731   0.763
  232TIP3    H1  639   3.517   7.658   0.744
  232TIP3    H2  640   3.644   7.725   0.697
  233TIP3   OH2  641   2.170   3.849   1.402
  233TIP3    H1  642   2.180   3.944   1.397
  233TIP3    H2  643   2.258   3.817   1.421
  234TIP3   OH2  644   7.787   2.406   1.472
  234TIP3    H1  645   7.784   2.497   1.446
  234TIP3    H2  646   7.863   2.369   1.427
  235TIP3   OH2  647   1.846   4.000   4.670
  235TIP3    H1  648   1.882   4.027   4.754
  235TIP3    H2  649   1.894   3.921   4.647
  236TIP3   OH2  650   3.673   2.302   4.398
  236TIP3    H1  651   3.742   2.369   4.398
  236TIP3    H2  652   3.697   2.244   4.326
  237TIP3   OH2  653   3.349   5.704   4.028
  237TIP3    H1  654   3.382   5.727   4.114
  237TIP3    H2  655   3.400   5.759   3.967
  238TIP3   OH2  656   7.954   3.207   5.906
  238TIP3    H1  657   7.972   3.268   5.978
  238TIP3    H2  658   7.978   3.121   5.940
  239TIP3   OH2  659   6.814   4.154   2.089
  239TIP3    H1  660   6.885   4.193   2.037
  239TIP3    H2  661   6.850   4.071   2.120
  240TIP3   OH2  662   3.330   5.443   6.357
  240TIP3    H1  663   3.245   5.461   6.318
  240TIP3    H2  664   3.359   5.527   6.394
  241TIP3   OH2  665   3.507   2.585   0.445
  241TIP3    H1  666   3.596   2.571   0.476
  241TIP3    H2  667   3.503   2.679   0.427
  242TIP3   OH2  668   0.150   7.472   3.634
  242TIP3    H1  669   0.132   7.522   3.555
  242TIP3    H2  670   0.064   7.448   3.668
  243TIP3   OH2  671   2.242   2.146   0.196
  243TIP3    H1  672   2.317   2.136   0.137
  243TIP3    H2  673   2.259   2.229   0.241
  244TIP3   OH2  674   0.770   1.654   0.709
  244TIP3    H1  675   0.768   1.580   0.648
  244TIP3    H2  676   0.727   1.621   0.788
  245TIP3   OH2  677   6.487   4.923   1.686
  245TIP3    H1  678   6.440   4.851   1.644
  245TIP3    H2  679   6.423   4.965   1.742
  246TIP3   OH2  680   3.600   0.747   1.188
  246TIP3    H1  681   3.655   0.779   1.260
  246TIP3    H2  682   3.547   0.678   1.227
  247TIP3   OH2  683   7.215   5.055   5.064
  247TIP3    H1  684   7.296   5.015   5.032
  247TIP3    H2  685   7.242   5.104   5.142
  248TIP3   OH2  686   7.357   0.146   0.352
  248TIP3    H1  687   7.381   0.056   0.374
  248TIP3    H2  688   7.315   0.180   0.431
  249TIP3   OH2  689   5.096   1.935   3.694
  249TIP3    H1  690   5.001   1.931   3.688
  249TIP3    H2  691   5.114   2.026   3.721
  250TIP3   OH2  692   2.418   1.625   5.296
  250TIP3    H1  693   2.487   1.564   5.320
  250TIP3    H2  694   2.351   1.614   5.364
  251TIP3   OH2  695   5.465   1.238   5.380
  251TIP3    H1  696   5.513   1.309   5.338
  251TIP3    H2  697   5.375   1.271   5.388
  252TIP3   OH2  698   4.513   6.813   1.746
  252TIP3    H1  699   4.479   6.723   1.739
  252TIP3    H2  700   4.589   6.814   1.688
  253TIP3   OH2  701   7.045   3.085   3.497
  253TIP3    H1  702   7.093   3.097   3.415
  253TIP3    H2  703   7.060   2.994   3.520
  254TIP3   OH2  704   5.384   0.436   2.988
  254TIP3    H1  705   5.459   0.377   2.978
  254TIP3    H2  706   5.357   0.425   3.079
  255TIP3   OH2  707   1.251   1.739   5.451
  255TIP3    H1  708   1.247   1.751   5.356
  255TIP3    H2  709   1.223   1.824   5.487
  256TIP3   OH2  710   8.014   4.964   5.038
  256TIP3    H1  711   8.000   4.978   5.131
  256TIP3    H2  712   8.051   4.876   5.032
  257TIP3   OH2  713   5.329   2.046   5.337
  257TIP3    H1  714   5.243   2.016   5.364
  257TIP3    H2  715   5.390   2.000   5.395
  258TIP3   OH2  716   0.088   0.067   1.779
  258TIP3    H1  717   0.083   0.031   1.690
  258TIP3    H2  718   0.065  -0.007   1.836
  259TIP3   OH2  719   5.960   0.693   4.763
  259TIP3    H1  720   5.963   0.644   4.844
  259TIP3    H2  721   5.995   0.633   4.697
  260TIP3   OH2  722   3.409   2.568   2.967
  260TIP3    H1  723   3.413   2.479   2.932
  260TIP3    H2  724   3.334   2.608   2.924
  261TIP3   OH2  725   2.396   0.576   1.447
  261TIP3    H1  726   2.372   0.666   1.425
  261TIP3    H2  727   2.332   0.522   1.402
  262TIP3   OH2  728   7.754   6.176   2.033
  262TIP3    H1  729   7.767   6.099   1.977
  262TIP3    H2  730   7.689   6.148   2.097
  263TIP3   OH2  731   6.953   5.163   3.856
  263TIP3    H1  732   6.943   5.259   3.859
  263TIP3    H2  733   7.037   5.146   3.900
  264TIP3   OH2  734   7.273   1.006   2.523
  264TIP3    H1  735   7.296   0.974   2.435
  264TIP3    H2  736   7.271   1.101   2.514
  265TIP3   OH2  737   2.074   4.305   4.836
  265TIP3    H1  738   1.994   4.322   4.787
  265TIP3    H2  739   2.093   4.387   4.881
  266TIP3   OH2  740   7.925   7.292   1.010
  266TIP3    H1  741   7.861   7.360   0.990
  266TIP3    H2  742   7.987   7.334   1.070
  267TIP3   OH2  743   1.825   6.590   4.148
  267TIP3    H1  744   1.781   6.512   4.183
  267TIP3    H2  745   1.782   6.605   4.063
  268TIP3   OH2  746   1.354   4.165   3.783
  268TIP3    H1  747   1.277   4.213   3.751
  268TIP3    H2  748   1.347   4.078   3.742
  269TIP3   OH2  749   0.620   2.666   5.402
  269TIP3    H1  750   0.572   2.680   5.321
  269TIP3    H2  751   0.576   2.721   5.467
  270TIP3   OH2  752   1.657   4.822   5.484
  270TIP3    H1  753   1.669   4.823   5.579
  270TIP3    H2  754   1.747   4.825   5.449
  271TIP3   OH2  755   1.447   3.239   4.067
  271TIP3    H1  756   1.443   3.231   4.163
  271TIP3    H2  757   1.530   3.283   4.050
  272TIP3   OH2  758   5.124   7.761   6.165
  272TIP3    H1  759   5.113   7.855   6.148
  272TIP3    H2  760   5.219   7.748   6.161
  273TIP3   OH2  761   6.143   7.739   4.052
  273TIP3    H1  762   6.158   7.684   4.129
  273TIP3    H2  763   6.090   7.684   3.993
  274TIP3   OH2  764   1.623   5.828   6.274
  274TIP3    H1  765   1.608   5.907   6.326
  274TIP3    H2  766   1.573   5.843   6.193
  275TIP3   OH2  767   2.938   3.741   6.548
  275TIP3    H1  768   3.031   3.761   6.561
  275TIP3    H2  769   2.900   3.749   6.636
  276TIP3   OH2  770   1.364   6.430   2.713
  276TIP3    H1  771   1.435   6.459   2.655
  276TIP3    H2  772   1.312   6.371   2.659
  277TIP3   OH2  773   0.971   6.446   6.622
  277TIP3    H1  774   0.880   6.477   6.628
  277TIP3    H2  775   1.020   6.509   6.675
  278TIP3   OH2  776   7.869   5.616   0.851
  278TIP3    H1  777   7.909   5.531   0.871
  278TIP3    H2  778   7.823   5.640   0.932
  279TIP3   OH2  779   1.738   4.046   5.928
  279TIP3    H1  780   1.646   4.062   5.949
  279TIP3    H2  781   1.755   4.098   5.850
  280TIP3   OH2  782   1.938   0.694   3.527
  280TIP3    H1  783   1.952   0.661   3.439
  280TIP3    H2  784   1.887   0.627   3.571
  281TIP3   OH2  785   7.267   1.088   3.823
  281TIP3    H1  786   7.356   1.125   3.822
  281TIP3    H2  787   7.220   1.138   3.756
  282TIP3   OH2  788   3.826   7.224   0.509
  282TIP3    H1  789   3.864   7.312   0.511
  282TIP3    H2  790   3.736   7.238   0.479
  283TIP3   OH2  791   5.955   4.724   5.105
  283TIP3    H1  792   5.980   4.634   5.089
  283TIP3    H2  793   5.960   4.767   5.020
  284TIP3   OH2  794   7.284   3.926   3.341
  284TIP3    H1  795   7.319   4.013   3.360
  284TIP3    H2  796   7.289   3.920   3.245
  285TIP3   OH2  797   6.643   4.089   5.311
  285TIP3    H1  798   6.634   4.001   5.348
  285TIP3    H2  799   6.721   4.124   5.354
  286TIP3   OH2  800   2.063   3.305   5.864
  286TIP3    H1  801   2.068   3.379   5.925
  286TIP3    H2  802   1.975   3.270   5.876
  287TIP3   OH2  803   2.571   6.608   4.734
  287TIP3    H1  804   2.598   6.516   4.729
  287TIP3    H2  805   2.586   6.632   4.825
  288TIP3   OH2  806   0.536   1.066   5.113
  288TIP3    H1  807   0.472   1.079   5.043
  288TIP3    H2  808   0.584   0.988   5.087
  289TIP3   OH2  809   0.314   1.755   2.790
  289TIP3    H1  810   0.296   1.696   2.717
  289TIP3    H2  811   0.229   1.770   2.830
  290TIP3   OH2  812   6.869   3.818   4.407
  290TIP3    H1  813   6.936   3.870   4.450
  290TIP3    H2  814   6.854   3.861   4.323
  291TIP3   OH2  815   4.371   6.775   2.100
  291TIP3    H1  816   4.312   6.767   2.025
  291TIP3    H2  817   4.319   6.819   2.167
  292TIP3   OH2  818   3.134   0.217   3.442
  292TIP3    H1  819   3.173   0.289   3.394
  292TIP3    H2  820   3.089   0.258   3.516
  293TIP3   OH2  821   2.263   6.138   0.941
  293TIP3    H1  822   2.318   6.146   0.863
  293TIP3    H2  823   2.240   6.228   0.964
  294TIP3   OH2  824   6.390   5.719   6.442
  294TIP3    H1  825   6.300   5.733   6.470
  294TIP3    H2  826   6.407   5.627   6.461
  295TIP3   OH2  827   2.117   5.001   3.556
  295TIP3    H1  828   2.137   5.000   3.462
  295TIP3    H2  829   2.108   4.909   3.580
  296TIP3   OH2  830   1.361   5.434   5.368
  296TIP3    H1  831   1.436   5.482   5.403
  296TIP3    H2  832   1.399   5.366   5.313
  297TIP3   OH2  833   2.625   1.186   2.256
  297TIP3    H1  834   2.582   1.269   2.236
  297TIP3    H2  835   2.645   1.148   2.171
  298TIP3   OH2  836   7.099   6.374   6.471
  298TIP3    H1  837   7.124   6.466   6.457
  298TIP3    H2  838   7.179   6.331   6.499
  299TIP3   OH2  839   3.109   2.267   5.193
  299TIP3    H1  840   3.202   2.280   5.209
  299TIP3    H2  841   3.073   2.241   5.277
  300TIP3   OH2  842   1.182   3.594   0.600
  300TIP3    H1  843   1.155   3.514   0.556
  300TIP3    H2  844   1.113   3.611   0.665
  301TIP3   OH2  845   0.281   1.646   3.815
  301TIP3    H1  846   0.204   1.608   3.773
  301TIP3    H2  847   0.260   1.649   3.908
  302TIP3   OH2  848   0.384   1.646   2.416
  302TIP3    H1  849   0.391   1.687   2.330
  302TIP3    H2  850   0.470   1.656   2.455
  303TIP3   OH2  851   7.727   4.305   3.528
  303TIP3    H1  852   7.802   4.309   3.468
  303TIP3    H2  853   7.672   4.236   3.491
  304TIP3   OH2  854   4.611   4.753   6.076
  304TIP3    H1  855   4.686   4.732   6.021
  304TIP3    H2  856   4.537   4.712   6.031
  305TIP3   OH2  857   8.098   3.230   6.703
  305TIP3    H1  858   8.056   3.308   6.666
  305TIP3    H2  859   8.079   3.161   6.640
  306TIP3   OH2  860   3.111   5.088   0.318
  306TIP3    H1  861   3.072   5.010   0.277
  306TIP3    H2  862   3.198   5.059   0.346
  307TIP3   OH2  863   5.053   1.293   0.634
  307TIP3    H1  864   5.090   1.379   0.615
  307TIP3    H2  865   5.094   1.266   0.716
  308TIP3   OH2  866   6.503   7.655   1.290
  308TIP3    H1  867   6.487   7.667   1.384
  308TIP3    H2  868   6.457   7.575   1.267
  309TIP3   OH2  869   2.135   7.201   5.731
  309TIP3    H1  870   2.215   7.149   5.724
  309TIP3    H2  871   2.111   7.221   5.640
  310TIP3   OH2  872   6.378   0.769   3.875
  310TIP3    H1  873   6.453   0.804   3.828
  310TIP3    H2  874   6.324   0.729   3.807
  311TIP3   OH2  875   3.737   4.141   6.648
  311TIP3    H1  876   3.817   4.191   6.637
  311TIP3    H2  877   3.722   4.100   6.563
  312TIP3   OH2  878   5.093   6.398   3.697
  312TIP3    H1  879   5.062   6.333   3.760
  312TIP3    H2  880   5.018   6.455   3.682
  313TIP3   OH2  881   6.633   7.449   3.215
  313TIP3    H1  882   6.572   7.389   3.173
  313TIP3    H2  883   6.610   7.535   3.180
  314TIP3   OH2  884   1.573   6.057   4.665
  314TIP3    H1  885   1.503   6.049   4.600
  314TIP3    H2  886   1.533   6.105   4.737
  315TIP3   OH2  887   1.107   1.355   4.521
  315TIP3    H1  888   1.125   1.385   4.610
  315TIP3    H2  889   1.078   1.265   4.532
  316TIP3   OH2  890   1.104   0.218   1.513
  316TIP3    H1  891   1.123   0.295   1.566
  316TIP3    H2  892   1.091   0.251   1.425
  317TIP3   OH2  893   2.732   6.391   1.353
  317TIP3    H1  894   2.718   6.318   1.413
  317TIP3    H2  895   2.647   6.403   1.310
  318TIP3   OH2  896   6.955   3.690   2.421
  318TIP3    H1  897   6.862   3.709   2.438
  318TIP3    H2  898   6.999   3.712   2.503
  319TIP3   OH2  899   5.225   2.441   4.515
  319TIP3    H1  900   5.139   2.399   4.526
  319TIP3    H2  901   5.261   2.446   4.604
  320TIP3   OH2  902   5.881   6.754   3.888
  320TIP3    H1  903   5.919   6.773   3.974
  320TIP3    H2  904   5.811   6.818   3.878
  321TIP3   OH2  905   7.723   7.049   5.569
  321TIP3    H1  906   7.776   7.080   5.642
  321TIP3    H2  907   7.786   7.020   5.504
  322TIP3   OH2  908   3.987   1.796   5.816
  322TIP3    H1  909   4.081   1.815   5.812
  322TIP3    H2  910   3.949   1.847   5.745
  323TIP3   OH2  911   8.030   4.512   2.314
  323TIP3    H1  912   8.093   4.478   2.251
  323TIP3    H2  913   8.082   4.562   2.376
  324TIP3   OH2  914   5.865   5.694   4.887
  324TIP3    H1  915   5.957   5.683   4.864
  324TIP3    H2  916   5.850   5.632   4.958
  325TIP3   OH2  917   5.863   5.268   3.886
  325TIP3    H1  918   5.862   5.345   3.943
  325TIP3    H2  919   5.775   5.233   3.893
  326TIP3   OH2  920  -0.004   2.921   1.779
  326TIP3    H1  921   0.023   2.956   1.864
  326TIP3    H2  922   0.023   2.829   1.782
  327TIP3   OH2  923   3.080   4.341   6.120
  327TIP3    H1  924   3.017   4.408   6.149
  327TIP3    H2  925   3.081   4.350   6.024
  328TIP3   OH2  926   1.429   1.418   3.487
  328TIP3    H1  927   1.396   1.368   3.412
  328TIP3    H2  928   1.354   1.468   3.517
  329TIP3   OH2  929   0.926   5.277   0.750
  329TIP3    H1  930   0.902   5.363   0.786
  329TIP3    H2  931   0.922   5.218   0.825
  330TIP3   OH2  932   3.008   3.028   5.388
  330TIP3    H1  933   2.978   3.119   5.382
  330TIP3    H2  934   3.102   3.033   5.375
  331TIP3   OH2  935   4.726   3.366   2.576
  331TIP3    H1  936   4.707   3.278   2.544
  331TIP3    H2  937   4.792   3.354   2.644
  332TIP3   OH2  938   7.957   4.929   0.592
  332TIP3    H1  939   7.907   5.009   0.574
  332TIP3    H2  940   7.892   4.869   0.630
  333TIP3   OH2  941   7.371   4.880   2.557
  333TIP3    H1  942   7.439   4.813   2.566
  333TIP3    H2  943   7.407   4.956   2.602
  334TIP3   OH2  944   3.184   2.605   2.821
  334TIP3    H1  945   3.131   2.674   2.781
  334TIP3    H2  946   3.155   2.525   2.778
  335TIP3   OH2  947   8.168   2.236   0.982
  335TIP3    H1  948   8.205   2.177   1.048
  335TIP3    H2  949   8.091   2.190   0.949
  336TIP3   OH2  950   1.013   6.118   5.214
  336TIP3    H1  951   1.073   6.186   5.246
  336TIP3    H2  952   1.054   6.036   5.240
  337TIP3   OH2  953   4.352   4.292   4.045
  337TIP3    H1  954   4.337   4.332   4.131
  337TIP3    H2  955   4.346   4.198   4.060
  338TIP3   OH2  956   6.322   1.452   3.473
  338TIP3    H1  957   6.399   1.469   3.420
  338TIP3    H2  958   6.304   1.535   3.517
  339TIP3   OH2  959   4.955   5.490   3.326
  339TIP3    H1  960   4.957   5.467   3.418
  339TIP3    H2  961   5.002   5.574   3.321
  340TIP3   OH2  962   6.978   7.698   1.748
  340TIP3    H1  963   6.892   7.738   1.757
  340TIP3    H2  964   7.005   7.679   1.838
  341TIP3   OH2  965   3.068   5.466   3.231
  341TIP3    H1  966   3.026   5.381   3.244
  341TIP3    H2  967   2.995   5.526   3.214
  342TIP3   OH2  968   6.394   7.291   1.843
  342TIP3    H1  969   6.378   7.319   1.933
  342TIP3    H2  970   6.395   7.373   1.792
  343TIP3   OH2  971   2.883   4.254   2.975
  343TIP3    H1  972   2.892   4.241   2.880
  343TIP3    H2  973   2.790   4.241   2.992
  344TIP3   OH2  974   3.459   3.524   5.551
  344TIP3    H1  975   3.552   3.505   5.562
  344TIP3    H2  976   3.455   3.618   5.534
  345TIP3   OH2  977   7.371   5.838   5.887
  345TIP3    H1  978   7.451   5.788   5.907
  345TIP3    H2  979   7.370   5.908   5.953
  346TIP3   OH2  980   5.677   1.905   6.668
  346TIP3    H1  981   5.700   1.966   6.738
  346TIP3    H2  982   5.621   1.840   6.711
  347TIP3   OH2  983   7.767   4.687   1.412
  347TIP3    H1  984   7.805   4.622   1.471
  347TIP3    H2  985   7.718   4.746   1.469
  348TIP3   OH2  986   7.232   1.471   0.597
  348TIP3    H1  987   7.197   1.557   0.575
  348TIP3    H2  988   7.263   1.435   0.514
  349TIP3   OH2  989   2.318   4.663   2.895
  349TIP3    H1  990   2.246   4.639   2.838
  349TIP3    H2  991   2.396   4.656   2.840
  350TIP3   OH2  992   7.332   5.701   3.158
  350TIP3    H1  993   7.391   5.773   3.133
  350TIP3    H2  994   7.267   5.743   3.214
  351TIP3   OH2  995   6.082   4.577   6.498
  351TIP3    H1  996   6.113   4.496   6.539
  351TIP3    H2  997   6.074   4.639   6.570
  352TIP3   OH2  998   1.266   1.004   0.866
  352TIP3    H1  999   1.305   1.057   0.796
  352TIP3    H2 1000   1.236   0.924   0.822
  353TIP3   OH2 1001   6.904   4.235   1.640
  353TIP3    H1 1002   6.859   4.169   1.692
  353TIP3    H2 1003   6.980   4.190   1.603
  354TIP3   OH2 1004   1.166   7.724   0.251
  354TIP3    H1 1005   1.251   7.701   0.288
  354TIP3    H2 1006   1.111   7.743   0.328
  355TIP3   OH2 1007   4.238   1.617   1.639
  355TIP3    H1 1008   4.309   1.620   1.574
  355TIP3    H2 1009   4.283   1.614   1.724
  356TIP3   OH2 1010   6.829   2.168   3.231
  356TIP3    H1 1011   6.857   2.237   3.292
  356TIP3    H2 1012   6.821   2.090   3.286
  357TIP3   OH2 1013   3.426   2.235   4.512
  357TIP3    H1 1014   3.368   2.199   4.445
  357TIP3    H2 1015   3.493   2.283   4.462
  358TIP3   OH2 1016   5.405   2.991   6.444
  358TIP3    H1 1017   5.452   3.015   6.364
  358TIP3    H2 1018   5.315   3.019   6.427
  359TIP3   OH2 1019   2.132   3.289   1.916
  359TIP3    H1 1020   2.101   3.198   1.916
  359TIP3    H2 1021   2.227   3.282   1.903
  360TIP3   OH2 1022   8.273   1.987   3.097
  360TIP3    H1 1023   8.349   2.000   3.154
  360TIP3    H2 1024   8.212   2.057   3.123
  361TIP3   OH2 1025   2.907   6.966   1.865
  361TIP3    H1 1026   2.905   6.871   1.863
  361TIP3    H2 1027   2.998   6.988   1.885
  362TIP3   OH2 1028   1.404   2.210   0.763
  362TIP3    H1 1029   1.467   2.184   0.696
  362TIP3    H2 1030   1.369   2.293   0.732
  363TIP3   OH2 1031   0.779   5.967   2.494
  363TIP3    H1 1032   0.728   5.918   2.429
  363TIP3    H2 1033   0.743   5.938   2.578
  364TIP3   OH2 1034   7.907   3.645   5.951
  364TIP3    H1 1035   7.870   3.697   5.880
  364TIP3    H2 1036   7.833   3.593   5.983
  365TIP3   OH2 1037   1.438   4.142   1.365
  365TIP3    H1 1038   1.356   4.101   1.340
  365TIP3    H2 1039   1.456   4.107   1.453
  366TIP3   OH2 1040   3.715   7.293   3.137
  366TIP3    H1 1041   3.725   7.348   3.059
  366TIP3    H2 1042   3.659   7.221   3.109
  367TIP3   OH2 1043   0.497   7.308   2.483
  367TIP3    H1 1044   0.581   7.349   2.463
  367TIP3    H2 1045   0.521   7.222   2.519
  368TIP3   OH2 1046   5.281   3.075   2.133
  368TIP3    H1 1047   5.330   3.147   2.172
  368TIP3    H2 1048   5.213   3.054   2.197
  369TIP3   OH2 1049   6.072   3.294   5.521
  369TIP3    H1 1050   6.063   3.358   5.450
  369TIP3    H2 1051   6.040   3.212   5.483
  370TIP3   OH2 1052   7.965   1.784   1.755
  370TIP3    H1 1053   8.059   1.769   1.758
  370TIP3    H2 1054   7.929   1.720   1.815
  371TIP3   OH2 1055   6.309   0.323   0.292
  371TIP3    H1 1056   6.270   0.240   0.263
  371TIP3    H2 1057   6.272   0.389   0.233
  372TIP3   OH2 1058   0.573   1.018   3.806
  372TIP3    H1 1059   0.666   1.010   3.785
  372TIP3    H2 1060   0.549   0.933   3.844
  373TIP3   OH2 1061   4.476   3.426   3.786
  373TIP3    H1 1062   4.563   3.462   3.768
  373TIP3    H2 1063   4.423   3.503   3.809
  374TIP3   OH2 1064   5.239   3.441   5.211
  374TIP3    H1 1065   5.182   3.400   5.276
  374TIP3    H2 1066   5.302   3.492   5.263
  375TIP3   OH2 1067   6.380   2.399   5.974
  375TIP3    H1 1068   6.427   2.320   5.949
  375TIP3    H2 1069   6.438   2.444   6.035
  376TIP3   OH2 1070   7.264   0.676   0.198
  376TIP3    H1 1071   7.311   0.592   0.205
  376TIP3    H2 1072   7.306   0.732   0.263
  377TIP3   OH2 1073   0.678   1.579   3.325
  377TIP3    H1 1074   0.708   1.493   3.296
  377TIP3    H2 1075   0.650   1.566   3.415
  378TIP3   OH2 1076   4.063   5.634   0.389
  378TIP3    H1 1077   3.972   5.659   0.405
  378TIP3    H2 1078   4.063   5.539   0.394
  379TIP3   OH2 1079   2.335   7.034   6.486
  379TIP3    H1 1080   2.409   7.037   6.546
  379TIP3    H2 1081   2.262   7.070   6.536
  380TIP3   OH2 1082   1.766   5.535   5.440
  380TIP3    H1 1083   1.752   5.628   5.459
  380TIP3    H2 1084   1.844   5.534   5.384
  381TIP3   OH2 1085   8.219   1.156   1.506
  381TIP3    H1 1086   8.197   1.094   1.436
  381TIP3    H2 1087   8.161   1.230   1.492
  382TIP3   OH2 1088   2.860   5.238   0.347
  382TIP3    H1 1089   2.917   5.165   0.320
  382TIP3    H2 1090   2.834   5.279   0.265
  383TIP3   OH2 1091   7.262   7.461   2.645
  383TIP3    H1 1092   7.337   7.517   2.625
  383TIP3    H2 1093   7.251   7.407   2.566
  384TIP3   OH2 1094   0.800   4.628   4.290
  384TIP3    H1 1095   0.852   4.613   4.211
  384TIP3    H2 1096   0.789   4.723   4.293
  385TIP3   OH2 1097   0.615   4.704   2.044
  385TIP3    H1 1098   0.600   4.797   2.026
  385TIP3    H2 1099   0.554   4.659   1.986
  386TIP3   OH2 1100   4.091   7.811   5.286
  386TIP3    H1 1101   4.128   7.724   5.276
  386TIP3    H2 1102   4.154   7.870   5.243
  387TIP3   OH2 1103   6.271   6.197   5.254
  387TIP3    H1 1104   6.340   6.132   5.268
  387TIP3    H2 1105   6.269   6.209   5.159
  388TIP3   OH2 1106   2.049   7.702   2.340
  388TIP3    H1 1107   1.957   7.714   2.316
  388TIP3    H2 1108   2.098   7.742   2.269
  389TIP3   OH2 1109   0.652   1.628   5.362
  389TIP3    H1 1110   0.580   1.636   5.299
  389TIP3    H2 1111   0.639   1.703   5.422
  390TIP3   OH2 1112   6.627   6.702   3.346
  390TIP3    H1 1113   6.598   6.686   3.436
  390TIP3    H2 1114   6.546   6.708   3.296
  391TIP3   OH2 1115   1.885   6.033   1.511
  391TIP3    H1 1116   1.821   5.995   1.571
  391TIP3    H2 1117   1.933   5.958   1.476
  392TIP3   OH2 1118   0.906   6.661   0.566
  392TIP3    H1 1119   0.997   6.666   0.596
  392TIP3    H2 1120   0.910   6.685   0.474
  393TIP3   OH2 1121   7.640   7.507   3.161
  393TIP3    H1 1122   7.616   7.531   3.250
  393TIP3    H2 1123   7.557   7.490   3.117
  394TIP3   OH2 1124   5.742   4.510   0.313
  394TIP3    H1 1125   5.705   4.596   0.290
  394TIP3    H2 1126   5.808   4.530   0.379
  395TIP3   OH2 1127   5.328   4.896   4.394
  395TIP3    H1 1128   5.337   4.889   4.299
  395TIP3    H2 1129   5.259   4.834   4.416
  396TIP3   OH2 1130   7.085   4.671   5.146
  396TIP3    H1 1131   7.179   4.682   5.134
  396TIP3    H2 1132   7.050   4.760   5.144
  397TIP3   OH2 1133   2.669   0.506   3.873
  397TIP3    H1 1134   2.762   0.485   3.885
  397TIP3    H2 1135   2.657   0.590   3.917
  398TIP3   OH2 1136   3.169   6.720   3.456
  398TIP3    H1 1137   3.254   6.753   3.484
  398TIP3    H2 1138   3.179   6.705   3.362
  399TIP3   OH2 1139   1.125   1.684   2.703
  399TIP3    H1 1140   1.204   1.692   2.649
  399TIP3    H2 1141   1.113   1.771   2.742
  400TIP3   OH2 1142   6.323   6.704   0.705
  400TIP3    H1 1143   6.296   6.630   0.759
  400TIP3    H2 1144   6.328   6.668   0.616
  401TIP3   OH2 1145   1.630   2.554   3.668
  401TIP3    H1 1146   1.704   2.502   3.636
  401TIP3    H2 1147   1.566   2.489   3.697
  402TIP3   OH2 1148   5.372   4.263   0.952
  402TIP3    H1 1149   5.289   4.214   0.958
  402TIP3    H2 1150   5.392   4.285   1.043
  403TIP3   OH2 1151   0.275   6.312   1.796
  403TIP3    H1 1152   0.227   6.348   1.871
  403TIP3    H2 1153   0.208   6.267   1.745
  404TIP3   OH2 1154   1.073   6.062   3.415
  404TIP3    H1 1155   1.134   6.047   3.487
  404TIP3    H2 1156   0.988   6.076   3.456
  405TIP3   OH2 1157   1.832   0.905   5.564
  405TIP3    H1 1158   1.809   0.997   5.579
  405TIP3    H2 1159   1.923   0.907   5.534
  406TIP3   OH2 1160   8.208   2.006   0.452
  406TIP3    H1 1161   8.154   1.983   0.528
  406TIP3    H2 1162   8.154   2.068   0.402
  407TIP3   OH2 1163   4.084   0.590   5.320
  407TIP3    H1 1164   4.048   0.540   5.393
  407TIP3    H2 1165   4.177   0.597   5.339
  408TIP3   OH2 1166   0.476   4.576   1.806
  408TIP3    H1 1167   0.438   4.610   1.725
  408TIP3    H2 1168   0.548   4.520   1.777
  409TIP3   OH2 1169   2.748   2.432   5.550
  409TIP3    H1 1170   2.682   2.496   5.522
  409TIP3    H2 1171   2.717   2.401   5.635
  410TIP3   OH2 1172   5.845   3.233   4.630
  410TIP3    H1 1173   5.849   3.327   4.613
  410TIP3    H2 1174   5.774   3.222   4.693
  411TIP3   OH2 1175   4.853   1.377   6.713
  411TIP3    H1 1176   4.792   1.321   6.761
  411TIP3    H2 1177   4.813   1.464   6.716
  412TIP3   OH2 1178   0.747   1.288   5.136
  412TIP3    H1 1179   0.679   1.221   5.130
  412TIP3    H2 1180   0.737   1.325   5.224
  413TIP3   OH2 1181   1.259   3.098   2.565
  413TIP3    H1 1182   1.256   3.045   2.644
  413TIP3    H2 1183   1.205   3.051   2.502
  414TIP3   OH2 1184   4.792   1.202   5.928
  414TIP3    H1 1185   4.699   1.195   5.948
  414TIP3    H2 1186   4.806   1.140   5.857
  415TIP3   OH2 1187   4.465   6.188   1.406
  415TIP3    H1 1188   4.371   6.194   1.387
  415TIP3    H2 1189   4.497   6.119   1.347
  416TIP3   OH2 1190   0.950   4.403   0.044
  416TIP3    H1 1191   0.917   4.492   0.034
  416TIP3    H2 1192   0.926   4.359  -0.038
  417TIP3   OH2 1193   4.966   4.840   1.601
  417TIP3    H1 1194   4.884   4.830   1.553
  417TIP3    H2 1195   4.968   4.932   1.627
  418TIP3   OH2 1196   2.630   3.672   4.420
  418TIP3    H1 1197   2.545   3.649   4.458
  418TIP3    H2 1198   2.673   3.723   4.489
  419TIP3   OH2 1199   0.310   6.412   4.954
  419TIP3    H1 1200   0.283   6.502   4.936
  419TIP3    H2 1201   0.266   6.360   4.887
  420TIP3   OH2 1202   4.979   1.361   3.300
  420TIP3    H1 1203   5.029   1.286   3.266
  420TIP3    H2 1204   5.025   1.438   3.266
  421TIP3   OH2 1205   3.694   2.519   1.536
  421TIP3    H1 1206   3.703   2.544   1.443
  421TIP3    H2 1207   3.605   2.546   1.559
  422TIP3   OH2 1208   2.675   3.525   3.095
  422TIP3    H1 1209   2.678   3.620   3.083
  422TIP3    H2 1210   2.744   3.491   3.037
  423TIP3   OH2 1211   5.218   5.492   5.768
  423TIP3    H1 1212   5.287   5.470   5.832
  423TIP3    H2 1213   5.264   5.499   5.685
  424TIP3   OH2 1214   8.058   0.965   4.918
  424TIP3    H1 1215   8.022   0.882   4.889
  424TIP3    H2 1216   8.020   0.978   5.005
  425TIP3   OH2 1217   2.204   6.682   4.215
  425TIP3    H1 1218   2.147   6.710   4.144
  425TIP3    H2 1219   2.255   6.759   4.238
  426TIP3   OH2 1220   3.939   0.976   5.973
  426TIP3    H1 1221   4.003   0.944   5.909
  426TIP3    H2 1222   3.959   0.928   6.053
  427TIP3   OH2 1223   2.822   3.501   5.239
  427TIP3    H1 1224   2.739   3.500   5.286
  427TIP3    H2 1225   2.848   3.593   5.239
  428TIP3   OH2 1226   2.112   1.891   2.868
  428TIP3    H1 1227   2.118   1.971   2.921
  428TIP3    H2 1228   2.019   1.869   2.870
  429TIP3   OH2 1229   7.626   0.946   3.754
  429TIP3    H1 1230   7.585   0.929   3.669
  429TIP3    H2 1231   7.585   0.883   3.813
  430TIP3   OH2 1232   4.734   2.516   3.342
  430TIP3    H1 1233   4.684   2.526   3.261
  430TIP3    H2 1234   4.722   2.599   3.387
  431TIP3   OH2 1235   4.455   1.073   0.281
  431TIP3    H1 1236   4.372   1.078   0.328
  431TIP3    H2 1237   4.516   1.036   0.344
  432TIP3   OH2 1238   1.543   6.622   3.323
  432TIP3    H1 1239   1.637   6.624   3.340
  432TIP3    H2 1240   1.530   6.690   3.257
  433TIP3   OH2 1241   1.953   1.770   5.531
  433TIP3    H1 1242   1.994   1.781   5.617
  433TIP3    H2 1243   1.885   1.837   5.529
  434TIP3   OH2 1244   6.070   3.848   4.272
  434TIP3    H1 1245   6.146   3.833   4.215
  434TIP3    H2 1246   6.062   3.944   4.276
  435TIP3   OH2 1247   6.259   4.661   4.783
  435TIP3    H1 1248   6.222   4.670   4.871
  435TIP3    H2 1249   6.342   4.614   4.797
  436TIP3   OH2 1250   6.925   6.147   3.249
  436TIP3    H1 1251   6.878   6.065   3.261
  436TIP3    H2 1252   6.878   6.211   3.302
  437TIP3   OH2 1253   0.901   4.643   1.386
  437TIP3    H1 1254   0.886   4.585   1.312
  437TIP3    H2 1255   0.832   4.709   1.379
  438TIP3   OH2 1256   4.248   7.568   1.006
  438TIP3    H1 1257   4.272   7.655   0.972
  438TIP3    H2 1258   4.161   7.581   1.044
  439TIP3   OH2 1259   1.607   7.269   6.145
  439TIP3    H1 1260   1.554   7.326   6.201
  439TIP3    H2 1261   1.633   7.197   6.203
  440TIP3   OH2 1262   2.226   7.705   1.261
  440TIP3    H1 1263   2.297   7.717   1.323
  440TIP3    H2 1264   2.151   7.748   1.302
  441TIP3   OH2 1265   1.051   0.278   0.935
  441TIP3    H1 1266   1.060   0.211   0.868
  441TIP3    H2 1267   1.112   0.347   0.909
  442TIP3   OH2 1268   3.056   6.898   0.949
  442TIP3    H1 1269   2.999   6.916   1.024
  442TIP3    H2 1270   3.145   6.901   0.984
  443TIP3   OH2 1271   2.303   1.409   3.104
  443TIP3    H1 1272   2.392   1.443   3.096
  443TIP3    H2 1273   2.258   1.473   3.159
  444TIP3   OH2 1274   2.813   6.716   2.340
  444TIP3    H1 1275   2.746   6.650   2.325
  444TIP3    H2 1276   2.781   6.766   2.416
  445TIP3   OH2 1277   7.097   7.066   4.301
  445TIP3    H1 1278   7.049   7.131   4.250
  445TIP3    H2 1279   7.043   6.987   4.298
  446TIP3   OH2 1280   3.118   0.532   6.518
  446TIP3    H1 1281   3.067   0.499   6.592
  446TIP3    H2 1282   3.053   0.548   6.450
  447TIP3   OH2 1283   7.783   6.455   4.416
  447TIP3    H1 1284   7.765   6.478   4.507
  447TIP3    H2 1285   7.699   6.464   4.371
  448TIP3   OH2 1286   1.053   4.473   4.683
  448TIP3    H1 1287   1.027   4.562   4.704
  448TIP3    H2 1288   1.130   4.483   4.626
  449TIP3   OH2 1289   6.013   6.257   5.229
  449TIP3    H1 1290   6.094   6.219   5.262
  449TIP3    H2 1291   6.040   6.338   5.186
  450TIP3   OH2 1292   6.243   3.046   3.525
  450TIP3    H1 1293   6.155   3.059   3.489
  450TIP3    H2 1294   6.292   3.006   3.454
  451TIP3   OH2 1295   7.172   2.487   1.995
  451TIP3    H1 1296   7.259   2.502   1.959
  451TIP3    H2 1297   7.140   2.410   1.949
  452TIP3   OH2 1298   3.557   4.405   2.361
  452TIP3    H1 1299   3.540   4.353   2.282
  452TIP3    H2 1300   3.574   4.493   2.328
  453TIP3   OH2 1301   8.027   6.284   6.520
  453TIP3    H1 1302   7.976   6.205   6.534
  453TIP3    H2 1303   7.976   6.354   6.561
  454TIP3   OH2 1304   3.149   1.872   4.455
  454TIP3    H1 1305   3.102   1.818   4.520
  454TIP3    H2 1306   3.172   1.952   4.503
  455TIP3   OH2 1307   1.484   1.893   2.954
  455TIP3    H1 1308   1.443   1.813   2.922
  455TIP3    H2 1309   1.520   1.935   2.876
  456TIP3   OH2 1310   4.538   4.629   5.101
  456TIP3    H1 1311   4.448   4.623   5.070
  456TIP3    H2 1312   4.589   4.653   5.023
  457TIP3   OH2 1313   2.729   0.932   1.757
  457TIP3    H1 1314   2.691   0.847   1.736
  457TIP3    H2 1315   2.734   0.977   1.672
  458TIP3   OH2 1316   3.854   0.922   5.049
  458TIP3    H1 1317   3.877   1.012   5.027
  458TIP3    H2 1318   3.872   0.872   4.970
  459TIP3   OH2 1319   2.367   7.106   0.850
  459TIP3    H1 1320   2.320   7.188   0.838
  459TIP3    H2 1321   2.308   7.052   0.903
  460TIP3   OH2 1322   5.671   7.697   5.605
  460TIP3    H1 1323   5.703   7.701   5.515
  460TIP3    H2 1324   5.647   7.788   5.625
  461TIP3   OH2 1325   1.151   0.470   5.150
  461TIP3    H1 1326   1.135   0.554   5.194
  461TIP3    H2 1327   1.064   0.439   5.125
  462TIP3   OH2 1328   3.482   6.104   0.291
  462TIP3    H1 1329   3.554   6.134   0.346
  462TIP3    H2 1330   3.523   6.053   0.222
  463TIP3   OH2 1331   6.753   3.174   4.847
  463TIP3    H1 1332   6.829   3.224   4.818
  463TIP3    H2 1333   6.694   3.175   4.772
  464TIP3   OH2 1334   6.071   6.964   2.434
  464TIP3    H1 1335   6.144   7.014   2.396
  464TIP3    H2 1336   6.111   6.908   2.500
  465TIP3   OH2 1337   2.207   0.441   2.074
  465TIP3    H1 1338   2.156   0.370   2.112
  465TIP3    H2 1339   2.193   0.515   2.133
  466TIP3   OH2 1340   6.598   3.451   5.842
  466TIP3    H1 1341   6.666   3.406   5.892
  466TIP3    H2 1342   6.519   3.397   5.854
  467TIP3   OH2 1343   5.829   6.522   0.059
  467TIP3    H1 1344   5.782   6.538   0.141
  467TIP3    H2 1345   5.847   6.428   0.060
  468TIP3   OH2 1346   7.650   7.626   2.839
  468TIP3    H1 1347   7.570   7.584   2.869
  468TIP3    H2 1348   7.673   7.686   2.910
  469TIP3   OH2 1349   2.483   4.687   4.891
  469TIP3    H1 1350   2.533   4.614   4.928
  469TIP3    H2 1351   2.504   4.687   4.798
  470TIP3   OH2 1352   2.140   2.103   4.806
  470TIP3    H1 1353   2.165   2.194   4.822
  470TIP3    H2 1354   2.110   2.102   4.715
  471TIP3   OH2 1355   3.789   5.593   0.470
  471TIP3    H1 1356   3.759   5.504   0.451
  471TIP3    H2 1357   3.750   5.647   0.400
  472TIP3   OH2 1358   3.016   3.407   2.153
  472TIP3    H1 1359   3.111   3.411   2.147
  472TIP3    H2 1360   2.985   3.439   2.068
  473TIP3   OH2 1361   3.604   1.761   5.302
  473TIP3    H1 1362   3.541   1.800   5.241
  473TIP3    H2 1363   3.648   1.837   5.341
  474TIP3   OH2 1364   0.149   4.385   0.715
  474TIP3    H1 1365   0.089   4.444   0.671
  474TIP3    H2 1366   0.188   4.438   0.785
  475TIP3   OH2 1367   7.869   1.159   2.497
  475TIP3    H1 1368   7.801   1.169   2.564
  475TIP3    H2 1369   7.821   1.146   2.415
  476TIP3   OH2 1370   2.159   1.782   1.123
  476TIP3    H1 1371   2.181   1.701   1.168
  476TIP3    H2 1372   2.083   1.816   1.171
  477TIP3   OH2 1373   4.251   6.494   4.639
  477TIP3    H1 1374   4.317   6.556   4.669
  477TIP3    H2 1375   4.181   6.549   4.602
  478TIP3   OH2 1376   1.158   5.145   3.702
  478TIP3    H1 1377   1.248   5.113   3.711
  478TIP3    H2 1378   1.111   5.072   3.660
  479TIP3   OH2 1379   3.475   7.494   2.687
  479TIP3    H1 1380   3.462   7.412   2.639
  479TIP3    H2 1381   3.515   7.467   2.770
  480TIP3   OH2 1382   5.818   2.931   2.649
  480TIP3    H1 1383   5.814   2.943   2.744
  480TIP3    H2 1384   5.905   2.896   2.633
  481TIP3   OH2 1385   2.637   4.279   5.357
  481TIP3    H1 1386   2.565   4.341   5.369
  481TIP3    H2 1387   2.617   4.237   5.273
  482TIP3   OH2 1388   4.728   4.480   2.529
  482TIP3    H1 1389   4.722   4.530   2.610
  482TIP3    H2 1390   4.661   4.517   2.472
  483TIP3   OH2 1391   2.925   3.270   5.342
  483TIP3    H1 1392   2.937   3.356   5.301
  483TIP3    H2 1393   2.842   3.238   5.307
  484TIP3   OH2 1394   3.830   0.465   5.418
  484TIP3    H1 1395   3.742   0.500   5.407
  484TIP3    H2 1396   3.825   0.413   5.498
  485TIP3   OH2 1397   2.673   5.660   2.430
  485TIP3    H1 1398   2.593   5.711   2.435
  485TIP3    H2 1399   2.721   5.698   2.356
  486TIP3   OH2 1400   1.548   5.081   5.490
  486TIP3    H1 1401   1.452   5.078   5.487
  486TIP3    H2 1402   1.575   4.989   5.478
  487TIP3   OH2 1403   2.714   3.576   1.634
  487TIP3    H1 1404   2.633   3.531   1.612
  487TIP3    H2 1405   2.782   3.510   1.623
  488TIP3   OH2 1406   7.342   5.585   1.769
  488TIP3    H1 1407   7.288   5.550   1.839
  488TIP3    H2 1408   7.288   5.652   1.727
  489TIP3   OH2 1409   1.068   5.396   3.683
  489TIP3    H1 1410   0.977   5.368   3.689
  489TIP3    H2 1411   1.118   5.317   3.706
  490TIP3   OH2 1412   6.430   7.697   2.386
  490TIP3    H1 1413   6.408   7.785   2.356
  490TIP3    H2 1414   6.427   7.702   2.482
  491TIP3   OH2 1415   6.507   3.737   2.719
  491TIP3    H1 1416   6.477   3.780   2.799
  491TIP3    H2 1417   6.427   3.728   2.666
  492TIP3   OH2 1418   7.609   3.019   6.317
  492TIP3    H1 1419   7.607   2.963   6.239
  492TIP3    H2 1420   7.589   3.107   6.285
  493TIP3   OH2 1421   3.521   6.997   0.969
  493TIP3    H1 1422   3.509   6.955   0.884
  493TIP3    H2 1423   3.522   7.091   0.949
  494TIP3   OH2 1424   0.557   5.887   5.062
  494TIP3    H1 1425   0.637   5.939   5.055
  494TIP3    H2 1426   0.515   5.919   5.142
  495TIP3   OH2 1427   2.476   5.267   1.388
  495TIP3    H1 1428   2.564   5.298   1.411
  495TIP3    H2 1429   2.441   5.230   1.469
  496TIP3   OH2 1430   0.685   2.568   5.147
  496TIP3    H1 1431   0.591   2.564   5.166
  496TIP3    H2 1432   0.693   2.536   5.057
  497TIP3   OH2 1433   4.568   1.014   6.705
  497TIP3    H1 1434   4.636   0.947   6.714
  497TIP3    H2 1435   4.601   1.073   6.637
  498TIP3   OH2 1436   7.375   4.905   1.587
  498TIP3    H1 1437   7.359   4.898   1.681
  498TIP3    H2 1438   7.462   4.867   1.575
  499TIP3   OH2 1439   0.580   6.498   0.380
  499TIP3    H1 1440   0.635   6.466   0.451
  499TIP3    H2 1441   0.550   6.584   0.408
  500TIP3   OH2 1442   4.016   7.204   0.710
  500TIP3    H1 1443   4.096   7.221   0.661
  500TIP3    H2 1444   3.953   7.176   0.644
  501TIP3   OH2 1445   7.453   3.269   1.860
  501TIP3    H1 1446   7.444   3.182   1.821
  501TIP3    H2 1447   7.428   3.329   1.790
  502TIP3   OH2 1448   4.759   2.112   5.492
  502TIP3    H1 1449   4.829   2.047   5.487
  502TIP3    H2 1450   4.693   2.071   5.548
  503TIP3   OH2 1451   4.590   6.369  -0.004
  503TIP3    H1 1452   4.543   6.419   0.062
  503TIP3    H2 1453   4.638   6.434  -0.055
  504TIP3   OH2 1454   7.130   2.796   6.187
  504TIP3    H1 1455   7.199   2.780   6.123
  504TIP3    H2 1456   7.148   2.735   6.258
  505TIP3   OH2 1457   7.714   0.248   4.233
  505TIP3    H1 1458   7.808   0.232   4.243
  505TIP3    H2 1459   7.673   0.185   4.292
  506TIP3   OH2 1460   0.632   0.734   4.884
  506TIP3    H1 1461   0.575   0.785   4.826
  506TIP3    H2 1462   0.697   0.797   4.914
  507TIP3   OH2 1463   1.407   6.914   3.802
  507TIP3    H1 1464   1.353   6.890   3.877
  507TIP3    H2 1465   1.398   7.009   3.795
  508TIP3   OH2 1466   5.736   1.134   4.814
  508TIP3    H1 1467   5.779   1.138   4.729
  508TIP3    H2 1468   5.802   1.099   4.874
  509TIP3   OH2 1469   1.309   1.664   3.939
  509TIP3    H1 1470   1.300   1.705   4.025
  509TIP3    H2 1471   1.233   1.696   3.889
  510TIP3   OH2 1472   7.030   7.730   4.612
  510TIP3    H1 1473   7.086   7.673   4.560
  510TIP3    H2 1474   6.946   7.683   4.618
  511TIP3   OH2 1475   0.432   0.400   1.442
  511TIP3    H1 1476   0.494   0.337   1.405
  511TIP3    H2 1477   0.450   0.482   1.395
  512TIP3   OH2 1478   4.069   2.803   0.079
  512TIP3    H1 1479   4.103   2.879   0.127
  512TIP3    H2 1480   4.110   2.809  -0.008
  513TIP3   OH2 1481   5.978   5.664   3.758
  513TIP3    H1 1482   5.920   5.684   3.831
  513TIP3    H2 1483   5.970   5.570   3.746
  514TIP3   OH2 1484   4.137   3.167   6.121
  514TIP3    H1 1485   4.229   3.144   6.111
  514TIP3    H2 1486   4.110   3.124   6.201
  515TIP3   OH2 1487   1.436   0.834   2.532
  515TIP3    H1 1488   1.420   0.835   2.626
  515TIP3    H2 1489   1.450   0.741   2.511
  516TIP3   OH2 1490   1.561   7.316   2.622
  516TIP3    H1 1491   1.610   7.376   2.677
  516TIP3    H2 1492   1.537   7.368   2.545
  517TIP3   OH2 1493   3.547   5.154   3.795
  517TIP3    H1 1494   3.608   5.176   3.865
  517TIP3    H2 1495   3.461   5.160   3.836
  518TIP3   OH2 1496   6.189   0.724   4.391
  518TIP3    H1 1497   6.224   0.742   4.479
  518TIP3    H2 1498   6.100   0.694   4.407
  519TIP3   OH2 1499   0.417   2.979   1.481
  519TIP3    H1 1500   0.502   2.942   1.460
  519TIP3    H2 1501   0.400   3.042   1.412
  520TIP3   OH2 1502   1.829   7.402   6.366
  520TIP3    H1 1503   1.787   7.317   6.378
  520TIP3    H2 1504   1.836   7.411   6.271
  521TIP3   OH2 1505   0.828   1.948   0.067
  521TIP3    H1 1506   0.892   1.954  -0.004
  521TIP3    H2 1507   0.744   1.934   0.023
  522TIP3   OH2 1508   4.873   6.066   2.447
  522TIP3    H1 1509   4.840   6.126   2.515
  522TIP3    H2 1510   4.847   5.979   2.478
  523TIP3   OH2 1511   3.108   1.279   3.358
  523TIP3    H1 1512   3.165   1.271   3.281
  523TIP3    H2 1513   3.149   1.222   3.423
  524TIP3   OH2 1514   5.244   3.988   2.437
  524TIP3    H1 1515   5.317   3.955   2.385
  524TIP3    H2 1516   5.217   4.069   2.393
  525TIP3   OH2 1517   7.780   6.453   3.442
  525TIP3    H1 1518   7.763   6.508   3.365
  525TIP3    H2 1519   7.866   6.414   3.426
  526TIP3   OH2 1520   6.879   0.941   5.873
  526TIP3    H1 1521   6.940   0.935   5.800
  526TIP3    H2 1522   6.901   1.024   5.916
  527TIP3   OH2 1523   6.228   7.529   4.403
  527TIP3    H1 1524   6.177   7.466   4.352
  527TIP3    H2 1525   6.301   7.553   4.346
  528TIP3   OH2 1526   2.384   4.261   4.864
  528TIP3    H1 1527   2.447   4.218   4.805
  528TIP3    H2 1528   2.356   4.339   4.817
  529TIP3   OH2 1529   8.022   5.574   5.377
  529TIP3    H1 1530   7.955   5.513   5.348
  529TIP3    H2 1531   7.975   5.642   5.424
  530TIP3   OH2 1532   5.412   5.433   0.146
  530TIP3    H1 1533   5.435   5.425   0.239
  530TIP3    H2 1534   5.488   5.476   0.106
  531TIP3   OH2 1535   5.229   0.835   5.772
  531TIP3    H1 1536   5.292   0.780   5.725
  531TIP3    H2 1537   5.168   0.773   5.812
  532TIP3   OH2 1538   7.497   3.524   4.392
  532TIP3    H1 1539   7.488   3.610   4.431
  532TIP3    H2 1540   7.424   3.473   4.428
  533TIP3   OH2 1541   5.602   3.900   4.763
  533TIP3    H1 1542   5.673   3.963   4.757
  533TIP3    H2 1543   5.613   3.842   4.688
  534TIP3   OH2 1544   5.437   2.877   5.264
  534TIP3    H1 1545   5.345   2.874   5.238
  534TIP3    H2 1546   5.456   2.788   5.294
  535TIP3   OH2 1547   8.208   2.421   2.790
  535TIP3    H1 1548   8.223   2.420   2.696
  535TIP3    H2 1549   8.296   2.411   2.828
  536TIP3   OH2 1550   5.176   0.829   0.164
  536TIP3    H1 1551   5.246   0.881   0.125
  536TIP3    H2 1552   5.095   0.874   0.138
  537TIP3   OH2 1553   5.366   5.232   1.237
  537TIP3    H1 1554   5.332   5.246   1.325
  537TIP3    H2 1555   5.442   5.289   1.231
  538TIP3   OH2 1556   1.460   7.025   4.884
  538TIP3    H1 1557   1.408   7.078   4.823
  538TIP3    H2 1558   1.395   6.979   4.937
  539TIP3   OH2 1559   3.894   6.863   0.123
  539TIP3    H1 1560   3.905   6.786   0.179
  539TIP3    H2 1561   3.847   6.925   0.178
  540TIP3   OH2 1562   1.059   0.992   5.672
  540TIP3    H1 1563   1.027   0.921   5.727
  540TIP3    H2 1564   1.153   0.995   5.688
  541TIP3   OH2 1565   1.912   7.530   1.138
  541TIP3    H1 1566   2.000   7.536   1.101
  541TIP3    H2 1567   1.854   7.530   1.063
  542TIP3   OH2 1568   5.537   6.216   4.557
  542TIP3    H1 1569   5.596   6.181   4.491
  542TIP3    H2 1570   5.593   6.270   4.613
  543TIP3   OH2 1571   3.855   1.971   1.676
  543TIP3    H1 1572   3.867   2.028   1.599
  543TIP3    H2 1573   3.780   1.916   1.653
  544TIP3   OH2 1574   7.252   5.823   4.951
  544TIP3    H1 1575   7.316   5.752   4.960
  544TIP3    H2 1576   7.203   5.801   4.871
  545TIP3   OH2 1577   3.096   4.972   3.230
  545TIP3    H1 1578   3.162   4.940   3.291
  545TIP3    H2 1579   3.021   4.913   3.241
  546TIP3   OH2 1580   7.689   3.126   4.485
  546TIP3    H1 1581   7.743   3.193   4.442
  546TIP3    H2 1582   7.692   3.149   4.578
  547TIP3   OH2 1583   6.959   7.672   0.665
  547TIP3    H1 1584   6.960   7.614   0.589
  547TIP3    H2 1585   7.016   7.630   0.728
  548TIP3   OH2 1586   1.573   1.755   1.944
  548TIP3    H1 1587   1.638   1.784   1.880
  548TIP3    H2 1588   1.612   1.776   2.029
  549TIP3   OH2 1589   1.449   3.739   3.122
  549TIP3    H1 1590   1.544   3.751   3.111
  549TIP3    H2 1591   1.412   3.826   3.104
  550TIP3   OH2 1592   5.081   7.333   4.848
  550TIP3    H1 1593   5.094   7.385   4.928
  550TIP3    H2 1594   5.128   7.251   4.865
  551TIP3   OH2 1595   0.022   4.659   2.213
  551TIP3    H1 1596   0.030   4.599   2.287
  551TIP3    H2 1597   0.111   4.690   2.198
  552TIP3   OH2 1598   0.736   2.686   1.154
  552TIP3    H1 1599   0.721   2.669   1.247
  552TIP3    H2 1600   0.827   2.660   1.140
  553TIP3   OH2 1601   3.466   7.517   1.422
  553TIP3    H1 1602   3.530   7.514   1.494
  553TIP3    H2 1603   3.453   7.426   1.398
  554TIP3   OH2 1604   2.812   5.093   1.215
  554TIP3    H1 1605   2.825   5.186   1.230
  554TIP3    H2 1606   2.751   5.088   1.142
  555TIP3   OH2 1607   2.676   7.257   1.457
  555TIP3    H1 1608   2.702   7.229   1.369
  555TIP3    H2 1609   2.641   7.178   1.498
  556TIP3   OH2 1610   8.089   7.800   0.253
  556TIP3    H1 1611   8.015   7.819   0.310
  556TIP3    H2 1612   8.052   7.750   0.181
  557TIP3   OH2 1613   1.402   4.876   6.390
  557TIP3    H1 1614   1.379   4.806   6.329
  557TIP3    H2 1615   1.417   4.832   6.473
  558TIP3   OH2 1616   6.032   3.222   1.607
  558TIP3    H1 1617   6.106   3.260   1.559
  558TIP3    H2 1618   5.990   3.164   1.543
  559TIP3   OH2 1619   2.890   6.800   6.551
  559TIP3    H1 1620   2.944   6.737   6.502
  559TIP3    H2 1621   2.821   6.825   6.489
  560TIP3   OH2 1622   3.200   0.829   4.611
  560TIP3    H1 1623   3.237   0.741   4.620
  560TIP3    H2 1624   3.235   0.878   4.686
  561TIP3   OH2 1625   6.683   1.420   0.043
  561TIP3    H1 1626   6.685   1.329   0.014
  561TIP3    H2 1627   6.601   1.428   0.092
  562TIP3   OH2 1628   2.921   1.212   3.186
  562TIP3    H1 1629   2.904   1.287   3.130
  562TIP3    H2 1630   2.978   1.245   3.255
  563TIP3   OH2 1631   5.241   2.269   6.771
  563TIP3    H1 1632   5.307   2.214   6.813
  563TIP3    H2 1633   5.244   2.245   6.679
  564TIP3   OH2 1634   6.705   3.642   4.185
  564TIP3    H1 1635   6.769   3.582   4.223
  564TIP3    H2 1636   6.737   3.658   4.096
  565TIP3   OH2 1637   5.469   4.634   1.200
  565TIP3    H1 1638   5.393   4.631   1.143
  565TIP3    H2 1639   5.536   4.681   1.149
  566TIP3   OH2 1640   4.769   4.042   1.315
  566TIP3    H1 1641   4.769   4.119   1.372
  566TIP3    H2 1642   4.689   4.049   1.264
  567TIP3   OH2 1643   0.385   1.312   4.753
  567TIP3    H1 1644   0.476   1.338   4.765
  567TIP3    H2 1645   0.367   1.331   4.661
  568TIP3   OH2 1646   4.031   6.692   6.288
  568TIP3    H1 1647   4.030   6.712   6.381
  568TIP3    H2 1648   3.994   6.769   6.246
  569TIP3   OH2 1649   4.378   0.966   3.535
  569TIP3    H1 1650   4.334   0.926   3.461
  569TIP3    H2 1651   4.392   0.895   3.597
  570TIP3   OH2 1652   7.752   1.205   0.781
  570TIP3    H1 1653   7.669   1.203   0.828
  570TIP3    H2 1654   7.782   1.114   0.781
  571TIP3   OH2 1655   7.987   3.839   3.388
  571TIP3    H1 1656   7.909   3.872   3.344
  571TIP3    H2 1657   7.955   3.771   3.448
  572TIP3   OH2 1658   0.296   0.558   3.746
  572TIP3    H1 1659   0.375   0.531   3.700
  572TIP3    H2 1660   0.258   0.627   3.691
  573TIP3   OH2 1661   5.126   1.065   3.292
  573TIP3    H1 1662   5.044   1.052   3.339
  573TIP3    H2 1663   5.166   0.978   3.289
  574TIP3   OH2 1664   1.697   4.757   2.544
  574TIP3    H1 1665   1.778   4.710   2.524
  574TIP3    H2 1666   1.706   4.841   2.499
  575TIP3   OH2 1667   6.145   0.630   5.362
  575TIP3    H1 1668   6.198   0.550   5.353
  575TIP3    H2 1669   6.209   0.700   5.376
  576TIP3   OH2 1670   3.048   6.005   3.665
  576TIP3    H1 1671   3.132   6.028   3.626
  576TIP3    H2 1672   2.998   5.967   3.593
  577TIP3   OH2 1673   1.793   1.356   0.004
  577TIP3    H1 1674   1.817   1.279   0.056
  577TIP3    H2 1675   1.745   1.412   0.065
  578TIP3   OH2 1676   8.253   0.454   2.033
  578TIP3    H1 1677   8.291   0.477   1.948
  578TIP3    H2 1678   8.244   0.358   2.029
  579TIP3   OH2 1679   1.780   2.983   1.210
  579TIP3    H1 1680   1.686   2.970   1.224
  579TIP3    H2 1681   1.801   2.925   1.137
  580TIP3   OH2 1682   6.142   0.610   1.075
  580TIP3    H1 1683   6.160   0.611   0.981
  580TIP3    H2 1684   6.226   0.585   1.115
  581TIP3   OH2 1685   2.619   2.597   5.310
  581TIP3    H1 1686   2.533   2.583   5.348
  581TIP3    H2 1687   2.618   2.687   5.279
  582TIP3   OH2 1688   0.729   2.750   2.440
  582TIP3    H1 1689   0.755   2.669   2.397
  582TIP3    H2 1690   0.752   2.738   2.532
  583TIP3   OH2 1691   4.794   6.227   4.762
  583TIP3    H1 1692   4.875   6.198   4.720
  583TIP3    H2 1693   4.752   6.146   4.792
  584TIP3   OH2 1694   2.203   1.606   5.432
  584TIP3    H1 1695   2.159   1.657   5.364
  584TIP3    H2 1696   2.175   1.647   5.514
  585TIP3   OH2 1697   2.798   4.957   5.882
  585TIP3    H1 1698   2.758   4.890   5.937
  585TIP3    H2 1699   2.797   4.920   5.794
  586TIP3   OH2 1700   7.088   1.570   1.995
  586TIP3    H1 1701   7.015   1.512   2.017
  586TIP3    H2 1702   7.089   1.571   1.899
  587TIP3   OH2 1703   4.229   5.665   6.153
  587TIP3    H1 1704   4.324   5.666   6.143
  587TIP3    H2 1705   4.208   5.752   6.189
  588TIP3   OH2 1706   7.474   6.013   5.325
  588TIP3    H1 1707   7.480   5.917   5.322
  588TIP3    H2 1708   7.431   6.036   5.243
  589TIP3   OH2 1709   3.213   0.241   1.136
  589TIP3    H1 1710   3.196   0.174   1.201
  589TIP3    H2 1711   3.163   0.214   1.059
  590TIP3   OH2 1712   2.562   0.529   5.309
  590TIP3    H1 1713   2.501   0.466   5.273
  590TIP3    H2 1714   2.518   0.614   5.301
  591TIP3   OH2 1715   0.037   1.581   3.671
  591TIP3    H1 1716   0.003   1.619   3.590
  591TIP3    H2 1717  -0.025   1.611   3.739
  592TIP3   OH2 1718   2.998   7.111   0.135
  592TIP3    H1 1719   2.940   7.175   0.093
  592TIP3    H2 1720   2.984   7.031   0.085
  593TIP3   OH2 1721   4.369   1.216   2.464
  593TIP3    H1 1722   4.279   1.216   2.496
  593TIP3    H2 1723   4.395   1.124   2.465
  594TIP3   OH2 1724   2.821   3.189   5.639
  594TIP3    H1 1725   2.896   3.147   5.597
  594TIP3    H2 1726   2.786   3.247   5.572
  595TIP3   OH2 1727   7.226   1.761   1.257
  595TIP3    H1 1728   7.209   1.831   1.195
  595TIP3    H2 1729   7.153   1.763   1.318
  596TIP3   OH2 1730   6.580   5.703   0.439
  596TIP3    H1 1731   6.655   5.649   0.464
  596TIP3    H2 1732   6.588   5.782   0.492
  597TIP3   OH2 1733   1.658   6.063   2.202
  597TIP3    H1 1734   1.677   6.063   2.296
  597TIP3    H2 1735   1.616   6.147   2.186
  598TIP3   OH2 1736   3.083   7.347   6.517
  598TIP3    H1 1737   3.022   7.412   6.482
  598TIP3    H2 1738   3.077   7.356   6.612
  599TIP3   OH2 1739   0.818   4.691   5.713
  599TIP3    H1 1740   0.739   4.724   5.755
  599TIP3    H2 1741   0.879   4.764   5.715
  600TIP3   OH2 1742   3.732   4.117   2.257
  600TIP3    H1 1743   3.649   4.134   2.214
  600TIP3    H2 1744   3.709   4.095   2.347
  601TIP3   OH2 1745   5.335   3.410   4.947
  601TIP3    H1 1746   5.381   3.494   4.937
  601TIP3    H2 1747   5.301   3.411   5.036
  602TIP3   OH2 1748   3.635   1.887   5.902
  602TIP3    H1 1749   3.620   1.927   5.817
  602TIP3    H2 1750   3.726   1.858   5.900
  603TIP3   OH2 1751   6.216   5.500   4.395
  603TIP3    H1 1752   6.172   5.561   4.336
  603TIP3    H2 1753   6.181   5.522   4.482
  604TIP3   OH2 1754   0.729   2.207   2.847
  604TIP3    H1 1755   0.683   2.160   2.778
  604TIP3    H2 1756   0.728   2.147   2.922
  605TIP3   OH2 1757   6.932   5.709   0.603
  605TIP3    H1 1758   6.893   5.744   0.683
  605TIP3    H2 1759   6.922   5.614   0.611
  606TIP3   OH2 1760   0.353   3.768   2.135
  606TIP3    H1 1761   0.258   3.774   2.138
  606TIP3    H2 1762   0.383   3.832   2.200
  607TIP3   OH2 1763   4.504   5.525   3.053
  607TIP3    H1 1764   4.506   5.441   3.007
  607TIP3    H2 1765   4.556   5.510   3.132
  608TIP3   OH2 1766   7.741   7.433   5.048
  608TIP3    H1 1767   7.828   7.430   5.010
  608TIP3    H2 1768   7.747   7.496   5.119
  609TIP3   OH2 1769   1.932   6.902   0.028
  609TIP3    H1 1770   1.882   6.852   0.092
  609TIP3    H2 1771   1.872   6.971  -0.001
  610TIP3   OH2 1772   7.475   2.541   6.446
  610TIP3    H1 1773   7.488   2.481   6.519
  610TIP3    H2 1774   7.380   2.546   6.435
  611TIP3   OH2 1775   3.581   0.489   3.764
  611TIP3    H1 1776   3.594   0.460   3.854
  611TIP3    H2 1777   3.552   0.411   3.717
  612TIP3   OH2 1778   1.991   6.674   2.782
  612TIP3    H1 1779   2.014   6.667   2.875
  612TIP3    H2 1780   1.913   6.728   2.780
  613TIP3   OH2 1781   0.025   0.337   4.008
  613TIP3    H1 1782   0.033   0.293   4.093
  613TIP3    H2 1783   0.004   0.428   4.029
  614TIP3   OH2 1784   6.670   7.541   6.576
  614TIP3    H1 1785   6.682   7.497   6.492
  614TIP3    H2 1786   6.754   7.530   6.621
  615TIP3   OH2 1787   4.515   3.980   0.526
  615TIP3    H1 1788   4.454   3.982   0.453
  615TIP3    H2 1789   4.477   3.919   0.589
  616TIP3   OH2 1790   7.866   1.906   5.256
  616TIP3    H1 1791   7.883   1.957   5.177
  616TIP3    H2 1792   7.837   1.821   5.223
  617TIP3   OH2 1793   7.717   0.554   3.754
  617TIP3    H1 1794   7.735   0.523   3.665
  617TIP3    H2 1795   7.799   0.541   3.801
  618TIP3   OH2 1796   5.745   4.901   4.073
  618TIP3    H1 1797   5.820   4.960   4.058
  618TIP3    H2 1798   5.717   4.875   3.985
  619TIP3   OH2 1799   5.733   1.130   0.296
  619TIP3    H1 1800   5.733   1.190   0.370
  619TIP3    H2 1801   5.825   1.125   0.269
  620TIP3   OH2 1802   1.013   3.135   5.679
  620TIP3    H1 1803   1.068   3.069   5.722
  620TIP3    H2 1804   0.988   3.195   5.749
  621TIP3   OH2 1805   4.166   4.149   1.568
  621TIP3    H1 1806   4.226   4.075   1.571
  621TIP3    H2 1807   4.088   4.115   1.524
  622TIP3   OH2 1808   7.083   5.498   4.606
  622TIP3    H1 1809   7.070   5.523   4.698
  622TIP3    H2 1810   7.008   5.536   4.561
  623TIP3   OH2 1811   7.964   4.467   6.453
  623TIP3    H1 1812   7.872   4.481   6.475
  623TIP3    H2 1813   8.002   4.555   6.449
  624TIP3   OH2 1814   6.518   3.792   4.318
  624TIP3    H1 1815   6.432   3.769   4.283
  624TIP3    H2 1816   6.578   3.731   4.276
  625TIP3   OH2 1817   0.462   6.049   1.212
  625TIP3    H1 1818   0.415   6.018   1.290
  625TIP3    H2 1819   0.490   6.138   1.235
  626TIP3   OH2 1820   6.951   2.067   2.097
  626TIP3    H1 1821   6.889   2.028   2.160
  626TIP3    H2 1822   6.971   1.995   2.037
  627TIP3   OH2 1823   2.098   1.334   3.519
  627TIP3    H1 1824   2.057   1.352   3.603
  627TIP3    H2 1825   2.029   1.295   3.466
  628TIP3   OH2 1826   2.169   4.858   5.129
  628TIP3    H1 1827   2.223   4.886   5.055
  628TIP3    H2 1828   2.150   4.939   5.177
  629TIP3   OH2 1829   2.454   4.454   5.071
  629TIP3    H1 1830   2.456   4.375   5.017
  629TIP3    H2 1831   2.544   4.486   5.070
  630TIP3   OH2 1832   1.441   6.864   6.072
  630TIP3    H1 1833   1.455   6.903   5.986
  630TIP3    H2 1834   1.348   6.842   6.074
  631TIP3   OH2 1835   5.093   2.976   0.124
  631TIP3    H1 1836   5.031   2.979   0.052
  631TIP3    H2 1837   5.046   2.933   0.195
  632TIP3   OH2 1838   6.678   5.114   6.499
  632TIP3    H1 1839   6.660   5.142   6.409
  632TIP3    H2 1840   6.761   5.067   6.494
  633TIP3   OH2 1841   1.038   6.833   5.803
  633TIP3    H1 1842   1.096   6.906   5.780
  633TIP3    H2 1843   1.051   6.820   5.897
  634TIP3   OH2 1844   2.367   4.927   1.663
  634TIP3    H1 1845   2.359   5.016   1.626
  634TIP3    H2 1846   2.433   4.936   1.732
  635TIP3   OH2 1847   1.500   4.602   1.931
  635TIP3    H1 1848   1.445   4.655   1.874
  635TIP3    H2 1849   1.529   4.530   1.875
  636TIP3   OH2 1850   4.752   4.720   0.998
  636TIP3    H1 1851   4.707   4.638   0.982
  636TIP3    H2 1852   4.765   4.758   0.912
  637TIP3   OH2 1853   8.046   7.585   3.591
  637TIP3    H1 1854   7.956   7.617   3.594
  637TIP3    H2 1855   8.083   7.608   3.676
  638TIP3   OH2 1856   2.422   5.137   3.384
  638TIP3    H1 1857   2.341   5.122   3.336
  638TIP3    H2 1858   2.394   5.179   3.466
  639TIP3   OH2 1859   6.356   2.207   1.575
  639TIP3    H1 1860   6.408   2.287   1.562
  639TIP3    H2 1861   6.410   2.137   1.539
  640TIP3   OH2 1862   7.317   5.875   5.611
  640TIP3    H1 1863   7.252   5.939   5.642
  640TIP3    H2 1864   7.361   5.845   5.691
  641TIP3   OH2 1865   0.652   0.293   1.294
  641TIP3    H1 1866   0.695   0.305   1.209
  641TIP3    H2 1867   0.700   0.221   1.335
  642TIP3   OH2 1868   4.145   3.300   3.351
  642TIP3    H1 1869   4.175   3.371   3.407
  642TIP3    H2 1870   4.167   3.328   3.262
  643TIP3   OH2 1871   7.585   5.891   3.348
  643TIP3    H1 1872   7.674   5.924   3.363
  643TIP3    H2 1873   7.569   5.906   3.255
  644TIP3   OH2 1874   7.084   6.377   1.225
  644TIP3    H1 1875   7.142   6.301   1.219
  644TIP3    H2 1876   7.140   6.452   1.206
  645TIP3   OH2 1877   0.366   0.041   0.155
  645TIP3    H1 1878   0.354   0.131   0.187
  645TIP3    H2 1879   0.458   0.022   0.175
  646TIP3   OH2 1880   3.642   7.792   1.346
  646TIP3    H1 1881   3.624   7.769   1.437
  646TIP3    H2 1882   3.624   7.713   1.296
  647TIP3   OH2 1883   4.858   0.207   3.725
  647TIP3    H1 1884   4.911   0.280   3.756
  647TIP3    H2 1885   4.801   0.246   3.659
  648TIP3   OH2 1886   8.082   5.155   1.590
  648TIP3    H1 1887   8.054   5.240   1.555
  648TIP3    H2 1888   8.006   5.123   1.639
  649TIP3   OH2 1889   5.984   3.219   4.277
  649TIP3    H1 1890   6.075   3.205   4.251
  649TIP3    H2 1891   5.947   3.131   4.285
  650TIP3   OH2 1892   3.499   5.591   2.621
  650TIP3    H1 1893   3.540   5.555   2.700
  650TIP3    H2 1894   3.407   5.600   2.644
  651TIP3   OH2 1895   0.689   1.863   5.535
  651TIP3    H1 1896   0.632   1.911   5.595
  651TIP3    H2 1897   0.732   1.932   5.484
  652TIP3   OH2 1898   5.391   0.310   2.741
  652TIP3    H1 1899   5.391   0.398   2.778
  652TIP3    H2 1900   5.426   0.254   2.811
  653TIP3   OH2 1901   4.442   4.609   2.401
  653TIP3    H1 1902   4.407   4.637   2.486
  653TIP3    H2 1903   4.392   4.531   2.379
  654TIP3   OH2 1904   7.803   4.616   0.143
  654TIP3    H1 1905   7.807   4.703   0.103
  654TIP3    H2 1906   7.789   4.633   0.237
  655TIP3   OH2 1907   3.366   2.595   5.833
  655TIP3    H1 1908   3.288   2.578   5.885
  655TIP3    H2 1909   3.421   2.517   5.844
  656TIP3   OH2 1910   4.438   7.511   0.009
  656TIP3    H1 1911   4.404   7.423  -0.011
  656TIP3    H2 1912   4.361   7.567   0.009
  657TIP3   OH2 1913   3.430   0.256   2.159
  657TIP3    H1 1914   3.510   0.203   2.157
  657TIP3    H2 1915   3.449   0.329   2.100
  658TIP3   OH2 1916   3.763   5.713   4.366
  658TIP3    H1 1917   3.748   5.707   4.461
  658TIP3    H2 1918   3.698   5.776   4.336
  659TIP3   OH2 1919   0.991   6.202   2.243
  659TIP3    H1 1920   0.922   6.223   2.180
  659TIP3    H2 1921   1.012   6.110   2.226
  660TIP3   OH2 1922   6.524   2.925   0.987
  660TIP3    H1 1923   6.464   2.965   0.924
  660TIP3    H2 1924   6.604   2.910   0.937
  661TIP3   OH2 1925   7.535   3.226   0.401
  661TIP3    H1 1926   7.523   3.314   0.438
  661TIP3    H2 1927   7.616   3.232   0.349
  662TIP3   OH2 1928   2.079   4.977   5.515
  662TIP3    H1 1929   2.063   5.063   5.554
  662TIP3    H2 1930   2.169   4.956   5.540
  663TIP3   OH2 1931   0.672   1.814   3.891
  663TIP3    H1 1932   0.625   1.753   3.834
  663TIP3    H2 1933   0.667   1.774   3.978
  664TIP3   OH2 1934   7.822   3.920   2.119
  664TIP3    H1 1935   7.785   3.956   2.039
  664TIP3    H2 1936   7.795   3.828   2.120
  665TIP3   OH2 1937   7.589   2.783   0.146
  665TIP3    H1 1938   7.606   2.856   0.087
  665TIP3    H2 1939   7.596   2.705   0.090
  666TIP3   OH2 1940   6.896   2.506   3.794
  666TIP3    H1 1941   6.944   2.542   3.720
  666TIP3    H2 1942   6.885   2.413   3.773
  667TIP3   OH2 1943   5.996   4.916   0.525
  667TIP3    H1 1944   5.905   4.886   0.523
  667TIP3    H2 1945   6.016   4.924   0.618
  668TIP3   OH2 1946   0.738   4.610   0.626
  668TIP3    H1 1947   0.682   4.539   0.655
  668TIP3    H2 1948   0.825   4.587   0.658
  669TIP3   OH2 1949   5.162   2.700   6.418
  669TIP3    H1 1950   5.248   2.673   6.451
  669TIP3    H2 1951   5.179   2.731   6.329
  670TIP3   OH2 1952   6.469   4.265   2.388
  670TIP3    H1 1953   6.490   4.340   2.444
  670TIP3    H2 1954   6.373   4.257   2.395
  671TIP3   OH2 1955   2.725   4.211   2.169
  671TIP3    H1 1956   2.715   4.306   2.162
  671TIP3    H2 1957   2.722   4.180   2.079
  672TIP3   OH2 1958   2.574   6.711   5.659
  672TIP3    H1 1959   2.593   6.622   5.629
  672TIP3    H2 1960   2.490   6.703   5.705
  673TIP3   OH2 1961   2.393   2.933   5.466
  673TIP3    H1 1962   2.321   2.872   5.485
  673TIP3    H2 1963   2.349   3.017   5.449
  674TIP3   OH2 1964   3.507   6.095   6.541
  674TIP3    H1 1965   3.547   6.163   6.595
  674TIP3    H2 1966   3.569   6.082   6.469
  675TIP3   OH2 1967   0.183   3.845   5.293
  675TIP3    H1 1968   0.118   3.899   5.249
  675TIP3    H2 1969   0.224   3.794   5.223
  676TIP3   OH2 1970   7.286   6.476   4.403
  676TIP3    H1 1971   7.359   6.417   4.426
  676TIP3    H2 1972   7.259   6.448   4.316
  677TIP3   OH2 1973   6.378   0.029   0.101
  677TIP3    H1 1974   6.302   0.049   0.156
  677TIP3    H2 1975   6.387  -0.066   0.107
  678TIP3   OH2 1976   0.726   1.189   4.264
  678TIP3    H1 1977   0.790   1.137   4.215
  678TIP3    H2 1978   0.664   1.125   4.299
  679TIP3   OH2 1979   7.934   3.177   1.459
  679TIP3    H1 1980   7.846   3.140   1.470
  679TIP3    H2 1981   7.987   3.135   1.527
  680TIP3   OH2 1982   2.189   7.783   2.555
  680TIP3    H1 1983   2.144   7.767   2.472
  680TIP3    H2 1984   2.203   7.877   2.557
  681TIP3   OH2 1985   5.251   0.423   3.235
  681TIP3    H1 1986   5.256   0.327   3.227
  681TIP3    H2 1987   5.189   0.438   3.307
  682TIP3   OH2 1988   5.398   0.238   2.410
  682TIP3    H1 1989   5.418   0.245   2.504
  682TIP3    H2 1990   5.401   0.144   2.392
  683TIP3   OH2 1991   0.432   1.630  -0.012
  683TIP3    H1 1992   0.513   1.631  -0.062
  683TIP3    H2 1993   0.458   1.658   0.076
  684TIP3   OH2 1994   1.788   0.734   0.213
  684TIP3    H1 1995   1.772   0.640   0.222
  684TIP3    H2 1996   1.844   0.741   0.135
  685TIP3   OH2 1997   1.811   6.292   3.113
  685TIP3    H1 1998   1.752   6.278   3.186
  685TIP3    H2 1999   1.779   6.371   3.069
  686TIP3   OH2 2000   5.328   2.669   4.115
  686TIP3    H1 2001   5.305   2.702   4.202
  686TIP3    H2 2002   5.255   2.611   4.092
  687TIP3   OH2 2003   1.121   3.302   0.488
  687TIP3    H1 2004   1.046   3.267   0.441
  687TIP3    H2 2005   1.172   3.224   0.514
  688TIP3   OH2 2006   3.208   1.644   3.221
  688TIP3    H1 2007   3.175   1.596   3.298
  688TIP3    H2 2008   3.303   1.636   3.227
  689TIP3   OH2 2009   6.863   2.812   3.067
  689TIP3    H1 2010   6.834   2.807   2.976
  689TIP3    H2 2011   6.923   2.887   3.069
  690TIP3   OH2 2012   7.534   1.724   6.376
  690TIP3    H1 2013   7.558   1.816   6.387
  690TIP3    H2 2014   7.608   1.675   6.412
  691TIP3   OH2 2015   2.040   1.156   3.772
  691TIP3    H1 2016   2.134   1.174   3.768
  691TIP3    H2 2017   2.000   1.242   3.785
  692TIP3   OH2 2018   7.796   4.155  -0.022
  692TIP3    H1 2019   7.883   4.128   0.008
  692TIP3    H2 2020   7.743   4.157   0.058
  693TIP3   OH2 2021   1.832   7.651   1.672
  693TIP3    H1 2022   1.922   7.639   1.703
  693TIP3    H2 2023   1.810   7.568   1.631
  694TIP3   OH2 2024   5.101   6.782   6.269
  694TIP3    H1 2025   5.063   6.870   6.268
  694TIP3    H2 2026   5.044   6.731   6.210
  695TIP3   OH2 2027   5.185   1.376   6.529
  695TIP3    H1 2028   5.173   1.452   6.473
  695TIP3    H2 2029   5.113   1.317   6.505
  696TIP3   OH2 2030   4.618   3.795   6.134
  696TIP3    H1 2031   4.588   3.712   6.096
  696TIP3    H2 2032   4.712   3.797   6.116
  697TIP3   OH2 2033   0.156   6.178   2.396
  697TIP3    H1 2034   0.122   6.159   2.483
  697TIP3    H2 2035   0.225   6.114   2.381
  698TIP3   OH2 2036   3.947   2.640   2.877
  698TIP3    H1 2037   3.943   2.611   2.786
  698TIP3    H2 2038   3.855   2.643   2.905
  699TIP3   OH2 2039   6.603   6.978   1.433
  699TIP3    H1 2040   6.640   7.043   1.374
  699TIP3    H2 2041   6.679   6.939   1.476
  700TIP3   OH2 2042   2.049   7.131   0.706
  700TIP3    H1 2043   2.030   7.064   0.641
  700TIP3    H2 2044   2.035   7.214   0.660
  701TIP3   OH2 2045   1.204   2.499   4.423
  701TIP3    H1 2046   1.148   2.502   4.346
  701TIP3    H2 2047   1.285   2.541   4.396
  702TIP3   OH2 2048   0.053   6.610   3.831
  702TIP3    H1 2049   0.109   6.651   3.765
  702TIP3    H2 2050   0.038   6.678   3.896
  703TIP3   OH2 2051   8.047   0.968   0.160
  703TIP3    H1 2052   8.130   0.949   0.204
  703TIP3    H2 2053   8.073   0.995   0.072
  704TIP3   OH2 2054   4.525   1.995   6.222
  704TIP3    H1 2055   4.529   1.900   6.209
  704TIP3    H2 2056   4.433   2.014   6.239
  705TIP3   OH2 2057   6.986   1.069   0.371
  705TIP3    H1 2058   7.082   1.080   0.366
  705TIP3    H2 2059   6.955   1.152   0.409
  706TIP3   OH2 2060   2.555   2.229   0.487
  706TIP3    H1 2061   2.617   2.174   0.438
  706TIP3    H2 2062   2.589   2.318   0.476
  707TIP3   OH2 2063   4.968   3.395   0.765
  707TIP3    H1 2064   5.051   3.430   0.733
  707TIP3    H2 2065   4.928   3.355   0.687
  708TIP3   OH2 2066   3.945   3.782   5.845
  708TIP3    H1 2067   3.944   3.778   5.750
  708TIP3    H2 2068   4.035   3.808   5.867
  709TIP3   OH2 2069   5.349   0.773   4.719
  709TIP3    H1 2070   5.395   0.855   4.700
  709TIP3    H2 2071   5.345   0.727   4.635
  710TIP3   OH2 2072   6.167   3.236   1.345
  710TIP3    H1 2073   6.162   3.326   1.313
  710TIP3    H2 2074   6.097   3.190   1.298
  711TIP3   OH2 2075   0.251   5.785   4.981
  711TIP3    H1 2076   0.238   5.830   5.065
  711TIP3    H2 2077   0.277   5.854   4.920
  712TIP3   OH2 2078   0.963   7.499   0.383
  712TIP3    H1 2079   0.962   7.589   0.417
  712TIP3    H2 2080   0.876   7.487   0.345
  713TIP3   OH2 2081   0.911   1.531   3.090
  713TIP3    H1 2082   0.958   1.506   3.011
  713TIP3    H2 2083   0.859   1.454   3.113
  714TIP3   OH2 2084   1.207   3.189   4.172
  714TIP3    H1 2085   1.163   3.121   4.121
  714TIP3    H2 2086   1.274   3.223   4.113
  715TIP3   OH2 2087   8.001   0.122   1.845
  715TIP3    H1 2088   7.998   0.033   1.882
  715TIP3    H2 2089   7.956   0.113   1.760
  716TIP3   OH2 2090   6.570   5.786   5.488
  716TIP3    H1 2091   6.536   5.875   5.497
  716TIP3    H2 2092   6.640   5.794   5.423
  717TIP3   OH2 2093   2.184   2.240   1.931
  717TIP3    H1 2094   2.100   2.286   1.934
  717TIP3    H2 2095   2.161   2.147   1.935
  718TIP3   OH2 2096   7.263   6.482   6.208
  718TIP3    H1 2097   7.229   6.571   6.206
  718TIP3    H2 2098   7.189   6.428   6.177
  719TIP3   OH2 2099   6.502   7.290   4.824
  719TIP3    H1 2100   6.563   7.227   4.784
  719TIP3    H2 2101   6.557   7.366   4.844
  720TIP3   OH2 2102   5.880   0.926   4.579
  720TIP3    H1 2103   5.911   0.866   4.646
  720TIP3    H2 2104   5.958   0.946   4.527
  721TIP3   OH2 2105   7.981   6.251   1.563
  721TIP3    H1 2106   7.972   6.157   1.575
  721TIP3    H2 2107   7.891   6.285   1.570
  722TIP3   OH2 2108   4.873   1.432   4.475
  722TIP3    H1 2109   4.937   1.380   4.524
  722TIP3    H2 2110   4.922   1.471   4.403
  723TIP3   OH2 2111   0.888   0.794   1.829
  723TIP3    H1 2112   0.954   0.830   1.888
  723TIP3    H2 2113   0.867   0.867   1.771
  724TIP3   OH2 2114   3.118   3.081   5.689
  724TIP3    H1 2115   3.164   3.076   5.605
  724TIP3    H2 2116   3.172   3.029   5.749
  725TIP3   OH2 2117   7.228   5.104   3.942
  725TIP3    H1 2118   7.254   5.189   3.905
  725TIP3    H2 2119   7.240   5.115   4.036
  726TIP3   OH2 2120   4.739   3.481   5.416
  726TIP3    H1 2121   4.745   3.565   5.460
  726TIP3    H2 2122   4.648   3.453   5.429
  727TIP3   OH2 2123   6.545   2.311   4.506
  727TIP3    H1 2124   6.623   2.267   4.471
  727TIP3    H2 2125   6.569   2.404   4.508
  728TIP3   OH2 2126   7.995   6.358   0.706
  728TIP3    H1 2127   7.910   6.363   0.749
  728TIP3    H2 2128   7.975   6.351   0.613
  729TIP3   OH2 2129   2.927   0.723   6.675
  729TIP3    H1 2130   2.898   0.633   6.690
  729TIP3    H2 2131   2.954   0.754   6.761
  730TIP3   OH2 2132   8.271   3.587   6.216
  730TIP3    H1 2133   8.236   3.570   6.129
  730TIP3    H2 2134   8.222   3.529   6.274
  731TIP3   OH2 2135   6.766   0.204   0.154
  731TIP3    H1 2136   6.719   0.275   0.110
  731TIP3    H2 2137   6.857   0.233   0.156
  732TIP3   OH2 2138   6.404   6.821   1.557
  732TIP3    H1 2139   6.464   6.861   1.494
  732TIP3    H2 2140   6.425   6.864   1.640
  733TIP3   OH2 2141   3.505   0.108   4.950
  733TIP3    H1 2142   3.412   0.128   4.941
  733TIP3    H2 2143   3.544   0.189   4.982
  734TIP3   OH2 2144   1.010   3.969   0.191
  734TIP3    H1 2145   1.075   3.907   0.156
  734TIP3    H2 2146   0.961   3.918   0.256
  735TIP3   OH2 2147   3.382   2.303   6.114
  735TIP3    H1 2148   3.374   2.305   6.019
  735TIP3    H2 2149   3.464   2.256   6.131
  736TIP3   OH2 2150   6.928   5.528   5.336
  736TIP3    H1 2151   7.000   5.465   5.341
  736TIP3    H2 2152   6.870   5.492   5.269
  737TIP3   OH2 2153   4.372   6.510   5.444
  737TIP3    H1 2154   4.458   6.519   5.484
  737TIP3    H2 2155   4.353   6.416   5.446
  738TIP3   OH2 2156   6.065   0.616   3.227
  738TIP3    H1 2157   6.089   0.524   3.218
  738TIP3    H2 2158   5.972   0.614   3.250
  739TIP3   OH2 2159   4.236   6.362   6.785
  739TIP3    H1 2160   4.260   6.441   6.736
  739TIP3    H2 2161   4.141   6.355   6.772
  740TIP3   OH2 2162   5.685   6.270   1.221
  740TIP3    H1 2163   5.593   6.243   1.218
  740TIP3    H2 2164   5.687   6.353   1.173
  741TIP3   OH2 2165   6.696   1.978   1.668
  741TIP3    H1 2166   6.701   1.891   1.708
  741TIP3    H2 2167   6.661   2.034   1.737
  742TIP3   OH2 2168   3.392   6.443   5.552
  742TIP3    H1 2169   3.328   6.490   5.606
  742TIP3    H2 2170   3.390   6.353   5.586
  743TIP3   OH2 2171   3.058   7.014   5.653
  743TIP3    H1 2172   2.966   6.991   5.646
  743TIP3    H2 2173   3.079   7.055   5.569
  744TIP3   OH2 2174   6.395   5.497   0.321
  744TIP3    H1 2175   6.443   5.541   0.392
  744TIP3    H2 2176   6.367   5.569   0.264
  745TIP3   OH2 2177   3.655   6.724   1.332
  745TIP3    H1 2178   3.675   6.630   1.336
  745TIP3    H2 2179   3.680   6.749   1.243
  746TIP3   OH2 2180   8.256   5.080   1.366
  746TIP3    H1 2181   8.191   5.115   1.427
  746TIP3    H2 2182   8.211   5.079   1.281
  747TIP3   OH2 2183   0.830   0.352   1.084
  747TIP3    H1 2184   0.820   0.429   1.027
  747TIP3    H2 2185   0.911   0.311   1.054
  748TIP3   OH2 2186   6.084   2.862   2.497
  748TIP3    H1 2187   6.150   2.851   2.565
  748TIP3    H2 2188   6.122   2.923   2.435
  749TIP3   OH2 2189   3.445   7.462   1.729
  749TIP3    H1 2190   3.360   7.504   1.717
  749TIP3    H2 2191   3.457   7.459   1.824
  750TIP3   OH2 2192   3.348   4.199   5.935
  750TIP3    H1 2193   3.267   4.249   5.942
  750TIP3    H2 2194   3.416   4.265   5.923
  751TIP3   OH2 2195   1.638   0.207   0.245
  751TIP3    H1 2196   1.597   0.153   0.312
  751TIP3    H2 2197   1.702   0.150   0.203
  752TIP3   OH2 2198   7.347   6.184   0.272
  752TIP3    H1 2199   7.372   6.265   0.316
  752TIP3    H2 2200   7.356   6.116   0.340
  753TIP3   OH2 2201   7.348   4.398   0.059
  753TIP3    H1 2202   7.351   4.349  -0.023
  753TIP3    H2 2203   7.270   4.366   0.104
  754TIP3   OH2 2204   5.530   2.856   6.652
  754TIP3    H1 2205   5.613   2.840   6.607
  754TIP3    H2 2206   5.477   2.905   6.589
  755TIP3   OH2 2207   5.021   2.250   5.311
  755TIP3    H1 2208   4.984   2.283   5.229
  755TIP3    H2 2209   4.947   2.213   5.358
  756TIP3   OH2 2210   3.935   0.878   1.769
  756TIP3    H1 2211   3.949   0.826   1.848
  756TIP3    H2 2212   4.004   0.944   1.771
  757TIP3   OH2 2213   7.276   4.630   4.132
  757TIP3    H1 2214   7.306   4.697   4.070
  757TIP3    H2 2215   7.228   4.567   4.078
  758TIP3   OH2 2216   2.164   0.364   0.394
  758TIP3    H1 2217   2.207   0.361   0.480
  758TIP3    H2 2218   2.147   0.273   0.372
  759TIP3   OH2 2219   4.622   4.559   6.456
  759TIP3    H1 2220   4.707   4.561   6.411
  759TIP3    H2 2221   4.574   4.634   6.419
  760TIP3   OH2 2222   0.713   3.112   3.038
  760TIP3    H1 2223   0.799   3.090   3.074
  760TIP3    H2 2224   0.662   3.142   3.114
  761TIP3   OH2 2225   5.138   4.444   5.695
  761TIP3    H1 2226   5.043   4.440   5.705
  761TIP3    H2 2227   5.153   4.434   5.600
  762TIP3   OH2 2228   4.566   6.380   6.182
  762TIP3    H1 2229   4.580   6.456   6.127
  762TIP3    H2 2230   4.640   6.322   6.164
  763TIP3   OH2 2231   5.684   4.518   2.806
  763TIP3    H1 2232   5.630   4.441   2.792
  763TIP3    H2 2233   5.723   4.504   2.892
  764TIP3   OH2 2234   1.562   5.641   2.481
  764TIP3    H1 2235   1.607   5.695   2.546
  764TIP3    H2 2236   1.631   5.618   2.418
  765TIP3   OH2 2237   6.037   2.162   4.460
  765TIP3    H1 2238   5.987   2.220   4.402
  765TIP3    H2 2239   6.121   2.207   4.472
  766TIP3   OH2 2240   1.107   5.389   6.555
  766TIP3    H1 2241   1.069   5.306   6.525
  766TIP3    H2 2242   1.148   5.368   6.638
  767TIP3   OH2 2243   7.881   6.935   2.205
  767TIP3    H1 2244   7.831   7.002   2.251
  767TIP3    H2 2245   7.907   6.976   2.122
  768TIP3   OH2 2246   5.543   4.232   4.860
  768TIP3    H1 2247   5.567   4.293   4.930
  768TIP3    H2 2248   5.612   4.242   4.795
  769TIP3   OH2 2249   4.615   6.425   4.798
  769TIP3    H1 2250   4.548   6.408   4.731
  769TIP3    H2 2251   4.688   6.368   4.773
  770TIP3   OH2 2252   4.778   3.606   3.385
  770TIP3    H1 2253   4.783   3.651   3.301
  770TIP3    H2 2254   4.870   3.598   3.413
  771TIP3   OH2 2255   5.339   0.344   2.172
  771TIP3    H1 2256   5.358   0.316   2.261
  771TIP3    H2 2257   5.385   0.281   2.116
  772TIP3   OH2 2258   7.522   2.441   3.539
  772TIP3    H1 2259   7.538   2.523   3.584
  772TIP3    H2 2260   7.604   2.422   3.493
  773TIP3   OH2 2261   6.865   1.980   1.070
  773TIP3    H1 2262   6.826   1.902   1.031
  773TIP3    H2 2263   6.821   1.989   1.154
  774TIP3   OH2 2264   8.317   6.087   5.872
  774TIP3    H1 2265   8.248   6.049   5.818
  774TIP3    H2 2266   8.272   6.114   5.952
  775TIP3   OH2 2267   6.324   7.645   3.265
  775TIP3    H1 2268   6.302   7.710   3.332
  775TIP3    H2 2269   6.327   7.562   3.312
  776TIP3   OH2 2270   1.226   6.648   6.297
  776TIP3    H1 2271   1.200   6.704   6.370
  776TIP3    H2 2272   1.213   6.559   6.329
  777TIP3   OH2 2273   5.789   1.147   3.434
  777TIP3    H1 2274   5.806   1.136   3.341
  777TIP3    H2 2275   5.873   1.132   3.476
  778TIP3   OH2 2276   6.735   1.349   0.953
  778TIP3    H1 2277   6.738   1.444   0.942
  778TIP3    H2 2278   6.645   1.330   0.979
  779TIP3   OH2 2279   4.743   3.651   0.702
  779TIP3    H1 2280   4.679   3.606   0.757
  779TIP3    H2 2281   4.743   3.741   0.734
  780TIP3   OH2 2282   1.439   2.176   3.421
  780TIP3    H1 2283   1.383   2.216   3.354
  780TIP3    H2 2284   1.516   2.146   3.373
  781TIP3   OH2 2285   1.010   2.671   1.003
  781TIP3    H1 2286   0.977   2.582   0.994
  781TIP3    H2 2287   1.009   2.707   0.914
  782TIP3   OH2 2288   5.990   7.224   1.266
  782TIP3    H1 2289   5.946   7.296   1.221
  782TIP3    H2 2290   6.069   7.208   1.214
  783TIP3   OH2 2291   4.844   0.614   6.415
  783TIP3    H1 2292   4.751   0.607   6.394
  783TIP3    H2 2293   4.846   0.648   6.504
  784TIP3   OH2 2294   2.823   7.497   5.492
  784TIP3    H1 2295   2.887   7.433   5.521
  784TIP3    H2 2296   2.875   7.572   5.464
  785TIP3   OH2 2297   4.038   5.873   3.691
  785TIP3    H1 2298   4.093   5.840   3.762
  785TIP3    H2 2299   3.954   5.890   3.732
  786TIP3   OH2 2300   3.548   0.707   1.601
  786TIP3    H1 2301   3.590   0.715   1.686
  786TIP3    H2 2302   3.497   0.788   1.592
  787TIP3   OH2 2303   6.314   4.982   1.882
  787TIP3    H1 2304   6.245   4.931   1.924
  787TIP3    H2 2305   6.268   5.051   1.834
  788TIP3   OH2 2306   1.796   5.198   5.254
  788TIP3    H1 2307   1.767   5.236   5.337
  788TIP3    H2 2308   1.746   5.117   5.245
  789TIP3   OH2 2309   7.345   0.292   6.657
  789TIP3    H1 2310   7.374   0.265   6.744
  789TIP3    H2 2311   7.382   0.226   6.597
  790TIP3   OH2 2312   7.169   5.690   1.253
  790TIP3    H1 2313   7.149   5.776   1.288
  790TIP3    H2 2314   7.087   5.641   1.260
  791TIP3   OH2 2315   0.271   6.680   3.380
  791TIP3    H1 2316   0.182   6.693   3.345
  791TIP3    H2 2317   0.305   6.604   3.331
  792TIP3   OH2 2318   1.038   0.782   4.779
  792TIP3    H1 2319   0.964   0.778   4.840
  792TIP3    H2 2320   1.053   0.691   4.755
  793TIP3   OH2 2321   5.925   1.994   0.342
  793TIP3    H1 2322   5.845   2.047   0.336
  793TIP3    H2 2323   5.994   2.050   0.306
  794TIP3   OH2 2324   1.218   1.835   0.851
  794TIP3    H1 2325   1.186   1.914   0.808
  794TIP3    H2 2326   1.141   1.779   0.859
  795TIP3   OH2 2327   0.678   7.626   2.661
  795TIP3    H1 2328   0.640   7.632   2.573
  795TIP3    H2 2329   0.769   7.598   2.646
  796TIP3   OH2 2330   7.160   1.641   4.302
  796TIP3    H1 2331   7.157   1.627   4.397
  796TIP3    H2 2332   7.069   1.653   4.277
  797TIP3   OH2 2333   7.040   7.050   3.264
  797TIP3    H1 2334   7.018   7.102   3.341
  797TIP3    H2 2335   7.135   7.058   3.256
  798TIP3   OH2 2336   0.177   0.922   2.410
  798TIP3    H1 2337   0.232   0.857   2.453
  798TIP3    H2 2338   0.109   0.942   2.474
  799TIP3   OH2 2339   4.151   5.069   5.900
  799TIP3    H1 2340   4.077   5.008   5.903
  799TIP3    H2 2341   4.113   5.154   5.924
  800TIP3   OH2 2342   1.922   5.395   3.562
  800TIP3    H1 2343   1.921   5.320   3.621
  800TIP3    H2 2344   1.839   5.391   3.516
  801TIP3   OH2 2345   2.986   5.329   4.308
  801TIP3    H1 2346   2.913   5.376   4.348
  801TIP3    H2 2347   3.031   5.395   4.255
  802TIP3   OH2 2348   1.880   5.747   2.886
  802TIP3    H1 2349   1.816   5.755   2.816
  802TIP3    H2 2350   1.842   5.683   2.946
  803TIP3   OH2 2351   3.636   5.096   4.479
  803TIP3    H1 2352   3.634   5.055   4.565
  803TIP3    H2 2353   3.729   5.116   4.464
  804TIP3   OH2 2354   3.943   7.197   2.941
  804TIP3    H1 2355   3.908   7.149   3.016
  804TIP3    H2 2356   3.931   7.137   2.867
  805TIP3   OH2 2357   5.567   1.404   1.907
  805TIP3    H1 2358   5.621   1.352   1.967
  805TIP3    H2 2359   5.482   1.358   1.905
  806TIP3   OH2 2360   1.796   4.287   5.710
  806TIP3    H1 2361   1.873   4.317   5.661
  806TIP3    H2 2362   1.738   4.250   5.644
  807TIP3   OH2 2363   5.292   2.323   5.288
  807TIP3    H1 2364   5.308   2.229   5.298
  807TIP3    H2 2365   5.198   2.330   5.273
  808TIP3   OH2 2366   5.373   6.741   0.496
  808TIP3    H1 2367   5.348   6.653   0.468
  808TIP3    H2 2368   5.464   6.751   0.468
  809TIP3   OH2 2369   3.818   1.765   2.907
  809TIP3    H1 2370   3.798   1.816   2.829
  809TIP3    H2 2371   3.892   1.810   2.947
  810TIP3   OH2 2372   6.810   5.374   5.134
  810TIP3    H1 2373   6.817   5.396   5.041
  810TIP3    H2 2374   6.734   5.315   5.139
  811TIP3   OH2 2375   4.665   3.359   1.519
  811TIP3    H1 2376   4.694   3.449   1.535
  811TIP3    H2 2377   4.610   3.338   1.594
  812TIP3   OH2 2378   5.672   7.754   2.966
  812TIP3    H1 2379   5.652   7.791   3.051
  812TIP3    H2 2380   5.767   7.738   2.968
  813TIP3   OH2 2381   3.580   3.644   3.390
  813TIP3    H1 2382   3.532   3.712   3.437
  813TIP3    H2 2383   3.521   3.619   3.319
  814TIP3   OH2 2384   6.002   2.691   6.378
  814TIP3    H1 2385   6.026   2.631   6.308
  814TIP3    H2 2386   6.064   2.764   6.369
  815TIP3   OH2 2387   3.666   0.724   3.638
  815TIP3    H1 2388   3.675   0.630   3.658
  815TIP3    H2 2389   3.599   0.727   3.570
  816TIP3   OH2 2390   1.127   2.043   5.121
  816TIP3    H1 2391   1.070   2.059   5.045
  816TIP3    H2 2392   1.180   1.968   5.095
  817TIP3   OH2 2393   2.259   0.214   1.930
  817TIP3    H1 2394   2.216   0.163   1.999
  817TIP3    H2 2395   2.253   0.305   1.959
  818TIP3   OH2 2396   6.450   2.106   3.513
  818TIP3    H1 2397   6.425   2.132   3.602
  818TIP3    H2 2398   6.484   2.187   3.474
  819TIP3   OH2 2399   3.693   4.173   3.764
  819TIP3    H1 2400   3.628   4.226   3.718
  819TIP3    H2 2401   3.748   4.137   3.694
  820TIP3   OH2 2402   0.919   7.515   2.548
  820TIP3    H1 2403   0.937   7.431   2.590
  820TIP3    H2 2404   1.003   7.561   2.550
  821TIP3   OH2 2405   6.047   3.069   4.499
  821TIP3    H1 2406   5.999   3.010   4.441
  821TIP3    H2 2407   5.981   3.127   4.536
  822TIP3   OH2 2408   0.560   1.407   3.505
  822TIP3    H1 2409   0.485   1.362   3.544
  822TIP3    H2 2410   0.626   1.338   3.495
  823TIP3   OH2 2411   7.575   6.528   2.470
  823TIP3    H1 2412   7.630   6.595   2.431
  823TIP3    H2 2413   7.488   6.568   2.473
  824TIP3   OH2 2414   4.508   2.306   0.474
  824TIP3    H1 2415   4.487   2.217   0.444
  824TIP3    H2 2416   4.571   2.294   0.544
  825TIP3   OH2 2417   5.338   2.596   5.347
  825TIP3    H1 2418   5.431   2.577   5.334
  825TIP3    H2 2419   5.301   2.514   5.378
  826TIP3   OH2 2420   8.230   4.260   2.773
  826TIP3    H1 2421   8.258   4.296   2.857
  826TIP3    H2 2422   8.170   4.188   2.796
  827TIP3   OH2 2423   0.762   6.611   6.621
  827TIP3    H1 2424   0.716   6.631   6.702
  827TIP3    H2 2425   0.697   6.566   6.567
  828TIP3   OH2 2426   4.173   7.560   5.257
  828TIP3    H1 2427   4.258   7.524   5.283
  828TIP3    H2 2428   4.163   7.535   5.165
  829TIP3   OH2 2429   4.047   4.998   0.707
  829TIP3    H1 2430   4.063   5.003   0.613
  829TIP3    H2 2431   4.133   5.012   0.746
  830TIP3   OH2 2432   0.651   0.456   5.202
  830TIP3    H1 2433   0.575   0.399   5.188
  830TIP3    H2 2434   0.665   0.454   5.297
  831TIP3   OH2 2435   0.842   2.395   6.449
  831TIP3    H1 2436   0.837   2.390   6.545
  831TIP3    H2 2437   0.862   2.305   6.422
  832TIP3   OH2 2438   3.759   4.919   5.137
  832TIP3    H1 2439   3.723   4.851   5.194
  832TIP3    H2 2440   3.779   4.874   5.055
  833TIP3   OH2 2441   7.641   2.113   4.433
  833TIP3    H1 2442   7.682   2.196   4.408
  833TIP3    H2 2443   7.698   2.046   4.395
  834TIP3   OH2 2444   4.342   2.634   6.188
  834TIP3    H1 2445   4.412   2.571   6.168
  834TIP3    H2 2446   4.363   2.666   6.276
  835TIP3   OH2 2447   0.087   4.353   3.001
  835TIP3    H1 2448   0.079   4.331   3.094
  835TIP3    H2 2449   0.160   4.299   2.970
  836TIP3   OH2 2450   1.960   7.804   5.469
  836TIP3    H1 2451   2.023   7.836   5.404
  836TIP3    H2 2452   2.001   7.725   5.505
  837TIP3   OH2 2453   2.582   1.042   3.398
  837TIP3    H1 2454   2.652   1.053   3.335
  837TIP3    H2 2455   2.503   1.066   3.350
  838TIP3   OH2 2456   5.791   5.953   1.971
  838TIP3    H1 2457   5.832   5.945   2.057
  838TIP3    H2 2458   5.864   5.957   1.909
  839TIP3   OH2 2459   2.376   7.502   3.569
  839TIP3    H1 2460   2.446   7.493   3.504
  839TIP3    H2 2461   2.404   7.575   3.624
  840TIP3   OH2 2462   3.687   1.491   0.534
  840TIP3    H1 2463   3.746   1.539   0.476
  840TIP3    H2 2464   3.612   1.470   0.479
  841TIP3   OH2 2465   2.451   6.301   5.669
  841TIP3    H1 2466   2.467   6.351   5.589
  841TIP3    H2 2467   2.375   6.343   5.709
  842TIP3   OH2 2468   0.080   7.461   5.431
  842TIP3    H1 2469   0.162   7.455   5.383
  842TIP3    H2 2470   0.095   7.529   5.497
  843TIP3   OH2 2471   1.072   5.859   4.370
  843TIP3    H1 2472   1.084   5.950   4.345
  843TIP3    H2 2473   1.023   5.863   4.452
  844TIP3   OH2 2474   0.460   4.482   4.479
  844TIP3    H1 2475   0.542   4.530   4.491
  844TIP3    H2 2476   0.476   4.425   4.404
  845TIP3   OH2 2477   7.644   6.900   4.717
  845TIP3    H1 2478   7.657   6.853   4.635
  845TIP3    H2 2479   7.660   6.835   4.786
  846TIP3   OH2 2480   8.103   0.541   2.245
  846TIP3    H1 2481   8.172   0.521   2.182
  846TIP3    H2 2482   8.089   0.459   2.292
  847TIP3   OH2 2483   3.959   6.383   3.487
  847TIP3    H1 2484   3.984   6.340   3.569
  847TIP3    H2 2485   3.890   6.444   3.512
  848TIP3   OH2 2486   2.568   6.846   6.622
  848TIP3    H1 2487   2.481   6.843   6.663
  848TIP3    H2 2488   2.613   6.769   6.658
  849TIP3   OH2 2489   3.272   2.626   0.605
  849TIP3    H1 2490   3.338   2.599   0.541
  849TIP3    H2 2491   3.188   2.612   0.561
  850TIP3   OH2 2492   6.179   2.224   3.190
  850TIP3    H1 2493   6.243   2.252   3.125
  850TIP3    H2 2494   6.188   2.287   3.262
  851TIP3   OH2 2495   2.401   4.791   1.256
  851TIP3    H1 2496   2.467   4.748   1.202
  851TIP3    H2 2497   2.424   4.769   1.346
  852TIP3   OH2 2498   1.313   7.390   0.171
  852TIP3    H1 2499   1.265   7.444   0.108
  852TIP3    H2 2500   1.249   7.369   0.239
  853TIP3   OH2 2501   1.498   5.119   6.371
  853TIP3    H1 2502   1.577   5.106   6.319
  853TIP3    H2 2503   1.475   5.032   6.402
  854TIP3   OH2 2504   1.689   1.666   4.040
  854TIP3    H1 2505   1.735   1.631   3.963
  854TIP3    H2 2506   1.642   1.743   4.007
  855TIP3   OH2 2507   5.878   7.192   5.607
  855TIP3    H1 2508   5.882   7.097   5.620
  855TIP3    H2 2509   5.786   7.208   5.583
  856TIP3   OH2 2510   5.160   7.264   3.719
  856TIP3    H1 2511   5.176   7.350   3.681
  856TIP3    H2 2512   5.065   7.260   3.729
  857TIP3   OH2 2513   3.850   2.173   1.487
  857TIP3    H1 2514   3.921   2.230   1.460
  857TIP3    H2 2515   3.787   2.176   1.415
  858TIP3   OH2 2516   4.602   3.099   2.591
  858TIP3    H1 2517   4.510   3.077   2.575
  858TIP3    H2 2518   4.618   3.072   2.682
  859TIP3   OH2 2519   6.031   1.238   2.306
  859TIP3    H1 2520   6.124   1.258   2.296
  859TIP3    H2 2521   6.022   1.147   2.279
  860TIP3   OH2 2522   5.781   5.156   0.373
  860TIP3    H1 2523   5.752   5.162   0.282
  860TIP3    H2 2524   5.731   5.224   0.419
  861TIP3   OH2 2525   4.595   2.310   3.483
  861TIP3    H1 2526   4.590   2.355   3.568
  861TIP3    H2 2527   4.650   2.368   3.429
  862TIP3   OH2 2528   7.292   0.598   3.318
  862TIP3    H1 2529   7.295   0.550   3.400
  862TIP3    H2 2530   7.373   0.650   3.318
  863TIP3   OH2 2531   0.526   3.829   0.727
  863TIP3    H1 2532   0.486   3.749   0.762
  863TIP3    H2 2533   0.491   3.835   0.638
  864TIP3   OH2 2534   6.258   4.432   5.080
  864TIP3    H1 2535   6.178   4.424   5.028
  864TIP3    H2 2536   6.279   4.525   5.077
  865TIP3   OH2 2537   4.654   4.240   6.270
  865TIP3    H1 2538   4.698   4.242   6.185
  865TIP3    H2 2539   4.725   4.240   6.334
  866TIP3   OH2 2540   0.245   1.524   2.618
  866TIP3    H1 2541   0.247   1.547   2.525
  866TIP3    H2 2542   0.295   1.442   2.623
  867TIP3   OH2 2543   1.517   2.738   2.047
  867TIP3    H1 2544   1.516   2.790   2.127
  867TIP3    H2 2545   1.429   2.748   2.010
  868TIP3   OH2 2546   2.105   4.008   1.969
  868TIP3    H1 2547   2.157   4.041   1.895
  868TIP3    H2 2548   2.103   3.913   1.957
  869TIP3   OH2 2549   6.153   4.580   3.683
  869TIP3    H1 2550   6.243   4.552   3.700
  869TIP3    H2 2551   6.118   4.602   3.770
  870TIP3   OH2 2552   8.164   2.722   3.574
  870TIP3    H1 2553   8.177   2.811   3.540
  870TIP3    H2 2554   8.078   2.725   3.615
  871TIP3   OH2 2555   4.512   0.585   4.017
  871TIP3    H1 2556   4.534   0.542   4.099
  871TIP3    H2 2557   4.585   0.566   3.959
  872TIP3   OH2 2558   6.577   6.596   1.914
  872TIP3    H1 2559   6.662   6.623   1.879
  872TIP3    H2 2560   6.590   6.595   2.009
  873TIP3   OH2 2561   6.187   0.322   4.449
  873TIP3    H1 2562   6.162   0.328   4.357
  873TIP3    H2 2563   6.136   0.249   4.483
  874TIP3   OH2 2564   4.817   1.910   2.550
  874TIP3    H1 2565   4.853   1.824   2.528
  874TIP3    H2 2566   4.778   1.941   2.468
  875TIP3   OH2 2567   8.062   5.899   4.257
  875TIP3    H1 2568   8.127   5.831   4.238
  875TIP3    H2 2569   7.986   5.874   4.205
  876TIP3   OH2 2570   3.110   2.671   3.567
  876TIP3    H1 2571   3.140   2.581   3.582
  876TIP3    H2 2572   3.189   2.718   3.538
  877TIP3   OH2 2573   2.430   3.842   3.558
  877TIP3    H1 2574   2.424   3.883   3.472
  877TIP3    H2 2575   2.381   3.760   3.549
  878TIP3   OH2 2576   2.948   6.248   2.932
  878TIP3    H1 2577   2.852   6.245   2.922
  878TIP3    H2 2578   2.979   6.285   2.850
  879TIP3   OH2 2579   3.885   3.243   3.448
  879TIP3    H1 2580   3.833   3.312   3.407
  879TIP3    H2 2581   3.975   3.263   3.421
  880TIP3   OH2 2582   2.513   3.028   0.244
  880TIP3    H1 2583   2.442   3.071   0.195
  880TIP3    H2 2584   2.573   2.996   0.176
  881TIP3   OH2 2585   7.209   1.908   0.860
  881TIP3    H1 2586   7.173   1.902   0.949
  881TIP3    H2 2587   7.227   2.001   0.847
  882TIP3   OH2 2588   0.423   2.517   4.459
  882TIP3    H1 2589   0.454   2.537   4.371
  882TIP3    H2 2590   0.332   2.549   4.461
  883TIP3   OH2 2591   6.632   2.909   0.205
  883TIP3    H1 2592   6.727   2.901   0.213
  883TIP3    H2 2593   6.602   2.920   0.296
  884TIP3   OH2 2594   2.768   4.246   4.476
  884TIP3    H1 2595   2.753   4.311   4.407
  884TIP3    H2 2596   2.838   4.191   4.442
  885TIP3   OH2 2597   0.369   7.739   4.144
  885TIP3    H1 2598   0.309   7.743   4.070
  885TIP3    H2 2599   0.340   7.663   4.195
  886TIP3   OH2 2600   6.196   1.173   6.675
  886TIP3    H1 2601   6.198   1.102   6.611
  886TIP3    H2 2602   6.144   1.242   6.633
  887TIP3   OH2 2603   7.432   7.108   0.913
  887TIP3    H1 2604   7.520   7.136   0.886
  887TIP3    H2 2605   7.374   7.145   0.846
  888TIP3   OH2 2606   5.815   4.520   2.231
  888TIP3    H1 2607   5.892   4.569   2.261
  888TIP3    H2 2608   5.792   4.562   2.147
  889TIP3   OH2 2609   3.083   7.831   2.715
  889TIP3    H1 2610   3.032   7.826   2.634
  889TIP3    H2 2611   3.098   7.739   2.739
  890TIP3   OH2 2612   3.428   2.127   3.150
  890TIP3    H1 2613   3.515   2.088   3.163
  890TIP3    H2 2614   3.382   2.109   3.231
  891TIP3   OH2 2615   6.159   7.687   1.013
  891TIP3    H1 2616   6.245   7.726   1.023
  891TIP3    H2 2617   6.120   7.733   0.938
  892TIP3   OH2 2618   5.388   3.422   2.965
  892TIP3    H1 2619   5.352   3.339   2.997
  892TIP3    H2 2620   5.314   3.483   2.968
  893TIP3   OH2 2621   2.527   0.761   3.291
  893TIP3    H1 2622   2.506   0.847   3.254
  893TIP3    H2 2623   2.565   0.780   3.376
  894TIP3   OH2 2624   1.314   4.819   2.186
  894TIP3    H1 2625   1.373   4.891   2.210
  894TIP3    H2 2626   1.312   4.820   2.091
  895TIP3   OH2 2627   6.132   3.704   6.481
  895TIP3    H1 2628   6.069   3.639   6.512
  895TIP3    H2 2629   6.095   3.788   6.509
  896TIP3   OH2 2630   5.407   2.592   6.480
  896TIP3    H1 2631   5.425   2.648   6.405
  896TIP3    H2 2632   5.435   2.505   6.452
  897TIP3   OH2 2633   1.860   2.707   2.109
  897TIP3    H1 2634   1.783   2.759   2.134
  897TIP3    H2 2635   1.861   2.711   2.014
  898TIP3   OH2 2636   2.828   7.154   6.563
  898TIP3    H1 2637   2.802   7.144   6.655
  898TIP3    H2 2638   2.900   7.217   6.565
  899TIP3   OH2 2639   6.329   0.104   2.068
  899TIP3    H1 2640   6.258   0.040   2.062
  899TIP3    H2 2641   6.356   0.102   2.160
  900TIP3   OH2 2642   3.591   7.490   4.793
  900TIP3    H1 2643   3.666   7.496   4.733
  900TIP3    H2 2644   3.595   7.401   4.827
  901TIP3   OH2 2645   4.441   2.858   2.135
  901TIP3    H1 2646   4.534   2.877   2.118
  901TIP3    H2 2647   4.408   2.938   2.175
  902TIP3   OH2 2648   8.251   2.038   4.240
  902TIP3    H1 2649   8.295   2.023   4.323
  902TIP3    H2 2650   8.198   2.116   4.256
  903TIP3   OH2 2651   3.062   0.075   6.169
  903TIP3    H1 2652   3.032   0.004   6.112
  903TIP3    H2 2653   3.157   0.064   6.173
  904TIP3   OH2 2654   5.505   7.561   2.941
  904TIP3    H1 2655   5.553   7.643   2.933
  904TIP3    H2 2656   5.564   7.502   2.988
  905TIP3   OH2 2657   0.895   7.126   4.992
  905TIP3    H1 2658   0.965   7.164   5.044
  905TIP3    H2 2659   0.849   7.067   5.052
  906TIP3   OH2 2660   3.256   2.895   5.883
  906TIP3    H1 2661   3.285   2.961   5.946
  906TIP3    H2 2662   3.302   2.815   5.908
  907TIP3   OH2 2663   4.231   3.908   6.439
  907TIP3    H1 2664   4.227   3.902   6.534
  907TIP3    H2 2665   4.300   3.974   6.422
  908TIP3   OH2 2666   7.290   3.324   2.128
  908TIP3    H1 2667   7.309   3.236   2.097
  908TIP3    H2 2668   7.346   3.381   2.075
  909TIP3   OH2 2669   5.176   3.528   0.625
  909TIP3    H1 2670   5.103   3.565   0.575
  909TIP3    H2 2671   5.201   3.597   0.685
  910TIP3   OH2 2672   0.839   1.486   0.500
  910TIP3    H1 2673   0.904   1.434   0.549
  910TIP3    H2 2674   0.891   1.530   0.432
  911TIP3   OH2 2675   4.810   1.728   4.292
  911TIP3    H1 2676   4.792   1.639   4.262
  911TIP3    H2 2677   4.725   1.771   4.297
  912TIP3   OH2 2678   2.970   2.274   4.546
  912TIP3    H1 2679   2.971   2.350   4.604
  912TIP3    H2 2680   2.997   2.201   4.602
  913TIP3   OH2 2681   1.636   2.796   1.468
  913TIP3    H1 2682   1.568   2.738   1.503
  913TIP3    H2 2683   1.597   2.884   1.471
  914TIP3   OH2 2684   7.517   0.991   2.161
  914TIP3    H1 2685   7.503   1.035   2.078
  914TIP3    H2 2686   7.612   0.996   2.175
  915TIP3   OH2 2687   7.867   6.457   4.120
  915TIP3    H1 2688   7.839   6.540   4.158
  915TIP3    H2 2689   7.786   6.407   4.107
  916TIP3   OH2 2690   6.052   6.006   4.208
  916TIP3    H1 2691   5.986   5.938   4.219
  916TIP3    H2 2692   6.117   5.989   4.276
  917TIP3   OH2 2693   4.892   2.441   3.732
  917TIP3    H1 2694   4.931   2.528   3.733
  917TIP3    H2 2695   4.916   2.405   3.646
  918TIP3   OH2 2696   1.517   3.709   3.436
  918TIP3    H1 2697   1.445   3.680   3.492
  918TIP3    H2 2698   1.485   3.698   3.347
  919TIP3   OH2 2699   4.854   7.486   0.252
  919TIP3    H1 2700   4.857   7.561   0.310
  919TIP3    H2 2701   4.896   7.515   0.171
  920TIP3   OH2 2702   5.151   3.087   6.410
  920TIP3    H1 2703   5.121   3.067   6.321
  920TIP3    H2 2704   5.072   3.115   6.456
  921TIP3   OH2 2705   1.268   1.310   3.912
  921TIP3    H1 2706   1.341   1.368   3.893
  921TIP3    H2 2707   1.305   1.222   3.906
  922TIP3   OH2 2708   2.903   3.265   0.219
  922TIP3    H1 2709   2.920   3.175   0.191
  922TIP3    H2 2710   2.990   3.303   0.231
  923TIP3   OH2 2711   7.787   3.415   6.279
  923TIP3    H1 2712   7.692   3.425   6.270
  923TIP3    H2 2713   7.800   3.376   6.365
  924TIP3   OH2 2714   1.808   0.271   3.468
  924TIP3    H1 2715   1.863   0.307   3.398
  924TIP3    H2 2716   1.832   0.321   3.546
  925TIP3   OH2 2717   5.541   6.582   5.039
  925TIP3    H1 2718   5.489   6.639   5.097
  925TIP3    H2 2719   5.542   6.628   4.955
  926TIP3   OH2 2720   3.413   0.443   4.886
  926TIP3    H1 2721   3.466   0.477   4.959
  926TIP3    H2 2722   3.326   0.480   4.901
  927TIP3   OH2 2723   4.224   2.823   4.875
  927TIP3    H1 2724   4.157   2.845   4.811
  927TIP3    H2 2725   4.259   2.739   4.847
  928TIP3   OH2 2726   1.311   4.551   4.553
  928TIP3    H1 2727   1.336   4.575   4.463
  928TIP3    H2 2728   1.355   4.615   4.608
  929TIP3   OH2 2729   3.538   5.840   3.670
  929TIP3    H1 2730   3.577   5.810   3.752
  929TIP3    H2 2731   3.449   5.804   3.671
  930TIP3   OH2 2732   0.271   5.941   5.798
  930TIP3    H1 2733   0.177   5.960   5.792
  930TIP3    H2 2734   0.296   5.920   5.708
  931TIP3   OH2 2735   7.914   0.149   5.059
  931TIP3    H1 2736   7.857   0.102   5.121
  931TIP3    H2 2737   7.929   0.234   5.101
  932TIP3   OH2 2738   2.535   3.306   5.621
  932TIP3    H1 2739   2.562   3.349   5.539
  932TIP3    H2 2740   2.446   3.337   5.636
  933TIP3   OH2 2741   3.893   1.273   2.843
  933TIP3    H1 2742   3.951   1.325   2.787
  933TIP3    H2 2743   3.943   1.259   2.923
  934TIP3   OH2 2744   0.979   6.461   6.020
  934TIP3    H1 2745   0.981   6.500   6.108
  934TIP3    H2 2746   0.994   6.368   6.034
  935TIP3   OH2 2747   6.481   6.812   4.091
  935TIP3    H1 2748   6.404   6.756   4.093
  935TIP3    H2 2749   6.552   6.756   4.121
  936TIP3   OH2 2750   2.989   2.317   5.440
  936TIP3    H1 2751   2.916   2.333   5.500
  936TIP3    H2 2752   2.990   2.394   5.383
  937TIP3   OH2 2753   3.017   3.405   1.878
  937TIP3    H1 2754   2.954   3.369   1.816
  937TIP3    H2 2755   3.063   3.329   1.913
  938TIP3   OH2 2756   7.789   5.963   3.850
  938TIP3    H1 2757   7.714   5.991   3.902
  938TIP3    H2 2758   7.865   6.000   3.895
  939TIP3   OH2 2759   5.401   2.199   3.027
  939TIP3    H1 2760   5.325   2.218   2.972
  939TIP3    H2 2761   5.385   2.112   3.062
  940TIP3   OH2 2762   6.693   6.042   2.157
  940TIP3    H1 2763   6.713   6.078   2.243
  940TIP3    H2 2764   6.774   6.054   2.107
  941TIP3   OH2 2765   6.658   2.688  -0.007
  941TIP3    H1 2766   6.658   2.745   0.070
  941TIP3    H2 2767   6.713   2.614   0.018
  942TIP3   OH2 2768   6.429   4.721   2.984
  942TIP3    H1 2769   6.512   4.744   3.026
  942TIP3    H2 2770   6.439   4.629   2.962
  943TIP3   OH2 2771   2.486   5.345   6.741
  943TIP3    H1 2772   2.502   5.438   6.759
  943TIP3    H2 2773   2.574   5.306   6.743
  944TIP3   OH2 2774   8.130   6.826   4.997
  944TIP3    H1 2775   8.063   6.842   4.930
  944TIP3    H2 2776   8.149   6.912   5.033
  945TIP3   OH2 2777   6.966   0.851   3.415
  945TIP3    H1 2778   7.059   0.863   3.393
  945TIP3    H2 2779   6.954   0.900   3.497
  946TIP3   OH2 2780   8.060   3.236   3.213
  946TIP3    H1 2781   8.131   3.179   3.242
  946TIP3    H2 2782   8.036   3.287   3.290
  947TIP3   OH2 2783   4.789   0.487   0.145
  947TIP3    H1 2784   4.697   0.495   0.122
  947TIP3    H2 2785   4.835   0.501   0.062
  948TIP3   OH2 2786   0.773   6.552   4.121
  948TIP3    H1 2787   0.689   6.526   4.157
  948TIP3    H2 2788   0.802   6.624   4.177
  949TIP3   OH2 2789   4.718   4.692   4.031
  949TIP3    H1 2790   4.804   4.651   4.020
  949TIP3    H2 2791   4.678   4.685   3.944
  950TIP3   OH2 2792   2.395   6.023   2.157
  950TIP3    H1 2793   2.483   6.011   2.121
  950TIP3    H2 2794   2.373   6.114   2.138
  951TIP3   OH2 2795   1.328   2.622   6.164
  951TIP3    H1 2796   1.378   2.554   6.211
  951TIP3    H2 2797   1.278   2.573   6.099
  952TIP3   OH2 2798   5.297   7.251   2.077
  952TIP3    H1 2799   5.253   7.207   2.150
  952TIP3    H2 2800   5.346   7.182   2.033
  953TIP3   OH2 2801   1.866   1.678   6.564
  953TIP3    H1 2802   1.808   1.604   6.549
  953TIP3    H2 2803   1.953   1.646   6.539
  954TIP3   OH2 2804   2.677   5.687   6.229
  954TIP3    H1 2805   2.672   5.682   6.325
  954TIP3    H2 2806   2.697   5.779   6.211
  955TIP3   OH2 2807   2.826   0.711   5.432
  955TIP3    H1 2808   2.737   0.747   5.431
  955TIP3    H2 2809   2.839   0.683   5.523
  956TIP3   OH2 2810   0.013   2.825   6.386
  956TIP3    H1 2811  -0.045   2.749   6.392
  956TIP3    H2 2812   0.065   2.821   6.466
  957TIP3   OH2 2813   2.202   5.291   6.737
  957TIP3    H1 2814   2.161   5.342   6.668
  957TIP3    H2 2815   2.288   5.331   6.750
  958TIP3   OH2 2816   3.117   5.741   3.835
  958TIP3    H1 2817   3.182   5.753   3.905
  958TIP3    H2 2818   3.124   5.648   3.812
  959TIP3   OH2 2819   7.704   6.252   4.805
  959TIP3    H1 2820   7.723   6.206   4.888
  959TIP3    H2 2821   7.790   6.265   4.765
  960TIP3   OH2 2822   0.994   2.724   3.526
  960TIP3    H1 2823   1.049   2.656   3.488
  960TIP3    H2 2824   0.961   2.686   3.607
  961TIP3   OH2 2825   6.243   0.239   6.338
  961TIP3    H1 2826   6.206   0.235   6.426
  961TIP3    H2 2827   6.174   0.278   6.284
  962TIP3   OH2 2828   2.355   6.602   3.515
  962TIP3    H1 2829   2.282   6.585   3.455
  962TIP3    H2 2830   2.432   6.571   3.469
  963TIP3   OH2 2831   7.710   2.145   6.666
  963TIP3    H1 2832   7.620   2.146   6.699
  963TIP3    H2 2833   7.764   2.145   6.745
  964TIP3   OH2 2834   0.711   7.553   0.486
  964TIP3    H1 2835   0.772   7.542   0.559
  964TIP3    H2 2836   0.628   7.516   0.518
  965TIP3   OH2 2837   7.319   3.656   0.661
  965TIP3    H1 2838   7.394   3.703   0.625
  965TIP3    H2 2839   7.243   3.694   0.617
  966TIP3   OH2 2840   7.936   3.707   5.530
  966TIP3    H1 2841   7.954   3.622   5.569
  966TIP3    H2 2842   8.018   3.730   5.484
  967TIP3   OH2 2843   2.086   5.013   0.489
  967TIP3    H1 2844   2.149   4.943   0.509
  967TIP3    H2 2845   2.141   5.086   0.458
  968TIP3   OH2 2846   2.041   0.140   3.645
  968TIP3    H1 2847   2.093   0.209   3.603
  968TIP3    H2 2848   1.985   0.107   3.575
  969TIP3   OH2 2849   6.813   4.606   5.485
  969TIP3    H1 2850   6.907   4.615   5.472
  969TIP3    H2 2851   6.776   4.686   5.447
  970TIP3   OH2 2852   5.851   1.167   4.235
  970TIP3    H1 2853   5.786   1.223   4.193
  970TIP3    H2 2854   5.854   1.198   4.326
  971TIP3   OH2 2855   7.669   0.238   0.357
  971TIP3    H1 2856   7.735   0.178   0.391
  971TIP3    H2 2857   7.652   0.208   0.268
  972TIP3   OH2 2858   2.870   5.472   2.856
  972TIP3    H1 2859   2.789   5.524   2.846
  972TIP3    H2 2860   2.839   5.385   2.882
  973TIP3   OH2 2861   6.041   4.247   4.583
  973TIP3    H1 2862   6.064   4.339   4.595
  973TIP3    H2 2863   6.063   4.205   4.666
  974TIP3   OH2 2864   0.596   2.639   0.096
  974TIP3    H1 2865   0.576   2.560   0.147
  974TIP3    H2 2866   0.691   2.649   0.104
  975TIP3   OH2 2867   5.193   7.279   0.441
  975TIP3    H1 2868   5.163   7.247   0.526
  975TIP3    H2 2869   5.283   7.306   0.456
  976TIP3   OH2 2870   5.657   2.061   4.768
  976TIP3    H1 2871   5.632   1.978   4.728
  976TIP3    H2 2872   5.591   2.075   4.836
  977TIP3   OH2 2873   2.442   2.368   2.992
  977TIP3    H1 2874   2.481   2.316   3.063
  977TIP3    H2 2875   2.395   2.438   3.037
  978TIP3   OH2 2876   2.334   5.568   0.123
  978TIP3    H1 2877   2.356   5.646   0.173
  978TIP3    H2 2878   2.287   5.601   0.046
  979TIP3   OH2 2879   2.387   5.094   0.825
  979TIP3    H1 2880   2.316   5.136   0.776
  979TIP3    H2 2881   2.450   5.068   0.758
  980TIP3   OH2 2882   5.944   6.323   6.627
  980TIP3    H1 2883   5.911   6.258   6.689
  980TIP3    H2 2884   5.896   6.305   6.546
  981TIP3   OH2 2885   6.397   7.587   4.207
  981TIP3    H1 2886   6.476   7.579   4.261
  981TIP3    H2 2887   6.428   7.627   4.126
  982TIP3   OH2 2888   7.810   3.740   4.851
  982TIP3    H1 2889   7.896   3.707   4.823
  982TIP3    H2 2890   7.773   3.780   4.772
  983TIP3   OH2 2891   3.690   5.376   3.311
  983TIP3    H1 2892   3.696   5.287   3.275
  983TIP3    H2 2893   3.754   5.426   3.260
  984TIP3   OH2 2894   6.894   3.402   5.988
  984TIP3    H1 2895   6.877   3.425   6.079
  984TIP3    H2 2896   6.987   3.421   5.974
  985TIP3   OH2 2897   0.459   0.193   6.668
  985TIP3    H1 2898   0.433   0.182   6.577
  985TIP3    H2 2899   0.548   0.228   6.663
  986TIP3   OH2 2900   2.944   3.186   0.748
  986TIP3    H1 2901   2.909   3.108   0.705
  986TIP3    H2 2902   2.868   3.243   0.760
  987TIP3   OH2 2903   8.053   5.556   5.868
  987TIP3    H1 2904   8.089   5.584   5.784
  987TIP3    H2 2905   8.116   5.491   5.900
  988TIP3   OH2 2906   1.135   2.922   3.421
  988TIP3    H1 2907   1.084   2.861   3.472
  988TIP3    H2 2908   1.180   2.868   3.356
  989TIP3   OH2 2909   0.554   1.241   2.137
  989TIP3    H1 2910   0.474   1.197   2.166
  989TIP3    H2 2911   0.532   1.334   2.137
  990TIP3   OH2 2912   2.828   4.838   5.627
  990TIP3    H1 2913   2.751   4.788   5.601
  990TIP3    H2 2914   2.895   4.812   5.563
  991TIP3   OH2 2915   4.570   0.468   3.735
  991TIP3    H1 2916   4.504   0.446   3.800
  991TIP3    H2 2917   4.569   0.394   3.674
  992TIP3   OH2 2918   6.508   4.387   2.767
  992TIP3    H1 2919   6.573   4.457   2.756
  992TIP3    H2 2920   6.553   4.320   2.819
  993TIP3   OH2 2921   0.261   5.063   2.202
  993TIP3    H1 2922   0.283   4.982   2.155
  993TIP3    H2 2923   0.228   5.122   2.134
  994TIP3   OH2 2924   8.019   3.766   6.475
  994TIP3    H1 2925   7.980   3.718   6.402
  994TIP3    H2 2926   8.069   3.836   6.433
  995TIP3   OH2 2927   3.061   7.100   3.333
  995TIP3    H1 2928   2.992   7.084   3.398
  995TIP3    H2 2929   3.031   7.054   3.255
  996TIP3   OH2 2930   0.626   3.672   3.546
  996TIP3    H1 2931   0.536   3.675   3.579
  996TIP3    H2 2932   0.621   3.614   3.470
  997TIP3   OH2 2933   7.316   5.215   1.557
  997TIP3    H1 2934   7.225   5.217   1.587
  997TIP3    H2 2935   7.340   5.123   1.560
  998TIP3   OH2 2936   0.669   6.526   0.097
  998TIP3    H1 2937   0.701   6.480   0.174
  998TIP3    H2 2938   0.730   6.599   0.085
  999TIP3   OH2 2939   5.806   4.810   5.591
  999TIP3    H1 2940   5.803   4.882   5.654
  999TIP3    H2 2941   5.885   4.761   5.615
 1000TIP3   OH2 2942   2.361   5.196   5.424
 1000TIP3    H1 2943   2.278   5.238   5.447
 1000TIP3    H2 2944   2.385   5.147   5.502
 1001TIP3   OH2 2945   5.498   7.056   4.668
 1001TIP3    H1 2946   5.479   7.145   4.636
 1001TIP3    H2 2947   5.427   7.002   4.633
 1002TIP3   OH2 2948   2.788   2.250   6.653
 1002TIP3    H1 2949   2.718   2.206   6.605
 1002TIP3    H2 2950   2.780   2.217   6.743
 1003TIP3   OH2 2951   7.192   5.597   5.634
 1003TIP3    H1 2952   7.207   5.692   5.627
 1003TIP3    H2 2953   7.245   5.559   5.564
 1004TIP3   OH2 2954   3.721   7.563   2.993
 1004TIP3    H1 2955   3.754   7.629   3.054
 1004TIP3    H2 2956   3.626   7.570   2.999
 1005TIP3   OH2 2957   2.416   4.055   4.459
 1005TIP3    H1 2958   2.351   4.115   4.422
 1005TIP3    H2 2959   2.444   4.001   4.386
 1006TIP3   OH2 2960   1.400   2.957  -0.004
 1006TIP3    H1 2961   1.356   2.903   0.062
 1006TIP3    H2 2962   1.464   2.898  -0.045
 1007TIP3   OH2 2963   5.825   7.004   1.979
 1007TIP3    H1 2964   5.831   7.062   1.903
 1007TIP3    H2 2965   5.741   6.960   1.969
 1008TIP3   OH2 2966   0.325   3.434   3.177
 1008TIP3    H1 2967   0.295   3.411   3.265
 1008TIP3    H2 2968   0.256   3.489   3.141
 1009TIP3   OH2 2969   2.471   5.045   5.957
 1009TIP3    H1 2970   2.466   5.125   6.010
 1009TIP3    H2 2971   2.544   4.996   5.995
 1010TIP3   OH2 2972   5.117   6.020   3.134
 1010TIP3    H1 2973   5.207   6.019   3.102
 1010TIP3    H2 2974   5.120   6.077   3.211
 1011TIP3   OH2 2975   6.984   0.503   5.071
 1011TIP3    H1 2976   7.017   0.585   5.034
 1011TIP3    H2 2977   6.967   0.448   4.995
 1012TIP3   OH2 2978   2.618   0.854   3.579
 1012TIP3    H1 2979   2.708   0.828   3.557
 1012TIP3    H2 2980   2.604   0.935   3.530
 1013TIP3   OH2 2981   0.864   3.272   6.710
 1013TIP3    H1 2982   0.879   3.225   6.628
 1013TIP3    H2 2983   0.952   3.294   6.742
 1014TIP3   OH2 2984   5.416   5.936   3.064
 1014TIP3    H1 2985   5.466   5.981   3.132
 1014TIP3    H2 2986   5.482   5.907   3.001
 1015TIP3   OH2 2987   6.095   4.611   0.895
 1015TIP3    H1 2988   6.070   4.561   0.817
 1015TIP3    H2 2989   6.018   4.663   0.916
 1016TIP3   OH2 2990   3.934   6.713   2.778
 1016TIP3    H1 2991   3.941   6.654   2.703
 1016TIP3    H2 2992   4.018   6.703   2.823
 1017TIP3   OH2 2993   1.530   5.368   1.258
 1017TIP3    H1 2994   1.621   5.398   1.265
 1017TIP3    H2 2995   1.520   5.345   1.165
 1018TIP3   OH2 2996   7.805   4.234   6.404
 1018TIP3    H1 2997   7.869   4.304   6.387
 1018TIP3    H2 2998   7.792   4.192   6.319
 1019TIP3   OH2 2999   4.373   3.640   2.788
 1019TIP3    H1 3000   4.282   3.643   2.760
 1019TIP3    H2 3001   4.395   3.730   2.810
 1020TIP3   OH2 3002   1.811   0.778   0.730
 1020TIP3    H1 3003   1.864   0.853   0.758
 1020TIP3    H2 3004   1.721   0.803   0.749
 1021TIP3   OH2 3005   6.570   1.852   3.441
 1021TIP3    H1 3006   6.513   1.920   3.404
 1021TIP3    H2 3007   6.511   1.782   3.466
 1022TIP3   OH2 3008   1.404   7.290   1.997
 1022TIP3    H1 3009   1.317   7.273   1.962
 1022TIP3    H2 3010   1.390   7.360   2.061
 1023TIP3   OH2 3011   0.809   4.349   6.367
 1023TIP3    H1 3012   0.720   4.330   6.338
 1023TIP3    H2 3013   0.833   4.275   6.422
 1024TIP3   OH2 3014   6.787   3.362   2.996
 1024TIP3    H1 3015   6.734   3.364   3.075
 1024TIP3    H2 3016   6.768   3.445   2.952
 1025TIP3   OH2 3017   1.360   4.016   0.024
 1025TIP3    H1 3018   1.273   3.986  -0.003
 1025TIP3    H2 3019   1.387   3.954   0.092
 1026TIP3   OH2 3020   3.163   5.262   0.538
 1026TIP3    H1 3021   3.131   5.351   0.548
 1026TIP3    H2 3022   3.128   5.232   0.454
 1027TIP3   OH2 3023   5.016   0.035   3.598
 1027TIP3    H1 3024   4.962   0.101   3.641
 1027TIP3    H2 3025   5.100   0.079   3.582
 1028TIP3   OH2 3026   2.806   1.229   5.912
 1028TIP3    H1 3027   2.805   1.320   5.880
 1028TIP3    H2 3028   2.893   1.196   5.889
 1029TIP3   OH2 3029   4.990   1.803   4.029
 1029TIP3    H1 3030   5.039   1.812   4.111
 1029TIP3    H2 3031   4.899   1.789   4.058
 1030TIP3   OH2 3032   5.828   3.000   5.218
 1030TIP3    H1 3033   5.860   2.930   5.274
 1030TIP3    H2 3034   5.749   3.033   5.261
 1031TIP3   OH2 3035   1.887   6.718   1.511
 1031TIP3    H1 3036   1.902   6.812   1.514
 1031TIP3    H2 3037   1.817   6.703   1.574
 1032TIP3   OH2 3038   1.861   2.414   3.579
 1032TIP3    H1 3039   1.867   2.349   3.509
 1032TIP3    H2 3040   1.893   2.495   3.539
 1033TIP3   OH2 3041   5.136   2.849   4.604
 1033TIP3    H1 3042   5.204   2.910   4.576
 1033TIP3    H2 3043   5.054   2.895   4.584
 1034TIP3   OH2 3044   3.723   2.571   0.216
 1034TIP3    H1 3045   3.748   2.502   0.154
 1034TIP3    H2 3046   3.655   2.531   0.270
 1035TIP3   OH2 3047   5.370   1.473   3.090
 1035TIP3    H1 3048   5.406   1.559   3.112
 1035TIP3    H2 3049   5.431   1.412   3.132
 1036TIP3   OH2 3050   7.836   2.386   2.984
 1036TIP3    H1 3051   7.795   2.473   2.981
 1036TIP3    H2 3052   7.923   2.402   3.019
 1037TIP3   OH2 3053   2.191   0.456   3.791
 1037TIP3    H1 3054   2.257   0.483   3.855
 1037TIP3    H2 3055   2.225   0.487   3.707
 1038TIP3   OH2 3056   3.675   1.785   0.386
 1038TIP3    H1 3057   3.678   1.860   0.326
 1038TIP3    H2 3058   3.759   1.742   0.374
 1039TIP3   OH2 3059   0.327   5.064   5.422
 1039TIP3    H1 3060   0.263   4.999   5.451
 1039TIP3    H2 3061   0.328   5.056   5.327
 1040TIP3   OH2 3062   1.499   0.837   5.927
 1040TIP3    H1 3063   1.560   0.806   5.860
 1040TIP3    H2 3064   1.461   0.917   5.889
 1041TIP3   OH2 3065   6.918   1.766   0.869
 1041TIP3    H1 3066   6.849   1.700   0.873
 1041TIP3    H2 3067   6.971   1.741   0.793
 1042TIP3   OH2 3068   7.791   5.428   3.790
 1042TIP3    H1 3069   7.819   5.394   3.705
 1042TIP3    H2 3070   7.800   5.523   3.783
 1043TIP3   OH2 3071   4.325   2.203   2.105
 1043TIP3    H1 3072   4.243   2.252   2.105
 1043TIP3    H2 3073   4.367   2.227   2.187
 1044TIP3   OH2 3074   2.832   4.303   3.857
 1044TIP3    H1 3075   2.912   4.300   3.909
 1044TIP3    H2 3076   2.823   4.215   3.821
 1045TIP3   OH2 3077   3.005   3.163   3.982
 1045TIP3    H1 3078   3.038   3.077   3.955
 1045TIP3    H2 3079   3.001   3.213   3.901
 1046TIP3   OH2 3080   1.978   3.406   1.749
 1046TIP3    H1 3081   2.003   3.359   1.669
 1046TIP3    H2 3082   2.036   3.370   1.817
 1047TIP3   OH2 3083   3.771   1.494   0.808
 1047TIP3    H1 3084   3.864   1.507   0.792
 1047TIP3    H2 3085   3.733   1.480   0.721
 1048TIP3   OH2 3086   6.038   3.220   2.760
 1048TIP3    H1 3087   6.059   3.132   2.729
 1048TIP3    H2 3088   6.027   3.271   2.680
 1049TIP3   OH2 3089   3.422   3.071   6.044
 1049TIP3    H1 3090   3.496   3.012   6.056
 1049TIP3    H2 3091   3.444   3.122   5.966
 1050TIP3   OH2 3092   3.178   2.153   6.364
 1050TIP3    H1 3093   3.093   2.157   6.321
 1050TIP3    H2 3094   3.185   2.062   6.394
 1051TIP3   OH2 3095   7.327   2.592   1.047
 1051TIP3    H1 3096   7.365   2.596   1.135
 1051TIP3    H2 3097   7.352   2.675   1.006
 1052TIP3   OH2 3098   7.407   5.801   0.100
 1052TIP3    H1 3099   7.338   5.866   0.113
 1052TIP3    H2 3100   7.484   5.853   0.075
 1053TIP3   OH2 3101   2.578   3.270   4.619
 1053TIP3    H1 3102   2.566   3.231   4.532
 1053TIP3    H2 3103   2.493   3.309   4.640
 1054TIP3   OH2 3104   0.893   0.985   4.113
 1054TIP3    H1 3105   0.919   0.916   4.174
 1054TIP3    H2 3106   0.872   0.940   4.032
 1055TIP3   OH2 3107   7.830   1.641   6.394
 1055TIP3    H1 3108   7.801   1.551   6.381
 1055TIP3    H2 3109   7.905   1.634   6.453
 1056TIP3   OH2 3110   2.612   1.336   1.597
 1056TIP3    H1 3111   2.653   1.418   1.569
 1056TIP3    H2 3112   2.655   1.315   1.680
 1057TIP3   OH2 3113   0.109   6.809   6.080
 1057TIP3    H1 3114   0.176   6.814   6.011
 1057TIP3    H2 3115   0.047   6.879   6.057
 1058TIP3   OH2 3116   2.258   2.684   5.822
 1058TIP3    H1 3117   2.278   2.592   5.805
 1058TIP3    H2 3118   2.331   2.733   5.785
 1059TIP3   OH2 3119   7.011   5.139   3.035
 1059TIP3    H1 3120   6.951   5.127   3.109
 1059TIP3    H2 3121   7.057   5.220   3.054
 1060TIP3   OH2 3122   5.312   0.623   0.044
 1060TIP3    H1 3123   5.264   0.679   0.105
 1060TIP3    H2 3124   5.338   0.682  -0.027
 1061TIP3   OH2 3125   7.551   3.810   0.307
 1061TIP3    H1 3126   7.569   3.729   0.259
 1061TIP3    H2 3127   7.476   3.849   0.263
 1062TIP3   OH2 3128   6.542   4.597   0.545
 1062TIP3    H1 3129   6.473   4.540   0.578
 1062TIP3    H2 3130   6.499   4.680   0.525
 1063TIP3   OH2 3131   7.646   5.986   6.137
 1063TIP3    H1 3132   7.647   6.044   6.061
 1063TIP3    H2 3133   7.579   5.921   6.116
 1064TIP3   OH2 3134   7.529   2.557   0.628
 1064TIP3    H1 3135   7.605   2.520   0.581
 1064TIP3    H2 3136   7.517   2.498   0.703
 1065TIP3   OH2 3137   5.948   6.985   0.517
 1065TIP3    H1 3138   6.017   6.943   0.465
 1065TIP3    H2 3139   5.977   6.972   0.608
 1066TIP3   OH2 3140   4.408   1.635   0.964
 1066TIP3    H1 3141   4.346   1.565   0.985
 1066TIP3    H2 3142   4.482   1.620   1.022
 1067TIP3   OH2 3143   0.893   0.294   2.047
 1067TIP3    H1 3144   0.978   0.271   2.009
 1067TIP3    H2 3145   0.872   0.379   2.008
 1068TIP3   OH2 3146   0.418   6.524   2.293
 1068TIP3    H1 3147   0.378   6.531   2.207
 1068TIP3    H2 3148   0.496   6.470   2.279
 1069TIP3   OH2 3149   6.602   6.749   2.996
 1069TIP3    H1 3150   6.697   6.765   3.001
 1069TIP3    H2 3151   6.571   6.815   2.934
 1070TIP3   OH2 3152   4.269   1.837   5.839
 1070TIP3    H1 3153   4.327   1.856   5.765
 1070TIP3    H2 3154   4.311   1.764   5.884
 1071TIP3   OH2 3155   7.671   5.626   1.043
 1071TIP3    H1 3156   7.658   5.555   1.105
 1071TIP3    H2 3157   7.582   5.658   1.024
 1072TIP3   OH2 3158   8.063   1.019   2.890
 1072TIP3    H1 3159   8.129   1.088   2.898
 1072TIP3    H2 3160   8.108   0.939   2.916
 1073TIP3   OH2 3161   5.210   5.627   0.767
 1073TIP3    H1 3162   5.299   5.645   0.797
 1073TIP3    H2 3163   5.154   5.642   0.843
 1074TIP3   OH2 3164   5.921   0.200   1.754
 1074TIP3    H1 3165   5.990   0.219   1.691
 1074TIP3    H2 3166   5.941   0.111   1.785
 1075TIP3   OH2 3167   4.787   5.968   1.235
 1075TIP3    H1 3168   4.827   6.045   1.194
 1075TIP3    H2 3169   4.743   5.922   1.163
 1076TIP3   OH2 3170   8.123   1.852   5.886
 1076TIP3    H1 3171   8.171   1.880   5.808
 1076TIP3    H2 3172   8.191   1.842   5.953
 1077TIP3   OH2 3173   3.898   0.608   0.798
 1077TIP3    H1 3174   3.844   0.682   0.827
 1077TIP3    H2 3175   3.859   0.532   0.841
 1078TIP3   OH2 3176   2.967   1.932   1.276
 1078TIP3    H1 3177   2.895   1.914   1.216
 1078TIP3    H2 3178   3.038   1.962   1.220
 1079TIP3   OH2 3179   5.284   6.516   2.880
 1079TIP3    H1 3180   5.212   6.477   2.928
 1079TIP3    H2 3181   5.261   6.504   2.788
 1080TIP3   OH2 3182   7.615   0.189   4.968
 1080TIP3    H1 3183   7.587   0.266   4.918
 1080TIP3    H2 3184   7.698   0.164   4.929
 1081TIP3   OH2 3185   3.681   4.466   0.320
 1081TIP3    H1 3186   3.700   4.374   0.336
 1081TIP3    H2 3187   3.759   4.512   0.352
 1082TIP3   OH2 3188   2.486   1.513   2.576
 1082TIP3    H1 3189   2.529   1.534   2.493
 1082TIP3    H2 3190   2.528   1.432   2.605
 1083TIP3   OH2 3191   2.736   3.363   1.936
 1083TIP3    H1 3192   2.765   3.454   1.930
 1083TIP3    H2 3193   2.744   3.341   2.029
 1084TIP3   OH2 3194   7.284   1.336   3.356
 1084TIP3    H1 3195   7.221   1.362   3.290
 1084TIP3    H2 3196   7.261   1.245   3.378
 1085TIP3   OH2 3197   8.045   4.805   3.860
 1085TIP3    H1 3198   7.959   4.841   3.880
 1085TIP3    H2 3199   8.105   4.854   3.917
 1086TIP3   OH2 3200   6.992   1.314   4.763
 1086TIP3    H1 3201   6.900   1.331   4.779
 1086TIP3    H2 3202   7.035   1.333   4.847
 1087TIP3   OH2 3203   8.145   4.768   5.563
 1087TIP3    H1 3204   8.171   4.717   5.640
 1087TIP3    H2 3205   8.050   4.758   5.560
 1088TIP3   OH2 3206   6.133   2.038   5.128
 1088TIP3    H1 3207   6.103   1.968   5.186
 1088TIP3    H2 3208   6.149   1.995   5.044
 1089TIP3   OH2 3209   4.833   7.513   2.083
 1089TIP3    H1 3210   4.897   7.442   2.087
 1089TIP3    H2 3211   4.816   7.535   2.175
 1090TIP3   OH2 3212   7.844   7.682   0.442
 1090TIP3    H1 3213   7.864   7.596   0.405
 1090TIP3    H2 3214   7.899   7.687   0.520
 1091TIP3   OH2 3215   5.084   1.184   4.168
 1091TIP3    H1 3216   5.020   1.138   4.222
 1091TIP3    H2 3217   5.149   1.117   4.145
 1092TIP3   OH2 3218   0.896   2.801   4.839
 1092TIP3    H1 3219   0.927   2.852   4.914
 1092TIP3    H2 3220   0.949   2.721   4.841
 1093TIP3   OH2 3221   4.909   0.532   2.552
 1093TIP3    H1 3222   4.993   0.494   2.578
 1093TIP3    H2 3223   4.846   0.460   2.563
 1094TIP3   OH2 3224   6.769   6.941   3.876
 1094TIP3    H1 3225   6.762   6.910   3.786
 1094TIP3    H2 3226   6.770   7.036   3.869
 1095TIP3   OH2 3227   2.411   3.860   2.733
 1095TIP3    H1 3228   2.504   3.851   2.712
 1095TIP3    H2 3229   2.376   3.915   2.663
 1096TIP3   OH2 3230   2.360   1.678   4.849
 1096TIP3    H1 3231   2.424   1.695   4.918
 1096TIP3    H2 3232   2.302   1.754   4.850
 1097TIP3   OH2 3233   1.080   5.947   2.475
 1097TIP3    H1 3234   1.124   5.889   2.412
 1097TIP3    H2 3235   0.987   5.934   2.459
 1098TIP3   OH2 3236   7.547   6.951   1.373
 1098TIP3    H1 3237   7.518   6.943   1.282
 1098TIP3    H2 3238   7.630   6.903   1.376
 1099TIP3   OH2 3239   3.763   2.181   6.716
 1099TIP3    H1 3240   3.670   2.171   6.699
 1099TIP3    H2 3241   3.774   2.162   6.809
 1100TIP3   OH2 3242   5.973   2.060   2.241
 1100TIP3    H1 3243   6.021   2.137   2.208
 1100TIP3    H2 3244   5.983   1.994   2.172
 1101TIP3   OH2 3245   1.807   2.906   5.060
 1101TIP3    H1 3246   1.800   2.840   4.991
 1101TIP3    H2 3247   1.828   2.856   5.139
 1102TIP3   OH2 3248   7.961   0.447   5.588
 1102TIP3    H1 3249   7.888   0.446   5.651
 1102TIP3    H2 3250   8.037   0.419   5.639
 1103TIP3   OH2 3251   4.716   4.878   2.464
 1103TIP3    H1 3252   4.803   4.838   2.473
 1103TIP3    H2 3253   4.682   4.842   2.382
 1104TIP3   OH2 3254   5.610   4.346   3.482
 1104TIP3    H1 3255   5.668   4.278   3.517
 1104TIP3    H2 3256   5.525   4.329   3.524
 1105TIP3   OH2 3257   2.166   2.805   2.573
 1105TIP3    H1 3258   2.163   2.711   2.554
 1105TIP3    H2 3259   2.097   2.842   2.519
 1106TIP3   OH2 3260   7.133   0.607   1.565
 1106TIP3    H1 3261   7.065   0.673   1.578
 1106TIP3    H2 3262   7.189   0.644   1.496
 1107TIP3   OH2 3263   6.273   2.503   2.921
 1107TIP3    H1 3264   6.353   2.478   2.968
 1107TIP3    H2 3265   6.245   2.421   2.879
 1108TIP3   OH2 3266   3.318   4.408   3.407
 1108TIP3    H1 3267   3.246   4.411   3.469
 1108TIP3    H2 3268   3.292   4.342   3.343
 1109TIP3   OH2 3269   1.563   6.777   2.496
 1109TIP3    H1 3270   1.606   6.796   2.579
 1109TIP3    H2 3271   1.472   6.804   2.508
 1110TIP3   OH2 3272   6.496   4.869   0.284
 1110TIP3    H1 3273   6.469   4.958   0.305
 1110TIP3    H2 3274   6.502   4.867   0.188
 1111TIP3   OH2 3275   6.802   6.642   0.875
 1111TIP3    H1 3276   6.815   6.681   0.961
 1111TIP3    H2 3277   6.727   6.690   0.838
 1112TIP3   OH2 3278   1.626   4.964   6.744
 1112TIP3    H1 3279   1.618   5.048   6.699
 1112TIP3    H2 3280   1.712   4.968   6.786
 1113TIP3   OH2 3281   7.981   6.794   0.570
 1113TIP3    H1 3282   7.990   6.701   0.591
 1113TIP3    H2 3283   8.066   6.832   0.589
 1114TIP3   OH2 3284   3.909   4.975   6.454
 1114TIP3    H1 3285   3.870   4.898   6.496
 1114TIP3    H2 3286   3.871   5.050   6.500
 1115TIP3   OH2 3287   2.092   5.223   0.935
 1115TIP3    H1 3288   2.122   5.270   0.857
 1115TIP3    H2 3289   2.173   5.193   0.977
 1116TIP3   OH2 3290   7.830   4.329   4.464
 1116TIP3    H1 3291   7.865   4.416   4.449
 1116TIP3    H2 3292   7.814   4.294   4.376
 1117TIP3   OH2 3293   7.941   0.494   3.878
 1117TIP3    H1 3294   8.024   0.514   3.922
 1117TIP3    H2 3295   7.879   0.477   3.950
 1118TIP3   OH2 3296   5.603   3.373   5.229
 1118TIP3    H1 3297   5.541   3.342   5.295
 1118TIP3    H2 3298   5.680   3.400   5.279
 1119TIP3   OH2 3299   6.483   4.624   1.337
 1119TIP3    H1 3300   6.411   4.656   1.391
 1119TIP3    H2 3301   6.448   4.546   1.294
 1120TIP3   OH2 3302   4.105   4.180   0.296
 1120TIP3    H1 3303   4.044   4.186   0.222
 1120TIP3    H2 3304   4.178   4.237   0.272
 1121TIP3   OH2 3305   7.370   5.954   1.299
 1121TIP3    H1 3306   7.359   5.861   1.317
 1121TIP3    H2 3307   7.312   5.997   1.362
 1122TIP3   OH2 3308   4.951   1.955   4.397
 1122TIP3    H1 3309   4.879   2.013   4.423
 1122TIP3    H2 3310   4.910   1.889   4.341
 1123TIP3   OH2 3311   6.500   5.525   5.445
 1123TIP3    H1 3312   6.527   5.616   5.453
 1123TIP3    H2 3313   6.476   5.499   5.534
 1124TIP3   OH2 3314   2.735   5.364   4.830
 1124TIP3    H1 3315   2.659   5.317   4.795
 1124TIP3    H2 3316   2.708   5.455   4.832
 1125TIP3   OH2 3317   6.752   6.215   4.770
 1125TIP3    H1 3318   6.776   6.264   4.691
 1125TIP3    H2 3319   6.805   6.254   4.839
 1126TIP3   OH2 3320   4.270   7.514   4.625
 1126TIP3    H1 3321   4.340   7.485   4.685
 1126TIP3    H2 3322   4.208   7.561   4.681
 1127TIP3   OH2 3323   1.120   4.020   2.155
 1127TIP3    H1 3324   1.207   4.042   2.121
 1127TIP3    H2 3325   1.062   4.085   2.116
 1128TIP3   OH2 3326   6.075   4.836   3.180
 1128TIP3    H1 3327   6.049   4.882   3.260
 1128TIP3    H2 3328   6.148   4.781   3.208
 1129TIP3   OH2 3329   7.215   6.011   4.238
 1129TIP3    H1 3330   7.291   5.962   4.268
 1129TIP3    H2 3331   7.213   5.997   4.144
 1130TIP3   OH2 3332   1.403   7.401   2.867
 1130TIP3    H1 3333   1.334   7.338   2.842
 1130TIP3    H2 3334   1.483   7.348   2.869
 1131TIP3   OH2 3335   7.086   2.356   5.999
 1131TIP3    H1 3336   7.112   2.274   5.955
 1131TIP3    H2 3337   6.991   2.352   6.004
 1132TIP3   OH2 3338   1.772   1.433   6.726
 1132TIP3    H1 3339   1.691   1.396   6.691
 1132TIP3    H2 3340   1.742   1.503   6.785
 1133TIP3   OH2 3341   0.133   2.189   0.373
 1133TIP3    H1 3342   0.074   2.144   0.433
 1133TIP3    H2 3343   0.147   2.275   0.414
 1134TIP3   OH2 3344   1.285   0.818   0.026
 1134TIP3    H1 3345   1.360   0.873   0.050
 1134TIP3    H2 3346   1.209   0.862   0.065
 1135TIP3   OH2 3347   8.199   2.177   3.766
 1135TIP3    H1 3348   8.146   2.145   3.838
 1135TIP3    H2 3349   8.281   2.128   3.771
 1136TIP3   OH2 3350   2.257   0.213   4.818
 1136TIP3    H1 3351   2.270   0.307   4.804
 1136TIP3    H2 3352   2.170   0.207   4.858
 1137TIP3   OH2 3353   3.836   0.600   2.612
 1137TIP3    H1 3354   3.804   0.643   2.533
 1137TIP3    H2 3355   3.803   0.510   2.605
 1138TIP3   OH2 3356   0.394   2.629   5.200
 1138TIP3    H1 3357   0.375   2.704   5.143
 1138TIP3    H2 3358   0.341   2.558   5.165
 1139TIP3   OH2 3359   3.247   6.539   0.896
 1139TIP3    H1 3360   3.226   6.613   0.838
 1139TIP3    H2 3361   3.171   6.530   0.952
 1140TIP3   OH2 3362   2.135   0.067   2.121
 1140TIP3    H1 3363   2.133  -0.005   2.184
 1140TIP3    H2 3364   2.090   0.139   2.164
 1141TIP3   OH2 3365   6.977   5.376   4.889
 1141TIP3    H1 3366   6.985   5.468   4.864
 1141TIP3    H2 3367   6.928   5.336   4.817
 1142TIP3   OH2 3368   7.900   1.287   5.186
 1142TIP3    H1 3369   7.924   1.334   5.266
 1142TIP3    H2 3370   7.972   1.305   5.125
 1143TIP3   OH2 3371   3.980   4.095   1.383
 1143TIP3    H1 3372   3.896   4.136   1.407
 1143TIP3    H2 3373   3.956   4.024   1.325
 1144TIP3   OH2 3374   7.059   4.151   0.485
 1144TIP3    H1 3375   7.017   4.179   0.566
 1144TIP3    H2 3376   7.153   4.149   0.506
 1145TIP3   OH2 3377   6.855   0.527   3.711
 1145TIP3    H1 3378   6.829   0.477   3.634
 1145TIP3    H2 3379   6.947   0.504   3.725
 1146TIP3   OH2 3380   4.277   3.381   6.225
 1146TIP3    H1 3381   4.237   3.436   6.292
 1146TIP3    H2 3382   4.205   3.328   6.191
 1147TIP3   OH2 3383   7.084   0.134   6.622
 1147TIP3    H1 3384   7.029   0.151   6.698
 1147TIP3    H2 3385   7.162   0.189   6.635
 1148TIP3   OH2 3386   3.644   1.914   1.349
 1148TIP3    H1 3387   3.611   1.974   1.416
 1148TIP3    H2 3388   3.676   1.971   1.279
 1149TIP3   OH2 3389   3.786   3.526   5.182
 1149TIP3    H1 3390   3.786   3.585   5.257
 1149TIP3    H2 3391   3.716   3.463   5.202
 1150TIP3   OH2 3392   6.658   0.185   2.451
 1150TIP3    H1 3393   6.654   0.209   2.358
 1150TIP3    H2 3394   6.732   0.124   2.456
 1151TIP3   OH2 3395   3.990   6.520   3.264
 1151TIP3    H1 3396   3.931   6.483   3.198
 1151TIP3    H2 3397   3.975   6.468   3.343
 1152TIP3   OH2 3398   4.607   1.134   0.019
 1152TIP3    H1 3399   4.647   1.213  -0.017
 1152TIP3    H2 3400   4.568   1.162   0.102
 1153TIP3   OH2 3401   3.154   4.835   2.856
 1153TIP3    H1 3402   3.103   4.754   2.858
 1153TIP3    H2 3403   3.220   4.821   2.789
 1154TIP3   OH2 3404   0.711   5.098   1.555
 1154TIP3    H1 3405   0.757   5.180   1.536
 1154TIP3    H2 3406   0.777   5.044   1.599
 1155TIP3   OH2 3407   6.750   3.538   6.535
 1155TIP3    H1 3408   6.699   3.546   6.454
 1155TIP3    H2 3409   6.729   3.617   6.584
 1156TIP3   OH2 3410   2.174   5.505   1.131
 1156TIP3    H1 3411   2.162   5.418   1.091
 1156TIP3    H2 3412   2.253   5.495   1.185
 1157TIP3   OH2 3413   6.237   2.617   5.871
 1157TIP3    H1 3414   6.292   2.545   5.904
 1157TIP3    H2 3415   6.299   2.684   5.843
 1158TIP3   OH2 3416   6.182   0.782   6.087
 1158TIP3    H1 3417   6.215   0.755   6.002
 1158TIP3    H2 3418   6.245   0.848   6.117
 1159TIP3   OH2 3419   2.046   3.618   5.809
 1159TIP3    H1 3420   2.105   3.670   5.755
 1159TIP3    H2 3421   1.965   3.669   5.814
 1160TIP3   OH2 3422   6.593   1.313   6.510
 1160TIP3    H1 3423   6.674   1.363   6.505
 1160TIP3    H2 3424   6.561   1.328   6.599
 1161TIP3   OH2 3425   7.689   1.453   5.303
 1161TIP3    H1 3426   7.744   1.375   5.310
 1161TIP3    H2 3427   7.627   1.445   5.375
 1162TIP3   OH2 3428   4.128   4.721   0.849
 1162TIP3    H1 3429   4.196   4.787   0.862
 1162TIP3    H2 3430   4.045   4.768   0.863
 1163TIP3   OH2 3431   5.712   3.947   3.291
 1163TIP3    H1 3432   5.622   3.929   3.316
 1163TIP3    H2 3433   5.725   3.897   3.211
 1164TIP3   OH2 3434   5.656   5.349   2.013
 1164TIP3    H1 3435   5.633   5.396   2.093
 1164TIP3    H2 3436   5.726   5.401   1.974
 1165TIP3   OH2 3437   7.000   6.322   2.498
 1165TIP3    H1 3438   6.925   6.351   2.549
 1165TIP3    H2 3439   7.069   6.385   2.519
 1166TIP3   OH2 3440   6.128   3.366   4.520
 1166TIP3    H1 3441   6.068   3.310   4.470
 1166TIP3    H2 3442   6.074   3.439   4.548
 1167TIP3   OH2 3443   3.803   4.262   5.681
 1167TIP3    H1 3444   3.804   4.357   5.677
 1167TIP3    H2 3445   3.881   4.235   5.631
 1168TIP3   OH2 3446   4.957   3.031   0.626
 1168TIP3    H1 3447   4.930   3.119   0.598
 1168TIP3    H2 3448   4.889   3.004   0.688
 1169TIP3   OH2 3449   4.347   5.666   5.502
 1169TIP3    H1 3450   4.303   5.694   5.422
 1169TIP3    H2 3451   4.392   5.585   5.478
 1170TIP3   OH2 3452   3.795   6.773   6.719
 1170TIP3    H1 3453   3.763   6.846   6.665
 1170TIP3    H2 3454   3.863   6.732   6.666
 1171TIP3   OH2 3455   1.602   3.196   0.022
 1171TIP3    H1 3456   1.602   3.129   0.090
 1171TIP3    H2 3457   1.535   3.168  -0.040
 1172TIP3   OH2 3458   1.828   0.094   2.661
 1172TIP3    H1 3459   1.791   0.142   2.735
 1172TIP3    H2 3460   1.886   0.157   2.618
 1173TIP3   OH2 3461   6.534   4.691   3.280
 1173TIP3    H1 3462   6.611   4.715   3.229
 1173TIP3    H2 3463   6.570   4.654   3.361
 1174TIP3   OH2 3464   4.900   4.346   6.745
 1174TIP3    H1 3465   4.981   4.391   6.724
 1174TIP3    H2 3466   4.835   4.416   6.752
 1175TIP3   OH2 3467   5.725   1.590   3.303
 1175TIP3    H1 3468   5.687   1.587   3.390
 1175TIP3    H2 3469   5.738   1.683   3.285
 1176TIP3   OH2 3470   0.071   0.389   0.900
 1176TIP3    H1 3471   0.100   0.460   0.842
 1176TIP3    H2 3472   0.022   0.330   0.843
 1177TIP3   OH2 3473   3.660   1.241   0.946
 1177TIP3    H1 3474   3.707   1.291   0.879
 1177TIP3    H2 3475   3.636   1.306   1.012
 1178TIP3   OH2 3476   4.926   0.182   3.236
 1178TIP3    H1 3477   4.910   0.090   3.260
 1178TIP3    H2 3478   5.005   0.179   3.182
 1179TIP3   OH2 3479   3.925   2.904   4.343
 1179TIP3    H1 3480   3.930   2.809   4.335
 1179TIP3    H2 3481   3.866   2.920   4.417
 1180TIP3   OH2 3482   6.999   4.311   3.317
 1180TIP3    H1 3483   6.996   4.217   3.297
 1180TIP3    H2 3484   6.920   4.346   3.277
 1181TIP3   OH2 3485   7.534   5.752   2.764
 1181TIP3    H1 3486   7.554   5.812   2.836
 1181TIP3    H2 3487   7.439   5.754   2.757
 1182TIP3   OH2 3488   1.909   1.645   3.540
 1182TIP3    H1 3489   1.989   1.695   3.525
 1182TIP3    H2 3490   1.935   1.554   3.522
 1183TIP3   OH2 3491   5.137   3.313   6.004
 1183TIP3    H1 3492   5.208   3.302   6.067
 1183TIP3    H2 3493   5.181   3.320   5.919
 1184TIP3   OH2 3494   8.010   6.342   0.275
 1184TIP3    H1 3495   8.030   6.362   0.184
 1184TIP3    H2 3496   8.095   6.328   0.317
 1185TIP3   OH2 3497   3.006   0.004   1.934
 1185TIP3    H1 3498   3.086   0.049   1.961
 1185TIP3    H2 3499   2.937   0.069   1.947
 1186TIP3   OH2 3500   2.340   5.539   4.134
 1186TIP3    H1 3501   2.413   5.601   4.128
 1186TIP3    H2 3502   2.378   5.464   4.180
 1187TIP3   OH2 3503   6.567   2.769   0.630
 1187TIP3    H1 3504   6.589   2.676   0.633
 1187TIP3    H2 3505   6.630   2.811   0.688
 1188TIP3   OH2 3506   5.935   0.235   2.175
 1188TIP3    H1 3507   5.868   0.301   2.194
 1188TIP3    H2 3508   5.969   0.211   2.262
 1189TIP3   OH2 3509   6.189   2.365   1.829
 1189TIP3    H1 3510   6.107   2.347   1.874
 1189TIP3    H2 3511   6.166   2.369   1.736
 1190TIP3   OH2 3512   2.468   6.677   4.489
 1190TIP3    H1 3513   2.391   6.626   4.514
 1190TIP3    H2 3514   2.529   6.667   4.561
 1191TIP3   OH2 3515   1.225   5.003   5.119
 1191TIP3    H1 3516   1.224   4.944   5.044
 1191TIP3    H2 3517   1.198   5.088   5.083
 1192TIP3   OH2 3518   2.027   6.205   6.666
 1192TIP3    H1 3519   2.109   6.204   6.616
 1192TIP3    H2 3520   1.999   6.113   6.667
 1193TIP3   OH2 3521   4.906   1.477   3.805
 1193TIP3    H1 3522   4.972   1.448   3.868
 1193TIP3    H2 3523   4.942   1.453   3.719
 1194TIP3   OH2 3524   4.512   6.861   6.045
 1194TIP3    H1 3525   4.486   6.949   6.073
 1194TIP3    H2 3526   4.429   6.818   6.023
 1195TIP3   OH2 3527   3.665   1.189   5.139
 1195TIP3    H1 3528   3.740   1.201   5.082
 1195TIP3    H2 3529   3.694   1.127   5.206
 1196TIP3   OH2 3530   1.748   1.131   3.632
 1196TIP3    H1 3531   1.831   1.142   3.678
 1196TIP3    H2 3532   1.683   1.171   3.691
 1197TIP3   OH2 3533   7.629   1.765  -0.003
 1197TIP3    H1 3534   7.654   1.701  -0.069
 1197TIP3    H2 3535   7.673   1.734   0.077
 1198TIP3   OH2 3536   0.942   3.393   1.378
 1198TIP3    H1 3537   0.912   3.400   1.469
 1198TIP3    H2 3538   1.001   3.317   1.378
 1199TIP3   OH2 3539   7.603   3.061   5.160
 1199TIP3    H1 3540   7.685   3.011   5.153
 1199TIP3    H2 3541   7.619   3.124   5.230
 1200TIP3   OH2 3542   6.295   6.929   3.030
 1200TIP3    H1 3543   6.206   6.897   3.016
 1200TIP3    H2 3544   6.350   6.875   2.973
 1201TIP3   OH2 3545   5.526   2.615   1.305
 1201TIP3    H1 3546   5.560   2.627   1.216
 1201TIP3    H2 3547   5.438   2.651   1.302
 1202TIP3   OH2 3548   5.318   0.997   5.980
 1202TIP3    H1 3549   5.251   1.061   6.005
 1202TIP3    H2 3550   5.278   0.949   5.908
 1203TIP3   OH2 3551   3.752   3.492   0.002
 1203TIP3    H1 3552   3.697   3.482   0.080
 1203TIP3    H2 3553   3.825   3.547   0.031
 1204TIP3   OH2 3554   5.715   2.506   0.248
 1204TIP3    H1 3555   5.746   2.480   0.162
 1204TIP3    H2 3556   5.794   2.512   0.302
 1205TIP3   OH2 3557   6.737   7.039   2.554
 1205TIP3    H1 3558   6.729   7.037   2.459
 1205TIP3    H2 3559   6.651   7.016   2.587
 1206TIP3   OH2 3560   7.719   5.315   2.683
 1206TIP3    H1 3561   7.641   5.339   2.733
 1206TIP3    H2 3562   7.789   5.370   2.718
 1207TIP3   OH2 3563   3.744   6.987   6.489
 1207TIP3    H1 3564   3.697   7.054   6.439
 1207TIP3    H2 3565   3.831   6.985   6.450
 1208TIP3   OH2 3566   2.787   6.239   5.451
 1208TIP3    H1 3567   2.806   6.264   5.360
 1208TIP3    H2 3568   2.725   6.167   5.444
 1209TIP3   OH2 3569   6.283   6.442   3.567
 1209TIP3    H1 3570   6.196   6.468   3.537
 1209TIP3    H2 3571   6.276   6.347   3.582
 1210TIP3   OH2 3572   1.812   1.874   0.063
 1210TIP3    H1 3573   1.855   1.822  -0.005
 1210TIP3    H2 3574   1.728   1.899   0.026
 1211TIP3   OH2 3575   3.659   4.928   2.672
 1211TIP3    H1 3576   3.603   4.884   2.608
 1211TIP3    H2 3577   3.639   4.885   2.755
 1212TIP3   OH2 3578   1.065   4.973   1.593
 1212TIP3    H1 3579   0.980   4.933   1.607
 1212TIP3    H2 3580   1.060   5.057   1.638
 1213TIP3   OH2 3581   5.031   5.591   1.351
 1213TIP3    H1 3582   5.021   5.511   1.300
 1213TIP3    H2 3583   4.941   5.625   1.361
 1214TIP3   OH2 3584   7.655   4.371   6.116
 1214TIP3    H1 3585   7.568   4.407   6.099
 1214TIP3    H2 3586   7.707   4.446   6.145
 1215TIP3   OH2 3587   1.653   3.261   3.073
 1215TIP3    H1 3588   1.613   3.238   3.157
 1215TIP3    H2 3589   1.605   3.339   3.044
 1216TIP3   OH2 3590   2.566   3.732   0.511
 1216TIP3    H1 3591   2.480   3.733   0.467
 1216TIP3    H2 3592   2.609   3.653   0.477
 1217TIP3   OH2 3593   4.112   7.287   4.605
 1217TIP3    H1 3594   4.054   7.315   4.535
 1217TIP3    H2 3595   4.195   7.331   4.586
 1218TIP3   OH2 3596   3.602   3.766   4.587
 1218TIP3    H1 3597   3.549   3.709   4.643
 1218TIP3    H2 3598   3.693   3.745   4.611
 1219TIP3   OH2 3599   3.031   1.726   5.334
 1219TIP3    H1 3600   2.943   1.727   5.371
 1219TIP3    H2 3601   3.089   1.739   5.409
 1220TIP3   OH2 3602   5.581   1.840   5.904
 1220TIP3    H1 3603   5.628   1.875   5.829
 1220TIP3    H2 3604   5.517   1.779   5.867
 1221TIP3   OH2 3605   1.285   4.498   6.630
 1221TIP3    H1 3606   1.236   4.528   6.707
 1221TIP3    H2 3607   1.377   4.505   6.657
 1222TIP3   OH2 3608   0.493   1.473   6.538
 1222TIP3    H1 3609   0.400   1.461   6.556
 1222TIP3    H2 3610   0.538   1.434   6.613
 1223TIP3   OH2 3611   6.881   6.783   1.913
 1223TIP3    H1 3612   6.881   6.766   2.007
 1223TIP3    H2 3613   6.794   6.821   1.896
 1224TIP3   OH2 3614   3.028   5.317   5.768
 1224TIP3    H1 3615   3.021   5.230   5.728
 1224TIP3    H2 3616   2.950   5.324   5.823
 1225TIP3   OH2 3617   1.016   6.458   2.354
 1225TIP3    H1 3618   1.078   6.506   2.301
 1225TIP3    H2 3619   1.006   6.373   2.310
 1226TIP3   OH2 3620   2.999   6.496   4.377
 1226TIP3    H1 3621   2.927   6.537   4.424
 1226TIP3    H2 3622   3.023   6.559   4.309
 1227TIP3   OH2 3623   7.837   7.331   3.038
 1227TIP3    H1 3624   7.780   7.405   3.059
 1227TIP3    H2 3625   7.843   7.281   3.119
 1228TIP3   OH2 3626   2.603   6.208   4.476
 1228TIP3    H1 3627   2.581   6.148   4.405
 1228TIP3    H2 3628   2.520   6.246   4.502
 1229TIP3   OH2 3629   2.324   6.934   1.730
 1229TIP3    H1 3630   2.290   6.964   1.814
 1229TIP3    H2 3631   2.265   6.864   1.703
 1230TIP3   OH2 3632   0.614   3.044   3.584
 1230TIP3    H1 3633   0.695   3.064   3.537
 1230TIP3    H2 3634   0.577   3.129   3.606
 1231TIP3   OH2 3635   4.433   5.274   2.188
 1231TIP3    H1 3636   4.350   5.285   2.235
 1231TIP3    H2 3637   4.480   5.206   2.236
 1232TIP3   OH2 3638   7.320   5.808   6.266
 1232TIP3    H1 3639   7.331   5.885   6.323
 1232TIP3    H2 3640   7.317   5.734   6.327
 1233TIP3   OH2 3641   0.227   0.639   5.506
 1233TIP3    H1 3642   0.213   0.548   5.532
 1233TIP3    H2 3643   0.146   0.684   5.530
 1234TIP3   OH2 3644   6.769   5.522   0.713
 1234TIP3    H1 3645   6.740   5.609   0.739
 1234TIP3    H2 3646   6.741   5.464   0.784
 1235TIP3   OH2 3647   6.792   0.687   3.293
 1235TIP3    H1 3648   6.840   0.758   3.336
 1235TIP3    H2 3649   6.829   0.683   3.205
 1236TIP3   OH2 3650   2.338   0.331   0.613
 1236TIP3    H1 3651   2.351   0.426   0.615
 1236TIP3    H2 3652   2.312   0.309   0.703
 1237TIP3   OH2 3653   3.028   5.117   1.898
 1237TIP3    H1 3654   3.103   5.177   1.900
 1237TIP3    H2 3655   3.060   5.040   1.851
 1238TIP3   OH2 3656   3.140   5.622   4.550
 1238TIP3    H1 3657   3.178   5.539   4.582
 1238TIP3    H2 3658   3.079   5.648   4.618
 1239TIP3   OH2 3659   1.329   1.485   2.520
 1239TIP3    H1 3660   1.249   1.500   2.570
 1239TIP3    H2 3661   1.391   1.450   2.583
 1240TIP3   OH2 3662   4.273   4.346   0.157
 1240TIP3    H1 3663   4.335   4.350   0.230
 1240TIP3    H2 3664   4.327   4.331   0.080
 1241TIP3   OH2 3665   3.084   0.425   2.700
 1241TIP3    H1 3666   3.086   0.347   2.755
 1241TIP3    H2 3667   3.074   0.392   2.611
 1242TIP3   OH2 3668   0.154   5.173   6.005
 1242TIP3    H1 3669   0.155   5.079   6.024
 1242TIP3    H2 3670   0.086   5.183   5.938
 1243TIP3   OH2 3671   3.056   1.461   3.836
 1243TIP3    H1 3672   3.098   1.411   3.766
 1243TIP3    H2 3673   3.094   1.548   3.830
 1244TIP3   OH2 3674   6.063   3.027   0.196
 1244TIP3    H1 3675   6.126   3.077   0.247
 1244TIP3    H2 3676   6.046   3.081   0.118
 1245TIP3   OH2 3677   6.407   3.654   2.211
 1245TIP3    H1 3678   6.402   3.559   2.221
 1245TIP3    H2 3679   6.380   3.689   2.296
 1246TIP3   OH2 3680   5.535   1.160   1.529
 1246TIP3    H1 3681   5.573   1.235   1.574
 1246TIP3    H2 3682   5.579   1.084   1.566
 1247TIP3   OH2 3683   7.350   6.229   2.886
 1247TIP3    H1 3684   7.277   6.217   2.825
 1247TIP3    H2 3685   7.381   6.318   2.869
 1248TIP3   OH2 3686   2.485   1.913   1.207
 1248TIP3    H1 3687   2.432   1.973   1.155
 1248TIP3    H2 3688   2.470   1.940   1.297
 1249TIP3   OH2 3689   7.889   1.664   4.908
 1249TIP3    H1 3690   7.960   1.653   4.844
 1249TIP3    H2 3691   7.834   1.732   4.870
 1250TIP3   OH2 3692   7.478   1.035   6.544
 1250TIP3    H1 3693   7.504   0.946   6.568
 1250TIP3    H2 3694   7.462   1.078   6.628
 1251TIP3   OH2 3695   8.121   5.308   6.458
 1251TIP3    H1 3696   8.155   5.249   6.391
 1251TIP3    H2 3697   8.103   5.390   6.412
 1252TIP3   OH2 3698   7.873   6.018   3.606
 1252TIP3    H1 3699   7.789   6.028   3.560
 1252TIP3    H2 3700   7.848   6.013   3.699
 1253TIP3   OH2 3701   0.921   2.634   5.233
 1253TIP3    H1 3702   0.826   2.623   5.225
 1253TIP3    H2 3703   0.957   2.550   5.203
 1254TIP3   OH2 3704   3.912   5.998   3.170
 1254TIP3    H1 3705   3.948   5.945   3.099
 1254TIP3    H2 3706   3.821   6.016   3.143
 1255TIP3   OH2 3707   0.962   4.260   1.852
 1255TIP3    H1 3708   1.054   4.254   1.879
 1255TIP3    H2 3709   0.922   4.181   1.888
 1256TIP3   OH2 3710   7.597   6.194   6.324
 1256TIP3    H1 3711   7.652   6.259   6.280
 1256TIP3    H2 3712   7.594   6.120   6.264
 1257TIP3   OH2 3713   5.458   6.260   3.116
 1257TIP3    H1 3714   5.491   6.274   3.027
 1257TIP3    H2 3715   5.516   6.195   3.153
 1258TIP3   OH2 3716   1.649   3.670   0.664
 1258TIP3    H1 3717   1.562   3.689   0.631
 1258TIP3    H2 3718   1.647   3.697   0.756
 1259TIP3   OH2 3719   2.604   0.909   5.368
 1259TIP3    H1 3720   2.620   1.001   5.386
 1259TIP3    H2 3721   2.511   0.903   5.347
 1260TIP3   OH2 3722   2.019   6.274   4.217
 1260TIP3    H1 3723   1.994   6.352   4.268
 1260TIP3    H2 3724   2.048   6.309   4.133
 1261TIP3   OH2 3725   0.495   0.610   1.289
 1261TIP3    H1 3726   0.484   0.705   1.285
 1261TIP3    H2 3727   0.535   0.587   1.205
 1262TIP3   OH2 3728   4.688   1.213   6.498
 1262TIP3    H1 3729   4.643   1.198   6.414
 1262TIP3    H2 3730   4.772   1.250   6.474
 1263TIP3   OH2 3731   2.933   0.603   6.336
 1263TIP3    H1 3732   2.891   0.523   6.303
 1263TIP3    H2 3733   2.950   0.655   6.258
 1264TIP3   OH2 3734   6.912   5.234   2.807
 1264TIP3    H1 3735   6.974   5.184   2.859
 1264TIP3    H2 3736   6.860   5.282   2.871
 1265TIP3   OH2 3737   5.553   0.951   6.590
 1265TIP3    H1 3738   5.549   0.979   6.498
 1265TIP3    H2 3739   5.567   0.857   6.586
 1266TIP3   OH2 3740   6.548   2.912   2.672
 1266TIP3    H1 3741   6.535   2.951   2.758
 1266TIP3    H2 3742   6.586   2.982   2.619
 1267TIP3   OH2 3743   5.717   3.379   3.794
 1267TIP3    H1 3744   5.639   3.343   3.836
 1267TIP3    H2 3745   5.692   3.468   3.770
 1268TIP3   OH2 3746   2.667   7.362   0.094
 1268TIP3    H1 3747   2.636   7.421   0.163
 1268TIP3    H2 3748   2.679   7.278   0.138
 1269TIP3   OH2 3749   0.833   4.543   1.643
 1269TIP3    H1 3750   0.776   4.469   1.622
 1269TIP3    H2 3751   0.867   4.572   1.559
 1270TIP3   OH2 3752   2.943   1.677   4.117
 1270TIP3    H1 3753   2.866   1.698   4.065
 1270TIP3    H2 3754   2.966   1.588   4.091
 1271TIP3   OH2 3755   6.968   2.213   0.259
 1271TIP3    H1 3756   7.001   2.273   0.326
 1271TIP3    H2 3757   7.023   2.231   0.182
 1272TIP3   OH2 3758   3.748   1.437   5.306
 1272TIP3    H1 3759   3.762   1.405   5.395
 1272TIP3    H2 3760   3.672   1.389   5.274
 1273TIP3   OH2 3761   5.020   1.364   2.972
 1273TIP3    H1 3762   4.963   1.288   2.973
 1273TIP3    H2 3763   5.103   1.333   3.008
 1274TIP3   OH2 3764   5.911   7.019   1.026
 1274TIP3    H1 3765   5.990   7.062   1.058
 1274TIP3    H2 3766   5.898   6.945   1.086
 1275TIP3   OH2 3767   7.155   3.984   2.850
 1275TIP3    H1 3768   7.079   4.025   2.810
 1275TIP3    H2 3769   7.133   3.891   2.853
 1276TIP3   OH2 3770   1.948   2.454   4.854
 1276TIP3    H1 3771   1.931   2.413   4.769
 1276TIP3    H2 3772   2.043   2.446   4.866
 1277TIP3   OH2 3773   2.802   7.787   1.446
 1277TIP3    H1 3774   2.837   7.714   1.496
 1277TIP3    H2 3775   2.798   7.860   1.509
 1278TIP3   OH2 3776   4.037   4.470   0.104
 1278TIP3    H1 3777   4.040   4.522   0.023
 1278TIP3    H2 3778   4.128   4.447   0.121
 1279TIP3   OH2 3779   0.711   2.566   4.883
 1279TIP3    H1 3780   0.642   2.524   4.831
 1279TIP3    H2 3781   0.684   2.658   4.888
 1280TIP3   OH2 3782   1.399   6.621   1.658
 1280TIP3    H1 3783   1.366   6.532   1.673
 1280TIP3    H2 3784   1.321   6.675   1.650
 1281TIP3   OH2 3785   3.789   1.437   1.556
 1281TIP3    H1 3786   3.815   1.528   1.563
 1281TIP3    H2 3787   3.693   1.438   1.565
 1282TIP3   OH2 3788   4.279   4.194   0.914
 1282TIP3    H1 3789   4.247   4.254   0.847
 1282TIP3    H2 3790   4.274   4.245   0.995
 1283TIP3   OH2 3791   4.600   2.713   2.819
 1283TIP3    H1 3792   4.567   2.803   2.819
 1283TIP3    H2 3793   4.670   2.713   2.884
 1284TIP3   OH2 3794   1.396   4.272   0.851
 1284TIP3    H1 3795   1.353   4.247   0.934
 1284TIP3    H2 3796   1.431   4.190   0.817
 1285TIP3   OH2 3797   4.017   3.283   5.251
 1285TIP3    H1 3798   3.969   3.200   5.253
 1285TIP3    H2 3799   4.079   3.276   5.324
 1286TIP3   OH2 3800   1.296   7.650   2.864
 1286TIP3    H1 3801   1.355   7.721   2.891
 1286TIP3    H2 3802   1.354   7.577   2.845
 1287TIP3   OH2 3803   5.667   5.425   3.148
 1287TIP3    H1 3804   5.744   5.392   3.194
 1287TIP3    H2 3805   5.641   5.502   3.199
 1288TIP3   OH2 3806   0.456   1.681   5.972
 1288TIP3    H1 3807   0.533   1.665   5.917
 1288TIP3    H2 3808   0.442   1.598   6.018
 1289TIP3   OH2 3809   2.587   4.952   4.036
 1289TIP3    H1 3810   2.674   4.992   4.036
 1289TIP3    H2 3811   2.604   4.858   4.034
 1290TIP3   OH2 3812   2.720   0.324   6.455
 1290TIP3    H1 3813   2.704   0.230   6.457
 1290TIP3    H2 3814   2.792   0.335   6.394
 1291TIP3   OH2 3815   7.109   0.311   2.306
 1291TIP3    H1 3816   7.138   0.242   2.246
 1291TIP3    H2 3817   7.178   0.376   2.304
 1292TIP3   OH2 3818   4.284   1.250   6.103
 1292TIP3    H1 3819   4.209   1.302   6.073
 1292TIP3    H2 3820   4.260   1.160   6.081
 1293TIP3   OH2 3821   5.774   5.750   0.606
 1293TIP3    H1 3822   5.808   5.805   0.536
 1293TIP3    H2 3823   5.687   5.722   0.575
 1294TIP3   OH2 3824   5.944   5.687   6.319
 1294TIP3    H1 3825   5.959   5.633   6.241
 1294TIP3    H2 3826   5.854   5.667   6.344
 1295TIP3   OH2 3827   4.860   4.546   4.234
 1295TIP3    H1 3828   4.941   4.583   4.197
 1295TIP3    H2 3829   4.821   4.497   4.161
 1296TIP3   OH2 3830   1.821   5.747   3.770
 1296TIP3    H1 3831   1.811   5.842   3.759
 1296TIP3    H2 3832   1.775   5.728   3.852
 1297TIP3   OH2 3833   6.789   6.844   1.102
 1297TIP3    H1 3834   6.724   6.791   1.148
 1297TIP3    H2 3835   6.851   6.870   1.171
 1298TIP3   OH2 3836   5.097   3.055   4.066
 1298TIP3    H1 3837   5.065   2.981   4.014
 1298TIP3    H2 3838   5.043   3.129   4.038
 1299TIP3   OH2 3839   0.967   4.943   5.747
 1299TIP3    H1 3840   0.945   5.010   5.681
 1299TIP3    H2 3841   1.059   4.958   5.766
 1300TIP3   OH2 3842   5.637   2.512   6.637
 1300TIP3    H1 3843   5.621   2.433   6.586
 1300TIP3    H2 3844   5.587   2.581   6.592
 1301TIP3   OH2 3845   8.242   1.179   4.882
 1301TIP3    H1 3846   8.176   1.109   4.883
 1301TIP3    H2 3847   8.307   1.151   4.946
 1302TIP3   OH2 3848   0.027   6.970   3.942
 1302TIP3    H1 3849   0.008   6.940   3.853
 1302TIP3    H2 3850   0.080   7.049   3.931
 1303TIP3   OH2 3851   6.813   3.684   3.474
 1303TIP3    H1 3852   6.802   3.778   3.489
 1303TIP3    H2 3853   6.749   3.643   3.532
 1304TIP3   OH2 3854   2.672   0.524   4.446
 1304TIP3    H1 3855   2.696   0.535   4.538
 1304TIP3    H2 3856   2.581   0.494   4.448
 1305TIP3   OH2 3857   1.991   7.270   5.161
 1305TIP3    H1 3858   2.058   7.227   5.215
 1305TIP3    H2 3859   2.012   7.363   5.167
 1306TIP3   OH2 3860   5.067   2.454   0.161
 1306TIP3    H1 3861   5.026   2.368   0.174
 1306TIP3    H2 3862   5.006   2.516   0.201
 1307TIP3   OH2 3863   3.318   3.899   3.283
 1307TIP3    H1 3864   3.290   3.986   3.255
 1307TIP3    H2 3865   3.365   3.863   3.207
 1308TIP3   OH2 3866   0.164   3.357   1.555
 1308TIP3    H1 3867   0.091   3.385   1.499
 1308TIP3    H2 3868   0.242   3.371   1.501
 1309TIP3   OH2 3869   2.642   0.970   3.832
 1309TIP3    H1 3870   2.608   0.927   3.753
 1309TIP3    H2 3871   2.736   0.952   3.829
 1310TIP3   OH2 3872   4.192   6.027   1.451
 1310TIP3    H1 3873   4.105   6.002   1.483
 1310TIP3    H2 3874   4.249   6.019   1.527
 1311TIP3   OH2 3875   7.781   1.018   0.560
 1311TIP3    H1 3876   7.718   1.033   0.490
 1311TIP3    H2 3877   7.764   0.928   0.588
 1312TIP3   OH2 3878   4.215   4.518   2.152
 1312TIP3    H1 3879   4.184   4.480   2.070
 1312TIP3    H2 3880   4.156   4.591   2.169
 1313TIP3   OH2 3881   0.095   2.001   2.665
 1313TIP3    H1 3882   0.110   1.930   2.727
 1313TIP3    H2 3883   0.112   1.962   2.579
 1314TIP3   OH2 3884   7.604   1.951   6.083
 1314TIP3    H1 3885   7.700   1.949   6.081
 1314TIP3    H2 3886   7.583   1.974   6.174
 1315TIP3   OH2 3887   6.663   5.312   5.430
 1315TIP3    H1 3888   6.706   5.325   5.514
 1315TIP3    H2 3889   6.624   5.397   5.409
 1316TIP3   OH2 3890   0.378   7.240   1.118
 1316TIP3    H1 3891   0.393   7.146   1.106
 1316TIP3    H2 3892   0.451   7.269   1.173
 1317TIP3   OH2 3893   2.263   0.601   3.352
 1317TIP3    H1 3894   2.335   0.610   3.289
 1317TIP3    H2 3895   2.208   0.678   3.338
 1318TIP3   OH2 3896   7.806   1.711   3.905
 1318TIP3    H1 3897   7.859   1.640   3.870
 1318TIP3    H2 3898   7.806   1.696   4.000
 1319TIP3   OH2 3899   5.131   0.229   5.435
 1319TIP3    H1 3900   5.194   0.273   5.377
 1319TIP3    H2 3901   5.179   0.155   5.471
 1320TIP3   OH2 3902   5.861   7.316   6.640
 1320TIP3    H1 3903   5.887   7.229   6.612
 1320TIP3    H2 3904   5.767   7.309   6.658
 1321TIP3   OH2 3905   4.209   6.692   3.207
 1321TIP3    H1 3906   4.136   6.632   3.225
 1321TIP3    H2 3907   4.205   6.707   3.113
 1322TIP3   OH2 3908   8.118   1.660   5.057
 1322TIP3    H1 3909   8.161   1.731   5.009
 1322TIP3    H2 3910   8.028   1.660   5.022
 1323TIP3   OH2 3911   2.323   4.719   2.580
 1323TIP3    H1 3912   2.276   4.763   2.651
 1323TIP3    H2 3913   2.415   4.728   2.603
 1324TIP3   OH2 3914   2.420   6.457   0.803
 1324TIP3    H1 3915   2.455   6.369   0.794
 1324TIP3    H2 3916   2.325   6.445   0.809
 1325TIP3   OH2 3917   1.369   1.146   0.650
 1325TIP3    H1 3918   1.464   1.139   0.637
 1325TIP3    H2 3919   1.339   1.200   0.577
 1326TIP3   OH2 3920   5.955   1.494   4.377
 1326TIP3    H1 3921   5.897   1.511   4.451
 1326TIP3    H2 3922   5.992   1.579   4.355
 1327TIP3   OH2 3923   1.164   5.517   4.108
 1327TIP3    H1 3924   1.100   5.490   4.174
 1327TIP3    H2 3925   1.231   5.564   4.157
 1328TIP3   OH2 3926   0.192   3.934   0.974
 1328TIP3    H1 3927   0.137   3.893   1.040
 1328TIP3    H2 3928   0.157   3.905   0.890
 1329TIP3   OH2 3929   3.537   4.163   1.679
 1329TIP3    H1 3930   3.465   4.126   1.627
 1329TIP3    H2 3931   3.509   4.253   1.696
 1330TIP3   OH2 3932   5.745   5.112   6.030
 1330TIP3    H1 3933   5.705   5.071   5.953
 1330TIP3    H2 3934   5.763   5.039   6.090
 1331TIP3   OH2 3935   0.670   4.584   2.641
 1331TIP3    H1 3936   0.613   4.641   2.590
 1331TIP3    H2 3937   0.747   4.572   2.586
 1332TIP3   OH2 3938   0.642   5.113   0.383
 1332TIP3    H1 3939   0.634   5.040   0.444
 1332TIP3    H2 3940   0.699   5.079   0.314
 1333TIP3   OH2 3941   0.742   0.856   1.537
 1333TIP3    H1 3942   0.648   0.844   1.544
 1333TIP3    H2 3943   0.765   0.913   1.610
 1334TIP3   OH2 3944   1.615   2.475   1.954
 1334TIP3    H1 3945   1.583   2.552   2.001
 1334TIP3    H2 3946   1.632   2.506   1.866
 1335TIP3   OH2 3947   5.942   3.475   6.509
 1335TIP3    H1 3948   5.917   3.386   6.532
 1335TIP3    H2 3949   5.905   3.488   6.422
 1336TIP3   OH2 3950   3.781   2.563   4.429
 1336TIP3    H1 3951   3.692   2.567   4.393
 1336TIP3    H2 3952   3.837   2.597   4.359
 1337TIP3   OH2 3953   4.505   0.568   6.002
 1337TIP3    H1 3954   4.502   0.490   6.057
 1337TIP3    H2 3955   4.437   0.625   6.037
 1338TIP3   OH2 3956   5.060   4.581   5.208
 1338TIP3    H1 3957   5.102   4.631   5.138
 1338TIP3    H2 3958   4.987   4.536   5.165
 1339TIP3   OH2 3959   4.033   2.536   5.721
 1339TIP3    H1 3960   4.127   2.555   5.725
 1339TIP3    H2 3961   4.015   2.487   5.801
 1340TIP3   OH2 3962   3.560   4.381   3.170
 1340TIP3    H1 3963   3.511   4.354   3.092
 1340TIP3    H2 3964   3.652   4.373   3.145
 1341TIP3   OH2 3965   5.487   6.757   0.105
 1341TIP3    H1 3966   5.532   6.709   0.174
 1341TIP3    H2 3967   5.406   6.709   0.091
 1342TIP3   OH2 3968   5.005   7.182   2.720
 1342TIP3    H1 3969   4.922   7.171   2.673
 1342TIP3    H2 3970   5.014   7.276   2.731
 1343TIP3   OH2 3971   0.717   7.465   3.236
 1343TIP3    H1 3972   0.759   7.550   3.221
 1343TIP3    H2 3973   0.751   7.409   3.167
 1344TIP3   OH2 3974   0.163   4.827   3.187
 1344TIP3    H1 3975   0.111   4.753   3.219
 1344TIP3    H2 3976   0.101   4.882   3.140
 1345TIP3   OH2 3977   0.231   4.949   6.362
 1345TIP3    H1 3978   0.286   4.951   6.283
 1345TIP3    H2 3979   0.201   5.039   6.373
 1346TIP3   OH2 3980   1.636   6.022   1.301
 1346TIP3    H1 3981   1.608   6.056   1.216
 1346TIP3    H2 3982   1.725   5.992   1.286
 1347TIP3   OH2 3983   7.658   6.615   3.192
 1347TIP3    H1 3984   7.683   6.702   3.224
 1347TIP3    H2 3985   7.729   6.591   3.132
 1348TIP3   OH2 3986   4.924   4.057   1.036
 1348TIP3    H1 3987   4.831   4.078   1.025
 1348TIP3    H2 3988   4.927   3.961   1.032
 1349TIP3   OH2 3989   1.792   3.581   1.350
 1349TIP3    H1 3990   1.887   3.571   1.345
 1349TIP3    H2 3991   1.778   3.673   1.372
 1350TIP3   OH2 3992   3.474   2.133   6.368
 1350TIP3    H1 3993   3.528   2.127   6.290
 1350TIP3    H2 3994   3.384   2.126   6.336
 1351TIP3   OH2 3995   3.740   3.230   3.901
 1351TIP3    H1 3996   3.669   3.185   3.855
 1351TIP3    H2 3997   3.787   3.160   3.947
 1352TIP3   OH2 3998   4.936   4.079   2.228
 1352TIP3    H1 3999   5.015   4.122   2.259
 1352TIP3    H2 4000   4.918   4.120   2.143
 1353TIP3   OH2 4001   0.602   3.028   1.213
 1353TIP3    H1 4002   0.525   3.002   1.161
 1353TIP3    H2 4003   0.584   3.119   1.238
 1354TIP3   OH2 4004   4.515   6.238   1.700
 1354TIP3    H1 4005   4.542   6.243   1.608
 1354TIP3    H2 4006   4.503   6.145   1.716
 1355TIP3   OH2 4007   8.102   6.599   5.164
 1355TIP3    H1 4008   8.174   6.555   5.208
 1355TIP3    H2 4009   8.133   6.689   5.150
 1356TIP3   OH2 4010   4.493   4.752   6.314
 1356TIP3    H1 4011   4.408   4.709   6.309
 1356TIP3    H2 4012   4.523   4.757   6.223
 1357TIP3   OH2 4013   0.302   3.553   4.852
 1357TIP3    H1 4014   0.305   3.622   4.785
 1357TIP3    H2 4015   0.345   3.478   4.811
 1358TIP3   OH2 4016   1.993   1.388   5.001
 1358TIP3    H1 4017   1.900   1.384   5.021
 1358TIP3    H2 4018   2.002   1.464   4.943
 1359TIP3   OH2 4019   5.734   5.352   6.317
 1359TIP3    H1 4020   5.744   5.437   6.274
 1359TIP3    H2 4021   5.685   5.299   6.254
 1360TIP3   OH2 4022   5.479   0.682   1.036
 1360TIP3    H1 4023   5.399   0.696   0.984
 1360TIP3    H2 4024   5.522   0.608   0.994
 1361TIP3   OH2 4025   1.598   1.629   2.689
 1361TIP3    H1 4026   1.634   1.717   2.695
 1361TIP3    H2 4027   1.611   1.591   2.776
 1362TIP3   OH2 4028   4.209   1.196   1.173
 1362TIP3    H1 4029   4.138   1.260   1.173
 1362TIP3    H2 4030   4.289   1.248   1.164
 1363TIP3   OH2 4031   4.193   5.056   6.439
 1363TIP3    H1 4032   4.109   5.013   6.450
 1363TIP3    H2 4033   4.177   5.122   6.371
 1364TIP3   OH2 4034   5.969   6.516   4.800
 1364TIP3    H1 4035   5.933   6.432   4.771
 1364TIP3    H2 4036   6.016   6.494   4.881
 1365TIP3   OH2 4037   4.795   3.063   1.937
 1365TIP3    H1 4038   4.789   3.002   2.010
 1365TIP3    H2 4039   4.881   3.045   1.897
 1366TIP3   OH2 4040   0.499   3.218   3.177
 1366TIP3    H1 4041   0.480   3.300   3.132
 1366TIP3    H2 4042   0.420   3.165   3.166
 1367TIP3   OH2 4043   5.584   5.840   5.371
 1367TIP3    H1 4044   5.557   5.752   5.346
 1367TIP3    H2 4045   5.502   5.891   5.370
 1368TIP3   OH2 4046   1.422   0.582   0.117
 1368TIP3    H1 4047   1.377   0.655   0.075
 1368TIP3    H2 4048   1.480   0.622   0.182
 1369TIP3   OH2 4049   8.008   0.957   3.445
 1369TIP3    H1 4050   8.023   1.039   3.492
 1369TIP3    H2 4051   7.936   0.976   3.385
 1370TIP3   OH2 4052   3.081   2.044   2.830
 1370TIP3    H1 4053   3.028   2.048   2.909
 1370TIP3    H2 4054   3.165   2.007   2.859
 1371TIP3   OH2 4055   1.117   3.454   3.654
 1371TIP3    H1 4056   1.023   3.454   3.634
 1371TIP3    H2 4057   1.121   3.431   3.746
 1372TIP3   OH2 4058   7.094   4.930   3.671
 1372TIP3    H1 4059   7.115   5.023   3.668
 1372TIP3    H2 4060   7.025   4.918   3.606
 1373TIP3   OH2 4061   4.685   0.769   2.345
 1373TIP3    H1 4062   4.668   0.692   2.290
 1373TIP3    H2 4063   4.623   0.759   2.418
 1374TIP3   OH2 4064   6.075   7.370   1.924
 1374TIP3    H1 4065   6.058   7.449   1.975
 1374TIP3    H2 4066   6.137   7.397   1.857
 1375TIP3   OH2 4067   1.416   4.802   1.438
 1375TIP3    H1 4068   1.361   4.805   1.360
 1375TIP3    H2 4069   1.502   4.831   1.407
 1376TIP3   OH2 4070   3.028   5.525   5.003
 1376TIP3    H1 4071   2.991   5.489   5.083
 1376TIP3    H2 4072   3.122   5.527   5.018
 1377TIP3   OH2 4073   6.551   1.496   1.511
 1377TIP3    H1 4074   6.639   1.528   1.533
 1377TIP3    H2 4075   6.493   1.570   1.530
 1378TIP3   OH2 4076   5.880   0.951   4.965
 1378TIP3    H1 4077   5.967   0.912   4.973
 1378TIP3    H2 4078   5.834   0.897   4.902
 1379TIP3   OH2 4079   7.120   3.025   0.315
 1379TIP3    H1 4080   7.200   2.986   0.351
 1379TIP3    H2 4081   7.049   2.978   0.358
 1380TIP3   OH2 4082   0.107   6.358   3.919
 1380TIP3    H1 4083   0.030   6.303   3.935
 1380TIP3    H2 4084   0.072   6.436   3.876
 1381TIP3   OH2 4085   0.610   7.305   5.716
 1381TIP3    H1 4086   0.636   7.275   5.629
 1381TIP3    H2 4087   0.686   7.289   5.771
 1382TIP3   OH2 4088   3.960   4.138   3.424
 1382TIP3    H1 4089   3.957   4.046   3.451
 1382TIP3    H2 4090   3.886   4.149   3.365
 1383TIP3   OH2 4091   6.454   4.974   4.148
 1383TIP3    H1 4092   6.511   4.901   4.172
 1383TIP3    H2 4093   6.455   4.975   4.052
 1384TIP3   OH2 4094   5.590   0.976   0.570
 1384TIP3    H1 4095   5.509   0.981   0.518
 1384TIP3    H2 4096   5.658   0.959   0.505
 1385TIP3   OH2 4097   3.312   7.632   5.047
 1385TIP3    H1 4098   3.311   7.675   4.962
 1385TIP3    H2 4099   3.332   7.703   5.109
 1386TIP3   OH2 4100   3.288   2.734   1.381
 1386TIP3    H1 4101   3.254   2.644   1.383
 1386TIP3    H2 4102   3.324   2.748   1.468
 1387TIP3   OH2 4103   6.021   5.364   6.386
 1387TIP3    H1 4104   6.029   5.310   6.465
 1387TIP3    H2 4105   5.944   5.329   6.342
 1388TIP3   OH2 4106   3.051   2.181   2.598
 1388TIP3    H1 4107   3.053   2.138   2.684
 1388TIP3    H2 4108   3.024   2.271   2.616
 1389TIP3   OH2 4109   5.583   3.304   4.762
 1389TIP3    H1 4110   5.555   3.378   4.815
 1389TIP3    H2 4111   5.618   3.241   4.825
 1390TIP3   OH2 4112   4.246   1.906   2.188
 1390TIP3    H1 4113   4.218   1.998   2.198
 1390TIP3    H2 4114   4.338   1.912   2.162
 1391TIP3   OH2 4115   0.467   5.937   5.974
 1391TIP3    H1 4116   0.498   6.019   5.935
 1391TIP3    H2 4117   0.378   5.927   5.941
 1392TIP3   OH2 4118   3.038   1.045   2.624
 1392TIP3    H1 4119   3.122   1.003   2.643
 1392TIP3    H2 4120   2.977   1.008   2.688
 1393TIP3   OH2 4121   5.436   0.134   3.903
 1393TIP3    H1 4122   5.498   0.146   3.976
 1393TIP3    H2 4123   5.350   0.126   3.946
 1394TIP3   OH2 4124   2.663   6.524   2.105
 1394TIP3    H1 4125   2.601   6.532   2.178
 1394TIP3    H2 4126   2.648   6.602   2.052
 1395TIP3   OH2 4127   4.169   5.288   0.249
 1395TIP3    H1 4128   4.111   5.249   0.314
 1395TIP3    H2 4129   4.119   5.361   0.212
 1396TIP3   OH2 4130   3.670   5.359   2.858
 1396TIP3    H1 4131   3.755   5.350   2.900
 1396TIP3    H2 4132   3.614   5.399   2.925
 1397TIP3   OH2 4133   4.485   6.479   6.435
 1397TIP3    H1 4134   4.537   6.557   6.451
 1397TIP3    H2 4135   4.500   6.458   6.343
 1398TIP3   OH2 4136   3.029   1.287   4.245
 1398TIP3    H1 4137   3.014   1.278   4.339
 1398TIP3    H2 4138   3.115   1.327   4.238
 1399TIP3   OH2 4139   4.513   2.732   5.457
 1399TIP3    H1 4140   4.551   2.815   5.485
 1399TIP3    H2 4141   4.418   2.744   5.467
 1400TIP3   OH2 4142   0.177   2.604   4.496
 1400TIP3    H1 4143   0.171   2.588   4.591
 1400TIP3    H2 4144   0.209   2.694   4.489
 1401TIP3   OH2 4145   5.017   0.379   3.406
 1401TIP3    H1 4146   5.064   0.329   3.473
 1401TIP3    H2 4147   4.973   0.313   3.353
 1402TIP3   OH2 4148   8.178   6.041   1.861
 1402TIP3    H1 4149   8.242   6.017   1.794
 1402TIP3    H2 4150   8.179   6.137   1.861
 1403TIP3   OH2 4151   6.693   4.502   5.260
 1403TIP3    H1 4152   6.732   4.537   5.341
 1403TIP3    H2 4153   6.751   4.430   5.235
 1404TIP3   OH2 4154   1.572   6.823   3.600
 1404TIP3    H1 4155   1.547   6.877   3.674
 1404TIP3    H2 4156   1.570   6.882   3.525
 1405TIP3   OH2 4157   5.475   7.131   0.854
 1405TIP3    H1 4158   5.524   7.113   0.774
 1405TIP3    H2 4159   5.542   7.144   0.921
 1406TIP3   OH2 4160   3.252   4.373   6.444
 1406TIP3    H1 4161   3.295   4.419   6.372
 1406TIP3    H2 4162   3.304   4.395   6.521
 1407TIP3   OH2 4163   5.998   2.403   5.755
 1407TIP3    H1 4164   6.040   2.477   5.799
 1407TIP3    H2 4165   5.963   2.440   5.673
 1408TIP3   OH2 4166   1.235   6.960   5.022
 1408TIP3    H1 4167   1.171   6.939   4.954
 1408TIP3    H2 4168   1.242   6.881   5.074
 1409TIP3   OH2 4169   4.372   2.036   6.601
 1409TIP3    H1 4170   4.461   2.001   6.612
 1409TIP3    H2 4171   4.367   2.108   6.664
 1410TIP3   OH2 4172   8.239   6.872   0.549
 1410TIP3    H1 4173   8.235   6.963   0.577
 1410TIP3    H2 4174   8.328   6.844   0.572
 1411TIP3   OH2 4175   8.120   7.636   2.435
 1411TIP3    H1 4176   8.029   7.607   2.436
 1411TIP3    H2 4177   8.143   7.641   2.343
 1412TIP3   OH2 4178   3.582   7.217   0.401
 1412TIP3    H1 4179   3.554   7.243   0.314
 1412TIP3    H2 4180   3.523   7.144   0.424
 1413TIP3   OH2 4181   0.556   4.168   3.660
 1413TIP3    H1 4182   0.492   4.223   3.614
 1413TIP3    H2 4183   0.575   4.097   3.599
 1414TIP3   OH2 4184   8.065   4.032   2.874
 1414TIP3    H1 4185   8.082   3.940   2.892
 1414TIP3    H2 4186   8.003   4.031   2.800
 1415TIP3   OH2 4187   4.787   3.408   5.772
 1415TIP3    H1 4188   4.813   3.423   5.862
 1415TIP3    H2 4189   4.722   3.338   5.776
 1416TIP3   OH2 4190   7.263   1.538   3.526
 1416TIP3    H1 4191   7.183   1.587   3.506
 1416TIP3    H2 4192   7.269   1.472   3.458
 1417TIP3   OH2 4193   2.777   7.314   5.894
 1417TIP3    H1 4194   2.735   7.364   5.964
 1417TIP3    H2 4195   2.754   7.223   5.912
 1418TIP3   OH2 4196   3.735   6.598   0.418
 1418TIP3    H1 4197   3.696   6.602   0.506
 1418TIP3    H2 4198   3.660   6.591   0.359
 1419TIP3   OH2 4199   0.096   3.032   1.436
 1419TIP3    H1 4200   0.124   2.946   1.467
 1419TIP3    H2 4201   0.176   3.071   1.400
 1420TIP3   OH2 4202   6.484   4.676   1.961
 1420TIP3    H1 4203   6.497   4.715   2.047
 1420TIP3    H2 4204   6.455   4.586   1.979
 1421TIP3   OH2 4205   5.744   5.480   6.578
 1421TIP3    H1 4206   5.737   5.419   6.651
 1421TIP3    H2 4207   5.780   5.428   6.506
 1422TIP3   OH2 4208   1.801   6.303   1.030
 1422TIP3    H1 4209   1.834   6.279   1.116
 1422TIP3    H2 4210   1.744   6.231   1.005
 1423TIP3   OH2 4211   3.081   7.530   0.719
 1423TIP3    H1 4212   3.052   7.442   0.695
 1423TIP3    H2 4213   3.026   7.555   0.793
 1424TIP3   OH2 4214   1.670   6.120   0.375
 1424TIP3    H1 4215   1.603   6.131   0.443
 1424TIP3    H2 4216   1.751   6.149   0.416
 1425TIP3   OH2 4217   3.564   2.751   0.706
 1425TIP3    H1 4218   3.512   2.671   0.719
 1425TIP3    H2 4219   3.613   2.735   0.625
 1426TIP3   OH2 4220   6.109   1.017   4.451
 1426TIP3    H1 4221   6.161   0.966   4.514
 1426TIP3    H2 4222   6.090   0.956   4.380
 1427TIP3   OH2 4223   8.064   3.785   1.405
 1427TIP3    H1 4224   8.048   3.713   1.344
 1427TIP3    H2 4225   8.157   3.779   1.425
 1428TIP3   OH2 4226   6.961   7.528   4.266
 1428TIP3    H1 4227   7.047   7.502   4.233
 1428TIP3    H2 4228   6.980   7.588   4.337
 1429TIP3   OH2 4229   8.121   2.202   5.177
 1429TIP3    H1 4230   8.107   2.109   5.191
 1429TIP3    H2 4231   8.134   2.210   5.082
 1430TIP3   OH2 4232   0.507   4.797   0.925
 1430TIP3    H1 4233   0.509   4.869   0.988
 1430TIP3    H2 4234   0.473   4.722   0.973
 1431TIP3   OH2 4235   7.956   2.258   2.014
 1431TIP3    H1 4236   7.861   2.244   2.019
 1431TIP3    H2 4237   7.990   2.176   1.977
 1432TIP3   OH2 4238   1.482   7.575   5.982
 1432TIP3    H1 4239   1.570   7.559   5.948
 1432TIP3    H2 4240   1.433   7.609   5.907
 1433TIP3   OH2 4241   4.160   1.036   1.793
 1433TIP3    H1 4242   4.139   1.085   1.714
 1433TIP3    H2 4243   4.225   0.971   1.765
 1434TIP3   OH2 4244   4.710   0.255   2.652
 1434TIP3    H1 4245   4.639   0.276   2.713
 1434TIP3    H2 4246   4.790   0.271   2.703
 1435TIP3   OH2 4247   5.540   4.748   0.393
 1435TIP3    H1 4248   5.462   4.740   0.338
 1435TIP3    H2 4249   5.509   4.727   0.481
 1436TIP3   OH2 4250   1.284   1.286   0.420
 1436TIP3    H1 4251   1.189   1.292   0.411
 1436TIP3    H2 4252   1.314   1.251   0.337
 1437TIP3   OH2 4253   5.156   4.153   5.334
 1437TIP3    H1 4254   5.074   4.203   5.334
 1437TIP3    H2 4255   5.168   4.126   5.243
 1438TIP3   OH2 4256   0.064   4.745   5.186
 1438TIP3    H1 4257   0.061   4.838   5.211
 1438TIP3    H2 4258   0.048   4.698   5.267
 1439TIP3   OH2 4259   8.260   2.831   2.973
 1439TIP3    H1 4260   8.188   2.883   2.939
 1439TIP3    H2 4261   8.220   2.776   3.041
 1440TIP3   OH2 4262   7.050   4.261   0.778
 1440TIP3    H1 4263   7.018   4.351   0.783
 1440TIP3    H2 4264   7.119   4.256   0.845
 1441TIP3   OH2 4265   4.702   0.887   0.055
 1441TIP3    H1 4266   4.668   0.977   0.053
 1441TIP3    H2 4267   4.624   0.832   0.048
 1442TIP3   OH2 4268   5.676   1.533   1.290
 1442TIP3    H1 4269   5.694   1.593   1.362
 1442TIP3    H2 4270   5.738   1.460   1.303
 1443TIP3   OH2 4271   0.166   5.805   6.184
 1443TIP3    H1 4272   0.255   5.778   6.159
 1443TIP3    H2 4273   0.179   5.874   6.250
 1444TIP3   OH2 4274   2.181   7.428   1.311
 1444TIP3    H1 4275   2.185   7.521   1.291
 1444TIP3    H2 4276   2.272   7.399   1.308
 1445TIP3   OH2 4277   6.252   5.948   3.197
 1445TIP3    H1 4278   6.284   6.030   3.157
 1445TIP3    H2 4279   6.210   5.901   3.125
 1446TIP3   OH2 4280   8.052   5.230   1.242
 1446TIP3    H1 4281   8.011   5.279   1.170
 1446TIP3    H2 4282   7.984   5.169   1.271
 1447TIP3   OH2 4283   4.296   7.457   5.025
 1447TIP3    H1 4284   4.365   7.500   4.974
 1447TIP3    H2 4285   4.315   7.363   5.016
 1448TIP3   OH2 4286   7.282   6.401   0.445
 1448TIP3    H1 4287   7.288   6.373   0.536
 1448TIP3    H2 4288   7.210   6.350   0.408
 1449TIP3   OH2 4289   3.506   5.550   3.007
 1449TIP3    H1 4290   3.443   5.496   3.055
 1449TIP3    H2 4291   3.513   5.631   3.057
 1450TIP3   OH2 4292   2.278   5.395   1.857
 1450TIP3    H1 4293   2.305   5.348   1.936
 1450TIP3    H2 4294   2.187   5.368   1.844
 1451TIP3   OH2 4295   2.507   2.628   4.557
 1451TIP3    H1 4296   2.585   2.660   4.601
 1451TIP3    H2 4297   2.538   2.556   4.502
 1452TIP3   OH2 4298   3.364   3.625   0.476
 1452TIP3    H1 4299   3.380   3.719   0.467
 1452TIP3    H2 4300   3.337   3.597   0.389
 1453TIP3   OH2 4301   4.792   7.772   6.725
 1453TIP3    H1 4302   4.746   7.689   6.716
 1453TIP3    H2 4303   4.767   7.821   6.647
 1454TIP3   OH2 4304   7.451   7.369   0.616
 1454TIP3    H1 4305   7.481   7.281   0.593
 1454TIP3    H2 4306   7.433   7.411   0.532
 1455TIP3   OH2 4307   7.520   5.847   6.618
 1455TIP3    H1 4308   7.592   5.801   6.574
 1455TIP3    H2 4309   7.478   5.780   6.672
 1456TIP3   OH2 4310   2.081   3.255   1.527
 1456TIP3    H1 4311   2.082   3.178   1.469
 1456TIP3    H2 4312   2.136   3.319   1.482
 1457TIP3   OH2 4313   1.505   1.852   4.261
 1457TIP3    H1 4314   1.516   1.757   4.252
 1457TIP3    H2 4315   1.439   1.875   4.196
 1458TIP3   OH2 4316   7.747   2.202   1.715
 1458TIP3    H1 4317   7.707   2.208   1.802
 1458TIP3    H2 4318   7.673   2.189   1.656
 1459TIP3   OH2 4319   4.853   3.119   6.643
 1459TIP3    H1 4320   4.812   3.165   6.569
 1459TIP3    H2 4321   4.825   3.169   6.720
 1460TIP3   OH2 4322   0.965   5.743   2.161
 1460TIP3    H1 4323   0.898   5.722   2.225
 1460TIP3    H2 4324   1.043   5.761   2.213
 1461TIP3   OH2 4325   3.939   3.959   0.142
 1461TIP3    H1 4326   3.932   4.045   0.101
 1461TIP3    H2 4327   3.869   3.908   0.102
 1462TIP3   OH2 4328   5.159   5.683   2.654
 1462TIP3    H1 4329   5.185   5.591   2.649
 1462TIP3    H2 4330   5.238   5.732   2.632
 1463TIP3   OH2 4331   6.652   6.691   5.333
 1463TIP3    H1 4332   6.729   6.652   5.292
 1463TIP3    H2 4333   6.686   6.766   5.382
 1464TIP3   OH2 4334   7.157   4.759   2.453
 1464TIP3    H1 4335   7.222   4.813   2.497
 1464TIP3    H2 4336   7.090   4.821   2.425
 1465TIP3   OH2 4337   7.155   0.896   4.753
 1465TIP3    H1 4338   7.129   0.981   4.719
 1465TIP3    H2 4339   7.124   0.833   4.688
 1466TIP3   OH2 4340   1.145   3.670   5.392
 1466TIP3    H1 4341   1.182   3.758   5.382
 1466TIP3    H2 4342   1.067   3.682   5.446
 1467TIP3   OH2 4343   7.557   7.197   2.148
 1467TIP3    H1 4344   7.588   7.256   2.079
 1467TIP3    H2 4345   7.546   7.253   2.224
 1468TIP3   OH2 4346   6.811   4.994   5.719
 1468TIP3    H1 4347   6.869   5.069   5.710
 1468TIP3    H2 4348   6.745   5.007   5.650
 1469TIP3   OH2 4349   6.006   0.076   5.473
 1469TIP3    H1 4350   5.934   0.026   5.437
 1469TIP3    H2 4351   6.036   0.026   5.549
 1470TIP3   OH2 4352   6.147   3.514   1.955
 1470TIP3    H1 4353   6.137   3.433   1.905
 1470TIP3    H2 4354   6.064   3.524   2.002
 1471TIP3   OH2 4355   4.670   7.611   0.943
 1471TIP3    H1 4356   4.590   7.559   0.933
 1471TIP3    H2 4357   4.696   7.598   1.034
 1472TIP3   OH2 4358   1.880   0.642   6.238
 1472TIP3    H1 4359   1.821   0.665   6.166
 1472TIP3    H2 4360   1.963   0.619   6.195
 1473TIP3   OH2 4361   3.988   6.832   1.185
 1473TIP3    H1 4362   3.921   6.771   1.154
 1473TIP3    H2 4363   4.071   6.789   1.163
 1474TIP3   OH2 4364   5.965   7.212   5.098
 1474TIP3    H1 4365   5.875   7.214   5.130
 1474TIP3    H2 4366   6.014   7.166   5.167
 1475TIP3   OH2 4367   1.222   6.769   2.930
 1475TIP3    H1 4368   1.130   6.746   2.915
 1475TIP3    H2 4369   1.250   6.709   3.000
 1476TIP3   OH2 4370   3.610   0.545   5.055
 1476TIP3    H1 4371   3.584   0.587   5.138
 1476TIP3    H2 4372   3.673   0.606   5.017
 1477TIP3   OH2 4373   6.075   0.238   4.204
 1477TIP3    H1 4374   6.157   0.196   4.179
 1477TIP3    H2 4375   6.017   0.164   4.227
 1478TIP3   OH2 4376   5.559   4.423   5.573
 1478TIP3    H1 4377   5.643   4.386   5.546
 1478TIP3    H2 4378   5.581   4.507   5.614
 1479TIP3   OH2 4379   4.143   1.546   6.537
 1479TIP3    H1 4380   4.210   1.504   6.590
 1479TIP3    H2 4381   4.172   1.636   6.529
 1480TIP3   OH2 4382   5.687   5.619   2.944
 1480TIP3    H1 4383   5.597   5.647   2.929
 1480TIP3    H2 4384   5.682   5.554   3.014
 1481TIP3   OH2 4385   4.741   4.016   5.911
 1481TIP3    H1 4386   4.652   4.048   5.895
 1481TIP3    H2 4387   4.728   3.934   5.960
 1482TIP3   OH2 4388   2.983   0.934   5.386
 1482TIP3    H1 4389   2.994   0.957   5.294
 1482TIP3    H2 4390   2.930   0.855   5.385
 1483TIP3   OH2 4391   2.979   4.740   0.467
 1483TIP3    H1 4392   3.049   4.742   0.402
 1483TIP3    H2 4393   2.928   4.819   0.450
 1484TIP3   OH2 4394   7.347   7.699   2.015
 1484TIP3    H1 4395   7.392   7.731   2.094
 1484TIP3    H2 4396   7.256   7.687   2.044
 1485TIP3   OH2 4397   0.390   0.206   6.066
 1485TIP3    H1 4398   0.460   0.147   6.093
 1485TIP3    H2 4399   0.311   0.171   6.107
 1486TIP3   OH2 4400   1.410   1.764   4.779
 1486TIP3    H1 4401   1.460   1.686   4.753
 1486TIP3    H2 4402   1.455   1.837   4.737
 1487TIP3   OH2 4403   4.609   5.603   1.416
 1487TIP3    H1 4404   4.660   5.617   1.336
 1487TIP3    H2 4405   4.527   5.565   1.385
 1488TIP3   OH2 4406   5.563   7.258   4.936
 1488TIP3    H1 4407   5.638   7.249   4.878
 1488TIP3    H2 4408   5.542   7.169   4.963
 1489TIP3   OH2 4409   4.967   0.632   1.805
 1489TIP3    H1 4410   5.027   0.691   1.849
 1489TIP3    H2 4411   4.953   0.671   1.718
 1490TIP3   OH2 4412   2.728   0.632   0.866
 1490TIP3    H1 4413   2.805   0.646   0.921
 1490TIP3    H2 4414   2.752   0.559   0.809
 1491TIP3   OH2 4415   2.272   2.016   1.005
 1491TIP3    H1 4416   2.223   2.010   0.923
 1491TIP3    H2 4417   2.242   1.940   1.056
 1492TIP3   OH2 4418   5.064   5.152   3.142
 1492TIP3    H1 4419   4.990   5.209   3.120
 1492TIP3    H2 4420   5.104   5.194   3.219
 1493TIP3   OH2 4421   6.854   5.991   1.733
 1493TIP3    H1 4422   6.930   6.004   1.790
 1493TIP3    H2 4423   6.780   6.024   1.784
 1494TIP3   OH2 4424   1.255   5.405   4.513
 1494TIP3    H1 4425   1.346   5.390   4.489
 1494TIP3    H2 4426   1.215   5.443   4.435
 1495TIP3   OH2 4427   1.166   2.324   6.635
 1495TIP3    H1 4428   1.220   2.399   6.661
 1495TIP3    H2 4429   1.223   2.273   6.577
 1496TIP3   OH2 4430   4.350   0.822   4.266
 1496TIP3    H1 4431   4.404   0.826   4.345
 1496TIP3    H2 4432   4.291   0.897   4.273
 1497TIP3   OH2 4433   0.059   2.446   1.607
 1497TIP3    H1 4434   0.150   2.424   1.588
 1497TIP3    H2 4435   0.040   2.401   1.689
 1498TIP3   OH2 4436   0.086   3.184   6.507
 1498TIP3    H1 4437  -0.001   3.150   6.485
 1498TIP3    H2 4438   0.069   3.247   6.577
 1499TIP3   OH2 4439   5.623   1.975   0.609
 1499TIP3    H1 4440   5.659   1.889   0.586
 1499TIP3    H2 4441   5.569   2.000   0.535
 1500TIP3   OH2 4442   3.658   2.270   1.665
 1500TIP3    H1 4443   3.675   2.360   1.639
 1500TIP3    H2 4444   3.726   2.219   1.622
 1501TIP3   OH2 4445   5.364   2.637   5.770
 1501TIP3    H1 4446   5.427   2.701   5.738
 1501TIP3    H2 4447   5.280   2.667   5.737
 1502TIP3   OH2 4448  -0.031   4.245   0.870
 1502TIP3    H1 4449   0.052   4.247   0.918
 1502TIP3    H2 4450  -0.012   4.287   0.787
 1503TIP3   OH2 4451   4.995   0.889   5.311
 1503TIP3    H1 4452   5.089   0.902   5.323
 1503TIP3    H2 4453   4.960   0.977   5.304
 1504TIP3   OH2 4454   4.823   0.319   1.739
 1504TIP3    H1 4455   4.815   0.385   1.808
 1504TIP3    H2 4456   4.743   0.329   1.687
 1505TIP3   OH2 4457   6.212   4.760   4.182
 1505TIP3    H1 4458   6.146   4.763   4.251
 1505TIP3    H2 4459   6.285   4.812   4.218
 1506TIP3   OH2 4460   4.931   7.405   1.573
 1506TIP3    H1 4461   4.961   7.314   1.567
 1506TIP3    H2 4462   4.981   7.441   1.647
 1507TIP3   OH2 4463   5.415   7.500   4.948
 1507TIP3    H1 4464   5.393   7.525   4.858
 1507TIP3    H2 4465   5.466   7.420   4.939
 1508TIP3   OH2 4466   3.155   2.256   3.087
 1508TIP3    H1 4467   3.097   2.331   3.104
 1508TIP3    H2 4468   3.211   2.251   3.165
 1509TIP3   OH2 4469   0.319   4.553   3.410
 1509TIP3    H1 4470   0.380   4.479   3.402
 1509TIP3    H2 4471   0.355   4.620   3.353
 1510TIP3   OH2 4472   7.994   2.143   1.508
 1510TIP3    H1 4473   8.029   2.202   1.441
 1510TIP3    H2 4474   7.910   2.114   1.472
 1511TIP3   OH2 4475   3.768   5.903   6.603
 1511TIP3    H1 4476   3.720   5.822   6.590
 1511TIP3    H2 4477   3.855   5.885   6.567
 1512TIP3   OH2 4478   0.539   6.964   6.442
 1512TIP3    H1 4479   0.622   7.006   6.421
 1512TIP3    H2 4480   0.516   6.914   6.364
 1513TIP3   OH2 4481   2.201   2.747   5.555
 1513TIP3    H1 4482   2.217   2.717   5.645
 1513TIP3    H2 4483   2.124   2.803   5.561
 1514TIP3   OH2 4484   7.774   5.057   3.263
 1514TIP3    H1 4485   7.758   5.090   3.351
 1514TIP3    H2 4486   7.748   4.965   3.266
 1515TIP3   OH2 4487   0.331   3.683   0.213
 1515TIP3    H1 4488   0.424   3.662   0.226
 1515TIP3    H2 4489   0.332   3.776   0.190
 1516TIP3   OH2 4490   1.481   1.493   3.808
 1516TIP3    H1 4491   1.431   1.551   3.865
 1516TIP3    H2 4492   1.459   1.522   3.719
 1517TIP3   OH2 4493   3.358   5.172   5.722
 1517TIP3    H1 4494   3.432   5.209   5.674
 1517TIP3    H2 4495   3.349   5.227   5.800
 1518TIP3   OH2 4496   2.383   5.299   6.488
 1518TIP3    H1 4497   2.387   5.382   6.441
 1518TIP3    H2 4498   2.410   5.321   6.577
 1519TIP3   OH2 4499   2.426   4.302   6.585
 1519TIP3    H1 4500   2.491   4.292   6.654
 1519TIP3    H2 4501   2.474   4.285   6.504
 1520TIP3   OH2 4502   6.184   3.736   5.192
 1520TIP3    H1 4503   6.198   3.679   5.268
 1520TIP3    H2 4504   6.177   3.676   5.118
 1521TIP3   OH2 4505   6.523   2.664   3.173
 1521TIP3    H1 4506   6.567   2.687   3.091
 1521TIP3    H2 4507   6.458   2.598   3.147
 1522TIP3   OH2 4508   6.593   4.603   6.657
 1522TIP3    H1 4509   6.642   4.685   6.668
 1522TIP3    H2 4510   6.623   4.547   6.729
 1523TIP3   OH2 4511   6.965   4.214   4.884
 1523TIP3    H1 4512   6.878   4.185   4.911
 1523TIP3    H2 4513   6.980   4.294   4.934
 1524TIP3   OH2 4514   3.707   0.093   4.149
 1524TIP3    H1 4515   3.695   0.089   4.054
 1524TIP3    H2 4516   3.799   0.118   4.161
 1525TIP3   OH2 4517   4.331   5.878   5.201
 1525TIP3    H1 4518   4.395   5.909   5.137
 1525TIP3    H2 4519   4.345   5.784   5.205
 1526TIP3   OH2 4520   6.431   7.630   2.679
 1526TIP3    H1 4521   6.448   7.616   2.772
 1526TIP3    H2 4522   6.378   7.711   2.677
 1527TIP3   OH2 4523   7.179   3.441   3.750
 1527TIP3    H1 4524   7.237   3.377   3.792
 1527TIP3    H2 4525   7.228   3.523   3.754
 1528TIP3   OH2 4526   8.189   2.658   4.636
 1528TIP3    H1 4527   8.097   2.650   4.608
 1528TIP3    H2 4528   8.239   2.638   4.557
 1529TIP3   OH2 4529   4.148   3.957   5.452
 1529TIP3    H1 4530   4.167   4.008   5.530
 1529TIP3    H2 4531   4.197   4.001   5.382
 1530TIP3   OH2 4532   5.558   4.635   6.523
 1530TIP3    H1 4533   5.566   4.730   6.519
 1530TIP3    H2 4534   5.629   4.602   6.467
 1531TIP3   OH2 4535   6.019   6.381   2.225
 1531TIP3    H1 4536   6.012   6.449   2.158
 1531TIP3    H2 4537   6.046   6.303   2.177
 1532TIP3   OH2 4538   6.764   4.363   3.523
 1532TIP3    H1 4539   6.684   4.313   3.542
 1532TIP3    H2 4540   6.734   4.453   3.514
 1533TIP3   OH2 4541   3.086   2.265   5.817
 1533TIP3    H1 4542   2.996   2.264   5.851
 1533TIP3    H2 4543   3.131   2.330   5.872
 1534TIP3   OH2 4544   1.859   1.900   1.077
 1534TIP3    H1 4545   1.844   1.825   1.020
 1534TIP3    H2 4546   1.779   1.908   1.128
 1535TIP3   OH2 4547   3.896   0.983   0.936
 1535TIP3    H1 4548   3.991   0.966   0.935
 1535TIP3    H2 4549   3.884   1.054   0.872
 1536TIP3   OH2 4550   2.095   2.849   3.401
 1536TIP3    H1 4551   2.190   2.855   3.388
 1536TIP3    H2 4552   2.063   2.936   3.377
 1537TIP3   OH2 4553   0.531   6.341   0.675
 1537TIP3    H1 4554   0.599   6.408   0.664
 1537TIP3    H2 4555   0.574   6.259   0.652
 1538TIP3   OH2 4556   4.022   2.262   0.511
 1538TIP3    H1 4557   4.005   2.304   0.427
 1538TIP3    H2 4558   3.937   2.226   0.537
 1539TIP3   OH2 4559   0.329   0.339   0.154
 1539TIP3    H1 4560   0.243   0.366   0.186
 1539TIP3    H2 4561   0.361   0.416   0.106
 1540TIP3   OH2 4562   7.734   2.475   2.144
 1540TIP3    H1 4563   7.711   2.406   2.082
 1540TIP3    H2 4564   7.788   2.431   2.210
 1541TIP3   OH2 4565   5.403   6.948   1.472
 1541TIP3    H1 4566   5.344   6.882   1.508
 1541TIP3    H2 4567   5.367   6.969   1.386
 1542TIP3   OH2 4568   3.623   1.156   4.663
 1542TIP3    H1 4569   3.610   1.079   4.608
 1542TIP3    H2 4570   3.712   1.185   4.643
 1543TIP3   OH2 4571   6.309   2.675   3.761
 1543TIP3    H1 4572   6.244   2.744   3.765
 1543TIP3    H2 4573   6.393   2.720   3.750
 1544TIP3   OH2 4574   7.229   6.051   3.539
 1544TIP3    H1 4575   7.219   6.141   3.569
 1544TIP3    H2 4576   7.187   5.998   3.606
 1545TIP3   OH2 4577   6.964   3.553   4.784
 1545TIP3    H1 4578   7.031   3.490   4.809
 1545TIP3    H2 4579   6.896   3.544   4.851
 1546TIP3   OH2 4580   3.450   6.101   2.655
 1546TIP3    H1 4581   3.532   6.143   2.629
 1546TIP3    H2 4582   3.464   6.008   2.635
 1547TIP3   OH2 4583   7.167   2.141   2.542
 1547TIP3    H1 4584   7.111   2.160   2.617
 1547TIP3    H2 4585   7.256   2.160   2.574
 1548TIP3   OH2 4586   6.717   2.325   6.625
 1548TIP3    H1 4587   6.720   2.375   6.706
 1548TIP3    H2 4588   6.627   2.334   6.595
 1549TIP3   OH2 4589   3.016   7.449   4.861
 1549TIP3    H1 4590   3.031   7.540   4.836
 1549TIP3    H2 4591   2.964   7.454   4.941
 1550TIP3   OH2 4592   2.874   4.123   5.405
 1550TIP3    H1 4593   2.787   4.155   5.382
 1550TIP3    H2 4594   2.883   4.143   5.499
 1551TIP3   OH2 4595   0.247   3.891   0.531
 1551TIP3    H1 4596   0.201   3.975   0.543
 1551TIP3    H2 4597   0.337   3.916   0.510
 1552TIP3   OH2 4598   1.367   2.048   6.142
 1552TIP3    H1 4599   1.339   2.097   6.219
 1552TIP3    H2 4600   1.430   1.984   6.176
 1553TIP3   OH2 4601   4.579   6.574   1.225
 1553TIP3    H1 4602   4.666   6.612   1.233
 1553TIP3    H2 4603   4.567   6.560   1.131
 1554TIP3   OH2 4604   6.435   6.048   2.368
 1554TIP3    H1 4605   6.515   6.019   2.412
 1554TIP3    H2 4606   6.373   6.064   2.439
 1555TIP3   OH2 4607   0.326   6.653   5.331
 1555TIP3    H1 4608   0.371   6.580   5.373
 1555TIP3    H2 4609   0.369   6.662   5.246
 1556TIP3   OH2 4610   0.731   2.685   2.729
 1556TIP3    H1 4611   0.716   2.733   2.811
 1556TIP3    H2 4612   0.751   2.596   2.757
 1557TIP3   OH2 4613   1.259   0.893   6.214
 1557TIP3    H1 4614   1.330   0.851   6.166
 1557TIP3    H2 4615   1.302   0.951   6.276
 1558TIP3   OH2 4616   4.201   4.265   6.258
 1558TIP3    H1 4617   4.270   4.330   6.272
 1558TIP3    H2 4618   4.195   4.217   6.340
 1559TIP3   OH2 4619   3.644   7.045   2.691
 1559TIP3    H1 4620   3.625   6.962   2.648
 1559TIP3    H2 4621   3.685   7.099   2.623
 1560TIP3   OH2 4622   7.154   4.201   1.431
 1560TIP3    H1 4623   7.067   4.233   1.408
 1560TIP3    H2 4624   7.207   4.280   1.437
 1561TIP3   OH2 4625   4.559   0.624   6.480
 1561TIP3    H1 4626   4.554   0.719   6.487
 1561TIP3    H2 4627   4.486   0.592   6.533
 1562TIP3   OH2 4628   6.328   5.395   4.884
 1562TIP3    H1 4629   6.384   5.365   4.812
 1562TIP3    H2 4630   6.258   5.445   4.841
 1563TIP3   OH2 4631   5.793   3.948   0.771
 1563TIP3    H1 4632   5.711   3.991   0.794
 1563TIP3    H2 4633   5.767   3.862   0.738
 1564TIP3   OH2 4634   6.095   4.866   1.993
 1564TIP3    H1 4635   6.025   4.880   2.057
 1564TIP3    H2 4636   6.120   4.774   2.003
 1565TIP3   OH2 4637   2.586   4.630   6.611
 1565TIP3    H1 4638   2.567   4.723   6.612
 1565TIP3    H2 4639   2.645   4.616   6.685
 1566TIP3   OH2 4640   2.980   7.073   6.224
 1566TIP3    H1 4641   2.973   6.978   6.208
 1566TIP3    H2 4642   3.056   7.100   6.173
 1567TIP3   OH2 4643   4.043   5.410   5.677
 1567TIP3    H1 4644   3.968   5.412   5.617
 1567TIP3    H2 4645   4.024   5.337   5.737
 1568TIP3   OH2 4646   6.733   0.762   3.008
 1568TIP3    H1 4647   6.800   0.828   2.990
 1568TIP3    H2 4648   6.755   0.689   2.949
 1569TIP3   OH2 4649   7.397   4.122   5.655
 1569TIP3    H1 4650   7.404   4.033   5.621
 1569TIP3    H2 4651   7.326   4.119   5.718
 1570TIP3   OH2 4652   0.054   4.599   3.287
 1570TIP3    H1 4653  -0.016   4.625   3.347
 1570TIP3    H2 4654   0.128   4.578   3.344
 1571TIP3   OH2 4655   0.789   4.292   0.319
 1571TIP3    H1 4656   0.795   4.242   0.237
 1571TIP3    H2 4657   0.879   4.321   0.336
 1572TIP3   OH2 4658   2.809   0.191   2.736
 1572TIP3    H1 4659   2.757   0.258   2.692
 1572TIP3    H2 4660   2.807   0.116   2.677
 1573TIP3   OH2 4661   2.463   6.186   0.758
 1573TIP3    H1 4662   2.448   6.189   0.664
 1573TIP3    H2 4663   2.553   6.156   0.768
 1574TIP3   OH2 4664   3.893   0.458   4.398
 1574TIP3    H1 4665   3.902   0.422   4.310
 1574TIP3    H2 4666   3.889   0.553   4.384
 1575TIP3   OH2 4667   4.886   3.711   5.543
 1575TIP3    H1 4668   4.936   3.745   5.469
 1575TIP3    H2 4669   4.943   3.646   5.584
 1576TIP3   OH2 4670   0.585   1.331   2.546
 1576TIP3    H1 4671   0.651   1.287   2.493
 1576TIP3    H2 4672   0.502   1.296   2.514
 1577TIP3   OH2 4673   8.152   7.408   1.579
 1577TIP3    H1 4674   8.219   7.405   1.511
 1577TIP3    H2 4675   8.085   7.346   1.550
 1578TIP3   OH2 4676   1.579   4.401   4.425
 1578TIP3    H1 4677   1.529   4.397   4.344
 1578TIP3    H2 4678   1.564   4.315   4.466
 1579TIP3   OH2 4679   5.439   0.042   5.904
 1579TIP3    H1 4680   5.507   0.020   5.841
 1579TIP3    H2 4681   5.442   0.138   5.910
 1580TIP3   OH2 4682   0.137   1.338   5.141
 1580TIP3    H1 4683   0.161   1.251   5.108
 1580TIP3    H2 4684   0.065   1.322   5.202
 1581TIP3   OH2 4685   0.544   0.132   3.355
 1581TIP3    H1 4686   0.501   0.201   3.305
 1581TIP3    H2 4687   0.473   0.084   3.398
 1582TIP3   OH2 4688   2.263   1.807   3.978
 1582TIP3    H1 4689   2.283   1.894   4.011
 1582TIP3    H2 4690   2.347   1.761   3.979
 1583TIP3   OH2 4691   2.967   7.339   4.437
 1583TIP3    H1 4692   3.050   7.335   4.486
 1583TIP3    H2 4693   2.899   7.326   4.504
 1584TIP3   OH2 4694   0.276   2.765   6.221
 1584TIP3    H1 4695   0.331   2.772   6.143
 1584TIP3    H2 4696   0.251   2.854   6.242
 1585TIP3   OH2 4697   2.152   4.939   3.842
 1585TIP3    H1 4698   2.120   5.011   3.787
 1585TIP3    H2 4699   2.245   4.958   3.855
 1586TIP3   OH2 4700   7.768   2.664   1.857
 1586TIP3    H1 4701   7.762   2.650   1.951
 1586TIP3    H2 4702   7.791   2.756   1.848
 1587TIP3   OH2 4703   3.439   4.501   2.574
 1587TIP3    H1 4704   3.462   4.475   2.485
 1587TIP3    H2 4705   3.403   4.422   2.615
 1588TIP3   OH2 4706   7.801   6.799   4.167
 1588TIP3    H1 4707   7.880   6.756   4.200
 1588TIP3    H2 4708   7.825   6.831   4.080
 1589TIP3   OH2 4709   6.369   1.876   3.768
 1589TIP3    H1 4710   6.313   1.903   3.841
 1589TIP3    H2 4711   6.422   1.954   3.748
 1590TIP3   OH2 4712   4.667   7.469   3.208
 1590TIP3    H1 4713   4.738   7.452   3.270
 1590TIP3    H2 4714   4.644   7.561   3.223
 1591TIP3   OH2 4715   0.036   0.734   0.059
 1591TIP3    H1 4716   0.054   0.825   0.035
 1591TIP3    H2 4717   0.096   0.716   0.131
 1592TIP3   OH2 4718   4.146   6.208   6.465
 1592TIP3    H1 4719   4.213   6.205   6.397
 1592TIP3    H2 4720   4.093   6.285   6.443
 1593TIP3   OH2 4721   2.657   1.703   4.033
 1593TIP3    H1 4722   2.613   1.702   4.118
 1593TIP3    H2 4723   2.589   1.727   3.971
 1594TIP3   OH2 4724   4.530   1.067   2.664
 1594TIP3    H1 4725   4.483   1.131   2.718
 1594TIP3    H2 4726   4.468   0.995   2.654
 1595TIP3   OH2 4727   6.282   2.041   0.643
 1595TIP3    H1 4728   6.205   2.000   0.604
 1595TIP3    H2 4729   6.269   2.031   0.738
 1596TIP3   OH2 4730   6.546   3.093   3.554
 1596TIP3    H1 4731   6.505   3.084   3.468
 1596TIP3    H2 4732   6.539   3.006   3.594
 1597TIP3   OH2 4733   3.096   3.757   6.288
 1597TIP3    H1 4734   3.027   3.692   6.280
 1597TIP3    H2 4735   3.177   3.707   6.285
 1598TIP3   OH2 4736   3.204   2.661   4.451
 1598TIP3    H1 4737   3.165   2.685   4.535
 1598TIP3    H2 4738   3.295   2.639   4.471
 1599TIP3   OH2 4739   5.175   4.742   2.328
 1599TIP3    H1 4740   5.245   4.789   2.373
 1599TIP3    H2 4741   5.161   4.792   2.247
 1600TIP3   OH2 4742   2.310   0.255   3.176
 1600TIP3    H1 4743   2.362   0.214   3.245
 1600TIP3    H2 4744   2.226   0.276   3.218
 1601TIP3   OH2 4745   5.507   1.395   2.431
 1601TIP3    H1 4746   5.497   1.300   2.439
 1601TIP3    H2 4747   5.530   1.409   2.339
 1602TIP3   OH2 4748   5.485   7.311   5.351
 1602TIP3    H1 4749   5.428   7.331   5.425
 1602TIP3    H2 4750   5.487   7.392   5.300
 1603TIP3   OH2 4751   5.362   1.016   1.733
 1603TIP3    H1 4752   5.368   1.094   1.788
 1603TIP3    H2 4753   5.418   1.035   1.657
 1604TIP3   OH2 4754   6.688   4.217   4.893
 1604TIP3    H1 4755   6.603   4.186   4.861
 1604TIP3    H2 4756   6.694   4.307   4.861
 1605TIP3   OH2 4757   3.472   6.081   1.797
 1605TIP3    H1 4758   3.567   6.085   1.810
 1605TIP3    H2 4759   3.460   6.010   1.734
 1606TIP3   OH2 4760   5.911   5.524   0.763
 1606TIP3    H1 4761   6.001   5.556   0.767
 1606TIP3    H2 4762   5.865   5.586   0.706
 1607TIP3   OH2 4763   4.803   2.139   0.929
 1607TIP3    H1 4764   4.880   2.125   0.874
 1607TIP3    H2 4765   4.835   2.128   1.019
 1608TIP3   OH2 4766   4.572   3.513   0.340
 1608TIP3    H1 4767   4.607   3.490   0.254
 1608TIP3    H2 4768   4.605   3.602   0.357
 1609TIP3   OH2 4769   1.416   1.213   4.616
 1609TIP3    H1 4770   1.379   1.142   4.668
 1609TIP3    H2 4771   1.503   1.182   4.592
 1610TIP3   OH2 4772   5.052   6.688   1.078
 1610TIP3    H1 4773   4.959   6.707   1.085
 1610TIP3    H2 4774   5.059   6.634   0.999
 1611TIP3   OH2 4775   4.874   2.145  -0.013
 1611TIP3    H1 4776   4.864   2.120   0.079
 1611TIP3    H2 4777   4.827   2.076  -0.062
 1612TIP3   OH2 4778   2.556   6.009   3.245
 1612TIP3    H1 4779   2.584   6.096   3.274
 1612TIP3    H2 4780   2.461   6.014   3.243
 1613TIP3   OH2 4781   4.720   5.073   6.116
 1613TIP3    H1 4782   4.673   4.991   6.130
 1613TIP3    H2 4783   4.692   5.129   6.188
 1614TIP3   OH2 4784   5.274   0.176   6.445
 1614TIP3    H1 4785   5.277   0.269   6.465
 1614TIP3    H2 4786   5.270   0.173   6.349
 1615TIP3   OH2 4787   6.314   0.482   2.465
 1615TIP3    H1 4788   6.283   0.418   2.529
 1615TIP3    H2 4789   6.301   0.440   2.380
 1616TIP3   OH2 4790   7.127   4.116   4.697
 1616TIP3    H1 4791   7.195   4.173   4.731
 1616TIP3    H2 4792   7.048   4.142   4.744
 1617TIP3   OH2 4793   2.266   6.382   6.565
 1617TIP3    H1 4794   2.305   6.373   6.478
 1617TIP3    H2 4795   2.211   6.460   6.559
 1618TIP3   OH2 4796   4.922   7.082   0.904
 1618TIP3    H1 4797   4.834   7.117   0.899
 1618TIP3    H2 4798   4.974   7.138   0.846
 1619TIP3   OH2 4799   1.241   0.413   3.389
 1619TIP3    H1 4800   1.147   0.398   3.399
 1619TIP3    H2 4801   1.259   0.489   3.443
 1620TIP3   OH2 4802   1.756   1.258   2.276
 1620TIP3    H1 4803   1.719   1.267   2.364
 1620TIP3    H2 4804   1.813   1.182   2.282
 1621TIP3   OH2 4805   5.489   2.740   3.902
 1621TIP3    H1 4806   5.546   2.812   3.925
 1621TIP3    H2 4807   5.445   2.717   3.984
 1622TIP3   OH2 4808   1.839   0.056   0.882
 1622TIP3    H1 4809   1.749   0.082   0.860
 1622TIP3    H2 4810   1.828  -0.017   0.943
 1623TIP3   OH2 4811   5.536   3.672   4.011
 1623TIP3    H1 4812   5.588   3.751   4.028
 1623TIP3    H2 4813   5.545   3.657   3.917
 1624TIP3   OH2 4814   7.658   2.214   1.989
 1624TIP3    H1 4815   7.649   2.132   2.038
 1624TIP3    H2 4816   7.569   2.241   1.970
 1625TIP3   OH2 4817   3.850   3.320   2.818
 1625TIP3    H1 4818   3.836   3.406   2.778
 1625TIP3    H2 4819   3.836   3.258   2.746
 1626TIP3   OH2 4820   5.891   6.488   3.873
 1626TIP3    H1 4821   5.984   6.489   3.894
 1626TIP3    H2 4822   5.869   6.580   3.860
 1627TIP3   OH2 4823   7.228   2.978   2.247
 1627TIP3    H1 4824   7.158   3.008   2.306
 1627TIP3    H2 4825   7.184   2.917   2.188
 1628TIP3   OH2 4826   7.256   4.419   2.786
 1628TIP3    H1 4827   7.218   4.431   2.873
 1628TIP3    H2 4828   7.184   4.441   2.726
 1629TIP3   OH2 4829   7.863   0.394   4.780
 1629TIP3    H1 4830   7.818   0.470   4.742
 1629TIP3    H2 4831   7.955   0.408   4.757
 1630TIP3   OH2 4832   0.220   7.064   1.668
 1630TIP3    H1 4833   0.236   7.039   1.759
 1630TIP3    H2 4834   0.277   7.005   1.617
 1631TIP3   OH2 4835   5.500   3.286   5.735
 1631TIP3    H1 4836   5.579   3.273   5.683
 1631TIP3    H2 4837   5.522   3.359   5.793
 1632TIP3   OH2 4838   4.355   2.728   3.086
 1632TIP3    H1 4839   4.293   2.661   3.059
 1632TIP3    H2 4840   4.309   2.811   3.075
 1633TIP3   OH2 4841   7.115   0.343   6.264
 1633TIP3    H1 4842   7.112   0.388   6.179
 1633TIP3    H2 4843   7.104   0.413   6.328
 1634TIP3   OH2 4844   5.422   1.992   5.093
 1634TIP3    H1 4845   5.387   2.034   5.172
 1634TIP3    H2 4846   5.484   2.055   5.057
 1635TIP3   OH2 4847   7.843   2.131   4.618
 1635TIP3    H1 4848   7.902   2.153   4.546
 1635TIP3    H2 4849   7.756   2.156   4.587
 1636TIP3   OH2 4850   4.215   6.298   0.414
 1636TIP3    H1 4851   4.233   6.247   0.335
 1636TIP3    H2 4852   4.119   6.301   0.419
 1637TIP3   OH2 4853   0.909   4.728   3.512
 1637TIP3    H1 4854   0.815   4.739   3.496
 1637TIP3    H2 4855   0.951   4.752   3.429
 1638TIP3   OH2 4856   5.020   3.755   0.984
 1638TIP3    H1 4857   4.952   3.690   0.967
 1638TIP3    H2 4858   5.067   3.723   1.061
 1639TIP3   OH2 4859   1.085   1.154   3.688
 1639TIP3    H1 4860   1.163   1.144   3.634
 1639TIP3    H2 4861   1.088   1.080   3.749
 1640TIP3   OH2 4862   1.463   4.126   3.468
 1640TIP3    H1 4863   1.383   4.075   3.476
 1640TIP3    H2 4864   1.530   4.073   3.510
 1641TIP3   OH2 4865   6.199   2.328   5.020
 1641TIP3    H1 4866   6.194   2.239   5.054
 1641TIP3    H2 4867   6.149   2.381   5.082
 1642TIP3   OH2 4868   1.197   2.068   5.799
 1642TIP3    H1 4869   1.274   2.120   5.823
 1642TIP3    H2 4870   1.142   2.070   5.877
 1643TIP3   OH2 4871   1.426   6.677   1.040
 1643TIP3    H1 4872   1.338   6.666   1.005
 1643TIP3    H2 4873   1.414   6.718   1.125
 1644TIP3   OH2 4874   5.828   1.386   6.726
 1644TIP3    H1 4875   5.758   1.367   6.664
 1644TIP3    H2 4876   5.785   1.425   6.801
 1645TIP3   OH2 4877   4.104   2.425   6.459
 1645TIP3    H1 4878   4.055   2.371   6.521
 1645TIP3    H2 4879   4.141   2.363   6.396
 1646TIP3   OH2 4880   7.304   5.545   4.424
 1646TIP3    H1 4881   7.377   5.584   4.472
 1646TIP3    H2 4882   7.236   5.530   4.490
 1647TIP3   OH2 4883   4.686   1.263   3.042
 1647TIP3    H1 4884   4.713   1.173   3.024
 1647TIP3    H2 4885   4.689   1.307   2.957
 1648TIP3   OH2 4886   2.753   3.016   1.392
 1648TIP3    H1 4887   2.713   3.013   1.305
 1648TIP3    H2 4888   2.727   3.101   1.428
 1649TIP3   OH2 4889   6.873   0.117   3.895
 1649TIP3    H1 4890   6.805   0.183   3.907
 1649TIP3    H2 4891   6.826   0.033   3.902
 1650TIP3   OH2 4892   3.069   0.784   3.750
 1650TIP3    H1 4893   3.081   0.690   3.738
 1650TIP3    H2 4894   3.078   0.821   3.662
 1651TIP3   OH2 4895   1.581   1.847   4.514
 1651TIP3    H1 4896   1.544   1.930   4.544
 1651TIP3    H2 4897   1.550   1.838   4.424
 1652TIP3   OH2 4898   5.874   2.908   0.577
 1652TIP3    H1 4899   5.968   2.905   0.560
 1652TIP3    H2 4900   5.836   2.936   0.494
 1653TIP3   OH2 4901   4.571   5.924   1.879
 1653TIP3    H1 4902   4.572   5.849   1.819
 1653TIP3    H2 4903   4.663   5.933   1.907
 1654TIP3   OH2 4904   5.151   0.988   0.612
 1654TIP3    H1 4905   5.195   0.957   0.692
 1654TIP3    H2 4906   5.199   0.946   0.541
 1655TIP3   OH2 4907   4.638   4.079   5.321
 1655TIP3    H1 4908   4.606   4.045   5.405
 1655TIP3    H2 4909   4.649   4.173   5.335
 1656TIP3   OH2 4910   4.430   3.764   3.300
 1656TIP3    H1 4911   4.446   3.678   3.337
 1656TIP3    H2 4912   4.443   3.753   3.206
 1657TIP3   OH2 4913   7.568   6.456   4.242
 1657TIP3    H1 4914   7.516   6.535   4.259
 1657TIP3    H2 4915   7.571   6.450   4.147
 1658TIP3   OH2 4916   7.649   5.617   2.092
 1658TIP3    H1 4917   7.574   5.566   2.124
 1658TIP3    H2 4918   7.717   5.552   2.076
 1659TIP3   OH2 4919   6.769   3.926   0.992
 1659TIP3    H1 4920   6.737   3.902   0.905
 1659TIP3    H2 4921   6.779   3.842   1.037
 1660TIP3   OH2 4922   8.131   7.376   4.274
 1660TIP3    H1 4923   8.122   7.401   4.182
 1660TIP3    H2 4924   8.219   7.339   4.280
 1661TIP3   OH2 4925   5.693   2.671   2.098
 1661TIP3    H1 4926   5.660   2.630   2.179
 1661TIP3    H2 4927   5.640   2.750   2.087
 1662TIP3   OH2 4928   0.421   6.340   1.561
 1662TIP3    H1 4929   0.488   6.277   1.586
 1662TIP3    H2 4930   0.374   6.359   1.642
 1663TIP3   OH2 4931   5.345   4.630   5.791
 1663TIP3    H1 4932   5.425   4.624   5.739
 1663TIP3    H2 4933   5.289   4.560   5.758
 1664TIP3   OH2 4934   2.358   0.054   1.634
 1664TIP3    H1 4935   2.437   0.099   1.605
 1664TIP3    H2 4936   2.349   0.078   1.726
 1665TIP3   OH2 4937   5.125   7.187   1.112
 1665TIP3    H1 4938   5.085   7.134   1.043
 1665TIP3    H2 4939   5.192   7.239   1.067
 1666TIP3   OH2 4940   3.689   5.009   4.726
 1666TIP3    H1 4941   3.617   5.034   4.784
 1666TIP3    H2 4942   3.718   4.924   4.759
 1667TIP3   OH2 4943   8.231   1.575   2.088
 1667TIP3    H1 4944   8.227   1.543   2.178
 1667TIP3    H2 4945   8.188   1.661   2.092
 1668TIP3   OH2 4946   2.485   0.728   1.070
 1668TIP3    H1 4947   2.578   0.745   1.076
 1668TIP3    H2 4948   2.478   0.632   1.065
 1669TIP3   OH2 4949   6.463   0.354   6.545
 1669TIP3    H1 4950   6.499   0.283   6.598
 1669TIP3    H2 4951   6.369   0.352   6.563
 1670TIP3   OH2 4952   1.751   0.760   3.178
 1670TIP3    H1 4953   1.720   0.758   3.269
 1670TIP3    H2 4954   1.833   0.710   3.180
 1671TIP3   OH2 4955   0.843   0.710   2.369
 1671TIP3    H1 4956   0.794   0.656   2.306
 1671TIP3    H2 4957   0.916   0.654   2.395
 1672TIP3   OH2 4958   3.442   7.677   6.134
 1672TIP3    H1 4959   3.441   7.723   6.218
 1672TIP3    H2 4960   3.350   7.663   6.113
 1673TIP3   OH2 4961   2.728   4.048   5.695
 1673TIP3    H1 4962   2.694   4.057   5.784
 1673TIP3    H2 4963   2.811   4.096   5.696
 1674TIP3   OH2 4964   5.193   2.634   0.662
 1674TIP3    H1 4965   5.204   2.729   0.667
 1674TIP3    H2 4966   5.202   2.604   0.753
 1675TIP3   OH2 4967   3.258   7.379   3.989
 1675TIP3    H1 4968   3.224   7.440   3.923
 1675TIP3    H2 4969   3.235   7.292   3.956
 1676TIP3   OH2 4970   4.248   2.705   1.192
 1676TIP3    H1 4971   4.325   2.752   1.160
 1676TIP3    H2 4972   4.182   2.719   1.123
 1677TIP3   OH2 4973   5.250   1.081   5.131
 1677TIP3    H1 4974   5.188   1.055   5.062
 1677TIP3    H2 4975   5.265   1.001   5.181
 1678TIP3   OH2 4976   2.496   0.353   5.001
 1678TIP3    H1 4977   2.522   0.266   5.030
 1678TIP3    H2 4978   2.536   0.362   4.914
 1679TIP3   OH2 4979   6.581   3.336   0.153
 1679TIP3    H1 4980   6.622   3.316   0.237
 1679TIP3    H2 4981   6.644   3.308   0.088
 1680TIP3   OH2 4982   6.817   2.580   2.359
 1680TIP3    H1 4983   6.904   2.593   2.321
 1680TIP3    H2 4984   6.786   2.497   2.323
 1681TIP3   OH2 4985   1.517   2.992   3.240
 1681TIP3    H1 4986   1.609   3.002   3.262
 1681TIP3    H2 4987   1.516   2.938   3.161
 1682TIP3   OH2 4988   8.156   3.824   1.755
 1682TIP3    H1 4989   8.126   3.743   1.713
 1682TIP3    H2 4990   8.079   3.880   1.757
 1683TIP3   OH2 4991   6.563   1.063   1.597
 1683TIP3    H1 4992   6.648   1.070   1.552
 1683TIP3    H2 4993   6.507   1.127   1.553
 1684TIP3   OH2 4994   3.083   4.895   5.145
 1684TIP3    H1 4995   3.094   4.955   5.072
 1684TIP3    H2 4996   3.067   4.810   5.104
 1685TIP3   OH2 4997   1.035   4.117   0.503
 1685TIP3    H1 4998   1.053   4.201   0.546
 1685TIP3    H2 4999   1.074   4.126   0.416
 1686TIP3   OH2 5000   5.190   5.337   1.450
 1686TIP3    H1 5001   5.141   5.257   1.433
 1686TIP3    H2 5002   5.131   5.407   1.423
 1687TIP3   OH2 5003   0.166   2.925   5.282
 1687TIP3    H1 5004   0.190   3.016   5.302
 1687TIP3    H2 5005   0.182   2.916   5.188
 1688TIP3   OH2 5006   5.443   0.615   6.755
 1688TIP3    H1 5007   5.377   0.682   6.772
 1688TIP3    H2 5008   5.479   0.637   6.670
 1689TIP3   OH2 5009   1.372   5.364   5.731
 1689TIP3    H1 5010   1.429   5.378   5.655
 1689TIP3    H2 5011   1.360   5.269   5.735
 1690TIP3   OH2 5012   7.953   0.409   5.055
 1690TIP3    H1 5013   7.909   0.394   4.972
 1690TIP3    H2 5014   8.038   0.445   5.031
 1691TIP3   OH2 5015   7.095   1.799   6.701
 1691TIP3    H1 5016   7.178   1.771   6.662
 1691TIP3    H2 5017   7.039   1.721   6.698
 1692TIP3   OH2 5018   8.266   4.198   3.734
 1692TIP3    H1 5019   8.203   4.134   3.700
 1692TIP3    H2 5020   8.329   4.210   3.663
 1693TIP3   OH2 5021   2.897   1.065   4.881
 1693TIP3    H1 5022   2.959   1.124   4.840
 1693TIP3    H2 5023   2.826   1.122   4.911
 1694TIP3   OH2 5024   2.378   0.287   6.439
 1694TIP3    H1 5025   2.439   0.265   6.369
 1694TIP3    H2 5026   2.309   0.338   6.396
 1695TIP3   OH2 5027   3.239   3.664   5.193
 1695TIP3    H1 5028   3.320   3.614   5.187
 1695TIP3    H2 5029   3.170   3.602   5.170
 1696TIP3   OH2 5030   1.933   1.916   0.309
 1696TIP3    H1 5031   2.023   1.931   0.281
 1696TIP3    H2 5032   1.880   1.937   0.233
 1697TIP3   OH2 5033   0.970   7.368   2.166
 1697TIP3    H1 5034   0.907   7.435   2.140
 1697TIP3    H2 5035   0.917   7.301   2.210
 1698TIP3   OH2 5036   6.912   2.709   0.967
 1698TIP3    H1 5037   6.984   2.677   0.912
 1698TIP3    H2 5038   6.941   2.795   0.997
 1699TIP3   OH2 5039   6.526   1.440   1.803
 1699TIP3    H1 5040   6.560   1.505   1.742
 1699TIP3    H2 5041   6.449   1.481   1.842
 1700TIP3   OH2 5042   6.300   5.875   0.467
 1700TIP3    H1 5043   6.228   5.820   0.437
 1700TIP3    H2 5044   6.377   5.817   0.467
 1701TIP3   OH2 5045   7.836   1.598   2.637
 1701TIP3    H1 5046   7.747   1.567   2.653
 1701TIP3    H2 5047   7.848   1.669   2.701
 1702TIP3   OH2 5048   8.045   2.982   2.937
 1702TIP3    H1 5049   8.022   3.037   3.011
 1702TIP3    H2 5050   8.034   3.038   2.861
 1703TIP3   OH2 5051   1.762   7.739   2.019
 1703TIP3    H1 5052   1.797   7.781   2.098
 1703TIP3    H2 5053   1.824   7.764   1.950
 1704TIP3   OH2 5054   7.647   1.194   2.726
 1704TIP3    H1 5055   7.622   1.110   2.764
 1704TIP3    H2 5056   7.564   1.239   2.711
 1705TIP3   OH2 5057   3.475   5.478   0.473
 1705TIP3    H1 5058   3.504   5.567   0.493
 1705TIP3    H2 5059   3.402   5.489   0.413
 1706TIP3   OH2 5060   4.978   2.383   2.085
 1706TIP3    H1 5061   5.058   2.343   2.053
 1706TIP3    H2 5062   4.932   2.413   2.006
 1707TIP3   OH2 5063   0.690   5.880   1.024
 1707TIP3    H1 5064   0.602   5.914   1.005
 1707TIP3    H2 5065   0.693   5.796   0.977
 1708TIP3   OH2 5066   7.894   1.209   5.867
 1708TIP3    H1 5067   7.876   1.299   5.894
 1708TIP3    H2 5068   7.953   1.175   5.934
 1709TIP3   OH2 5069   1.541   3.267   3.323
 1709TIP3    H1 5070   1.496   3.184   3.338
 1709TIP3    H2 5071   1.488   3.332   3.369
 1710TIP3   OH2 5072   6.341   5.971   1.149
 1710TIP3    H1 5073   6.271   5.937   1.093
 1710TIP3    H2 5074   6.310   5.957   1.238
 1711TIP3   OH2 5075   5.711   6.545   6.546
 1711TIP3    H1 5076   5.639   6.520   6.604
 1711TIP3    H2 5077   5.775   6.587   6.604
 1712TIP3   OH2 5078   1.327   1.469   1.525
 1712TIP3    H1 5079   1.386   1.534   1.488
 1712TIP3    H2 5080   1.376   1.432   1.599
 1713TIP3   OH2 5081   6.624   3.992   1.499
 1713TIP3    H1 5082   6.654   4.074   1.460
 1713TIP3    H2 5083   6.593   3.940   1.424
 1714TIP3   OH2 5084   7.633   0.197   5.821
 1714TIP3    H1 5085   7.636   0.118   5.875
 1714TIP3    H2 5086   7.603   0.167   5.735
 1715TIP3   OH2 5087   5.319   0.465   6.507
 1715TIP3    H1 5088   5.350   0.403   6.573
 1715TIP3    H2 5089   5.237   0.500   6.543
 1716TIP3   OH2 5090   2.710   7.274   0.734
 1716TIP3    H1 5091   2.693   7.235   0.648
 1716TIP3    H2 5092   2.773   7.215   0.775
 1717TIP3   OH2 5093   2.583   7.696   2.095
 1717TIP3    H1 5094   2.577   7.749   2.016
 1717TIP3    H2 5095   2.525   7.622   2.078
 1718TIP3   OH2 5096   1.943   2.544   2.718
 1718TIP3    H1 5097   2.001   2.478   2.756
 1718TIP3    H2 5098   1.911   2.503   2.637
 1719TIP3   OH2 5099   2.162   2.443   0.043
 1719TIP3    H1 5100   2.128   2.501  -0.025
 1719TIP3    H2 5101   2.170   2.357   0.001
 1720TIP3   OH2 5102   2.231   2.365   4.808
 1720TIP3    H1 5103   2.275   2.429   4.864
 1720TIP3    H2 5104   2.234   2.403   4.721
 1721TIP3   OH2 5105   4.075   0.831   3.963
 1721TIP3    H1 5106   4.133   0.772   4.010
 1721TIP3    H2 5107   4.134   0.892   3.919
 1722TIP3   OH2 5108   0.225   4.041   2.202
 1722TIP3    H1 5109   0.213   4.121   2.252
 1722TIP3    H2 5110   0.320   4.034   2.190
 1723TIP3   OH2 5111   0.255   1.444   0.225
 1723TIP3    H1 5112   0.201   1.518   0.197
 1723TIP3    H2 5113   0.238   1.437   0.319
 1724TIP3   OH2 5114   7.940   6.240   2.883
 1724TIP3    H1 5115   7.882   6.188   2.938
 1724TIP3    H2 5116   7.909   6.330   2.893
 1725TIP3   OH2 5117   5.775   4.120   3.534
 1725TIP3    H1 5118   5.832   4.056   3.491
 1725TIP3    H2 5119   5.758   4.083   3.620
 1726TIP3   OH2 5120   2.633   7.763   2.359
 1726TIP3    H1 5121   2.551   7.714   2.364
 1726TIP3    H2 5122   2.649   7.773   2.265
 1727TIP3   OH2 5123   6.486   2.349   2.089
 1727TIP3    H1 5124   6.483   2.254   2.100
 1727TIP3    H2 5125   6.528   2.362   2.004
 1728TIP3   OH2 5126   6.460   6.570   2.807
 1728TIP3    H1 5127   6.500   6.636   2.864
 1728TIP3    H2 5128   6.366   6.586   2.813
 1729TIP3   OH2 5129   7.112   4.511   3.456
 1729TIP3    H1 5130   7.070   4.502   3.542
 1729TIP3    H2 5131   7.070   4.443   3.402
 1730TIP3   OH2 5132   2.093   1.657   4.596
 1730TIP3    H1 5133   2.155   1.649   4.524
 1730TIP3    H2 5134   2.022   1.711   4.561
 1731TIP3   OH2 5135   7.790   5.925   2.848
 1731TIP3    H1 5136   7.723   5.944   2.913
 1731TIP3    H2 5137   7.757   5.964   2.767
 1732TIP3   OH2 5138   3.563   5.300   1.768
 1732TIP3    H1 5139   3.546   5.392   1.751
 1732TIP3    H2 5140   3.555   5.291   1.863
 1733TIP3   OH2 5141   1.665   1.426   5.634
 1733TIP3    H1 5142   1.737   1.473   5.590
 1733TIP3    H2 5143   1.587   1.453   5.587
 1734TIP3   OH2 5144   2.100   2.351   2.826
 1734TIP3    H1 5145   2.187   2.352   2.787
 1734TIP3    H2 5146   2.115   2.370   2.919
 1735TIP3   OH2 5147   3.722   0.958   6.771
 1735TIP3    H1 5148   3.627   0.950   6.765
 1735TIP3    H2 5149   3.741   1.049   6.747
 1736TIP3   OH2 5150   7.028   6.973   0.934
 1736TIP3    H1 5151   6.934   6.977   0.915
 1736TIP3    H2 5152   7.045   7.050   0.988
 1737TIP3   OH2 5153   3.752   5.646   2.268
 1737TIP3    H1 5154   3.679   5.593   2.236
 1737TIP3    H2 5155   3.780   5.696   2.191
 1738TIP3   OH2 5156   5.908   6.264   4.693
 1738TIP3    H1 5157   5.877   6.194   4.636
 1738TIP3    H2 5158   5.957   6.218   4.762
 1739TIP3   OH2 5159   2.565   4.161   5.098
 1739TIP3    H1 5160   2.635   4.147   5.034
 1739TIP3    H2 5161   2.485   4.134   5.053
 1740TIP3   OH2 5162   0.497   1.119   1.543
 1740TIP3    H1 5163   0.418   1.165   1.514
 1740TIP3    H2 5164   0.465   1.059   1.611
 1741TIP3   OH2 5165   1.424   7.543   3.083
 1741TIP3    H1 5166   1.513   7.569   3.060
 1741TIP3    H2 5167   1.388   7.506   3.002
 1742TIP3   OH2 5168   4.038   1.525   0.743
 1742TIP3    H1 5169   4.121   1.486   0.716
 1742TIP3    H2 5170   4.018   1.588   0.673
 1743TIP3   OH2 5171   2.009   5.103   4.858
 1743TIP3    H1 5172   1.933   5.050   4.836
 1743TIP3    H2 5173   2.073   5.040   4.892
 1744TIP3   OH2 5174   1.181   0.536   0.968
 1744TIP3    H1 5175   1.222   0.619   0.991
 1744TIP3    H2 5176   1.101   0.533   1.021
 1745TIP3   OH2 5177   5.409   7.031   1.976
 1745TIP3    H1 5178   5.467   6.992   1.911
 1745TIP3    H2 5179   5.335   6.970   1.981
 1746TIP3   OH2 5180   6.128   7.052   3.598
 1746TIP3    H1 5181   6.095   6.966   3.571
 1746TIP3    H2 5182   6.165   7.038   3.685
 1747TIP3   OH2 5183   1.889   2.459   0.289
 1747TIP3    H1 5184   1.825   2.390   0.270
 1747TIP3    H2 5185   1.969   2.412   0.311
 1748TIP3   OH2 5186   5.370   0.149   3.278
 1748TIP3    H1 5187   5.393   0.058   3.257
 1748TIP3    H2 5188   5.449   0.185   3.319
 1749TIP3   OH2 5189   0.550   0.762   3.610
 1749TIP3    H1 5190   0.526   0.775   3.701
 1749TIP3    H2 5191   0.587   0.846   3.582
 1750TIP3   OH2 5192   1.462   6.522   5.708
 1750TIP3    H1 5193   1.517   6.454   5.747
 1750TIP3    H2 5194   1.459   6.591   5.774
 1751TIP3   OH2 5195   1.252   0.701   2.297
 1751TIP3    H1 5196   1.199   0.680   2.374
 1751TIP3    H2 5197   1.261   0.796   2.299
 1752TIP3   OH2 5198   3.663   1.752   4.071
 1752TIP3    H1 5199   3.744   1.796   4.046
 1752TIP3    H2 5200   3.596   1.791   4.015
 1753TIP3   OH2 5201   0.404   4.144   5.067
 1753TIP3    H1 5202   0.317   4.160   5.104
 1753TIP3    H2 5203   0.398   4.175   4.977
 1754TIP3   OH2 5204   1.853   0.788   4.427
 1754TIP3    H1 5205   1.947   0.777   4.415
 1754TIP3    H2 5206   1.818   0.790   4.338
 1755TIP3   OH2 5207   5.523   0.409   3.808
 1755TIP3    H1 5208   5.616   0.401   3.829
 1755TIP3    H2 5209   5.481   0.338   3.857
 1756TIP3   OH2 5210   1.960   4.643   2.550
 1756TIP3    H1 5211   2.003   4.729   2.543
 1756TIP3    H2 5212   2.014   4.594   2.612
 1757TIP3   OH2 5213   5.633   5.329   1.311
 1757TIP3    H1 5214   5.649   5.244   1.351
 1757TIP3    H2 5215   5.715   5.351   1.268
 1758TIP3   OH2 5216   6.501   1.634   3.791
 1758TIP3    H1 5217   6.429   1.590   3.745
 1758TIP3    H2 5218   6.464   1.717   3.819
 1759TIP3   OH2 5219   1.166   2.864   4.740
 1759TIP3    H1 5220   1.144   2.933   4.802
 1759TIP3    H2 5221   1.128   2.785   4.777
 1760TIP3   OH2 5222   1.944   5.606   2.513
 1760TIP3    H1 5223   1.984   5.668   2.574
 1760TIP3    H2 5224   1.894   5.547   2.569
 1761TIP3   OH2 5225   6.352   3.401   6.536
 1761TIP3    H1 5226   6.302   3.452   6.600
 1761TIP3    H2 5227   6.293   3.390   6.462
 1762TIP3   OH2 5228   1.959   3.283   4.485
 1762TIP3    H1 5229   1.949   3.305   4.578
 1762TIP3    H2 5230   2.053   3.290   4.469
 1763TIP3   OH2 5231   5.708   1.143   5.207
 1763TIP3    H1 5232   5.666   1.187   5.133
 1763TIP3    H2 5233   5.799   1.133   5.181
 1764TIP3   OH2 5234   2.889   4.491   6.622
 1764TIP3    H1 5235   2.979   4.492   6.654
 1764TIP3    H2 5236   2.840   4.540   6.689
 1765TIP3   OH2 5237   3.527   6.861   2.006
 1765TIP3    H1 5238   3.474   6.939   1.987
 1765TIP3    H2 5239   3.602   6.869   1.948
 1766TIP3   OH2 5240   4.561   6.114   3.744
 1766TIP3    H1 5241   4.635   6.126   3.685
 1766TIP3    H2 5242   4.484   6.129   3.690
 1767TIP3   OH2 5243   2.933   6.309   5.213
 1767TIP3    H1 5244   2.863   6.316   5.148
 1767TIP3    H2 5245   2.966   6.398   5.222
 1768TIP3   OH2 5246   4.220   1.249   6.627
 1768TIP3    H1 5247   4.276   1.271   6.553
 1768TIP3    H2 5248   4.131   1.268   6.597
 1769TIP3   OH2 5249   0.787   6.993   6.668
 1769TIP3    H1 5250   0.703   6.964   6.633
 1769TIP3    H2 5251   0.792   7.086   6.645
 1770TIP3   OH2 5252   1.326   1.570   6.225
 1770TIP3    H1 5253   1.306   1.655   6.267
 1770TIP3    H2 5254   1.260   1.510   6.261
 1771TIP3   OH2 5255   1.046   4.969   4.014
 1771TIP3    H1 5256   1.044   4.975   3.919
 1771TIP3    H2 5257   1.051   4.875   4.032
 1772TIP3   OH2 5258   4.557   5.540   2.147
 1772TIP3    H1 5259   4.493   5.479   2.111
 1772TIP3    H2 5260   4.599   5.491   2.218
 1773TIP3   OH2 5261   3.463   1.360   2.016
 1773TIP3    H1 5262   3.385   1.416   2.019
 1773TIP3    H2 5263   3.536   1.421   2.020
 1774TIP3   OH2 5264   7.555   0.122   5.570
 1774TIP3    H1 5265   7.460   0.116   5.558
 1774TIP3    H2 5266   7.588   0.146   5.484
 1775TIP3   OH2 5267   0.425   1.632   4.870
 1775TIP3    H1 5268   0.458   1.595   4.788
 1775TIP3    H2 5269   0.338   1.593   4.880
 1776TIP3   OH2 5270   5.566   1.805   6.322
 1776TIP3    H1 5271   5.509   1.728   6.317
 1776TIP3    H2 5272   5.645   1.780   6.274
 1777TIP3   OH2 5273   7.778   7.753   6.319
 1777TIP3    H1 5274   7.748   7.767   6.410
 1777TIP3    H2 5275   7.802   7.840   6.288
 1778TIP3   OH2 5276   3.799   0.518   6.055
 1778TIP3    H1 5277   3.765   0.434   6.025
 1778TIP3    H2 5278   3.731   0.581   6.032
 1779TIP3   OH2 5279   4.392   1.961   2.934
 1779TIP3    H1 5280   4.482   1.929   2.928
 1779TIP3    H2 5281   4.338   1.884   2.914
 1780TIP3   OH2 5282   1.968   3.998   1.114
 1780TIP3    H1 5283   1.930   3.911   1.097
 1780TIP3    H2 5284   1.912   4.059   1.066
 1781TIP3   OH2 5285   3.471   3.713   5.943
 1781TIP3    H1 5286   3.496   3.626   5.912
 1781TIP3    H2 5287   3.553   3.761   5.949
 1782TIP3   OH2 5288   3.174   1.126   0.178
 1782TIP3    H1 5289   3.083   1.096   0.184
 1782TIP3    H2 5290   3.176   1.186   0.104
 1783TIP3   OH2 5291   1.546   1.177   1.851
 1783TIP3    H1 5292   1.613   1.125   1.806
 1783TIP3    H2 5293   1.554   1.152   1.943
 1784TIP3   OH2 5294   1.016   3.992   2.623
 1784TIP3    H1 5295   0.978   4.045   2.552
 1784TIP3    H2 5296   1.057   4.056   2.681
 1785TIP3   OH2 5297   4.079   1.805   2.622
 1785TIP3    H1 5298   4.052   1.897   2.617
 1785TIP3    H2 5299   4.061   1.770   2.535
 1786TIP3   OH2 5300   6.074   7.309   5.725
 1786TIP3    H1 5301   6.127   7.230   5.735
 1786TIP3    H2 5302   6.002   7.282   5.668
 1787TIP3   OH2 5303   4.266   0.008   2.860
 1787TIP3    H1 5304   4.269   0.003   2.764
 1787TIP3    H2 5305   4.354   0.035   2.885
 1788TIP3   OH2 5306   2.842   1.986   1.734
 1788TIP3    H1 5307   2.800   2.049   1.675
 1788TIP3    H2 5308   2.920   1.957   1.688
 1789TIP3   OH2 5309   1.743   0.454   0.757
 1789TIP3    H1 5310   1.722   0.472   0.665
 1789TIP3    H2 5311   1.823   0.401   0.753
 1790TIP3   OH2 5312   2.323   6.633   3.790
 1790TIP3    H1 5313   2.322   6.603   3.699
 1790TIP3    H2 5314   2.413   6.617   3.819
 1791TIP3   OH2 5315   0.224   2.026   6.213
 1791TIP3    H1 5316   0.279   2.101   6.190
 1791TIP3    H2 5317   0.251   2.004   6.302
 1792TIP3   OH2 5318   7.727   2.464   0.921
 1792TIP3    H1 5319   7.730   2.544   0.973
 1792TIP3    H2 5320   7.818   2.433   0.919
 1793TIP3   OH2 5321   0.931   1.873   3.944
 1793TIP3    H1 5322   0.942   1.813   4.017
 1793TIP3    H2 5323   0.848   1.847   3.904
 1794TIP3   OH2 5324   0.829   1.937   6.208
 1794TIP3    H1 5325   0.824   1.905   6.118
 1794TIP3    H2 5326   0.740   1.928   6.242
 1795TIP3   OH2 5327   6.406   4.428   1.963
 1795TIP3    H1 5328   6.361   4.387   1.890
 1795TIP3    H2 5329   6.463   4.360   1.998
 1796TIP3   OH2 5330   2.751   2.455   4.512
 1796TIP3    H1 5331   2.729   2.488   4.425
 1796TIP3    H2 5332   2.816   2.386   4.495
 1797TIP3   OH2 5333   7.398   6.991   2.769
 1797TIP3    H1 5334   7.425   6.953   2.685
 1797TIP3    H2 5335   7.315   6.948   2.789
 1798TIP3   OH2 5336   1.431   1.816   5.982
 1798TIP3    H1 5337   1.362   1.882   5.988
 1798TIP3    H2 5338   1.457   1.801   6.073
 1799TIP3   OH2 5339   1.928   0.394   4.818
 1799TIP3    H1 5340   1.925   0.488   4.835
 1799TIP3    H2 5341   1.931   0.387   4.723
 1800TIP3   OH2 5342   1.852   7.278   0.292
 1800TIP3    H1 5343   1.758   7.277   0.307
 1800TIP3    H2 5344   1.868   7.361   0.246
 1801TIP3   OH2 5345   7.951   0.558   5.280
 1801TIP3    H1 5346   7.971   0.509   5.200
 1801TIP3    H2 5347   8.034   0.560   5.327
 1802TIP3   OH2 5348   7.828   0.225   6.185
 1802TIP3    H1 5349   7.863   0.313   6.173
 1802TIP3    H2 5350   7.790   0.227   6.273
 1803TIP3   OH2 5351   5.801   6.265   0.780
 1803TIP3    H1 5352   5.880   6.290   0.829
 1803TIP3    H2 5353   5.790   6.172   0.800
 1804TIP3   OH2 5354   0.200   7.154   0.636
 1804TIP3    H1 5355   0.201   7.070   0.682
 1804TIP3    H2 5356   0.221   7.218   0.703
 1805TIP3   OH2 5357   5.350   2.062   4.630
 1805TIP3    H1 5358   5.361   2.107   4.546
 1805TIP3    H2 5359   5.334   2.133   4.692
 1806TIP3   OH2 5360   7.030   3.492   1.809
 1806TIP3    H1 5361   7.008   3.411   1.856
 1806TIP3    H2 5362   6.997   3.478   1.721
 1807TIP3   OH2 5363   6.375   3.912   1.783
 1807TIP3    H1 5364   6.423   3.964   1.847
 1807TIP3    H2 5365   6.311   3.863   1.835
 1808TIP3   OH2 5366   1.005   0.877   2.721
 1808TIP3    H1 5367   1.012   0.895   2.628
 1808TIP3    H2 5368   1.087   0.833   2.743
 1809TIP3   OH2 5369   3.016   6.479   1.335
 1809TIP3    H1 5370   2.924   6.471   1.360
 1809TIP3    H2 5371   3.052   6.545   1.395
 1810TIP3   OH2 5372   1.152   4.785   0.722
 1810TIP3    H1 5373   1.217   4.769   0.654
 1810TIP3    H2 5374   1.085   4.839   0.678
 1811TIP3   OH2 5375   3.541   1.042   1.862
 1811TIP3    H1 5376   3.464   0.996   1.894
 1811TIP3    H2 5377   3.525   1.054   1.768
 1812TIP3   OH2 5378   0.921   3.594   1.918
 1812TIP3    H1 5379   0.960   3.536   1.852
 1812TIP3    H2 5380   0.894   3.535   1.988
 1813TIP3   OH2 5381   4.298   2.582   4.754
 1813TIP3    H1 5382   4.257   2.564   4.669
 1813TIP3    H2 5383   4.379   2.532   4.752
 1814TIP3   OH2 5384   4.557   1.396   3.985
 1814TIP3    H1 5385   4.569   1.305   3.958
 1814TIP3    H2 5386   4.476   1.424   3.941
 1815TIP3   OH2 5387   7.967   5.194   6.690
 1815TIP3    H1 5388   7.989   5.249   6.615
 1815TIP3    H2 5389   7.918   5.120   6.652
 1816TIP3   OH2 5390   0.871   0.793   4.979
 1816TIP3    H1 5391   0.884   0.874   5.028
 1816TIP3    H2 5392   0.817   0.739   5.036
 1817TIP3   OH2 5393   6.545   0.631   3.423
 1817TIP3    H1 5394   6.605   0.690   3.377
 1817TIP3    H2 5395   6.530   0.559   3.362
 1818TIP3   OH2 5396   4.133   2.394   4.324
 1818TIP3    H1 5397   4.209   2.347   4.356
 1818TIP3    H2 5398   4.072   2.325   4.296
 1819TIP3   OH2 5399   7.656   6.891   5.830
 1819TIP3    H1 5400   7.585   6.857   5.776
 1819TIP3    H2 5401   7.706   6.947   5.771
 1820TIP3   OH2 5402   5.599   0.640   6.021
 1820TIP3    H1 5403   5.577   0.638   5.928
 1820TIP3    H2 5404   5.628   0.551   6.041
 1821TIP3   OH2 5405   6.115   5.246   5.777
 1821TIP3    H1 5406   6.143   5.172   5.832
 1821TIP3    H2 5407   6.173   5.318   5.803
 1822TIP3   OH2 5408   2.551   4.575   5.902
 1822TIP3    H1 5409   2.533   4.500   5.958
 1822TIP3    H2 5410   2.467   4.591   5.858
 1823TIP3   OH2 5411   2.962   3.977   1.650
 1823TIP3    H1 5412   3.036   3.964   1.708
 1823TIP3    H2 5413   2.887   3.943   1.698
 1824TIP3   OH2 5414   0.952   5.003   0.612
 1824TIP3    H1 5415   0.923   5.086   0.650
 1824TIP3    H2 5416   0.963   5.023   0.519
 1825TIP3   OH2 5417   1.554   5.305   2.809
 1825TIP3    H1 5418   1.476   5.252   2.793
 1825TIP3    H2 5419   1.571   5.349   2.726
 1826TIP3   OH2 5420   1.574   4.718   2.928
 1826TIP3    H1 5421   1.493   4.706   2.879
 1826TIP3    H2 5422   1.548   4.709   3.020
 1827TIP3   OH2 5423   6.900   3.456   4.285
 1827TIP3    H1 5424   6.995   3.448   4.274
 1827TIP3    H2 5425   6.885   3.444   4.379
 1828TIP3   OH2 5426   2.560   5.621   5.602
 1828TIP3    H1 5427   2.497   5.572   5.549
 1828TIP3    H2 5428   2.540   5.713   5.584
 1829TIP3   OH2 5429   1.356   3.515   5.308
 1829TIP3    H1 5430   1.306   3.583   5.354
 1829TIP3    H2 5431   1.429   3.495   5.367
 1830TIP3   OH2 5432   2.398   5.078   5.672
 1830TIP3    H1 5433   2.384   4.986   5.648
 1830TIP3    H2 5434   2.430   5.074   5.762
 1831TIP3   OH2 5435   5.375   5.344   2.346
 1831TIP3    H1 5436   5.317   5.322   2.273
 1831TIP3    H2 5437   5.447   5.392   2.305
 1832TIP3   OH2 5438   6.880   1.797   0.530
 1832TIP3    H1 5439   6.806   1.850   0.501
 1832TIP3    H2 5440   6.842   1.734   0.592
 1833TIP3   OH2 5441   1.076   3.548   0.119
 1833TIP3    H1 5442   1.003   3.528   0.178
 1833TIP3    H2 5443   1.067   3.486   0.047
 1834TIP3   OH2 5444   2.360   6.337   5.369
 1834TIP3    H1 5445   2.407   6.302   5.293
 1834TIP3    H2 5446   2.368   6.432   5.361
 1835TIP3   OH2 5447   7.031   1.284   5.686
 1835TIP3    H1 5448   6.999   1.367   5.652
 1835TIP3    H2 5449   6.962   1.221   5.667
 1836TIP3   OH2 5450   1.496   7.402   4.854
 1836TIP3    H1 5451   1.484   7.429   4.944
 1836TIP3    H2 5452   1.408   7.398   4.817
 1837TIP3   OH2 5453   0.296   3.171   5.630
 1837TIP3    H1 5454   0.202   3.156   5.638
 1837TIP3    H2 5455   0.336   3.097   5.675
 1838TIP3   OH2 5456   8.023   4.072   0.106
 1838TIP3    H1 5457   8.072   3.998   0.142
 1838TIP3    H2 5458   8.082   4.110   0.041
 1839TIP3   OH2 5459   5.650   6.105   0.547
 1839TIP3    H1 5460   5.634   6.037   0.482
 1839TIP3    H2 5461   5.741   6.130   0.534
 1840TIP3   OH2 5462   4.415   1.553   5.591
 1840TIP3    H1 5463   4.351   1.485   5.609
 1840TIP3    H2 5464   4.470   1.517   5.521
 1841TIP3   OH2 5465   7.505   2.959   4.730
 1841TIP3    H1 5466   7.540   2.877   4.766
 1841TIP3    H2 5467   7.564   3.027   4.761
 1842TIP3   OH2 5468   4.205   5.476   4.455
 1842TIP3    H1 5469   4.160   5.550   4.496
 1842TIP3    H2 5470   4.245   5.513   4.376
 1843TIP3   OH2 5471   1.004   7.750   1.972
 1843TIP3    H1 5472   0.959   7.696   1.906
 1843TIP3    H2 5473   0.968   7.719   2.056
 1844TIP3   OH2 5474   5.032   1.162   0.311
 1844TIP3    H1 5475   5.051   1.254   0.294
 1844TIP3    H2 5476   4.999   1.128   0.228
 1845TIP3   OH2 5477   6.421   5.175   2.504
 1845TIP3    H1 5478   6.432   5.266   2.479
 1845TIP3    H2 5479   6.448   5.172   2.596
 1846TIP3   OH2 5480   3.382   3.321   4.576
 1846TIP3    H1 5481   3.406   3.313   4.484
 1846TIP3    H2 5482   3.351   3.234   4.600
 1847TIP3   OH2 5483   4.240   7.079   2.580
 1847TIP3    H1 5484   4.308   7.064   2.514
 1847TIP3    H2 5485   4.165   7.028   2.549
 1848TIP3   OH2 5486   6.994   5.683   4.140
 1848TIP3    H1 5487   6.957   5.720   4.220
 1848TIP3    H2 5488   7.013   5.592   4.162
 1849TIP3   OH2 5489   6.214   4.405   3.177
 1849TIP3    H1 5490   6.122   4.389   3.196
 1849TIP3    H2 5491   6.248   4.319   3.152
 1850TIP3   OH2 5492   0.609   0.079   3.808
 1850TIP3    H1 5493   0.525   0.124   3.802
 1850TIP3    H2 5494   0.621   0.063   3.901
 1851TIP3   OH2 5495   0.397   1.165   4.132
 1851TIP3    H1 5496   0.348   1.125   4.060
 1851TIP3    H2 5497   0.446   1.092   4.170
 1852TIP3   OH2 5498   1.444   1.300   1.290
 1852TIP3    H1 5499   1.426   1.325   1.380
 1852TIP3    H2 5500   1.369   1.247   1.264
 1853TIP3   OH2 5501   8.212   6.626   0.108
 1853TIP3    H1 5502   8.142   6.577   0.065
 1853TIP3    H2 5503   8.246   6.685   0.041
 1854TIP3   OH2 5504   7.633   5.883   1.250
 1854TIP3    H1 5505   7.567   5.890   1.319
 1854TIP3    H2 5506   7.683   5.965   1.257
 1855TIP3   OH2 5507   1.464   0.118   3.806
 1855TIP3    H1 5508   1.388   0.061   3.821
 1855TIP3    H2 5509   1.432   0.189   3.751
 1856TIP3   OH2 5510   4.581   4.465   0.411
 1856TIP3    H1 5511   4.566   4.558   0.393
 1856TIP3    H2 5512   4.600   4.461   0.504
 1857TIP3   OH2 5513   4.671   0.259   5.796
 1857TIP3    H1 5514   4.597   0.274   5.737
 1857TIP3    H2 5515   4.748   0.266   5.740
 1858TIP3   OH2 5516   0.728   3.422   0.139
 1858TIP3    H1 5517   0.684   3.370   0.206
 1858TIP3    H2 5518   0.663   3.434   0.071
 1859TIP3   OH2 5519   3.312   0.623   5.189
 1859TIP3    H1 5520   3.335   0.662   5.274
 1859TIP3    H2 5521   3.342   0.687   5.124
 1860TIP3   OH2 5522   5.289   2.288   0.198
 1860TIP3    H1 5523   5.369   2.339   0.183
 1860TIP3    H2 5524   5.223   2.353   0.222
 1861TIP3   OH2 5525   2.344   4.168   2.097
 1861TIP3    H1 5526   2.306   4.141   2.013
 1861TIP3    H2 5527   2.267   4.187   2.152
 1862TIP3   OH2 5528   8.187   0.578   5.410
 1862TIP3    H1 5529   8.222   0.491   5.425
 1862TIP3    H2 5530   8.139   0.599   5.490
 1863TIP3   OH2 5531   7.746   2.067   5.458
 1863TIP3    H1 5532   7.771   2.022   5.378
 1863TIP3    H2 5533   7.708   1.998   5.513
 1864TIP3   OH2 5534   5.127   6.808   0.184
 1864TIP3    H1 5535   5.058   6.874   0.180
 1864TIP3    H2 5536   5.208   6.859   0.180
 1865TIP3   OH2 5537   4.953   0.334   2.807
 1865TIP3    H1 5538   5.022   0.274   2.778
 1865TIP3    H2 5539   5.000   0.403   2.854
 1866TIP3   OH2 5540   0.569   4.774   5.854
 1866TIP3    H1 5541   0.497   4.712   5.841
 1866TIP3    H2 5542   0.526   4.854   5.885
 1867TIP3   OH2 5543   4.642   3.016   5.332
 1867TIP3    H1 5544   4.596   3.066   5.265
 1867TIP3    H2 5545   4.659   3.080   5.402
 1868TIP3   OH2 5546   0.381   6.668   6.692
 1868TIP3    H1 5547   0.403   6.605   6.623
 1868TIP3    H2 5548   0.464   6.683   6.737
 1869TIP3   OH2 5549   1.816   3.764   2.817
 1869TIP3    H1 5550   1.839   3.678   2.782
 1869TIP3    H2 5551   1.758   3.801   2.751
 1870TIP3   OH2 5552   4.435   4.872   0.146
 1870TIP3    H1 5553   4.447   4.907   0.057
 1870TIP3    H2 5554   4.343   4.844   0.148
 1871TIP3   OH2 5555   8.033   2.307   0.544
 1871TIP3    H1 5556   8.018   2.402   0.538
 1871TIP3    H2 5557   8.094   2.297   0.617
 1872TIP3   OH2 5558   1.217   0.903   1.631
 1872TIP3    H1 5559   1.218   0.824   1.685
 1872TIP3    H2 5560   1.215   0.870   1.541
 1873TIP3   OH2 5561   1.420   4.764   0.600
 1873TIP3    H1 5562   1.497   4.786   0.652
 1873TIP3    H2 5563   1.454   4.716   0.525
 1874TIP3   OH2 5564   7.475   6.266   1.246
 1874TIP3    H1 5565   7.462   6.243   1.338
 1874TIP3    H2 5566   7.405   6.329   1.227
 1875TIP3   OH2 5567   4.232   5.414   2.342
 1875TIP3    H1 5568   4.241   5.335   2.395
 1875TIP3    H2 5569   4.269   5.484   2.396
 1876TIP3   OH2 5570   1.541   4.165   6.380
 1876TIP3    H1 5571   1.502   4.212   6.454
 1876TIP3    H2 5572   1.509   4.212   6.303
 1877TIP3   OH2 5573   0.630   6.646   4.475
 1877TIP3    H1 5574   0.632   6.601   4.559
 1877TIP3    H2 5575   0.537   6.660   4.456
 1878TIP3   OH2 5576   3.787   2.031   0.255
 1878TIP3    H1 5577   3.880   2.037   0.278
 1878TIP3    H2 5578   3.786   2.027   0.159
 1879TIP3   OH2 5579   1.330   7.179   3.828
 1879TIP3    H1 5580   1.263   7.140   3.772
 1879TIP3    H2 5581   1.310   7.273   3.828
 1880TIP3   OH2 5582   0.069   5.861   5.562
 1880TIP3    H1 5583   0.018   5.786   5.592
 1880TIP3    H2 5584   0.160   5.831   5.566
 1881TIP3   OH2 5585   1.247   6.341   1.342
 1881TIP3    H1 5586   1.342   6.338   1.330
 1881TIP3    H2 5587   1.230   6.425   1.384
 1882TIP3   OH2 5588   1.242   4.165   1.661
 1882TIP3    H1 5589   1.336   4.157   1.646
 1882TIP3    H2 5590   1.226   4.260   1.656
 1883TIP3   OH2 5591   3.892   1.305   5.524
 1883TIP3    H1 5592   3.911   1.319   5.617
 1883TIP3    H2 5593   3.894   1.210   5.513
 1884TIP3   OH2 5594   6.844   4.827   0.383
 1884TIP3    H1 5595   6.789   4.904   0.391
 1884TIP3    H2 5596   6.807   4.778   0.309
 1885TIP3   OH2 5597   6.513   7.483   1.608
 1885TIP3    H1 5598   6.599   7.526   1.615
 1885TIP3    H2 5599   6.533   7.392   1.586
 1886TIP3   OH2 5600   7.889   4.057   5.209
 1886TIP3    H1 5601   7.796   4.057   5.189
 1886TIP3    H2 5602   7.917   3.967   5.196
 1887TIP3   OH2 5603   5.449   0.993   3.019
 1887TIP3    H1 5604   5.487   1.032   2.940
 1887TIP3    H2 5605   5.479   0.902   3.018
 1888TIP3   OH2 5606   1.250   3.691   0.321
 1888TIP3    H1 5607   1.210   3.741   0.250
 1888TIP3    H2 5608   1.177   3.661   0.375
 1889TIP3   OH2 5609   0.678   0.280   0.245
 1889TIP3    H1 5610   0.688   0.262   0.152
 1889TIP3    H2 5611   0.767   0.273   0.280
 1890TIP3   OH2 5612   4.051   3.876   1.604
 1890TIP3    H1 5613   4.002   3.796   1.625
 1890TIP3    H2 5614   3.985   3.944   1.598
 1891TIP3   OH2 5615   2.666   5.899   2.270
 1891TIP3    H1 5616   2.678   5.909   2.175
 1891TIP3    H2 5617   2.656   5.989   2.303
 1892TIP3   OH2 5618   8.269   5.191   3.347
 1892TIP3    H1 5619   8.214   5.113   3.342
 1892TIP3    H2 5620   8.270   5.214   3.440
 1893TIP3   OH2 5621   6.653   0.008   6.047
 1893TIP3    H1 5622   6.731  -0.002   5.992
 1893TIP3    H2 5623   6.682   0.059   6.122
 1894TIP3   OH2 5624   8.062   2.250   5.782
 1894TIP3    H1 5625   8.019   2.296   5.854
 1894TIP3    H2 5626   8.149   2.228   5.816
 1895TIP3   OH2 5627   3.532   3.287   4.335
 1895TIP3    H1 5628   3.526   3.216   4.270
 1895TIP3    H2 5629   3.584   3.355   4.292
 1896TIP3   OH2 5630   3.026   3.912   3.465
 1896TIP3    H1 5631   2.958   3.848   3.445
 1896TIP3    H2 5632   2.984   3.997   3.447
 1897TIP3   OH2 5633   1.425   2.929   4.621
 1897TIP3    H1 5634   1.345   2.886   4.650
 1897TIP3    H2 5635   1.492   2.900   4.684
 1898TIP3   OH2 5636   1.799   7.396   5.455
 1898TIP3    H1 5637   1.767   7.428   5.370
 1898TIP3    H2 5638   1.751   7.448   5.520
 1899TIP3   OH2 5639   2.580   2.869   0.773
 1899TIP3    H1 5640   2.565   2.855   0.866
 1899TIP3    H2 5641   2.664   2.827   0.755
 1900TIP3   OH2 5642   5.096   1.478   6.779
 1900TIP3    H1 5643   5.115   1.471   6.686
 1900TIP3    H2 5644   5.007   1.444   6.788
 1901TIP3   OH2 5645   6.013   5.988   5.816
 1901TIP3    H1 5646   6.053   5.904   5.794
 1901TIP3    H2 5647   6.062   6.052   5.766
 1902TIP3   OH2 5648   2.472   3.012   5.992
 1902TIP3    H1 5649   2.449   3.098   6.027
 1902TIP3    H2 5650   2.505   3.030   5.904
 1903TIP3   OH2 5651   4.906   0.896   5.922
 1903TIP3    H1 5652   4.940   0.807   5.923
 1903TIP3    H2 5653   4.831   0.893   5.863
 1904TIP3   OH2 5654   6.834   6.014   0.726
 1904TIP3    H1 5655   6.799   6.096   0.759
 1904TIP3    H2 5656   6.887   6.039   0.651
 1905TIP3   OH2 5657   7.675   6.754   6.693
 1905TIP3    H1 5658   7.633   6.806   6.624
 1905TIP3    H2 5659   7.744   6.706   6.647
 1906TIP3   OH2 5660   3.357   0.343   4.484
 1906TIP3    H1 5661   3.409   0.304   4.414
 1906TIP3    H2 5662   3.323   0.269   4.533
 1907TIP3   OH2 5663   7.417   7.206   4.883
 1907TIP3    H1 5664   7.409   7.197   4.978
 1907TIP3    H2 5665   7.418   7.300   4.868
 1908TIP3   OH2 5666   5.937   7.136   4.539
 1908TIP3    H1 5667   5.866   7.175   4.488
 1908TIP3    H2 5668   5.943   7.047   4.507
 1909TIP3   OH2 5669   1.165   6.105   0.231
 1909TIP3    H1 5670   1.151   6.125   0.324
 1909TIP3    H2 5671   1.144   6.187   0.186
 1910TIP3   OH2 5672   7.780   5.956   1.628
 1910TIP3    H1 5673   7.782   5.861   1.634
 1910TIP3    H2 5674   7.809   5.987   1.714
 1911TIP3   OH2 5675   7.425   1.544   0.974
 1911TIP3    H1 5676   7.439   1.586   0.889
 1911TIP3    H2 5677   7.355   1.480   0.958
 1912TIP3   OH2 5678   4.690   2.798   6.440
 1912TIP3    H1 5679   4.677   2.849   6.360
 1912TIP3    H2 5680   4.642   2.716   6.424
 1913TIP3   OH2 5681   1.174   0.583   5.446
 1913TIP3    H1 5682   1.088   0.588   5.487
 1913TIP3    H2 5683   1.214   0.503   5.482
 1914TIP3   OH2 5684   7.731   3.709   5.715
 1914TIP3    H1 5685   7.799   3.652   5.679
 1914TIP3    H2 5686   7.768   3.797   5.707
 1915TIP3   OH2 5687   7.042   7.808   3.236
 1915TIP3    H1 5688   7.004   7.721   3.223
 1915TIP3    H2 5689   6.976   7.868   3.201
 1916TIP3   OH2 5690   4.468   4.526   2.052
 1916TIP3    H1 5691   4.391   4.532   2.109
 1916TIP3    H2 5692   4.444   4.575   1.973
 1917TIP3   OH2 5693   8.147   4.961   4.057
 1917TIP3    H1 5694   8.147   5.050   4.022
 1917TIP3    H2 5695   8.138   4.973   4.151
 1918TIP3   OH2 5696   5.702   4.764   0.184
 1918TIP3    H1 5697   5.646   4.775   0.261
 1918TIP3    H2 5698   5.653   4.803   0.112
 1919TIP3   OH2 5699   0.712   3.371   5.444
 1919TIP3    H1 5700   0.665   3.413   5.516
 1919TIP3    H2 5701   0.658   3.389   5.366
 1920TIP3   OH2 5702   5.212   6.845   2.822
 1920TIP3    H1 5703   5.141   6.875   2.879
 1920TIP3    H2 5704   5.225   6.753   2.847
 1921TIP3   OH2 5705   7.936   4.778   3.290
 1921TIP3    H1 5706   8.017   4.727   3.291
 1921TIP3    H2 5707   7.885   4.740   3.218
 1922TIP3   OH2 5708   3.868   3.104   4.687
 1922TIP3    H1 5709   3.787   3.111   4.637
 1922TIP3    H2 5710   3.913   3.187   4.671
 1923TIP3   OH2 5711   3.102   6.200   3.435
 1923TIP3    H1 5712   3.096   6.245   3.351
 1923TIP3    H2 5713   3.027   6.140   3.435
 1924TIP3   OH2 5714   4.857   4.331   2.015
 1924TIP3    H1 5715   4.775   4.350   1.969
 1924TIP3    H2 5716   4.851   4.381   2.097
 1925TIP3   OH2 5717   2.138   6.929   2.695
 1925TIP3    H1 5718   2.230   6.918   2.720
 1925TIP3    H2 5719   2.141   6.947   2.601
 1926TIP3   OH2 5720   1.098   5.773   0.586
 1926TIP3    H1 5721   1.019   5.825   0.570
 1926TIP3    H2 5722   1.134   5.757   0.499
 1927TIP3   OH2 5723   7.649   2.032   4.903
 1927TIP3    H1 5724   7.732   2.007   4.945
 1927TIP3    H2 5725   7.594   1.954   4.913
 1928TIP3   OH2 5726   4.038   5.888   5.734
 1928TIP3    H1 5727   4.067   5.839   5.811
 1928TIP3    H2 5728   3.942   5.889   5.741
 1929TIP3   OH2 5729   6.619   5.240   2.125
 1929TIP3    H1 5730   6.579   5.163   2.084
 1929TIP3    H2 5731   6.574   5.315   2.085
 1930TIP3   OH2 5732   2.164   0.096   6.675
 1930TIP3    H1 5733   2.227   0.169   6.676
 1930TIP3    H2 5734   2.217   0.019   6.692
 1931TIP3   OH2 5735   0.973   1.378   0.210
 1931TIP3    H1 5736   0.994   1.310   0.147
 1931TIP3    H2 5737   0.971   1.333   0.295
 1932TIP3   OH2 5738   0.606   6.059   1.605
 1932TIP3    H1 5739   0.594   6.066   1.700
 1932TIP3    H2 5740   0.520   6.036   1.572
 1933TIP3   OH2 5741   7.199   2.242   1.217
 1933TIP3    H1 5742   7.169   2.317   1.167
 1933TIP3    H2 5743   7.290   2.260   1.237
 1934TIP3   OH2 5744   7.029   7.631   5.247
 1934TIP3    H1 5745   7.100   7.641   5.310
 1934TIP3    H2 5746   6.957   7.684   5.283
 1935TIP3   OH2 5747   6.586   0.796   1.547
 1935TIP3    H1 5748   6.551   0.884   1.561
 1935TIP3    H2 5749   6.535   0.741   1.607
 1936TIP3   OH2 5750   4.515   3.485   5.924
 1936TIP3    H1 5751   4.450   3.443   5.868
 1936TIP3    H2 5752   4.465   3.519   5.999
 1937TIP3   OH2 5753   7.053   4.957   2.744
 1937TIP3    H1 5754   7.114   4.962   2.818
 1937TIP3    H2 5755   7.079   5.029   2.686
 1938TIP3   OH2 5756   5.323   0.852   1.436
 1938TIP3    H1 5757   5.361   0.882   1.518
 1938TIP3    H2 5758   5.365   0.905   1.369
 1939TIP3   OH2 5759   5.646   0.319   6.549
 1939TIP3    H1 5760   5.630   0.356   6.462
 1939TIP3    H2 5761   5.725   0.363   6.580
 1940TIP3   OH2 5762   2.079   7.811   4.384
 1940TIP3    H1 5763   2.153   7.833   4.328
 1940TIP3    H2 5764   2.010   7.783   4.324
 1941TIP3   OH2 5765   1.367   7.355   5.384
 1941TIP3    H1 5766   1.384   7.269   5.424
 1941TIP3    H2 5767   1.272   7.366   5.393
 1942TIP3   OH2 5768   1.886   4.660   1.516
 1942TIP3    H1 5769   1.858   4.619   1.598
 1942TIP3    H2 5770   1.970   4.700   1.537
 1943TIP3   OH2 5771   5.716   6.446   2.991
 1943TIP3    H1 5772   5.756   6.365   2.961
 1943TIP3    H2 5773   5.774   6.477   3.061
 1944TIP3   OH2 5774   3.791   4.382   2.861
 1944TIP3    H1 5775   3.750   4.310   2.813
 1944TIP3    H2 5776   3.818   4.342   2.944
 1945TIP3   OH2 5777   0.668   6.434   1.706
 1945TIP3    H1 5778   0.750   6.455   1.663
 1945TIP3    H2 5779   0.605   6.427   1.634
 1946TIP3   OH2 5780   1.572   1.598   1.548
 1946TIP3    H1 5781   1.603   1.683   1.514
 1946TIP3    H2 5782   1.636   1.574   1.614
 1947TIP3   OH2 5783   4.254   7.789   1.726
 1947TIP3    H1 5784   4.329   7.756   1.775
 1947TIP3    H2 5785   4.219   7.713   1.680
 1948TIP3   OH2 5786   1.789   1.104   0.577
 1948TIP3    H1 5787   1.851   1.176   0.571
 1948TIP3    H2 5788   1.813   1.057   0.657
 1949TIP3   OH2 5789   8.055   0.806   5.983
 1949TIP3    H1 5790   7.961   0.806   6.000
 1949TIP3    H2 5791   8.094   0.762   6.058
 1950TIP3   OH2 5792   6.463   6.013   5.233
 1950TIP3    H1 5793   6.480   5.969   5.149
 1950TIP3    H2 5794   6.549   6.023   5.273
 1951TIP3   OH2 5795   8.110   1.376   5.037
 1951TIP3    H1 5796   8.159   1.331   4.969
 1951TIP3    H2 5797   8.149   1.463   5.040
 1952TIP3   OH2 5798   1.451   1.478   4.852
 1952TIP3    H1 5799   1.361   1.474   4.885
 1952TIP3    H2 5800   1.443   1.469   4.757
 1953TIP3   OH2 5801   7.368   7.334   3.228
 1953TIP3    H1 5802   7.369   7.239   3.235
 1953TIP3    H2 5803   7.307   7.352   3.156
 1954TIP3   OH2 5804   7.260   3.633   6.052
 1954TIP3    H1 5805   7.232   3.703   6.112
 1954TIP3    H2 5806   7.291   3.679   5.974
 1955TIP3   OH2 5807   2.293   4.788   0.546
 1955TIP3    H1 5808   2.331   4.755   0.465
 1955TIP3    H2 5809   2.319   4.724   0.613
 1956TIP3   OH2 5810   5.291   1.456   0.992
 1956TIP3    H1 5811   5.333   1.539   0.969
 1956TIP3    H2 5812   5.305   1.448   1.087
 1957TIP3   OH2 5813   3.563   3.787   0.096
 1957TIP3    H1 5814   3.601   3.858   0.148
 1957TIP3    H2 5815   3.618   3.782   0.018
 1958TIP3   OH2 5816   3.391   0.473   6.408
 1958TIP3    H1 5817   3.440   0.420   6.470
 1958TIP3    H2 5818   3.299   0.460   6.432
 1959TIP3   OH2 5819   1.061   4.460   2.915
 1959TIP3    H1 5820   1.005   4.496   2.984
 1959TIP3    H2 5821   1.005   4.398   2.869
 1960TIP3   OH2 5822   7.352   5.604   6.448
 1960TIP3    H1 5823   7.380   5.629   6.536
 1960TIP3    H2 5824   7.261   5.576   6.458
 1961TIP3   OH2 5825   6.249   0.856   1.631
 1961TIP3    H1 5826   6.183   0.854   1.700
 1961TIP3    H2 5827   6.316   0.795   1.661
 1962TIP3   OH2 5828   6.510   2.073   5.300
 1962TIP3    H1 5829   6.470   2.156   5.276
 1962TIP3    H2 5830   6.437   2.010   5.299
 1963TIP3   OH2 5831   4.893   6.620   1.357
 1963TIP3    H1 5832   4.877   6.714   1.351
 1963TIP3    H2 5833   4.984   6.612   1.384
 1964TIP3   OH2 5834   5.039   7.634   3.355
 1964TIP3    H1 5835   5.020   7.549   3.315
 1964TIP3    H2 5836   4.955   7.680   3.354
 1965TIP3   OH2 5837   4.886   4.706   5.941
 1965TIP3    H1 5838   4.904   4.740   5.853
 1965TIP3    H2 5839   4.836   4.626   5.926
 1966TIP3   OH2 5840   2.224   2.857   6.498
 1966TIP3    H1 5841   2.307   2.812   6.516
 1966TIP3    H2 5842   2.208   2.841   6.405
 1967TIP3   OH2 5843   4.588   5.081   3.189
 1967TIP3    H1 5844   4.558   4.990   3.190
 1967TIP3    H2 5845   4.539   5.123   3.259
 1968TIP3   OH2 5846   4.656   7.653   3.597
 1968TIP3    H1 5847   4.747   7.658   3.628
 1968TIP3    H2 5848   4.608   7.615   3.671
 1969TIP3   OH2 5849   2.159   0.500   2.775
 1969TIP3    H1 5850   2.146   0.485   2.868
 1969TIP3    H2 5851   2.131   0.590   2.761
 1970TIP3   OH2 5852   7.309   6.636   2.137
 1970TIP3    H1 5853   7.372   6.564   2.144
 1970TIP3    H2 5854   7.364   6.715   2.134
 1971TIP3   OH2 5855   6.104   7.483   2.924
 1971TIP3    H1 5856   6.030   7.423   2.911
 1971TIP3    H2 5857   6.150   7.449   3.000
 1972TIP3   OH2 5858   0.181   5.597   5.765
 1972TIP3    H1 5859   0.185   5.535   5.838
 1972TIP3    H2 5860   0.204   5.681   5.804
 1973TIP3   OH2 5861   4.822   3.172   3.051
 1973TIP3    H1 5862   4.782   3.252   3.085
 1973TIP3    H2 5863   4.785   3.162   2.964
 1974TIP3   OH2 5864   3.834   7.186   5.945
 1974TIP3    H1 5865   3.901   7.161   6.008
 1974TIP3    H2 5866   3.883   7.217   5.869
 1975TIP3   OH2 5867   3.742   1.025   2.852
 1975TIP3    H1 5868   3.788   1.106   2.829
 1975TIP3    H2 5869   3.811   0.958   2.852
 1976TIP3   OH2 5870   7.633   6.570   0.386
 1976TIP3    H1 5871   7.595   6.626   0.453
 1976TIP3    H2 5872   7.558   6.530   0.342
 1977TIP3   OH2 5873   3.134   6.219   0.863
 1977TIP3    H1 5874   3.081   6.290   0.826
 1977TIP3    H2 5875   3.201   6.263   0.914
 1978TIP3   OH2 5876   4.780   0.050   6.233
 1978TIP3    H1 5877   4.850   0.039   6.168
 1978TIP3    H2 5878   4.705   0.003   6.196
 1979TIP3   OH2 5879   7.607   6.179   0.992
 1979TIP3    H1 5880   7.675   6.234   0.953
 1979TIP3    H2 5881   7.579   6.227   1.070
 1980TIP3   OH2 5882   7.091   5.626   0.160
 1980TIP3    H1 5883   7.103   5.709   0.113
 1980TIP3    H2 5884   7.076   5.652   0.251
 1981TIP3   OH2 5885   7.997   6.888   5.689
 1981TIP3    H1 5886   7.999   6.952   5.617
 1981TIP3    H2 5887   8.076   6.907   5.740
 1982TIP3   OH2 5888   1.881   6.053   4.115
 1982TIP3    H1 5889   1.923   6.123   4.164
 1982TIP3    H2 5890   1.954   6.006   4.074
 1983TIP3   OH2 5891   2.700   2.004   3.249
 1983TIP3    H1 5892   2.724   2.058   3.325
 1983TIP3    H2 5893   2.740   1.919   3.267
 1984TIP3   OH2 5894   5.905   2.349   4.317
 1984TIP3    H1 5895   5.888   2.355   4.223
 1984TIP3    H2 5896   5.855   2.422   4.355
 1985TIP3   OH2 5897   2.096   5.916   6.221
 1985TIP3    H1 5898   2.002   5.914   6.200
 1985TIP3    H2 5899   2.110   6.004   6.257
 1986TIP3   OH2 5900   0.645   6.159   3.600
 1986TIP3    H1 5901   0.695   6.200   3.670
 1986TIP3    H2 5902   0.625   6.071   3.634
 1987TIP3   OH2 5903   1.418   4.612   1.658
 1987TIP3    H1 5904   1.325   4.589   1.662
 1987TIP3    H2 5905   1.423   4.681   1.592
 1988TIP3   OH2 5906   7.432   5.975   1.005
 1988TIP3    H1 5907   7.491   6.050   0.998
 1988TIP3    H2 5908   7.443   5.945   1.095
 1989TIP3   OH2 5909   4.429   4.398   6.280
 1989TIP3    H1 5910   4.518   4.367   6.292
 1989TIP3    H2 5911   4.434   4.457   6.204
 1990TIP3   OH2 5912   7.673   0.512   1.827
 1990TIP3    H1 5913   7.703   0.549   1.911
 1990TIP3    H2 5914   7.682   0.418   1.838
 1991TIP3   OH2 5915   0.416   0.828   5.592
 1991TIP3    H1 5916   0.467   0.774   5.653
 1991TIP3    H2 5917   0.345   0.771   5.562
 1992TIP3   OH2 5918   6.126   0.747   1.993
 1992TIP3    H1 5919   6.158   0.829   1.956
 1992TIP3    H2 5920   6.143   0.682   1.926
 1993TIP3   OH2 5921   4.510   5.745   5.966
 1993TIP3    H1 5922   4.507   5.733   6.061
 1993TIP3    H2 5923   4.586   5.694   5.937
 1994TIP3   OH2 5924   1.354   2.636   3.791
 1994TIP3    H1 5925   1.367   2.716   3.842
 1994TIP3    H2 5926   1.364   2.663   3.700
 1995TIP3   OH2 5927   6.822   2.356   4.730
 1995TIP3    H1 5928   6.782   2.351   4.643
 1995TIP3    H2 5929   6.804   2.271   4.770
 1996TIP3   OH2 5930   2.743   4.565   2.970
 1996TIP3    H1 5931   2.776   4.538   3.056
 1996TIP3    H2 5932   2.804   4.632   2.941
 1997TIP3   OH2 5933   8.269   5.398   0.995
 1997TIP3    H1 5934   8.347   5.391   0.939
 1997TIP3    H2 5935   8.197   5.411   0.934
 1998TIP3   OH2 5936   5.827   4.007   2.262
 1998TIP3    H1 5937   5.813   4.094   2.297
 1998TIP3    H2 5938   5.845   4.021   2.169
 1999TIP3   OH2 5939   0.032   6.338   3.536
 1999TIP3    H1 5940   0.051   6.367   3.447
 1999TIP3    H2 5941   0.103   6.375   3.589
 2000TIP3   OH2 5942   7.318   0.047   5.471
 2000TIP3    H1 5943   7.242   0.095   5.438
 2000TIP3    H2 5944   7.308  -0.041   5.433
 2001TIP3   OH2 5945   8.198   2.938   0.908
 2001TIP3    H1 5946   8.234   2.958   0.994
 2001TIP3    H2 5947   8.255   2.985   0.846
 2002TIP3   OH2 5948   7.569   6.843   6.391
 2002TIP3    H1 5949   7.533   6.787   6.323
 2002TIP3    H2 5950   7.492   6.879   6.436
 2003TIP3   OH2 5951   5.180   3.382   6.434
 2003TIP3    H1 5952   5.089   3.361   6.413
 2003TIP3    H2 5953   5.204   3.319   6.501
 2004TIP3   OH2 5954   5.018   3.116   4.748
 2004TIP3    H1 5955   5.016   3.064   4.828
 2004TIP3    H2 5956   4.999   3.205   4.776
 2005TIP3   OH2 5957   3.138   4.541   4.809
 2005TIP3    H1 5958   3.043   4.547   4.806
 2005TIP3    H2 5959   3.156   4.447   4.821
 2006TIP3   OH2 5960   4.033   2.243   4.846
 2006TIP3    H1 5961   4.079   2.327   4.853
 2006TIP3    H2 5962   3.949   2.258   4.889
 2007TIP3   OH2 5963   5.649   1.976   0.147
 2007TIP3    H1 5964   5.695   1.907   0.099
 2007TIP3    H2 5965   5.671   2.057   0.100
 2008TIP3   OH2 5966   6.806   7.360   2.852
 2008TIP3    H1 5967   6.869   7.356   2.780
 2008TIP3    H2 5968   6.731   7.406   2.815
 2009TIP3   OH2 5969   5.946   0.071   6.529
 2009TIP3    H1 5970   5.890   0.093   6.455
 2009TIP3    H2 5971   5.904  -0.006   6.568
 2010TIP3   OH2 5972   7.978   1.734   6.169
 2010TIP3    H1 5973   7.932   1.795   6.112
 2010TIP3    H2 5974   7.925   1.732   6.249
 2011TIP3   OH2 5975   7.758   7.315   5.381
 2011TIP3    H1 5976   7.752   7.263   5.461
 2011TIP3    H2 5977   7.760   7.250   5.310
 2012TIP3   OH2 5978   2.012   2.383   6.543
 2012TIP3    H1 5979   1.998   2.452   6.478
 2012TIP3    H2 5980   1.925   2.345   6.555
 2013TIP3   OH2 5981   5.993   4.195   0.884
 2013TIP3    H1 5982   5.915   4.176   0.832
 2013TIP3    H2 5983   6.011   4.113   0.930
 2014TIP3   OH2 5984   3.767   1.594   3.108
 2014TIP3    H1 5985   3.838   1.535   3.130
 2014TIP3    H2 5986   3.801   1.648   3.036
 2015TIP3   OH2 5987   7.206   7.623   4.443
 2015TIP3    H1 5988   7.244   7.599   4.358
 2015TIP3    H2 5989   7.258   7.698   4.471
 2016TIP3   OH2 5990   1.668   1.213   0.349
 2016TIP3    H1 5991   1.737   1.171   0.297
 2016TIP3    H2 5992   1.677   1.175   0.436
 2017TIP3   OH2 5993   4.638   5.711   2.887
 2017TIP3    H1 5994   4.614   5.646   2.952
 2017TIP3    H2 5995   4.725   5.683   2.856
 2018TIP3   OH2 5996   1.659   7.777   2.591
 2018TIP3    H1 5997   1.734   7.722   2.613
 2018TIP3    H2 5998   1.698   7.854   2.550
 2019TIP3   OH2 5999   1.663   6.750   5.616
 2019TIP3    H1 6000   1.635   6.677   5.562
 2019TIP3    H2 6001   1.747   6.777   5.580
 2020TIP3   OH2 6002   4.655   2.772   0.211
 2020TIP3    H1 6003   4.729   2.734   0.165
 2020TIP3    H2 6004   4.648   2.722   0.293
 2021TIP3   OH2 6005   7.138   5.290   5.316
 2021TIP3    H1 6006   7.210   5.229   5.332
 2021TIP3    H2 6007   7.060   5.234   5.311
 2022TIP3   OH2 6008   1.508   1.246   6.177
 2022TIP3    H1 6009   1.466   1.278   6.097
 2022TIP3    H2 6010   1.509   1.321   6.235
 2023TIP3   OH2 6011   4.040   2.301   1.107
 2023TIP3    H1 6012   4.116   2.359   1.099
 2023TIP3    H2 6013   4.077   2.213   1.108
 2024TIP3   OH2 6014   2.986   5.615   2.349
 2024TIP3    H1 6015   2.927   5.540   2.360
 2024TIP3    H2 6016   3.014   5.637   2.438
 2025TIP3   OH2 6017   5.497   2.077   1.489
 2025TIP3    H1 6018   5.529   2.167   1.498
 2025TIP3    H2 6019   5.465   2.072   1.399
 2026TIP3   OH2 6020   4.850   2.547   5.539
 2026TIP3    H1 6021   4.922   2.487   5.559
 2026TIP3    H2 6022   4.880   2.594   5.461
 2027TIP3   OH2 6023   0.846   5.573   0.605
 2027TIP3    H1 6024   0.932   5.583   0.564
 2027TIP3    H2 6025   0.828   5.660   0.642
 2028TIP3   OH2 6026   7.334   6.029   6.109
 2028TIP3    H1 6027   7.298   5.947   6.144
 2028TIP3    H2 6028   7.264   6.093   6.120
 2029TIP3   OH2 6029   2.275   4.040   5.427
 2029TIP3    H1 6030   2.205   3.977   5.413
 2029TIP3    H2 6031   2.352   3.987   5.446
 2030TIP3   OH2 6032   0.412   4.558   5.080
 2030TIP3    H1 6033   0.423   4.534   4.988
 2030TIP3    H2 6034   0.497   4.594   5.106
 2031TIP3   OH2 6035   0.933   5.103   0.036
 2031TIP3    H1 6036   0.861   5.117  -0.026
 2031TIP3    H2 6037   0.891   5.066   0.113
 2032TIP3   OH2 6038   1.257   4.747   1.206
 2032TIP3    H1 6039   1.256   4.729   1.112
 2032TIP3    H2 6040   1.269   4.842   1.212
 2033TIP3   OH2 6041   7.384   6.719   4.893
 2033TIP3    H1 6042   7.374   6.708   4.799
 2033TIP3    H2 6043   7.479   6.722   4.907
 2034TIP3   OH2 6044   0.639   6.452   3.004
 2034TIP3    H1 6045   0.569   6.444   3.069
 2034TIP3    H2 6046   0.686   6.532   3.029
 2035TIP3   OH2 6047   1.937   2.393   1.334
 2035TIP3    H1 6048   2.000   2.349   1.277
 2035TIP3    H2 6049   1.960   2.486   1.329
 2036TIP3   OH2 6050   0.022   3.295   4.687
 2036TIP3    H1 6051   0.071   3.257   4.760
 2036TIP3    H2 6052  -0.053   3.236   4.676
 2037TIP3   OH2 6053   2.674   3.771   2.982
 2037TIP3    H1 6054   2.657   3.840   3.046
 2037TIP3    H2 6055   2.723   3.815   2.912
 2038TIP3   OH2 6056   5.654   5.846   2.583
 2038TIP3    H1 6057   5.734   5.796   2.565
 2038TIP3    H2 6058   5.664   5.926   2.533
 2039TIP3   OH2 6059   4.769   6.876   0.354
 2039TIP3    H1 6060   4.778   6.908   0.443
 2039TIP3    H2 6061   4.818   6.938   0.300
 2040TIP3   OH2 6062   0.685   2.410   3.755
 2040TIP3    H1 6063   0.690   2.357   3.676
 2040TIP3    H2 6064   0.595   2.398   3.786
 2041TIP3   OH2 6065   4.870   7.474   5.688
 2041TIP3    H1 6066   4.787   7.462   5.735
 2041TIP3    H2 6067   4.844   7.508   5.602
 2042TIP3   OH2 6068   1.429   6.463   6.630
 2042TIP3    H1 6069   1.429   6.522   6.555
 2042TIP3    H2 6070   1.478   6.386   6.600
 2043TIP3   OH2 6071   4.243   7.224   1.170
 2043TIP3    H1 6072   4.225   7.156   1.234
 2043TIP3    H2 6073   4.276   7.298   1.221
 2044TIP3   OH2 6074   2.579   6.754   4.974
 2044TIP3    H1 6075   2.670   6.771   4.951
 2044TIP3    H2 6076   2.531   6.828   4.938
 2045TIP3   OH2 6077   4.354   3.374   5.757
 2045TIP3    H1 6078   4.313   3.425   5.687
 2045TIP3    H2 6079   4.298   3.297   5.767
 2046TIP3   OH2 6080   2.833   7.625   2.643
 2046TIP3    H1 6081   2.908   7.598   2.697
 2046TIP3    H2 6082   2.851   7.716   2.622
 2047TIP3   OH2 6083   6.584   3.147   2.074
 2047TIP3    H1 6084   6.606   3.054   2.087
 2047TIP3    H2 6085   6.490   3.151   2.089
 2048TIP3   OH2 6086   0.033   0.664   0.831
 2048TIP3    H1 6087  -0.058   0.693   0.826
 2048TIP3    H2 6088   0.066   0.673   0.742
 2049TIP3   OH2 6089   0.924   2.843   5.930
 2049TIP3    H1 6090   0.882   2.928   5.913
 2049TIP3    H2 6091   0.990   2.835   5.860
 2050TIP3   OH2 6092   6.786   4.004   2.417
 2050TIP3    H1 6093   6.832   3.971   2.340
 2050TIP3    H2 6094   6.841   4.075   2.449
 2051TIP3   OH2 6095   3.665   0.273   6.004
 2051TIP3    H1 6096   3.648   0.272   5.910
 2051TIP3    H2 6097   3.665   0.181   6.030
 2052TIP3   OH2 6098   2.273   3.981  -0.006
 2052TIP3    H1 6099   2.241   4.035   0.066
 2052TIP3    H2 6100   2.197   3.929  -0.032
 2053TIP3   OH2 6101   7.989   7.752   5.229
 2053TIP3    H1 6102   7.904   7.743   5.186
 2053TIP3    H2 6103   7.991   7.680   5.292
 2054TIP3   OH2 6104   1.877   2.746   1.838
 2054TIP3    H1 6105   1.879   2.822   1.780
 2054TIP3    H2 6106   1.827   2.680   1.790
 2055TIP3   OH2 6107   7.663   2.897   4.319
 2055TIP3    H1 6108   7.590   2.866   4.373
 2055TIP3    H2 6109   7.665   2.992   4.334
 2056TIP3   OH2 6110   4.567   0.873   0.746
 2056TIP3    H1 6111   4.494   0.840   0.799
 2056TIP3    H2 6112   4.563   0.968   0.756
 2057TIP3   OH2 6113   5.818   2.289   4.851
 2057TIP3    H1 6114   5.748   2.235   4.814
 2057TIP3    H2 6115   5.843   2.244   4.931
 2058TIP3   OH2 6116   8.267   5.355   0.226
 2058TIP3    H1 6117   8.342   5.414   0.213
 2058TIP3    H2 6118   8.193   5.401   0.186
 2059TIP3   OH2 6119   8.204   1.524   0.257
 2059TIP3    H1 6120   8.235   1.436   0.237
 2059TIP3    H2 6121   8.256   1.581   0.202
 2060TIP3   OH2 6122   7.068   1.902   1.709
 2060TIP3    H1 6123   7.014   1.944   1.776
 2060TIP3    H2 6124   7.157   1.927   1.731
 2061TIP3   OH2 6125   1.518   7.437   6.562
 2061TIP3    H1 6126   1.548   7.347   6.576
 2061TIP3    H2 6127   1.446   7.428   6.500
 2062TIP3   OH2 6128   2.575   7.495   6.432
 2062TIP3    H1 6129   2.482   7.517   6.425
 2062TIP3    H2 6130   2.612   7.566   6.485
 2063TIP3   OH2 6131   4.795   1.756   6.358
 2063TIP3    H1 6132   4.847   1.828   6.322
 2063TIP3    H2 6133   4.822   1.680   6.307
 2064TIP3   OH2 6134   5.344   3.023   4.508
 2064TIP3    H1 6135   5.290   3.021   4.428
 2064TIP3    H2 6136   5.434   3.023   4.476
 2065TIP3   OH2 6137   0.042   4.604   2.770
 2065TIP3    H1 6138   0.041   4.526   2.826
 2065TIP3    H2 6139   0.134   4.631   2.770
 2066TIP3   OH2 6140   4.081   0.561   2.726
 2066TIP3    H1 6141   4.009   0.586   2.668
 2066TIP3    H2 6142   4.087   0.466   2.716
 2067TIP3   OH2 6143   4.023   0.052   3.635
 2067TIP3    H1 6144   4.000  -0.034   3.670
 2067TIP3    H2 6145   3.940   0.089   3.606
 2068TIP3   OH2 6146   7.159   4.472   4.458
 2068TIP3    H1 6147   7.088   4.532   4.437
 2068TIP3    H2 6148   7.119   4.406   4.515
 2069TIP3   OH2 6149   2.247   7.588   5.048
 2069TIP3    H1 6150   2.198   7.666   5.022
 2069TIP3    H2 6151   2.258   7.538   4.967
 2070TIP3   OH2 6152   2.021   3.123   3.364
 2070TIP3    H1 6153   1.937   3.169   3.361
 2070TIP3    H2 6154   2.064   3.146   3.282
 2071TIP3   OH2 6155   5.003   0.088   2.186
 2071TIP3    H1 6156   4.926   0.141   2.162
 2071TIP3    H2 6157   5.057   0.146   2.238
 2072TIP3   OH2 6158   5.207   5.364   4.095
 2072TIP3    H1 6159   5.143   5.352   4.025
 2072TIP3    H2 6160   5.286   5.395   4.050
 2073TIP3   OH2 6161   3.673   6.556   4.967
 2073TIP3    H1 6162   3.689   6.649   4.980
 2073TIP3    H2 6163   3.760   6.518   4.954
 2074TIP3   OH2 6164   6.373   0.019   4.573
 2074TIP3    H1 6165   6.381   0.032   4.668
 2074TIP3    H2 6166   6.370   0.108   4.537
 2075TIP3   OH2 6167   7.430   2.589   3.295
 2075TIP3    H1 6168   7.502   2.597   3.358
 2075TIP3    H2 6169   7.389   2.506   3.317
 2076TIP3   OH2 6170   7.886   4.542   1.619
 2076TIP3    H1 6171   7.884   4.543   1.715
 2076TIP3    H2 6172   7.960   4.486   1.597
 2077TIP3   OH2 6173   5.825   5.130   2.073
 2077TIP3    H1 6174   5.738   5.149   2.110
 2077TIP3    H2 6175   5.886   5.177   2.129
 2078TIP3   OH2 6176   0.862   1.803   4.577
 2078TIP3    H1 6177   0.896   1.747   4.646
 2078TIP3    H2 6178   0.930   1.803   4.510
 2079TIP3   OH2 6179   4.792   2.808   1.230
 2079TIP3    H1 6180   4.736   2.867   1.179
 2079TIP3    H2 6181   4.869   2.860   1.252
 2080TIP3   OH2 6182   0.313   5.109   1.786
 2080TIP3    H1 6183   0.294   5.116   1.692
 2080TIP3    H2 6184   0.241   5.155   1.828
 2081TIP3   OH2 6185   7.825   7.263   4.265
 2081TIP3    H1 6186   7.875   7.247   4.185
 2081TIP3    H2 6187   7.814   7.176   4.304
 2082TIP3   OH2 6188   8.231   0.663   0.440
 2082TIP3    H1 6189   8.201   0.664   0.531
 2082TIP3    H2 6190   8.155   0.689   0.389
 2083TIP3   OH2 6191   0.199   4.452   1.086
 2083TIP3    H1 6192   0.203   4.363   1.050
 2083TIP3    H2 6193   0.155   4.503   1.018
 2084TIP3   OH2 6194   8.205   0.083   3.508
 2084TIP3    H1 6195   8.262   0.135   3.451
 2084TIP3    H2 6196   8.167   0.016   3.451
 2085TIP3   OH2 6197   6.086   3.863   0.799
 2085TIP3    H1 6198   6.000   3.902   0.779
 2085TIP3    H2 6199   6.147   3.936   0.793
 2086TIP3   OH2 6200   3.384   0.792   5.394
 2086TIP3    H1 6201   3.353   0.882   5.391
 2086TIP3    H2 6202   3.354   0.758   5.479
 2087TIP3   OH2 6203   8.009   1.053   5.495
 2087TIP3    H1 6204   7.989   1.031   5.405
 2087TIP3    H2 6205   7.956   1.131   5.512
 2088TIP3   OH2 6206   7.958   4.334   0.843
 2088TIP3    H1 6207   8.040   4.288   0.828
 2088TIP3    H2 6208   7.903   4.311   0.768
 2089TIP3   OH2 6209   6.245   7.702   4.606
 2089TIP3    H1 6210   6.280   7.649   4.677
 2089TIP3    H2 6211   6.252   7.646   4.529
 2090TIP3   OH2 6212   6.372   6.976   1.246
 2090TIP3    H1 6213   6.452   6.963   1.298
 2090TIP3    H2 6214   6.369   6.900   1.188
 2091TIP3   OH2 6215   0.602   2.558   6.750
 2091TIP3    H1 6216   0.593   2.488   6.685
 2091TIP3    H2 6217   0.611   2.512   6.834
 2092TIP3   OH2 6218   7.146   2.609   6.424
 2092TIP3    H1 6219   7.122   2.591   6.515
 2092TIP3    H2 6220   7.072   2.577   6.373
 2093TIP3   OH2 6221   6.341   4.920   4.707
 2093TIP3    H1 6222   6.426   4.950   4.675
 2093TIP3    H2 6223   6.351   4.825   4.716
 2094TIP3   OH2 6224   7.008   1.150   4.065
 2094TIP3    H1 6225   6.986   1.158   3.972
 2094TIP3    H2 6226   7.054   1.232   4.085
 2095TIP3   OH2 6227   4.164   4.322   5.914
 2095TIP3    H1 6228   4.219   4.258   5.959
 2095TIP3    H2 6229   4.225   4.378   5.866
 2096TIP3   OH2 6230   4.768   3.730   3.157
 2096TIP3    H1 6231   4.720   3.772   3.086
 2096TIP3    H2 6232   4.852   3.777   3.161
 2097TIP3   OH2 6233   3.720   5.895   4.811
 2097TIP3    H1 6234   3.762   5.882   4.896
 2097TIP3    H2 6235   3.757   5.977   4.779
 2098TIP3   OH2 6236   0.881   1.292   5.448
 2098TIP3    H1 6237   0.790   1.317   5.437
 2098TIP3    H2 6238   0.929   1.374   5.451
 2099TIP3   OH2 6239   5.629   0.177   3.351
 2099TIP3    H1 6240   5.696   0.196   3.287
 2099TIP3    H2 6241   5.673   0.124   3.418
 2100TIP3   OH2 6242   1.687   1.851   5.885
 2100TIP3    H1 6243   1.681   1.824   5.793
 2100TIP3    H2 6244   1.603   1.826   5.923
 2101TIP3   OH2 6245   1.482   3.844   0.188
 2101TIP3    H1 6246   1.574   3.816   0.190
 2101TIP3    H2 6247   1.434   3.773   0.230
 2102TIP3   OH2 6248   0.749   0.070   2.648
 2102TIP3    H1 6249   0.727   0.150   2.600
 2102TIP3    H2 6250   0.664   0.038   2.680
 2103TIP3   OH2 6251   1.999   0.880   0.303
 2103TIP3    H1 6252   2.023   0.850   0.391
 2103TIP3    H2 6253   1.917   0.834   0.284
 2104TIP3   OH2 6254   2.412   5.647   1.820
 2104TIP3    H1 6255   2.386   5.671   1.909
 2104TIP3    H2 6256   2.348   5.579   1.794
 2105TIP3   OH2 6257   2.729   6.372   0.936
 2105TIP3    H1 6258   2.644   6.348   0.973
 2105TIP3    H2 6259   2.753   6.453   0.981
 2106TIP3   OH2 6260   0.957   0.905   1.049
 2106TIP3    H1 6261   0.978   0.990   1.010
 2106TIP3    H2 6262   0.973   0.917   1.142
 2107TIP3   OH2 6263   3.898   2.340   3.598
 2107TIP3    H1 6264   3.879   2.401   3.528
 2107TIP3    H2 6265   3.986   2.365   3.628
 2108TIP3   OH2 6266   7.460   1.342   0.723
 2108TIP3    H1 6267   7.537   1.332   0.667
 2108TIP3    H2 6268   7.392   1.377   0.665
 2109TIP3   OH2 6269   2.242   4.987   2.315
 2109TIP3    H1 6270   2.334   4.967   2.298
 2109TIP3    H2 6271   2.197   4.970   2.232
 2110TIP3   OH2 6272   3.762   2.716   3.647
 2110TIP3    H1 6273   3.773   2.787   3.584
 2110TIP3    H2 6274   3.796   2.638   3.603
 2111TIP3   OH2 6275   7.542   0.657   0.917
 2111TIP3    H1 6276   7.455   0.666   0.878
 2111TIP3    H2 6277   7.545   0.566   0.948
 2112TIP3   OH2 6278   7.244   3.140   1.043
 2112TIP3    H1 6279   7.326   3.117   1.087
 2112TIP3    H2 6280   7.220   3.225   1.080
 2113TIP3   OH2 6281   7.751   2.295   1.193
 2113TIP3    H1 6282   7.816   2.362   1.171
 2113TIP3    H2 6283   7.799   2.213   1.191
 2114TIP3   OH2 6284   5.807   6.660   1.822
 2114TIP3    H1 6285   5.790   6.577   1.777
 2114TIP3    H2 6286   5.813   6.725   1.752
 2115TIP3   OH2 6287   3.825   0.265   0.537
 2115TIP3    H1 6288   3.841   0.350   0.578
 2115TIP3    H2 6289   3.808   0.205   0.610
 2116TIP3   OH2 6290   3.845   4.498   3.421
 2116TIP3    H1 6291   3.898   4.575   3.399
 2116TIP3    H2 6292   3.906   4.441   3.468
 2117TIP3   OH2 6293   3.239   5.644   5.490
 2117TIP3    H1 6294   3.331   5.628   5.466
 2117TIP3    H2 6295   3.229   5.598   5.574
 2118TIP3   OH2 6296   5.583   4.070   6.168
 2118TIP3    H1 6297   5.584   4.119   6.251
 2118TIP3    H2 6298   5.508   4.105   6.120
 2119TIP3   OH2 6299   0.970   1.546   1.300
 2119TIP3    H1 6300   0.911   1.490   1.251
 2119TIP3    H2 6301   1.045   1.559   1.242
 2120TIP3   OH2 6302   0.874   6.146   6.090
 2120TIP3    H1 6303   0.944   6.102   6.042
 2120TIP3    H2 6304   0.872   6.101   6.175
 2121TIP3   OH2 6305   0.739   6.770   0.996
 2121TIP3    H1 6306   0.738   6.785   0.901
 2121TIP3    H2 6307   0.809   6.827   1.028
 2122TIP3   OH2 6308   2.113   7.289   4.732
 2122TIP3    H1 6309   2.189   7.328   4.777
 2122TIP3    H2 6310   2.116   7.326   4.644
 2123TIP3   OH2 6311   7.662   7.178   4.609
 2123TIP3    H1 6312   7.668   7.086   4.636
 2123TIP3    H2 6313   7.751   7.212   4.621
 2124TIP3   OH2 6314   8.057   3.788   4.644
 2124TIP3    H1 6315   8.083   3.880   4.635
 2124TIP3    H2 6316   7.974   3.782   4.598
 2125TIP3   OH2 6317   1.275   3.103   0.606
 2125TIP3    H1 6318   1.344   3.038   0.618
 2125TIP3    H2 6319   1.261   3.139   0.693
 2126TIP3   OH2 6320   4.182   4.689   5.563
 2126TIP3    H1 6321   4.090   4.714   5.567
 2126TIP3    H2 6322   4.222   4.751   5.502
 2127TIP3   OH2 6323   1.139   2.959   0.404
 2127TIP3    H1 6324   1.067   3.023   0.405
 2127TIP3    H2 6325   1.218   3.011   0.414
 2128TIP3   OH2 6326   4.422   1.634   2.703
 2128TIP3    H1 6327   4.451   1.656   2.792
 2128TIP3    H2 6328   4.424   1.717   2.656
 2129TIP3   OH2 6329   8.212   6.330   6.297
 2129TIP3    H1 6330   8.144   6.323   6.364
 2129TIP3    H2 6331   8.177   6.283   6.222
 2130TIP3   OH2 6332   2.884   6.995   3.136
 2130TIP3    H1 6333   2.837   7.025   3.059
 2130TIP3    H2 6334   2.819   6.947   3.187
 2131TIP3   OH2 6335   5.787   0.662   1.932
 2131TIP3    H1 6336   5.760   0.571   1.917
 2131TIP3    H2 6337   5.858   0.655   1.997
 2132TIP3   OH2 6338   0.162   3.456   1.834
 2132TIP3    H1 6339   0.083   3.505   1.857
 2132TIP3    H2 6340   0.145   3.425   1.745
 2133TIP3   OH2 6341   0.706   5.652   5.083
 2133TIP3    H1 6342   0.678   5.743   5.078
 2133TIP3    H2 6343   0.681   5.624   5.171
 2134TIP3   OH2 6344   8.149   3.569   1.607
 2134TIP3    H1 6345   8.070   3.578   1.553
 2134TIP3    H2 6346   8.219   3.605   1.554
 2135TIP3   OH2 6347   3.189   5.053   5.949
 2135TIP3    H1 6348   3.283   5.040   5.943
 2135TIP3    H2 6349   3.153   4.998   5.879
 2136TIP3   OH2 6350   5.863   7.220   1.810
 2136TIP3    H1 6351   5.921   7.157   1.767
 2136TIP3    H2 6352   5.920   7.268   1.870
 2137TIP3   OH2 6353   2.484   2.225   0.952
 2137TIP3    H1 6354   2.555   2.168   0.923
 2137TIP3    H2 6355   2.407   2.169   0.954
 2138TIP3   OH2 6356   1.010   3.836   1.120
 2138TIP3    H1 6357   0.999   3.921   1.164
 2138TIP3    H2 6358   0.993   3.771   1.189
 2139TIP3   OH2 6359   7.114   7.776   6.506
 2139TIP3    H1 6360   7.075   7.813   6.427
 2139TIP3    H2 6361   7.051   7.796   6.575
 2140TIP3   OH2 6362   1.218   4.894   2.861
 2140TIP3    H1 6363   1.266   4.817   2.831
 2140TIP3    H2 6364   1.127   4.865   2.866
 2141TIP3   OH2 6365   0.264   4.056   3.259
 2141TIP3    H1 6366   0.224   3.982   3.303
 2141TIP3    H2 6367   0.358   4.049   3.278
 2142TIP3   OH2 6368   0.604   3.549   5.622
 2142TIP3    H1 6369   0.611   3.644   5.619
 2142TIP3    H2 6370   0.551   3.531   5.700
 2143TIP3   OH2 6371   4.070   6.695   5.346
 2143TIP3    H1 6372   3.981   6.687   5.310
 2143TIP3    H2 6373   4.100   6.605   5.354
 2144TIP3   OH2 6374   6.717   0.379   5.101
 2144TIP3    H1 6375   6.766   0.450   5.061
 2144TIP3    H2 6376   6.778   0.305   5.103
 2145TIP3   OH2 6377   4.327   3.922   1.546
 2145TIP3    H1 6378   4.289   3.905   1.459
 2145TIP3    H2 6379   4.271   3.874   1.606
 2146TIP3   OH2 6380   7.607   4.225   6.625
 2146TIP3    H1 6381   7.624   4.276   6.546
 2146TIP3    H2 6382   7.694   4.202   6.659
 2147TIP3   OH2 6383   6.883   0.346   4.854
 2147TIP3    H1 6384   6.844   0.426   4.820
 2147TIP3    H2 6385   6.848   0.277   4.796
 2148TIP3   OH2 6386   5.906   6.926   0.057
 2148TIP3    H1 6387   5.951   6.876   0.125
 2148TIP3    H2 6388   5.888   7.011   0.098
 2149TIP3   OH2 6389   3.467   3.021   5.603
 2149TIP3    H1 6390   3.548   2.975   5.583
 2149TIP3    H2 6391   3.399   2.954   5.599
 2150TIP3   OH2 6392   2.056   5.218   1.304
 2150TIP3    H1 6393   2.138   5.196   1.260
 2150TIP3    H2 6394   2.084   5.271   1.380
 2151TIP3   OH2 6395   6.352   0.423   4.784
 2151TIP3    H1 6396   6.333   0.339   4.825
 2151TIP3    H2 6397   6.415   0.403   4.715
 2152TIP3   OH2 6398   1.591   0.233   4.255
 2152TIP3    H1 6399   1.645   0.172   4.306
 2152TIP3    H2 6400   1.551   0.178   4.187
 2153TIP3   OH2 6401   2.384   6.967   5.551
 2153TIP3    H1 6402   2.431   7.011   5.481
 2153TIP3    H2 6403   2.404   7.017   5.630
 2154TIP3   OH2 6404   0.312   0.229   0.903
 2154TIP3    H1 6405   0.234   0.281   0.888
 2154TIP3    H2 6406   0.358   0.274   0.974
 2155TIP3   OH2 6407   1.563   7.589   3.701
 2155TIP3    H1 6408   1.588   7.667   3.652
 2155TIP3    H2 6409   1.626   7.582   3.772
 2156TIP3   OH2 6410   1.166   4.087   6.435
 2156TIP3    H1 6411   1.248   4.043   6.454
 2156TIP3    H2 6412   1.101   4.042   6.490
 2157TIP3   OH2 6413   0.882   4.650   6.755
 2157TIP3    H1 6414   0.804   4.608   6.791
 2157TIP3    H2 6415   0.849   4.710   6.688
 2158TIP3   OH2 6416   6.767   0.850   1.351
 2158TIP3    H1 6417   6.728   0.862   1.264
 2158TIP3    H2 6418   6.700   0.802   1.400
 2159TIP3   OH2 6419   4.619   0.065   2.254
 2159TIP3    H1 6420   4.579   0.106   2.330
 2159TIP3    H2 6421   4.672   0.134   2.215
 2160TIP3   OH2 6422   2.344   7.124   2.732
 2160TIP3    H1 6423   2.268   7.182   2.741
 2160TIP3    H2 6424   2.369   7.132   2.640
 2161TIP3   OH2 6425   1.696   5.921   4.987
 2161TIP3    H1 6426   1.615   5.908   4.937
 2161TIP3    H2 6427   1.732   6.004   4.953
 2162TIP3   OH2 6428   2.234   1.905   4.991
 2162TIP3    H1 6429   2.214   1.989   4.950
 2162TIP3    H2 6430   2.276   1.929   5.074
 2163TIP3   OH2 6431   7.232   4.284   3.580
 2163TIP3    H1 6432   7.225   4.374   3.611
 2163TIP3    H2 6433   7.144   4.263   3.547
 2164TIP3   OH2 6434   7.711   2.911   1.617
 2164TIP3    H1 6435   7.658   2.851   1.564
 2164TIP3    H2 6436   7.691   2.998   1.583
 2165TIP3   OH2 6437   8.178   2.978   5.387
 2165TIP3    H1 6438   8.238   2.956   5.315
 2165TIP3    H2 6439   8.199   3.068   5.409
 2166TIP3   OH2 6440   2.961   6.605   3.585
 2166TIP3    H1 6441   3.048   6.641   3.567
 2166TIP3    H2 6442   2.977   6.529   3.640
 2167TIP3   OH2 6443   0.192   2.415   1.186
 2167TIP3    H1 6444   0.137   2.366   1.247
 2167TIP3    H2 6445   0.230   2.485   1.240
 2168TIP3   OH2 6446   4.764   7.461   2.854
 2168TIP3    H1 6447   4.797   7.412   2.928
 2168TIP3    H2 6448   4.669   7.450   2.858
 2169TIP3   OH2 6449   7.570   5.121   2.219
 2169TIP3    H1 6450   7.493   5.149   2.169
 2169TIP3    H2 6451   7.605   5.202   2.255
 2170TIP3   OH2 6452   8.243   1.247   0.154
 2170TIP3    H1 6453   8.219   1.208   0.069
 2170TIP3    H2 6454   8.271   1.172   0.207
 2171TIP3   OH2 6455   3.034   0.310   5.861
 2171TIP3    H1 6456   3.109   0.259   5.894
 2171TIP3    H2 6457   3.057   0.330   5.770
 2172TIP3   OH2 6458   2.332   3.180   2.091
 2172TIP3    H1 6459   2.381   3.221   2.162
 2172TIP3    H2 6460   2.399   3.148   2.030
 2173TIP3   OH2 6461   3.936   3.647   0.811
 2173TIP3    H1 6462   3.869   3.716   0.808
 2173TIP3    H2 6463   3.903   3.585   0.876
 2174TIP3   OH2 6464   7.778   1.308   4.923
 2174TIP3    H1 6465   7.771   1.243   4.993
 2174TIP3    H2 6466   7.828   1.379   4.963
 2175TIP3   OH2 6467   2.624   5.020   5.069
 2175TIP3    H1 6468   2.685   5.091   5.047
 2175TIP3    H2 6469   2.577   5.002   4.988
 2176TIP3   OH2 6470   0.779   6.017   2.043
 2176TIP3    H1 6471   0.794   5.945   1.982
 2176TIP3    H2 6472   0.753   6.090   1.988
 2177TIP3   OH2 6473   3.983   7.601   1.021
 2177TIP3    H1 6474   3.950   7.512   1.012
 2177TIP3    H2 6475   3.908   7.657   1.001
 2178TIP3   OH2 6476   3.714   2.773   1.895
 2178TIP3    H1 6477   3.766   2.715   1.839
 2178TIP3    H2 6478   3.691   2.717   1.970
 2179TIP3   OH2 6479   5.091   2.781   2.453
 2179TIP3    H1 6480   4.999   2.755   2.456
 2179TIP3    H2 6481   5.132   2.715   2.397
 2180TIP3   OH2 6482   0.948   7.035   5.582
 2180TIP3    H1 6483   0.917   7.044   5.491
 2180TIP3    H2 6484   1.005   6.958   5.580
 2181TIP3   OH2 6485   5.786   2.311   2.431
 2181TIP3    H1 6486   5.729   2.352   2.496
 2181TIP3    H2 6487   5.873   2.345   2.451
 2182TIP3   OH2 6488   3.862   4.202   5.041
 2182TIP3    H1 6489   3.886   4.242   4.957
 2182TIP3    H2 6490   3.834   4.276   5.095
 2183TIP3   OH2 6491   1.240   6.013   3.100
 2183TIP3    H1 6492   1.259   6.039   3.190
 2183TIP3    H2 6493   1.249   6.095   3.050
 2184TIP3   OH2 6494   7.932   0.014   6.515
 2184TIP3    H1 6495   7.872  -0.025   6.451
 2184TIP3    H2 6496   7.877   0.034   6.591
 2185TIP3   OH2 6497   0.015   2.866   4.736
 2185TIP3    H1 6498   0.102   2.825   4.739
 2185TIP3    H2 6499  -0.045   2.794   4.719
 2186TIP3   OH2 6500   7.526   5.235   4.339
 2186TIP3    H1 6501   7.555   5.205   4.426
 2186TIP3    H2 6502   7.606   5.264   4.296
 2187TIP3   OH2 6503   4.591   2.968   3.868
 2187TIP3    H1 6504   4.507   2.977   3.823
 2187TIP3    H2 6505   4.588   2.881   3.908
 2188TIP3   OH2 6506   1.896   1.384   4.022
 2188TIP3    H1 6507   1.816   1.400   3.972
 2188TIP3    H2 6508   1.954   1.339   3.960
 2189TIP3   OH2 6509   0.958   5.099   6.618
 2189TIP3    H1 6510   1.034   5.048   6.647
 2189TIP3    H2 6511   0.901   5.102   6.695
 2190TIP3   OH2 6512   0.237   5.721   0.354
 2190TIP3    H1 6513   0.188   5.694   0.431
 2190TIP3    H2 6514   0.188   5.683   0.280
 2191TIP3   OH2 6515   7.236   7.493   2.339
 2191TIP3    H1 6516   7.261   7.577   2.300
 2191TIP3    H2 6517   7.278   7.427   2.284
 2192TIP3   OH2 6518   1.491   6.959   2.123
 2192TIP3    H1 6519   1.398   6.963   2.146
 2192TIP3    H2 6520   1.494   6.910   2.041
 2193TIP3   OH2 6521   6.182   7.077   3.886
 2193TIP3    H1 6522   6.151   7.058   3.974
 2193TIP3    H2 6523   6.267   7.117   3.898
 2194TIP3   OH2 6524   0.709   4.057   4.017
 2194TIP3    H1 6525   0.714   4.122   4.087
 2194TIP3    H2 6526   0.761   3.983   4.050
 2195TIP3   OH2 6527   6.083   0.255   4.793
 2195TIP3    H1 6528   6.083   0.233   4.700
 2195TIP3    H2 6529   6.149   0.197   4.832
 2196TIP3   OH2 6530   7.712   6.703   0.802
 2196TIP3    H1 6531   7.621   6.689   0.777
 2196TIP3    H2 6532   7.717   6.795   0.826
 2197TIP3   OH2 6533   6.561   2.655   4.354
 2197TIP3    H1 6534   6.623   2.634   4.284
 2197TIP3    H2 6535   6.479   2.614   4.327
 2198TIP3   OH2 6536   2.630   4.436   2.764
 2198TIP3    H1 6537   2.652   4.497   2.694
 2198TIP3    H2 6538   2.663   4.478   2.844
 2199TIP3   OH2 6539   3.153   2.514   1.093
 2199TIP3    H1 6540   3.118   2.552   1.013
 2199TIP3    H2 6541   3.179   2.589   1.146
 2200TIP3   OH2 6542   8.154   4.026   2.487
 2200TIP3    H1 6543   8.197   3.942   2.503
 2200TIP3    H2 6544   8.190   4.056   2.403
 2201TIP3   OH2 6545   7.124   4.080   2.111
 2201TIP3    H1 6546   7.120   4.089   2.206
 2201TIP3    H2 6547   7.212   4.047   2.093
 2202TIP3   OH2 6548   5.235   7.098   4.900
 2202TIP3    H1 6549   5.308   7.045   4.932
 2202TIP3    H2 6550   5.172   7.035   4.865
 2203TIP3   OH2 6551   7.815   0.051   1.326
 2203TIP3    H1 6552   7.902   0.035   1.363
 2203TIP3    H2 6553   7.777  -0.037   1.316
 2204TIP3   OH2 6554   7.728   6.661   1.877
 2204TIP3    H1 6555   7.733   6.566   1.884
 2204TIP3    H2 6556   7.694   6.677   1.789
 2205TIP3   OH2 6557   7.922   2.366   6.040
 2205TIP3    H1 6558   8.000   2.392   6.088
 2205TIP3    H2 6559   7.875   2.307   6.100
 2206TIP3   OH2 6560   0.967   4.569   2.615
 2206TIP3    H1 6561   0.974   4.640   2.679
 2206TIP3    H2 6562   0.946   4.613   2.532
 2207TIP3   OH2 6563   1.411   6.986   6.461
 2207TIP3    H1 6564   1.355   6.923   6.506
 2207TIP3    H2 6565   1.444   6.938   6.385
 2208TIP3   OH2 6566   4.089   1.555   3.578
 2208TIP3    H1 6567   4.163   1.616   3.573
 2208TIP3    H2 6568   4.130   1.468   3.577
 2209TIP3   OH2 6569   4.556   7.592   3.851
 2209TIP3    H1 6570   4.483   7.626   3.903
 2209TIP3    H2 6571   4.634   7.616   3.901
 2210TIP3   OH2 6572   5.740   6.371   3.498
 2210TIP3    H1 6573   5.666   6.330   3.542
 2210TIP3    H2 6574   5.699   6.428   3.431
 2211TIP3   OH2 6575   4.820   2.294   5.689
 2211TIP3    H1 6576   4.816   2.228   5.620
 2211TIP3    H2 6577   4.729   2.318   5.705
 2212TIP3   OH2 6578   0.253   0.093   0.505
 2212TIP3    H1 6579   0.348   0.094   0.489
 2212TIP3    H2 6580   0.227   0.185   0.500
 2213TIP3   OH2 6581   2.248   0.679   2.253
 2213TIP3    H1 6582   2.255   0.613   2.322
 2213TIP3    H2 6583   2.177   0.736   2.283
 2214TIP3   OH2 6584   3.788   4.962   1.551
 2214TIP3    H1 6585   3.755   4.887   1.501
 2214TIP3    H2 6586   3.800   4.928   1.640
 2215TIP3   OH2 6587   6.537   0.944   0.647
 2215TIP3    H1 6588   6.566   0.985   0.566
 2215TIP3    H2 6589   6.554   0.851   0.635
 2216TIP3   OH2 6590   2.368   5.324   2.130
 2216TIP3    H1 6591   2.402   5.408   2.162
 2216TIP3    H2 6592   2.429   5.259   2.165
 2217TIP3   OH2 6593   5.906   7.745   6.355
 2217TIP3    H1 6594   5.948   7.692   6.287
 2217TIP3    H2 6595   5.929   7.702   6.437
 2218TIP3   OH2 6596   1.560   1.968   0.903
 2218TIP3    H1 6597   1.558   1.884   0.857
 2218TIP3    H2 6598   1.604   2.028   0.842
 2219TIP3   OH2 6599   5.774   7.611   0.996
 2219TIP3    H1 6600   5.691   7.597   0.949
 2219TIP3    H2 6601   5.831   7.652   0.932
 2220TIP3   OH2 6602   1.992   3.477   6.644
 2220TIP3    H1 6603   1.953   3.418   6.708
 2220TIP3    H2 6604   2.044   3.538   6.696
 2221TIP3   OH2 6605   4.833   5.111   2.937
 2221TIP3    H1 6606   4.748   5.072   2.917
 2221TIP3    H2 6607   4.814   5.181   2.998
 2222TIP3   OH2 6608   1.980   5.816   0.528
 2222TIP3    H1 6609   2.062   5.850   0.562
 2222TIP3    H2 6610   1.912   5.866   0.574
 2223TIP3   OH2 6611   6.643   2.568   4.590
 2223TIP3    H1 6612   6.738   2.575   4.589
 2223TIP3    H2 6613   6.616   2.603   4.505
 2224TIP3   OH2 6614   8.042   3.178   5.650
 2224TIP3    H1 6615   7.959   3.181   5.604
 2224TIP3    H2 6616   8.018   3.183   5.743
 2225TIP3   OH2 6617   2.735   5.307   6.609
 2225TIP3    H1 6618   2.712   5.232   6.554
 2225TIP3    H2 6619   2.821   5.286   6.644
 2226TIP3   OH2 6620   5.897   1.632   3.005
 2226TIP3    H1 6621   5.895   1.710   3.060
 2226TIP3    H2 6622   5.989   1.604   3.006
 2227TIP3   OH2 6623   2.548   0.188   1.469
 2227TIP3    H1 6624   2.582   0.242   1.540
 2227TIP3    H2 6625   2.608   0.113   1.465
 2228TIP3   OH2 6626   4.425   4.906   1.123
 2228TIP3    H1 6627   4.348   4.960   1.139
 2228TIP3    H2 6628   4.448   4.871   1.209
 2229TIP3   OH2 6629   1.569   5.599   4.744
 2229TIP3    H1 6630   1.627   5.623   4.816
 2229TIP3    H2 6631   1.504   5.669   4.741
 2230TIP3   OH2 6632   3.950   6.477   4.949
 2230TIP3    H1 6633   3.915   6.436   5.028
 2230TIP3    H2 6634   4.040   6.500   4.971
 2231TIP3   OH2 6635   1.523   2.622   0.843
 2231TIP3    H1 6636   1.482   2.564   0.777
 2231TIP3    H2 6637   1.599   2.573   0.873
 2232TIP3   OH2 6638   1.924   2.213   6.209
 2232TIP3    H1 6639   1.870   2.139   6.178
 2232TIP3    H2 6640   1.915   2.279   6.141
 2233TIP3   OH2 6641   7.528   6.808   2.033
 2233TIP3    H1 6642   7.568   6.738   1.980
 2233TIP3    H2 6643   7.599   6.838   2.089
 2234TIP3   OH2 6644   4.929   0.331   6.459
 2234TIP3    H1 6645   4.984   0.302   6.532
 2234TIP3    H2 6646   4.894   0.416   6.487
 2235TIP3   OH2 6647   1.677   2.548   2.999
 2235TIP3    H1 6648   1.680   2.530   2.905
 2235TIP3    H2 6649   1.609   2.490   3.032
 2236TIP3   OH2 6650   6.800   1.558   2.480
 2236TIP3    H1 6651   6.708   1.538   2.460
 2236TIP3    H2 6652   6.795   1.624   2.549
 2237TIP3   OH2 6653   6.144   0.356   3.244
 2237TIP3    H1 6654   6.132   0.334   3.336
 2237TIP3    H2 6655   6.235   0.334   3.225
 2238TIP3   OH2 6656   2.296   3.811   3.881
 2238TIP3    H1 6657   2.377   3.761   3.892
 2238TIP3    H2 6658   2.229   3.745   3.865
 2239TIP3   OH2 6659   0.998   7.317   4.673
 2239TIP3    H1 6660   1.030   7.295   4.586
 2239TIP3    H2 6661   1.077   7.338   4.723
 2240TIP3   OH2 6662   2.757   0.553   4.713
 2240TIP3    H1 6663   2.834   0.610   4.715
 2240TIP3    H2 6664   2.689   0.604   4.756
 2241TIP3   OH2 6665   1.650   5.425   1.555
 2241TIP3    H1 6666   1.710   5.428   1.480
 2241TIP3    H2 6667   1.574   5.377   1.523
 2242TIP3   OH2 6668   8.227   7.133   3.068
 2242TIP3    H1 6669   8.227   7.190   3.145
 2242TIP3    H2 6670   8.196   7.190   2.997
 2243TIP3   OH2 6671   7.779   6.777   2.735
 2243TIP3    H1 6672   7.694   6.735   2.722
 2243TIP3    H2 6673   7.834   6.708   2.771
 2244TIP3   OH2 6674   4.895   6.706   5.735
 2244TIP3    H1 6675   4.965   6.766   5.709
 2244TIP3    H2 6676   4.821   6.763   5.755
 2245TIP3   OH2 6677   4.634   4.387   4.029
 2245TIP3    H1 6678   4.636   4.475   3.992
 2245TIP3    H2 6679   4.542   4.362   4.026
 2246TIP3   OH2 6680   6.595   2.618   1.547
 2246TIP3    H1 6681   6.608   2.540   1.493
 2246TIP3    H2 6682   6.615   2.590   1.636
 2247TIP3   OH2 6683   1.073   2.024   1.465
 2247TIP3    H1 6684   1.104   1.940   1.500
 2247TIP3    H2 6685   1.124   2.090   1.513
 2248TIP3   OH2 6686   4.828   5.760   5.031
 2248TIP3    H1 6687   4.918   5.764   4.999
 2248TIP3    H2 6688   4.792   5.681   4.989
 2249TIP3   OH2 6689   4.362   4.269   1.756
 2249TIP3    H1 6690   4.296   4.211   1.719
 2249TIP3    H2 6691   4.380   4.233   1.843
 2250TIP3   OH2 6692   0.536   1.575   1.840
 2250TIP3    H1 6693   0.623   1.615   1.834
 2250TIP3    H2 6694   0.517   1.545   1.751
 2251TIP3   OH2 6695   4.129   3.216   1.837
 2251TIP3    H1 6696   4.154   3.308   1.829
 2251TIP3    H2 6697   4.141   3.180   1.749
 2252TIP3   OH2 6698   3.348   0.444   5.776
 2252TIP3    H1 6699   3.325   0.377   5.840
 2252TIP3    H2 6700   3.273   0.447   5.717
 2253TIP3   OH2 6701   4.502   0.441   0.135
 2253TIP3    H1 6702   4.514   0.427   0.041
 2253TIP3    H2 6703   4.432   0.380   0.159
 2254TIP3   OH2 6704   5.686   2.236   2.003
 2254TIP3    H1 6705   5.681   2.217   2.097
 2254TIP3    H2 6706   5.683   2.150   1.961
 2255TIP3   OH2 6707   3.547   3.004   3.412
 2255TIP3    H1 6708   3.542   3.061   3.336
 2255TIP3    H2 6709   3.634   3.022   3.449
 2256TIP3   OH2 6710   1.646   1.491   6.451
 2256TIP3    H1 6711   1.572   1.533   6.496
 2256TIP3    H2 6712   1.641   1.524   6.362
 2257TIP3   OH2 6713   6.340   2.102   4.237
 2257TIP3    H1 6714   6.282   2.176   4.220
 2257TIP3    H2 6715   6.421   2.141   4.267
 2258TIP3   OH2 6716   6.159   5.871   2.422
 2258TIP3    H1 6717   6.164   5.783   2.457
 2258TIP3    H2 6718   6.247   5.890   2.390
 2259TIP3   OH2 6719   3.963   3.843   3.494
 2259TIP3    H1 6720   3.956   3.748   3.490
 2259TIP3    H2 6721   4.051   3.863   3.461
 2260TIP3   OH2 6722   1.352   3.406   5.058
 2260TIP3    H1 6723   1.340   3.470   5.129
 2260TIP3    H2 6724   1.263   3.386   5.029
 2261TIP3   OH2 6725   5.025   6.942   5.717
 2261TIP3    H1 6726   5.102   6.944   5.661
 2261TIP3    H2 6727   4.991   7.032   5.714
 2262TIP3   OH2 6728   3.241   7.346   0.054
 2262TIP3    H1 6729   3.154   7.352   0.013
 2262TIP3    H2 6730   3.245   7.423   0.111
 2263TIP3   OH2 6731   0.694   2.120   6.529
 2263TIP3    H1 6732   0.772   2.122   6.585
 2263TIP3    H2 6733   0.623   2.150   6.586
 2264TIP3   OH2 6734   4.046   3.896   4.120
 2264TIP3    H1 6735   4.001   3.879   4.203
 2264TIP3    H2 6736   3.980   3.938   4.065
 2265TIP3   OH2 6737   2.863   0.728   0.367
 2265TIP3    H1 6738   2.879   0.790   0.437
 2265TIP3    H2 6739   2.788   0.676   0.397
 2266TIP3   OH2 6740   4.229   5.641   5.752
 2266TIP3    H1 6741   4.285   5.638   5.674
 2266TIP3    H2 6742   4.161   5.576   5.734
 2267TIP3   OH2 6743   7.619   5.984   0.008
 2267TIP3    H1 6744   7.682   6.037   0.058
 2267TIP3    H2 6745   7.559   6.047  -0.030
 2268TIP3   OH2 6746   4.243   0.611   4.854
 2268TIP3    H1 6747   4.258   0.520   4.830
 2268TIP3    H2 6748   4.182   0.606   4.928
 2269TIP3   OH2 6749   1.720   1.512   1.807
 2269TIP3    H1 6750   1.772   1.485   1.883
 2269TIP3    H2 6751   1.630   1.489   1.830
 2270TIP3   OH2 6752   1.635   7.508   5.650
 2270TIP3    H1 6753   1.656   7.450   5.723
 2270TIP3    H2 6754   1.594   7.584   5.691
 2271TIP3   OH2 6755   1.540   0.925   3.907
 2271TIP3    H1 6756   1.541   0.842   3.956
 2271TIP3    H2 6757   1.606   0.914   3.839
 2272TIP3   OH2 6758   5.156   0.174   2.776
 2272TIP3    H1 6759   5.182   0.083   2.766
 2272TIP3    H2 6760   5.230   0.225   2.743
 2273TIP3   OH2 6761   3.931   6.326   4.452
 2273TIP3    H1 6762   3.882   6.343   4.532
 2273TIP3    H2 6763   4.000   6.392   4.450
 2274TIP3   OH2 6764   7.344   6.278   1.499
 2274TIP3    H1 6765   7.391   6.313   1.575
 2274TIP3    H2 6766   7.316   6.191   1.527
 2275TIP3   OH2 6767   4.066   0.735   1.986
 2275TIP3    H1 6768   4.086   0.659   2.039
 2275TIP3    H2 6769   4.135   0.737   1.919
 2276TIP3   OH2 6770   3.223   6.933   2.267
 2276TIP3    H1 6771   3.269   6.956   2.186
 2276TIP3    H2 6772   3.132   6.954   2.249
 2277TIP3   OH2 6773   5.372   5.432   6.780
 2277TIP3    H1 6774   5.389   5.382   6.700
 2277TIP3    H2 6775   5.424   5.512   6.770
 2278TIP3   OH2 6776   3.098   5.554   0.482
 2278TIP3    H1 6777   3.008   5.583   0.492
 2278TIP3    H2 6778   3.115   5.561   0.388
 2279TIP3   OH2 6779   0.019   1.118   2.213
 2279TIP3    H1 6780   0.059   1.194   2.254
 2279TIP3    H2 6781  -0.074   1.137   2.213
 2280TIP3   OH2 6782   3.953   4.316   6.092
 2280TIP3    H1 6783   4.027   4.307   6.031
 2280TIP3    H2 6784   3.987   4.284   6.175
 2281TIP3   OH2 6785   1.190   6.417   5.052
 2281TIP3    H1 6786   1.098   6.442   5.052
 2281TIP3    H2 6787   1.207   6.390   4.962
 2282TIP3   OH2 6788   4.671   0.549   0.531
 2282TIP3    H1 6789   4.594   0.592   0.492
 2282TIP3    H2 6790   4.646   0.457   0.538
 2283TIP3   OH2 6791   4.245   5.165  -0.010
 2283TIP3    H1 6792   4.237   5.171   0.085
 2283TIP3    H2 6793   4.174   5.220  -0.043
 2284TIP3   OH2 6794   3.585   1.612   2.735
 2284TIP3    H1 6795   3.543   1.693   2.705
 2284TIP3    H2 6796   3.651   1.641   2.798
 2285TIP3   OH2 6797   6.331  -0.004   5.232
 2285TIP3    H1 6798   6.307   0.021   5.142
 2285TIP3    H2 6799   6.402   0.055   5.254
 2286TIP3   OH2 6800   6.192   5.847   0.957
 2286TIP3    H1 6801   6.124   5.867   0.893
 2286TIP3    H2 6802   6.244   5.777   0.917
 2287TIP3   OH2 6803   0.493   1.510   2.120
 2287TIP3    H1 6804   0.496   1.530   2.027
 2287TIP3    H2 6805   0.560   1.567   2.159
 2288TIP3   OH2 6806   6.358   3.880   4.053
 2288TIP3    H1 6807   6.293   3.842   3.994
 2288TIP3    H2 6808   6.442   3.862   4.010
 2289TIP3   OH2 6809   7.632   4.080   5.089
 2289TIP3    H1 6810   7.684   4.049   5.015
 2289TIP3    H2 6811   7.545   4.042   5.074
 2290TIP3   OH2 6812   7.530   5.353   1.809
 2290TIP3    H1 6813   7.467   5.424   1.799
 2290TIP3    H2 6814   7.614   5.397   1.823
 2291TIP3   OH2 6815   0.167   0.745   2.674
 2291TIP3    H1 6816   0.108   0.698   2.615
 2291TIP3    H2 6817   0.123   0.829   2.689
 2292TIP3   OH2 6818   1.711   2.264   3.892
 2292TIP3    H1 6819   1.639   2.271   3.828
 2292TIP3    H2 6820   1.667   2.251   3.976
 2293TIP3   OH2 6821   6.988   3.435   1.515
 2293TIP3    H1 6822   7.022   3.351   1.547
 2293TIP3    H2 6823   7.059   3.497   1.528
 2294TIP3   OH2 6824   7.765   4.539   2.199
 2294TIP3    H1 6825   7.839   4.554   2.257
 2294TIP3    H2 6826   7.769   4.446   2.178
 2295TIP3   OH2 6827   4.974   3.855   5.092
 2295TIP3    H1 6828   4.979   3.834   4.999
 2295TIP3    H2 6829   4.880   3.862   5.111
 2296TIP3   OH2 6830   1.023   2.157   3.007
 2296TIP3    H1 6831   1.020   2.098   3.083
 2296TIP3    H2 6832   0.936   2.198   3.005
 2297TIP3   OH2 6833   8.263   7.159   6.380
 2297TIP3    H1 6834   8.199   7.137   6.312
 2297TIP3    H2 6835   8.267   7.082   6.436
 2298TIP3   OH2 6836   8.128   3.988   6.686
 2298TIP3    H1 6837   8.045   4.032   6.706
 2298TIP3    H2 6838   8.104   3.897   6.668
 2299TIP3   OH2 6839   7.534   5.899   2.501
 2299TIP3    H1 6840   7.522   5.828   2.564
 2299TIP3    H2 6841   7.617   5.940   2.526
 2300TIP3   OH2 6842   1.312   4.574   4.281
 2300TIP3    H1 6843   1.290   4.489   4.242
 2300TIP3    H2 6844   1.394   4.599   4.238
 2301TIP3   OH2 6845   2.329   0.164   2.315
 2301TIP3    H1 6846   2.360   0.253   2.300
 2301TIP3    H2 6847   2.362   0.114   2.240
 2302TIP3   OH2 6848   6.701   5.827   6.086
 2302TIP3    H1 6849   6.659   5.898   6.037
 2302TIP3    H2 6850   6.729   5.765   6.019
 2303TIP3   OH2 6851   2.732   4.612   2.559
 2303TIP3    H1 6852   2.828   4.606   2.559
 2303TIP3    H2 6853   2.708   4.621   2.467
 2304TIP3   OH2 6854   6.906   0.991   3.700
 2304TIP3    H1 6855   6.932   0.899   3.700
 2304TIP3    H2 6856   6.834   0.996   3.763
 2305TIP3   OH2 6857   6.225   5.196   3.777
 2305TIP3    H1 6858   6.158   5.263   3.785
 2305TIP3    H2 6859   6.290   5.218   3.844
 2306TIP3   OH2 6860   0.902   0.144   2.282
 2306TIP3    H1 6861   0.827   0.176   2.331
 2306TIP3    H2 6862   0.912   0.205   2.210
 2307TIP3   OH2 6863   2.775   3.425   6.321
 2307TIP3    H1 6864   2.810   3.422   6.411
 2307TIP3    H2 6865   2.691   3.381   6.327
 2308TIP3   OH2 6866   2.845   3.466   6.576
 2308TIP3    H1 6867   2.870   3.556   6.554
 2308TIP3    H2 6868   2.865   3.458   6.669
 2309TIP3   OH2 6869   6.784   7.213   3.840
 2309TIP3    H1 6870   6.694   7.245   3.847
 2309TIP3    H2 6871   6.838   7.290   3.857
 2310TIP3   OH2 6872   2.346   5.142   4.965
 2310TIP3    H1 6873   2.340   5.064   4.911
 2310TIP3    H2 6874   2.395   5.115   5.042
 2311TIP3   OH2 6875   3.491   4.232   3.540
 2311TIP3    H1 6876   3.406   4.190   3.557
 2311TIP3    H2 6877   3.468   4.313   3.493
 2312TIP3   OH2 6878   6.733   7.245   1.803
 2312TIP3    H1 6879   6.821   7.214   1.781
 2312TIP3    H2 6880   6.680   7.224   1.726
 2313TIP3   OH2 6881   2.559   2.914   3.661
 2313TIP3    H1 6882   2.502   2.980   3.701
 2313TIP3    H2 6883   2.646   2.933   3.696
 2314TIP3   OH2 6884   0.637   4.784   4.009
 2314TIP3    H1 6885   0.608   4.873   4.030
 2314TIP3    H2 6886   0.724   4.777   4.048
 2315TIP3   OH2 6887   3.478   6.709   6.079
 2315TIP3    H1 6888   3.555   6.659   6.050
 2315TIP3    H2 6889   3.508   6.800   6.080
 2316TIP3   OH2 6890   6.086   4.636   2.257
 2316TIP3    H1 6891   6.092   4.616   2.163
 2316TIP3    H2 6892   6.158   4.697   2.273
 2317TIP3   OH2 6893   4.017   2.872   6.068
 2317TIP3    H1 6894   3.924   2.857   6.050
 2317TIP3    H2 6895   4.028   2.850   6.160
 2318TIP3   OH2 6896   3.427   4.610   3.065
 2318TIP3    H1 6897   3.473   4.557   3.130
 2318TIP3    H2 6898   3.447   4.568   2.981
 2319TIP3   OH2 6899   4.297   6.880   0.488
 2319TIP3    H1 6900   4.210   6.916   0.469
 2319TIP3    H2 6901   4.332   6.855   0.403
 2320TIP3   OH2 6902   7.379   3.622   3.860
 2320TIP3    H1 6903   7.358   3.646   3.951
 2320TIP3    H2 6904   7.440   3.690   3.831
 2321TIP3   OH2 6905   5.994   1.134   5.615
 2321TIP3    H1 6906   6.085   1.115   5.638
 2321TIP3    H2 6907   5.946   1.056   5.642
 2322TIP3   OH2 6908   4.754   6.118   4.235
 2322TIP3    H1 6909   4.802   6.135   4.316
 2322TIP3    H2 6910   4.799   6.043   4.195
 2323TIP3   OH2 6911   5.146   2.600   5.145
 2323TIP3    H1 6912   5.230   2.596   5.191
 2323TIP3    H2 6913   5.117   2.690   5.156
 2324TIP3   OH2 6914   3.891   6.971   2.164
 2324TIP3    H1 6915   3.930   6.935   2.084
 2324TIP3    H2 6916   3.810   6.921   2.174
 2325TIP3   OH2 6917   2.760   1.264   4.966
 2325TIP3    H1 6918   2.704   1.218   5.029
 2325TIP3    H2 6919   2.799   1.335   5.017
 2326TIP3   OH2 6920   7.383   6.908   1.806
 2326TIP3    H1 6921   7.460   6.883   1.857
 2326TIP3    H2 6922   7.308   6.881   1.860
 2327TIP3   OH2 6923   6.278   2.526   2.145
 2327TIP3    H1 6924   6.344   2.501   2.081
 2327TIP3    H2 6925   6.286   2.621   2.152
 2328TIP3   OH2 6926   0.750   1.225   2.344
 2328TIP3    H1 6927   0.775   1.136   2.368
 2328TIP3    H2 6928   0.742   1.223   2.248
 2329TIP3   OH2 6929   7.710   3.078   6.672
 2329TIP3    H1 6930   7.694   2.989   6.640
 2329TIP3    H2 6931   7.629   3.103   6.716
 2330TIP3   OH2 6932   8.271   2.974   0.263
 2330TIP3    H1 6933   8.233   3.062   0.262
 2330TIP3    H2 6934   8.342   2.978   0.199
 2331TIP3   OH2 6935   6.300   3.438   5.608
 2331TIP3    H1 6936   6.228   3.375   5.605
 2331TIP3    H2 6937   6.354   3.410   5.681
 2332TIP3   OH2 6938   1.276   5.582   2.479
 2332TIP3    H1 6939   1.303   5.514   2.417
 2332TIP3    H2 6940   1.358   5.610   2.520
 2333TIP3   OH2 6941   0.800   2.247   3.196
 2333TIP3    H1 6942   0.730   2.181   3.199
 2333TIP3    H2 6943   0.868   2.212   3.253
 2334TIP3   OH2 6944   6.515   3.024   5.736
 2334TIP3    H1 6945   6.475   3.103   5.774
 2334TIP3    H2 6946   6.578   3.058   5.672
 2335TIP3   OH2 6947   3.660   4.062   3.081
 2335TIP3    H1 6948   3.570   4.092   3.069
 2335TIP3    H2 6949   3.688   4.100   3.164
 2336TIP3   OH2 6950   0.063   4.232   3.246
 2336TIP3    H1 6951   0.001   4.164   3.222
 2336TIP3    H2 6952   0.142   4.185   3.271
 2337TIP3   OH2 6953   1.024   7.116   6.444
 2337TIP3    H1 6954   0.941   7.163   6.458
 2337TIP3    H2 6955   1.014   7.076   6.358
 2338TIP3   OH2 6956   2.319   5.571   2.594
 2338TIP3    H1 6957   2.246   5.630   2.611
 2338TIP3    H2 6958   2.397   5.622   2.617
 2339TIP3   OH2 6959   4.058   6.108   4.994
 2339TIP3    H1 6960   4.152   6.101   4.976
 2339TIP3    H2 6961   4.030   6.185   4.945
 2340TIP3   OH2 6962   7.517   5.205   2.959
 2340TIP3    H1 6963   7.532   5.206   3.054
 2340TIP3    H2 6964   7.508   5.297   2.935
 2341TIP3   OH2 6965   6.701   1.724   3.225
 2341TIP3    H1 6966   6.669   1.797   3.278
 2341TIP3    H2 6967   6.773   1.761   3.174
 2342TIP3   OH2 6968   2.054   4.554   4.383
 2342TIP3    H1 6969   1.965   4.553   4.346
 2342TIP3    H2 6970   2.111   4.536   4.308
 2343TIP3   OH2 6971   1.116   1.826   2.306
 2343TIP3    H1 6972   1.187   1.829   2.242
 2343TIP3    H2 6973   1.117   1.912   2.348
 2344TIP3   OH2 6974   2.628   1.057   2.502
 2344TIP3    H1 6975   2.617   1.117   2.576
 2344TIP3    H2 6976   2.643   1.115   2.427
 2345TIP3   OH2 6977   3.056   2.248   1.860
 2345TIP3    H1 6978   3.046   2.239   1.954
 2345TIP3    H2 6979   2.979   2.297   1.832
 2346TIP3   OH2 6980   0.425   4.886   4.655
 2346TIP3    H1 6981   0.515   4.918   4.653
 2346TIP3    H2 6982   0.415   4.836   4.574
 2347TIP3   OH2 6983   1.796   6.833   5.020
 2347TIP3    H1 6984   1.757   6.838   4.932
 2347TIP3    H2 6985   1.836   6.919   5.033
 2348TIP3   OH2 6986   3.479   5.633   1.622
 2348TIP3    H1 6987   3.476   5.596   1.533
 2348TIP3    H2 6988   3.420   5.577   1.672
 2349TIP3   OH2 6989   0.683   5.260   5.927
 2349TIP3    H1 6990   0.755   5.312   5.963
 2349TIP3    H2 6991   0.717   5.170   5.928
 2350TIP3   OH2 6992   6.962   7.177   3.492
 2350TIP3    H1 6993   6.868   7.196   3.498
 2350TIP3    H2 6994   7.004   7.262   3.507
 2351TIP3   OH2 6995   1.787   6.307   2.593
 2351TIP3    H1 6996   1.849   6.357   2.646
 2351TIP3    H2 6997   1.715   6.287   2.652
 2352TIP3   OH2 6998   3.332   7.261   5.854
 2352TIP3    H1 6999   3.270   7.227   5.918
 2352TIP3    H2 7000   3.282   7.324   5.802
 2353TIP3   OH2 7001   5.419   7.654   1.867
 2353TIP3    H1 7002   5.366   7.598   1.810
 2353TIP3    H2 7003   5.473   7.592   1.917
 2354TIP3   OH2 7004   0.243   6.141   5.454
 2354TIP3    H1 7005   0.236   6.171   5.363
 2354TIP3    H2 7006   0.331   6.167   5.482
 2355TIP3   OH2 7007   8.048   0.283   1.545
 2355TIP3    H1 7008   7.965   0.309   1.505
 2355TIP3    H2 7009   8.051   0.332   1.627
 2356TIP3   OH2 7010   7.846   2.960   1.978
 2356TIP3    H1 7011   7.894   2.939   1.898
 2356TIP3    H2 7012   7.900   3.026   2.021
 2357TIP3   OH2 7013   5.051   4.790   4.519
 2357TIP3    H1 7014   4.990   4.716   4.524
 2357TIP3    H2 7015   5.029   4.833   4.437
 2358TIP3   OH2 7016   5.760   4.573   3.592
 2358TIP3    H1 7017   5.837   4.535   3.549
 2358TIP3    H2 7018   5.685   4.538   3.543
 2359TIP3   OH2 7019   5.675   3.289   2.866
 2359TIP3    H1 7020   5.679   3.232   2.790
 2359TIP3    H2 7021   5.593   3.338   2.857
 2360TIP3   OH2 7022   0.289   4.776   6.583
 2360TIP3    H1 7023   0.287   4.828   6.502
 2360TIP3    H2 7024   0.382   4.760   6.599
 2361TIP3   OH2 7025   3.913   0.817   2.803
 2361TIP3    H1 7026   3.914   0.758   2.728
 2361TIP3    H2 7027   4.005   0.837   2.819
 2362TIP3   OH2 7028   2.492   0.747   5.650
 2362TIP3    H1 7029   2.428   0.799   5.603
 2362TIP3    H2 7030   2.569   0.804   5.657
 2363TIP3   OH2 7031   1.340   0.917   2.788
 2363TIP3    H1 7032   1.324   0.876   2.873
 2363TIP3    H2 7033   1.327   1.011   2.804
 2364TIP3   OH2 7034   3.043   6.044   5.960
 2364TIP3    H1 7035   2.964   6.096   5.946
 2364TIP3    H2 7036   3.087   6.086   6.034
 2365TIP3   OH2 7037   7.542   4.126   0.723
 2365TIP3    H1 7038   7.571   4.115   0.813
 2365TIP3    H2 7039   7.525   4.037   0.692
 2366TIP3   OH2 7040   4.275   4.012   1.124
 2366TIP3    H1 7041   4.368   4.016   1.149
 2366TIP3    H2 7042   4.235   4.087   1.170
 2367TIP3   OH2 7043   4.030   7.506   3.334
 2367TIP3    H1 7044   3.992   7.593   3.348
 2367TIP3    H2 7045   4.043   7.471   3.423
 2368TIP3   OH2 7046   6.436   2.368   3.089
 2368TIP3    H1 7047   6.527   2.337   3.092
 2368TIP3    H2 7048   6.415   2.391   3.179
 2369TIP3   OH2 7049   0.459   5.462   3.468
 2369TIP3    H1 7050   0.383   5.471   3.411
 2369TIP3    H2 7051   0.460   5.544   3.518
 2370TIP3   OH2 7052   1.811   5.673   3.158
 2370TIP3    H1 7053   1.867   5.600   3.182
 2370TIP3    H2 7054   1.871   5.745   3.139
 2371TIP3   OH2 7055   1.713   5.200   0.684
 2371TIP3    H1 7056   1.758   5.280   0.709
 2371TIP3    H2 7057   1.708   5.149   0.765
 2372TIP3   OH2 7058   0.229   0.911   2.983
 2372TIP3    H1 7059   0.139   0.878   2.978
 2372TIP3    H2 7060   0.259   0.914   2.892
 2373TIP3   OH2 7061   8.032   5.127   4.667
 2373TIP3    H1 7062   8.007   5.201   4.611
 2373TIP3    H2 7063   7.995   5.149   4.752
 2374TIP3   OH2 7064   6.908   5.134   5.345
 2374TIP3    H1 7065   6.835   5.173   5.297
 2374TIP3    H2 7066   6.887   5.150   5.437
 2375TIP3   OH2 7067   2.777   3.883   4.574
 2375TIP3    H1 7068   2.870   3.903   4.560
 2375TIP3    H2 7069   2.738   3.968   4.594
 2376TIP3   OH2 7070   5.299   2.546   6.744
 2376TIP3    H1 7071   5.242   2.472   6.726
 2376TIP3    H2 7072   5.358   2.551   6.669
 2377TIP3   OH2 7073   2.108   3.144   1.230
 2377TIP3    H1 7074   2.017   3.159   1.202
 2377TIP3    H2 7075   2.134   3.064   1.184
 2378TIP3   OH2 7076   0.487   0.463   5.645
 2378TIP3    H1 7077   0.431   0.455   5.723
 2378TIP3    H2 7078   0.436   0.424   5.575
 2379TIP3   OH2 7079   2.381   2.417   0.706
 2379TIP3    H1 7080   2.383   2.323   0.724
 2379TIP3    H2 7081   2.411   2.458   0.787
 2380TIP3   OH2 7082   1.568   3.461   6.004
 2380TIP3    H1 7083   1.611   3.473   6.088
 2380TIP3    H2 7084   1.480   3.498   6.016
 2381TIP3   OH2 7085   5.016   4.094   3.775
 2381TIP3    H1 7086   5.050   4.077   3.687
 2381TIP3    H2 7087   5.011   4.189   3.781
 2382TIP3   OH2 7088   4.150   3.475   0.817
 2382TIP3    H1 7089   4.087   3.540   0.787
 2382TIP3    H2 7090   4.112   3.390   0.792
 2383TIP3   OH2 7091   4.743   0.479   5.351
 2383TIP3    H1 7092   4.748   0.568   5.317
 2383TIP3    H2 7093   4.660   0.476   5.399
 2384TIP3   OH2 7094   7.260   2.341   5.687
 2384TIP3    H1 7095   7.202   2.351   5.611
 2384TIP3    H2 7096   7.224   2.265   5.734
 2385TIP3   OH2 7097   2.373   6.485   1.852
 2385TIP3    H1 7098   2.422   6.566   1.846
 2385TIP3    H2 7099   2.285   6.512   1.879
 2386TIP3   OH2 7100   1.850   0.702   1.921
 2386TIP3    H1 7101   1.884   0.747   1.843
 2386TIP3    H2 7102   1.905   0.733   1.992
 2387TIP3   OH2 7103   7.327   5.551   0.763
 2387TIP3    H1 7104   7.291   5.463   0.753
 2387TIP3    H2 7105   7.421   5.540   0.758
 2388TIP3   OH2 7106   5.452   3.176   0.679
 2388TIP3    H1 7107   5.494   3.108   0.626
 2388TIP3    H2 7108   5.521   3.207   0.738
 2389TIP3   OH2 7109   4.800   2.112   6.098
 2389TIP3    H1 7110   4.722   2.111   6.154
 2389TIP3    H2 7111   4.873   2.097   6.159
 2390TIP3   OH2 7112   7.252   3.720   3.523
 2390TIP3    H1 7113   7.259   3.787   3.455
 2390TIP3    H2 7114   7.174   3.746   3.573
 2391TIP3   OH2 7115   8.069   5.182   4.257
 2391TIP3    H1 7116   8.072   5.276   4.271
 2391TIP3    H2 7117   7.985   5.155   4.296
 2392TIP3   OH2 7118   4.684   5.949   6.096
 2392TIP3    H1 7119   4.718   5.860   6.096
 2392TIP3    H2 7120   4.676   5.972   6.003
 2393TIP3   OH2 7121   6.956   4.477   5.029
 2393TIP3    H1 7122   6.927   4.415   5.096
 2393TIP3    H2 7123   6.996   4.548   5.079
 2394TIP3   OH2 7124   6.350   4.752   0.488
 2394TIP3    H1 7125   6.267   4.715   0.457
 2394TIP3    H2 7126   6.396   4.779   0.409
 2395TIP3   OH2 7127   1.231   3.851   4.477
 2395TIP3    H1 7128   1.166   3.831   4.544
 2395TIP3    H2 7129   1.305   3.795   4.499
 2396TIP3   OH2 7130   7.074   6.187   1.672
 2396TIP3    H1 7131   7.103   6.188   1.764
 2396TIP3    H2 7132   7.134   6.127   1.629
 2397TIP3   OH2 7133   1.680   5.896   3.411
 2397TIP3    H1 7134   1.696   5.806   3.441
 2397TIP3    H2 7135   1.674   5.888   3.315
 2398TIP3   OH2 7136   8.255   6.215   2.209
 2398TIP3    H1 7137   8.198   6.274   2.258
 2398TIP3    H2 7138   8.322   6.189   2.272
 2399TIP3   OH2 7139   7.700   3.634   3.904
 2399TIP3    H1 7140   7.657   3.552   3.879
 2399TIP3    H2 7141   7.750   3.659   3.826
 2400TIP3   OH2 7142   6.001   3.499   0.601
 2400TIP3    H1 7143   5.926   3.499   0.660
 2400TIP3    H2 7144   5.962   3.504   0.514
 2401TIP3   OH2 7145   7.863   6.062   0.739
 2401TIP3    H1 7146   7.891   6.086   0.650
 2401TIP3    H2 7147   7.899   5.975   0.753
 2402TIP3   OH2 7148   3.192   5.829   0.586
 2402TIP3    H1 7149   3.152   5.901   0.634
 2402TIP3    H2 7150   3.203   5.863   0.497
 2403TIP3   OH2 7151   7.586   0.478   4.440
 2403TIP3    H1 7152   7.582   0.569   4.468
 2403TIP3    H2 7153   7.530   0.431   4.503
 2404TIP3   OH2 7154   7.072   4.995   6.050
 2404TIP3    H1 7155   7.146   5.039   6.009
 2404TIP3    H2 7156   7.104   4.907   6.069
 2405TIP3   OH2 7157   0.039   2.646   0.666
 2405TIP3    H1 7158   0.065   2.735   0.640
 2405TIP3    H2 7159   0.117   2.608   0.706
 2406TIP3   OH2 7160   1.110   3.674   1.599
 2406TIP3    H1 7161   1.097   3.768   1.614
 2406TIP3    H2 7162   1.198   3.668   1.564
 2407TIP3   OH2 7163   7.036   4.236   6.680
 2407TIP3    H1 7164   7.003   4.146   6.680
 2407TIP3    H2 7165   7.131   4.228   6.688
 2408TIP3   OH2 7166   5.445   5.038   2.112
 2408TIP3    H1 7167   5.446   5.087   2.030
 2408TIP3    H2 7168   5.518   5.075   2.162
 2409TIP3   OH2 7169   7.465   6.963   5.637
 2409TIP3    H1 7170   7.436   6.877   5.607
 2409TIP3    H2 7171   7.538   6.985   5.579
 2410TIP3   OH2 7172   0.582   5.591   2.581
 2410TIP3    H1 7173   0.561   5.537   2.657
 2410TIP3    H2 7174   0.648   5.653   2.613
 2411TIP3   OH2 7175   6.473   0.687   3.067
 2411TIP3    H1 7176   6.490   0.605   3.021
 2411TIP3    H2 7177   6.558   0.732   3.068
 2412TIP3   OH2 7178   6.525   3.677   5.592
 2412TIP3    H1 7179   6.613   3.660   5.559
 2412TIP3    H2 7180   6.510   3.607   5.656
 2413TIP3   OH2 7181   6.929   4.028   0.062
 2413TIP3    H1 7182   6.950   4.027   0.156
 2413TIP3    H2 7183   6.991   4.089   0.024
 2414TIP3   OH2 7184   3.811   5.889   3.827
 2414TIP3    H1 7185   3.755   5.886   3.905
 2414TIP3    H2 7186   3.764   5.945   3.765
 2415TIP3   OH2 7187   8.158   4.924   1.910
 2415TIP3    H1 7188   8.198   4.859   1.852
 2415TIP3    H2 7189   8.096   4.873   1.963
 2416TIP3   OH2 7190   2.940   4.181   3.389
 2416TIP3    H1 7191   2.954   4.199   3.296
 2416TIP3    H2 7192   2.989   4.250   3.434
 2417TIP3   OH2 7193   2.982   5.181   4.532
 2417TIP3    H1 7194   3.072   5.182   4.566
 2417TIP3    H2 7195   2.990   5.215   4.443
 2418TIP3   OH2 7196   2.491   1.091   0.733
 2418TIP3    H1 7197   2.513   1.115   0.643
 2418TIP3    H2 7198   2.560   1.031   0.760
 2419TIP3   OH2 7199   6.810   0.443   3.456
 2419TIP3    H1 7200   6.791   0.506   3.385
 2419TIP3    H2 7201   6.886   0.395   3.425
 2420TIP3   OH2 7202   7.415   6.415   3.153
 2420TIP3    H1 7203   7.509   6.425   3.171
 2420TIP3    H2 7204   7.373   6.483   3.205
 2421TIP3   OH2 7205   4.503   4.816   2.611
 2421TIP3    H1 7206   4.561   4.845   2.541
 2421TIP3    H2 7207   4.415   4.828   2.576
 2422TIP3   OH2 7208   4.570   6.636   0.538
 2422TIP3    H1 7209   4.662   6.657   0.522
 2422TIP3    H2 7210   4.553   6.669   0.627
 2423TIP3   OH2 7211   5.249   4.023   4.396
 2423TIP3    H1 7212   5.293   4.036   4.479
 2423TIP3    H2 7213   5.307   3.963   4.348
 2424TIP3   OH2 7214   1.962   3.166   2.298
 2424TIP3    H1 7215   1.944   3.205   2.212
 2424TIP3    H2 7216   1.953   3.239   2.359
 2425TIP3   OH2 7217   7.990   0.733   0.322
 2425TIP3    H1 7218   7.923   0.758   0.385
 2425TIP3    H2 7219   8.001   0.810   0.266
 2426TIP3   OH2 7220   0.170   6.198   6.295
 2426TIP3    H1 7221   0.084   6.240   6.301
 2426TIP3    H2 7222   0.165   6.124   6.357
 2427TIP3   OH2 7223   5.765   0.379   1.916
 2427TIP3    H1 7224   5.753   0.342   2.004
 2427TIP3    H2 7225   5.816   0.313   1.869
 2428TIP3   OH2 7226   4.021   5.539   1.593
 2428TIP3    H1 7227   4.027   5.488   1.674
 2428TIP3    H2 7228   3.927   5.557   1.583
 2429TIP3   OH2 7229   6.981   1.549   0.404
 2429TIP3    H1 7230   6.957   1.635   0.439
 2429TIP3    H2 7231   6.962   1.556   0.310
 2430TIP3   OH2 7232   7.337   2.082   4.019
 2430TIP3    H1 7233   7.278   2.071   4.094
 2430TIP3    H2 7234   7.415   2.032   4.042
 2431TIP3   OH2 7235   6.456   4.739   3.785
 2431TIP3    H1 7236   6.436   4.830   3.806
 2431TIP3    H2 7237   6.550   4.730   3.803
 2432TIP3   OH2 7238   6.126   5.109   4.690
 2432TIP3    H1 7239   6.209   5.065   4.707
 2432TIP3    H2 7240   6.099   5.077   4.604
 2433TIP3   OH2 7241   1.540   6.026   3.600
 2433TIP3    H1 7242   1.567   5.989   3.684
 2433TIP3    H2 7243   1.600   5.986   3.536
 2434TIP3   OH2 7244   1.959   2.360   2.428
 2434TIP3    H1 7245   1.917   2.367   2.343
 2434TIP3    H2 7246   2.027   2.294   2.417
 2435TIP3   OH2 7247   8.156   7.003   0.183
 2435TIP3    H1 7248   8.114   7.031   0.101
 2435TIP3    H2 7249   8.084   6.983   0.242
 2436TIP3   OH2 7250   2.126   7.632   3.197
 2436TIP3    H1 7251   2.077   7.550   3.205
 2436TIP3    H2 7252   2.207   7.607   3.152
 2437TIP3   OH2 7253   7.151   6.698   1.408
 2437TIP3    H1 7254   7.223   6.669   1.352
 2437TIP3    H2 7255   7.150   6.634   1.479
 2438TIP3   OH2 7256   6.831   2.586   4.945
 2438TIP3    H1 7257   6.859   2.584   4.853
 2438TIP3    H2 7258   6.886   2.520   4.987
 2439TIP3   OH2 7259   7.449   5.020   6.168
 2439TIP3    H1 7260   7.426   5.078   6.241
 2439TIP3    H2 7261   7.537   4.990   6.189
 2440TIP3   OH2 7262   8.064   5.370   3.028
 2440TIP3    H1 7263   8.080   5.420   3.108
 2440TIP3    H2 7264   8.146   5.375   2.979
 2441TIP3   OH2 7265   4.439   4.632   3.427
 2441TIP3    H1 7266   4.449   4.558   3.367
 2441TIP3    H2 7267   4.349   4.624   3.458
 2442TIP3   OH2 7268   2.558   1.300   0.219
 2442TIP3    H1 7269   2.573   1.384   0.176
 2442TIP3    H2 7270   2.585   1.235   0.154
 2443TIP3   OH2 7271   6.785   3.876   2.728
 2443TIP3    H1 7272   6.759   3.854   2.638
 2443TIP3    H2 7273   6.711   3.925   2.763
 2444TIP3   OH2 7274   7.802   6.138   1.225
 2444TIP3    H1 7275   7.809   6.199   1.297
 2444TIP3    H2 7276   7.863   6.170   1.159
 2445TIP3   OH2 7277   1.809   2.671   4.902
 2445TIP3    H1 7278   1.721   2.636   4.916
 2445TIP3    H2 7279   1.865   2.593   4.897
 2446TIP3   OH2 7280   5.646   3.960   4.295
 2446TIP3    H1 7281   5.566   3.994   4.256
 2446TIP3    H2 7282   5.716   4.011   4.255
 2447TIP3   OH2 7283   5.947   5.952   2.754
 2447TIP3    H1 7284   5.917   6.041   2.734
 2447TIP3    H2 7285   6.034   5.947   2.714
 2448TIP3   OH2 7286   5.614   6.227   5.002
 2448TIP3    H1 7287   5.674   6.155   4.982
 2448TIP3    H2 7288   5.532   6.183   5.027
 2449TIP3   OH2 7289   1.553   0.840   4.386
 2449TIP3    H1 7290   1.550   0.919   4.332
 2449TIP3    H2 7291   1.593   0.773   4.329
 2450TIP3   OH2 7292   3.341   3.955   4.664
 2450TIP3    H1 7293   3.250   3.969   4.638
 2450TIP3    H2 7294   3.349   3.860   4.673
 2451TIP3   OH2 7295   6.579   4.260   2.110
 2451TIP3    H1 7296   6.544   4.253   2.198
 2451TIP3    H2 7297   6.672   4.238   2.119
 2452TIP3   OH2 7298   4.637   0.667   1.492
 2452TIP3    H1 7299   4.624   0.654   1.398
 2452TIP3    H2 7300   4.705   0.734   1.498
 2453TIP3   OH2 7301   5.746   2.222   0.334
 2453TIP3    H1 7302   5.765   2.312   0.360
 2453TIP3    H2 7303   5.702   2.230   0.250
 2454TIP3   OH2 7304   1.820   3.015   5.903
 2454TIP3    H1 7305   1.910   3.016   5.938
 2454TIP3    H2 7306   1.765   3.006   5.981
 2455TIP3   OH2 7307   7.482   7.527   3.411
 2455TIP3    H1 7308   7.434   7.466   3.355
 2455TIP3    H2 7309   7.418   7.594   3.434
 2456TIP3   OH2 7310   2.205   5.934   0.660
 2456TIP3    H1 7311   2.229   5.855   0.709
 2456TIP3    H2 7312   2.288   5.976   0.640
 2457TIP3   OH2 7313   5.361   6.459   5.769
 2457TIP3    H1 7314   5.373   6.553   5.784
 2457TIP3    H2 7315   5.285   6.453   5.712
 2458TIP3   OH2 7316   0.909   7.580   1.775
 2458TIP3    H1 7317   0.960   7.555   1.698
 2458TIP3    H2 7318   0.825   7.608   1.740
 2459TIP3   OH2 7319   7.816   4.942   4.600
 2459TIP3    H1 7320   7.788   4.939   4.508
 2459TIP3    H2 7321   7.903   4.981   4.597
 2460TIP3   OH2 7322   1.461   7.094   1.353
 2460TIP3    H1 7323   1.521   7.168   1.360
 2460TIP3    H2 7324   1.405   7.102   1.430
 2461TIP3   OH2 7325   2.623   1.714   0.896
 2461TIP3    H1 7326   2.555   1.680   0.837
 2461TIP3    H2 7327   2.695   1.739   0.839
 2462TIP3   OH2 7328   5.528   5.589   1.387
 2462TIP3    H1 7329   5.579   5.507   1.387
 2462TIP3    H2 7330   5.591   5.655   1.417
 2463TIP3   OH2 7331   6.283   6.180   4.972
 2463TIP3    H1 7332   6.379   6.181   4.973
 2463TIP3    H2 7333   6.260   6.088   4.961
 2464TIP3   OH2 7334   6.052   7.267   1.536
 2464TIP3    H1 7335   6.081   7.358   1.530
 2464TIP3    H2 7336   5.987   7.259   1.465
 2465TIP3   OH2 7337   1.794   0.824   5.092
 2465TIP3    H1 7338   1.837   0.870   5.165
 2465TIP3    H2 7339   1.720   0.881   5.070
 2466TIP3   OH2 7340   7.206   4.708   0.130
 2466TIP3    H1 7341   7.212   4.804   0.134
 2466TIP3    H2 7342   7.297   4.679   0.124
 2467TIP3   OH2 7343   2.557   1.304   5.776
 2467TIP3    H1 7344   2.570   1.394   5.807
 2467TIP3    H2 7345   2.625   1.254   5.822
 2468TIP3   OH2 7346   3.877   3.587   3.104
 2468TIP3    H1 7347   3.845   3.666   3.147
 2468TIP3    H2 7348   3.892   3.613   3.013
 2469TIP3   OH2 7349   0.516   2.404   3.415
 2469TIP3    H1 7350   0.446   2.344   3.445
 2469TIP3    H2 7351   0.595   2.372   3.459
 2470TIP3   OH2 7352   1.060   6.881   2.433
 2470TIP3    H1 7353   1.058   6.935   2.512
 2470TIP3    H2 7354   0.973   6.841   2.429
 2471TIP3   OH2 7355   3.157   3.763   0.922
 2471TIP3    H1 7356   3.243   3.805   0.914
 2471TIP3    H2 7357   3.098   3.835   0.946
 2472TIP3   OH2 7358   0.751   2.519   3.157
 2472TIP3    H1 7359   0.669   2.535   3.112
 2472TIP3    H2 7360   0.751   2.425   3.173
 2473TIP3   OH2 7361   0.120   1.068   5.087
 2473TIP3    H1 7362   0.152   1.014   5.160
 2473TIP3    H2 7363   0.166   1.035   5.011
 2474TIP3   OH2 7364   8.237   0.220   1.141
 2474TIP3    H1 7365   8.318   0.170   1.148
 2474TIP3    H2 7366   8.229   0.241   1.048
 2475TIP3   OH2 7367   2.158   5.368   0.718
 2475TIP3    H1 7368   2.082   5.423   0.703
 2475TIP3    H2 7369   2.226   5.404   0.661
 2476TIP3   OH2 7370   5.475   6.894   2.225
 2476TIP3    H1 7371   5.418   6.817   2.225
 2476TIP3    H2 7372   5.476   6.923   2.134
 2477TIP3   OH2 7373   7.751   0.744   5.594
 2477TIP3    H1 7374   7.734   0.758   5.501
 2477TIP3    H2 7375   7.803   0.820   5.620
 2478TIP3   OH2 7376   1.785   2.076   4.965
 2478TIP3    H1 7377   1.758   2.132   4.892
 2478TIP3    H2 7378   1.844   2.012   4.925
 2479TIP3   OH2 7379   0.010   3.012   2.289
 2479TIP3    H1 7380   0.074   2.985   2.354
 2479TIP3    H2 7381  -0.026   3.094   2.323
 2480TIP3   OH2 7382   2.073   1.011   5.526
 2480TIP3    H1 7383   2.061   1.102   5.554
 2480TIP3    H2 7384   2.157   0.986   5.564
 2481TIP3   OH2 7385   6.706   2.696   3.970
 2481TIP3    H1 7386   6.739   2.617   3.927
 2481TIP3    H2 7387   6.698   2.672   4.062
 2482TIP3   OH2 7388   4.575   4.622   3.773
 2482TIP3    H1 7389   4.482   4.598   3.771
 2482TIP3    H2 7390   4.583   4.692   3.709
 2483TIP3   OH2 7391   5.356   3.770   6.577
 2483TIP3    H1 7392   5.433   3.791   6.630
 2483TIP3    H2 7393   5.347   3.844   6.517
 2484TIP3   OH2 7394   6.383   7.252   4.484
 2484TIP3    H1 7395   6.468   7.296   4.480
 2484TIP3    H2 7396   6.399   7.166   4.445
 2485TIP3   OH2 7397   3.032   7.201   4.748
 2485TIP3    H1 7398   2.990   7.284   4.768
 2485TIP3    H2 7399   3.115   7.225   4.707
 2486TIP3   OH2 7400   7.861   6.117   3.119
 2486TIP3    H1 7401   7.861   6.028   3.154
 2486TIP3    H2 7402   7.929   6.162   3.168
 2487TIP3   OH2 7403   7.881   4.688   3.019
 2487TIP3    H1 7404   7.859   4.775   2.983
 2487TIP3    H2 7405   7.829   4.627   2.966
 2488TIP3   OH2 7406   2.556   0.084   5.002
 2488TIP3    H1 7407   2.592   0.022   4.939
 2488TIP3    H2 7408   2.531   0.031   5.078
 2489TIP3   OH2 7409   5.712   4.180   5.229
 2489TIP3    H1 7410   5.634   4.137   5.264
 2489TIP3    H2 7411   5.678   4.253   5.176
 2490TIP3   OH2 7412   6.534   3.053   1.667
 2490TIP3    H1 7413   6.550   3.131   1.720
 2490TIP3    H2 7414   6.602   3.056   1.599
 2491TIP3   OH2 7415   7.662   3.265   5.879
 2491TIP3    H1 7416   7.635   3.351   5.847
 2491TIP3    H2 7417   7.755   3.259   5.858
 2492TIP3   OH2 7418   4.056   5.368   6.467
 2492TIP3    H1 7419   4.014   5.390   6.384
 2492TIP3    H2 7420   4.145   5.404   6.460
 2493TIP3   OH2 7421   5.283   1.964   3.132
 2493TIP3    H1 7422   5.351   1.934   3.193
 2493TIP3    H2 7423   5.213   1.995   3.189
 2494TIP3   OH2 7424   2.879   3.116   6.312
 2494TIP3    H1 7425   2.931   3.177   6.365
 2494TIP3    H2 7426   2.794   3.114   6.355
 2495TIP3   OH2 7427   6.815   7.686   5.659
 2495TIP3    H1 7428   6.769   7.759   5.702
 2495TIP3    H2 7429   6.900   7.682   5.703
 2496TIP3   OH2 7430   3.316   1.053   4.740
 2496TIP3    H1 7431   3.404   1.078   4.714
 2496TIP3    H2 7432   3.285   1.126   4.794
 2497TIP3   OH2 7433   2.846   4.992   2.533
 2497TIP3    H1 7434   2.836   5.048   2.610
 2497TIP3    H2 7435   2.939   4.998   2.511
 2498TIP3   OH2 7436   2.997   0.829   2.801
 2498TIP3    H1 7437   2.978   0.736   2.793
 2498TIP3    H2 7438   3.090   0.833   2.823
 2499TIP3   OH2 7439   5.781   1.184   3.141
 2499TIP3    H1 7440   5.792   1.089   3.143
 2499TIP3    H2 7441   5.862   1.217   3.102
 2500TIP3   OH2 7442   5.177   5.923   3.729
 2500TIP3    H1 7443   5.107   5.907   3.666
 2500TIP3    H2 7444   5.242   5.855   3.710
 2501TIP3   OH2 7445   0.187   5.313   2.019
 2501TIP3    H1 7446   0.109   5.263   2.044
 2501TIP3    H2 7447   0.175   5.398   2.061
 2502TIP3   OH2 7448   6.578   3.100   2.487
 2502TIP3    H1 7449   6.484   3.113   2.500
 2502TIP3    H2 7450   6.611   3.186   2.461
 2503TIP3   OH2 7451   6.022   0.661   0.830
 2503TIP3    H1 7452   5.999   0.731   0.892
 2503TIP3    H2 7453   5.964   0.675   0.755
 2504TIP3   OH2 7454   3.169   6.940   1.888
 2504TIP3    H1 7455   3.209   6.884   1.821
 2504TIP3    H2 7456   3.238   7.002   1.911
 2505TIP3   OH2 7457   5.453   3.308   2.144
 2505TIP3    H1 7458   5.526   3.298   2.205
 2505TIP3    H2 7459   5.468   3.394   2.104
 2506TIP3   OH2 7460   2.204   0.476   6.324
 2506TIP3    H1 7461   2.170   0.537   6.259
 2506TIP3    H2 7462   2.176   0.512   6.408
 2507TIP3   OH2 7463   0.663   2.933   1.925
 2507TIP3    H1 7464   0.647   3.012   1.977
 2507TIP3    H2 7465   0.599   2.937   1.855
 2508TIP3   OH2 7466   7.968   0.496   0.228
 2508TIP3    H1 7467   7.968   0.586   0.260
 2508TIP3    H2 7468   7.876   0.477   0.209
 2509TIP3   OH2 7469   2.596   0.790   2.994
 2509TIP3    H1 7470   2.507   0.824   2.999
 2509TIP3    H2 7471   2.597   0.716   3.054
 2510TIP3   OH2 7472   7.181   6.170   4.906
 2510TIP3    H1 7473   7.213   6.247   4.860
 2510TIP3    H2 7474   7.097   6.197   4.943
 2511TIP3   OH2 7475   0.399   1.485   0.489
 2511TIP3    H1 7476   0.360   1.520   0.570
 2511TIP3    H2 7477   0.359   1.399   0.478
 2512TIP3   OH2 7478   5.760   6.075   1.425
 2512TIP3    H1 7479   5.710   6.109   1.500
 2512TIP3    H2 7480   5.765   6.148   1.364
 2513TIP3   OH2 7481   3.261   4.502   2.195
 2513TIP3    H1 7482   3.180   4.480   2.149
 2513TIP3    H2 7483   3.246   4.472   2.285
 2514TIP3   OH2 7484   6.438   6.312   3.232
 2514TIP3    H1 7485   6.502   6.253   3.273
 2514TIP3    H2 7486   6.490   6.367   3.174
 2515TIP3   OH2 7487   0.992   6.926   1.483
 2515TIP3    H1 7488   1.018   7.003   1.433
 2515TIP3    H2 7489   0.984   6.957   1.573
 2516TIP3   OH2 7490   4.850   2.524   1.401
 2516TIP3    H1 7491   4.800   2.602   1.376
 2516TIP3    H2 7492   4.927   2.558   1.446
 2517TIP3   OH2 7493   1.883   1.216   3.400
 2517TIP3    H1 7494   1.847   1.304   3.387
 2517TIP3    H2 7495   1.832   1.181   3.473
 2518TIP3   OH2 7496   0.912   3.155   0.364
 2518TIP3    H1 7497   0.902   3.115   0.277
 2518TIP3    H2 7498   0.832   3.131   0.411
 2519TIP3   OH2 7499   7.162   3.371   5.507
 2519TIP3    H1 7500   7.240   3.327   5.473
 2519TIP3    H2 7501   7.172   3.367   5.602
 2520TIP3   OH2 7502   4.630   1.096   4.622
 2520TIP3    H1 7503   4.719   1.061   4.626
 2520TIP3    H2 7504   4.641   1.188   4.598
 2521TIP3   OH2 7505   7.766   2.983   0.204
 2521TIP3    H1 7506   7.723   2.898   0.206
 2521TIP3    H2 7507   7.807   2.992   0.289
 2522TIP3   OH2 7508   2.357   7.398   1.579
 2522TIP3    H1 7509   2.349   7.493   1.567
 2522TIP3    H2 7510   2.410   7.369   1.505
 2523TIP3   OH2 7511   6.093   4.545   2.519
 2523TIP3    H1 7512   6.132   4.458   2.517
 2523TIP3    H2 7513   6.100   4.577   2.429
 2524TIP3   OH2 7514   0.845   0.382   6.462
 2524TIP3    H1 7515   0.846   0.477   6.467
 2524TIP3    H2 7516   0.804   0.362   6.378
 2525TIP3   OH2 7517   2.029   1.133   5.815
 2525TIP3    H1 7518   1.984   1.125   5.731
 2525TIP3    H2 7519   2.120   1.151   5.792
 2526TIP3   OH2 7520   7.655   6.463   1.223
 2526TIP3    H1 7521   7.735   6.446   1.174
 2526TIP3    H2 7522   7.610   6.379   1.225
 2527TIP3   OH2 7523   4.639   1.420   4.319
 2527TIP3    H1 7524   4.633   1.344   4.260
 2527TIP3    H2 7525   4.711   1.399   4.378
 2528TIP3   OH2 7526   6.968   3.285   0.752
 2528TIP3    H1 7527   6.963   3.233   0.832
 2528TIP3    H2 7528   7.054   3.329   0.758
 2529TIP3   OH2 7529   5.278   2.364   2.577
 2529TIP3    H1 7530   5.233   2.295   2.530
 2529TIP3    H2 7531   5.308   2.425   2.509
 2530TIP3   OH2 7532   7.354   0.713   4.813
 2530TIP3    H1 7533   7.297   0.775   4.769
 2530TIP3    H2 7534   7.440   0.727   4.773
 2531TIP3   OH2 7535   8.261   4.331   5.473
 2531TIP3    H1 7536   8.187   4.294   5.424
 2531TIP3    H2 7537   8.329   4.264   5.466
 2532TIP3   OH2 7538   8.123   7.179   3.865
 2532TIP3    H1 7539   8.157   7.089   3.860
 2532TIP3    H2 7540   8.104   7.202   3.774
 2533TIP3   OH2 7541   2.947   0.565   2.907
 2533TIP3    H1 7542   3.021   0.507   2.890
 2533TIP3    H2 7543   2.885   0.545   2.836
 2534TIP3   OH2 7544   7.312   3.553   1.906
 2534TIP3    H1 7545   7.232   3.516   1.868
 2534TIP3    H2 7546   7.308   3.646   1.883
 2535TIP3   OH2 7547   8.262   5.664   1.224
 2535TIP3    H1 7548   8.341   5.647   1.173
 2535TIP3    H2 7549   8.234   5.578   1.254
 2536TIP3   OH2 7550   7.959   2.007   1.213
 2536TIP3    H1 7551   7.891   2.020   1.279
 2536TIP3    H2 7552   7.917   1.954   1.145
 2537TIP3   OH2 7553   6.081   5.075   0.308
 2537TIP3    H1 7554   6.002   5.065   0.255
 2537TIP3    H2 7555   6.070   5.014   0.381
 2538TIP3   OH2 7556   5.715   5.793   1.418
 2538TIP3    H1 7557   5.675   5.879   1.406
 2538TIP3    H2 7558   5.773   5.804   1.493
 2539TIP3   OH2 7559   2.391   5.554   6.400
 2539TIP3    H1 7560   2.364   5.535   6.310
 2539TIP3    H2 7561   2.377   5.648   6.410
 2540TIP3   OH2 7562   3.008   2.462   4.733
 2540TIP3    H1 7563   3.027   2.554   4.711
 2540TIP3    H2 7564   3.080   2.436   4.790
 2541TIP3   OH2 7565   2.000   0.777   2.747
 2541TIP3    H1 7566   1.911   0.753   2.722
 2541TIP3    H2 7567   1.989   0.836   2.822
 2542TIP3   OH2 7568   6.471   0.277   1.901
 2542TIP3    H1 7569   6.448   0.249   1.812
 2542TIP3    H2 7570   6.438   0.206   1.957
 2543TIP3   OH2 7571   2.049   6.899   2.439
 2543TIP3    H1 7572   2.023   6.809   2.458
 2543TIP3    H2 7573   1.983   6.953   2.482
 2544TIP3   OH2 7574   1.125   1.540   1.753
 2544TIP3    H1 7575   1.218   1.552   1.775
 2544TIP3    H2 7576   1.113   1.591   1.673
 2545TIP3   OH2 7577   0.572   5.539   1.345
 2545TIP3    H1 7578   0.603   5.625   1.372
 2545TIP3    H2 7579   0.652   5.486   1.337
 2546TIP3   OH2 7580   1.554   5.234   3.185
 2546TIP3    H1 7581   1.586   5.301   3.245
 2546TIP3    H2 7582   1.482   5.277   3.138
 2547TIP3   OH2 7583   4.407   5.316   1.916
 2547TIP3    H1 7584   4.437   5.279   2.000
 2547TIP3    H2 7585   4.317   5.285   1.907
 2548TIP3   OH2 7586   1.125   3.892   3.468
 2548TIP3    H1 7587   1.147   3.827   3.401
 2548TIP3    H2 7588   1.105   3.971   3.418
 2549TIP3   OH2 7589   5.461   7.465   4.041
 2549TIP3    H1 7590   5.432   7.506   3.960
 2549TIP3    H2 7591   5.400   7.498   4.107
 2550TIP3   OH2 7592   6.337   7.280   0.814
 2550TIP3    H1 7593   6.322   7.344   0.744
 2550TIP3    H2 7594   6.280   7.206   0.792
 2551TIP3   OH2 7595   7.222   6.704   4.271
 2551TIP3    H1 7596   7.259   6.622   4.303
 2551TIP3    H2 7597   7.293   6.745   4.222
 2552TIP3   OH2 7598   0.496   0.882   1.353
 2552TIP3    H1 7599   0.500   0.908   1.445
 2552TIP3    H2 7600   0.470   0.962   1.307
 2553TIP3   OH2 7601   5.387   4.928   5.226
 2553TIP3    H1 7602   5.343   4.868   5.287
 2553TIP3    H2 7603   5.345   5.012   5.241
 2554TIP3   OH2 7604   6.296   3.640   4.200
 2554TIP3    H1 7605   6.230   3.579   4.169
 2554TIP3    H2 7606   6.359   3.646   4.128
 2555TIP3   OH2 7607   6.200   1.456   5.706
 2555TIP3    H1 7608   6.214   1.534   5.759
 2555TIP3    H2 7609   6.109   1.431   5.725
 2556TIP3   OH2 7610   5.583   1.590   3.971
 2556TIP3    H1 7611   5.629   1.541   4.039
 2556TIP3    H2 7612   5.492   1.562   3.978
 2557TIP3   OH2 7613   5.847   5.040   4.866
 2557TIP3    H1 7614   5.906   4.976   4.827
 2557TIP3    H2 7615   5.797   5.075   4.793
 2558TIP3   OH2 7616   1.722   5.949   0.052
 2558TIP3    H1 7617   1.672   5.997   0.117
 2558TIP3    H2 7618   1.660   5.886   0.014
 2559TIP3   OH2 7619   8.236   2.548   3.279
 2559TIP3    H1 7620   8.240   2.488   3.354
 2559TIP3    H2 7621   8.319   2.595   3.282
 2560TIP3   OH2 7622   2.598   5.493   5.209
 2560TIP3    H1 7623   2.536   5.511   5.139
 2560TIP3    H2 7624   2.633   5.406   5.190
 2561TIP3   OH2 7625   4.745   7.763   5.950
 2561TIP3    H1 7626   4.747   7.680   5.997
 2561TIP3    H2 7627   4.699   7.744   5.868
 2562TIP3   OH2 7628   0.587   2.401   5.916
 2562TIP3    H1 7629   0.599   2.316   5.958
 2562TIP3    H2 7630   0.675   2.427   5.890
 2563TIP3   OH2 7631   8.070   6.505   4.384
 2563TIP3    H1 7632   7.976   6.489   4.395
 2563TIP3    H2 7633   8.075   6.591   4.342
 2564TIP3   OH2 7634   0.020   3.221   5.440
 2564TIP3    H1 7635   0.018   3.185   5.529
 2564TIP3    H2 7636  -0.038   3.297   5.444
 2565TIP3   OH2 7637   4.037   4.500   1.363
 2565TIP3    H1 7638   4.074   4.417   1.333
 2565TIP3    H2 7639   4.046   4.558   1.288
 2566TIP3   OH2 7640   6.008   5.034   4.429
 2566TIP3    H1 7641   5.915   5.015   4.417
 2566TIP3    H2 7642   6.025   5.108   4.370
 2567TIP3   OH2 7643   3.113   2.578   3.932
 2567TIP3    H1 7644   3.098   2.543   4.020
 2567TIP3    H2 7645   3.119   2.500   3.876
 2568TIP3   OH2 7646   7.055   7.408   6.515
 2568TIP3    H1 7647   7.020   7.466   6.448
 2568TIP3    H2 7648   7.135   7.451   6.545
 2569TIP3   OH2 7649   6.619   2.595   2.108
 2569TIP3    H1 7650   6.671   2.586   2.188
 2569TIP3    H2 7651   6.561   2.519   2.108
 2570TIP3   OH2 7652   5.301   3.244   4.054
 2570TIP3    H1 7653   5.248   3.285   4.122
 2570TIP3    H2 7654   5.254   3.164   4.032
 2571TIP3   OH2 7655   8.142   4.746   1.649
 2571TIP3    H1 7656   8.059   4.785   1.677
 2571TIP3    H2 7657   8.118   4.678   1.587
 2572TIP3   OH2 7658   3.591   5.232   5.591
 2572TIP3    H1 7659   3.654   5.301   5.612
 2572TIP3    H2 7660   3.602   5.219   5.497
 2573TIP3   OH2 7661   7.403   7.702   5.617
 2573TIP3    H1 7662   7.470   7.634   5.618
 2573TIP3    H2 7663   7.443   7.777   5.662
 2574TIP3   OH2 7664   3.911   1.489   2.515
 2574TIP3    H1 7665   3.914   1.524   2.426
 2574TIP3    H2 7666   3.871   1.403   2.507
 2575TIP3   OH2 7667   7.992   5.816   5.522
 2575TIP3    H1 7668   8.008   5.802   5.615
 2575TIP3    H2 7669   7.946   5.900   5.518
 2576TIP3   OH2 7670   3.625   6.139   5.080
 2576TIP3    H1 7671   3.612   6.198   5.154
 2576TIP3    H2 7672   3.719   6.123   5.078
 2577TIP3   OH2 7673   1.536   7.342   4.165
 2577TIP3    H1 7674   1.537   7.335   4.260
 2577TIP3    H2 7675   1.592   7.271   4.134
 2578TIP3   OH2 7676   4.954   0.638   3.466
 2578TIP3    H1 7677   4.860   0.633   3.482
 2578TIP3    H2 7678   4.979   0.548   3.441
 2579TIP3   OH2 7679   2.141   3.447   3.515
 2579TIP3    H1 7680   2.208   3.515   3.509
 2579TIP3    H2 7681   2.079   3.468   3.446
 2580TIP3   OH2 7682   1.505   3.555   1.305
 2580TIP3    H1 7683   1.581   3.497   1.310
 2580TIP3    H2 7684   1.434   3.499   1.272
 2581TIP3   OH2 7685   6.983   5.121   1.176
 2581TIP3    H1 7686   6.984   5.165   1.261
 2581TIP3    H2 7687   7.014   5.188   1.115
 2582TIP3   OH2 7688   7.242   1.612   0.242
 2582TIP3    H1 7689   7.186   1.567   0.179
 2582TIP3    H2 7690   7.251   1.552   0.315
 2583TIP3   OH2 7691   4.626   1.971   5.706
 2583TIP3    H1 7692   4.559   1.909   5.677
 2583TIP3    H2 7693   4.672   1.924   5.776
 2584TIP3   OH2 7694   5.321   0.598   2.473
 2584TIP3    H1 7695   5.351   0.609   2.383
 2584TIP3    H2 7696   5.286   0.684   2.497
 2585TIP3   OH2 7697   7.869   3.320   4.575
 2585TIP3    H1 7698   7.935   3.389   4.566
 2585TIP3    H2 7699   7.787   3.367   4.589
 2586TIP3   OH2 7700   2.127   3.809   2.206
 2586TIP3    H1 7701   2.122   3.750   2.131
 2586TIP3    H2 7702   2.085   3.889   2.176
 2587TIP3   OH2 7703   5.922   0.427   5.845
 2587TIP3    H1 7704   5.984   0.395   5.780
 2587TIP3    H2 7705   5.967   0.501   5.887
 2588TIP3   OH2 7706   4.047   0.247   5.869
 2588TIP3    H1 7707   4.129   0.226   5.825
 2588TIP3    H2 7708   4.055   0.339   5.893
 2589TIP3   OH2 7709   4.063   7.223   6.107
 2589TIP3    H1 7710   4.114   7.280   6.049
 2589TIP3    H2 7711   4.022   7.282   6.170
 2590TIP3   OH2 7712   6.196   6.183   3.684
 2590TIP3    H1 7713   6.188   6.139   3.769
 2590TIP3    H2 7714   6.111   6.225   3.671
 2591TIP3   OH2 7715   3.873   2.722   6.394
 2591TIP3    H1 7716   3.804   2.751   6.334
 2591TIP3    H2 7717   3.955   2.747   6.350
 2592TIP3   OH2 7718   6.232   3.389   3.986
 2592TIP3    H1 7719   6.316   3.382   4.032
 2592TIP3    H2 7720   6.235   3.321   3.919
 2593TIP3   OH2 7721   7.487   3.605   5.509
 2593TIP3    H1 7722   7.441   3.684   5.537
 2593TIP3    H2 7723   7.556   3.637   5.451
 2594TIP3   OH2 7724   6.291   4.159   3.113
 2594TIP3    H1 7725   6.272   4.081   3.166
 2594TIP3    H2 7726   6.283   4.128   3.022
 2595TIP3   OH2 7727   1.730   0.462   1.690
 2595TIP3    H1 7728   1.768   0.451   1.602
 2595TIP3    H2 7729   1.739   0.376   1.731
 2596TIP3   OH2 7730   0.186   4.790   3.978
 2596TIP3    H1 7731   0.143   4.761   3.898
 2596TIP3    H2 7732   0.174   4.885   3.980
 2597TIP3   OH2 7733   2.960   7.324   2.535
 2597TIP3    H1 7734   3.001   7.281   2.460
 2597TIP3    H2 7735   2.908   7.395   2.498
 2598TIP3   OH2 7736   8.119   1.435   6.650
 2598TIP3    H1 7737   8.085   1.512   6.605
 2598TIP3    H2 7738   8.167   1.387   6.582
 2599TIP3   OH2 7739   5.206   6.133   1.069
 2599TIP3    H1 7740   5.150   6.061   1.099
 2599TIP3    H2 7741   5.156   6.176   1.000
 2600TIP3   OH2 7742   7.237   3.084   2.599
 2600TIP3    H1 7743   7.256   3.038   2.517
 2600TIP3    H2 7744   7.187   3.161   2.572
 2601TIP3   OH2 7745   1.744   4.533   5.844
 2601TIP3    H1 7746   1.739   4.443   5.813
 2601TIP3    H2 7747   1.662   4.546   5.893
 2602TIP3   OH2 7748   4.183   7.485   0.178
 2602TIP3    H1 7749   4.175   7.552   0.246
 2602TIP3    H2 7750   4.221   7.532   0.103
 2603TIP3   OH2 7751   2.860   1.429   5.533
 2603TIP3    H1 7752   2.824   1.467   5.614
 2603TIP3    H2 7753   2.952   1.455   5.533
 2604TIP3   OH2 7754   2.788   6.920   4.166
 2604TIP3    H1 7755   2.731   6.848   4.192
 2604TIP3    H2 7756   2.780   6.923   4.070
 2605TIP3   OH2 7757   7.550   6.768   4.262
 2605TIP3    H1 7758   7.496   6.825   4.208
 2605TIP3    H2 7759   7.627   6.749   4.208
 2606TIP3   OH2 7760   5.900   7.108   5.929
 2606TIP3    H1 7761   5.932   7.056   5.855
 2606TIP3    H2 7762   5.971   7.105   5.993
 2607TIP3   OH2 7763   4.279   3.223   1.066
 2607TIP3    H1 7764   4.227   3.180   0.998
 2607TIP3    H2 7765   4.333   3.153   1.102
 2608TIP3   OH2 7766   5.517   4.301   1.207
 2608TIP3    H1 7767   5.509   4.345   1.292
 2608TIP3    H2 7768   5.604   4.325   1.176
 2609TIP3   OH2 7769   3.406   5.911   1.559
 2609TIP3    H1 7770   3.326   5.891   1.608
 2609TIP3    H2 7771   3.445   5.825   1.541
 2610TIP3   OH2 7772   6.549   6.071   1.851
 2610TIP3    H1 7773   6.512   6.158   1.834
 2610TIP3    H2 7774   6.605   6.083   1.928
 2611TIP3   OH2 7775   4.808   7.627   5.470
 2611TIP3    H1 7776   4.796   7.697   5.534
 2611TIP3    H2 7777   4.719   7.606   5.442
 2612TIP3   OH2 7778   1.625   1.004   5.364
 2612TIP3    H1 7779   1.683   0.959   5.425
 2612TIP3    H2 7780   1.542   1.013   5.411
 2613TIP3   OH2 7781   7.301   4.629   3.292
 2613TIP3    H1 7782   7.225   4.601   3.342
 2613TIP3    H2 7783   7.317   4.719   3.320
 2614TIP3   OH2 7784   5.556   3.389   6.645
 2614TIP3    H1 7785   5.472   3.342   6.646
 2614TIP3    H2 7786   5.540   3.464   6.587
 2615TIP3   OH2 7787   5.822   0.369   2.599
 2615TIP3    H1 7788   5.738   0.400   2.565
 2615TIP3    H2 7789   5.838   0.287   2.553
 2616TIP3   OH2 7790   5.651   3.800   4.511
 2616TIP3    H1 7791   5.733   3.753   4.494
 2616TIP3    H2 7792   5.643   3.862   4.438
 2617TIP3   OH2 7793   4.645   5.774   2.374
 2617TIP3    H1 7794   4.708   5.732   2.433
 2617TIP3    H2 7795   4.686   5.767   2.288
 2618TIP3   OH2 7796   6.069   1.316   0.042
 2618TIP3    H1 7797   6.090   1.334   0.134
 2618TIP3    H2 7798   6.000   1.378   0.020
 2619TIP3   OH2 7799   3.053   2.301   4.119
 2619TIP3    H1 7800   2.972   2.277   4.075
 2619TIP3    H2 7801   3.122   2.280   4.056
 2620TIP3   OH2 7802   7.347   3.393   6.281
 2620TIP3    H1 7803   7.407   3.335   6.232
 2620TIP3    H2 7804   7.267   3.341   6.292
 2621TIP3   OH2 7805   2.856   1.921   2.344
 2621TIP3    H1 7806   2.779   1.978   2.341
 2621TIP3    H2 7807   2.837   1.850   2.283
 2622TIP3   OH2 7808   6.140   4.456   5.588
 2622TIP3    H1 7809   6.140   4.406   5.669
 2622TIP3    H2 7810   6.229   4.491   5.581
 2623TIP3   OH2 7811   4.496   6.762   3.255
 2623TIP3    H1 7812   4.527   6.835   3.308
 2623TIP3    H2 7813   4.404   6.752   3.280
 2624TIP3   OH2 7814   7.927   6.077   6.683
 2624TIP3    H1 7815   7.959   6.124   6.759
 2624TIP3    H2 7816   7.835   6.060   6.702
 2625TIP3   OH2 7817   5.278   6.173   1.554
 2625TIP3    H1 7818   5.296   6.082   1.576
 2625TIP3    H2 7819   5.208   6.168   1.489
 2626TIP3   OH2 7820   4.420   3.091   6.165
 2626TIP3    H1 7821   4.474   3.168   6.148
 2626TIP3    H2 7822   4.472   3.017   6.132
 2627TIP3   OH2 7823   8.212   6.254   2.895
 2627TIP3    H1 7824   8.247   6.225   2.979
 2627TIP3    H2 7825   8.118   6.259   2.908
 2628TIP3   OH2 7826   4.207   2.100   3.323
 2628TIP3    H1 7827   4.125   2.057   3.350
 2628TIP3    H2 7828   4.268   2.082   3.394
 2629TIP3   OH2 7829   0.513   2.537   6.164
 2629TIP3    H1 7830   0.520   2.487   6.082
 2629TIP3    H2 7831   0.498   2.627   6.136
 2630TIP3   OH2 7832   8.174   1.057   3.676
 2630TIP3    H1 7833   8.088   1.017   3.679
 2630TIP3    H2 7834   8.230   0.997   3.725
 2631TIP3   OH2 7835   3.197   5.903   1.330
 2631TIP3    H1 7836   3.283   5.937   1.355
 2631TIP3    H2 7837   3.185   5.932   1.239
 2632TIP3   OH2 7838   4.826   0.344   5.560
 2632TIP3    H1 7839   4.871   0.416   5.605
 2632TIP3    H2 7840   4.789   0.385   5.482
 2633TIP3   OH2 7841   2.314   1.635   0.249
 2633TIP3    H1 7842   2.397   1.633   0.297
 2633TIP3    H2 7843   2.273   1.717   0.274
 2634TIP3   OH2 7844   7.235   1.420   6.281
 2634TIP3    H1 7845   7.184   1.415   6.200
 2634TIP3    H2 7846   7.306   1.481   6.261
 2635TIP3   OH2 7847   1.922   7.505   0.159
 2635TIP3    H1 7848   1.931   7.599   0.144
 2635TIP3    H2 7849   2.009   7.470   0.143
 2636TIP3   OH2 7850   0.679   7.507   3.534
 2636TIP3    H1 7851   0.585   7.522   3.545
 2636TIP3    H2 7852   0.698   7.538   3.446
 2637TIP3   OH2 7853   3.981   0.700   0.425
 2637TIP3    H1 7854   3.992   0.740   0.339
 2637TIP3    H2 7855   3.915   0.753   0.469
 2638TIP3   OH2 7856   5.378   0.627   0.669
 2638TIP3    H1 7857   5.301   0.571   0.664
 2638TIP3    H2 7858   5.345   0.711   0.701
 2639TIP3   OH2 7859   0.899   6.685   1.792
 2639TIP3    H1 7860   0.978   6.737   1.777
 2639TIP3    H2 7861   0.859   6.676   1.705
 2640TIP3   OH2 7862   1.863   2.387   2.168
 2640TIP3    H1 7863   1.912   2.429   2.097
 2640TIP3    H2 7864   1.827   2.307   2.130
 2641TIP3   OH2 7865   4.224   6.018   6.094
 2641TIP3    H1 7866   4.136   6.044   6.068
 2641TIP3    H2 7867   4.255   5.963   6.023
 2642TIP3   OH2 7868   8.015   3.362   2.580
 2642TIP3    H1 7869   7.952   3.429   2.553
 2642TIP3    H2 7870   7.993   3.286   2.526
 2643TIP3   OH2 7871   4.068   7.236   4.925
 2643TIP3    H1 7872   4.131   7.290   4.877
 2643TIP3    H2 7873   4.014   7.196   4.857
 2644TIP3   OH2 7874   7.896   0.099   2.991
 2644TIP3    H1 7875   7.977   0.084   2.943
 2644TIP3    H2 7876   7.831   0.045   2.945
 2645TIP3   OH2 7877   7.441   5.823   0.458
 2645TIP3    H1 7878   7.478   5.742   0.424
 2645TIP3    H2 7879   7.494   5.843   0.536
 2646TIP3   OH2 7880   3.365   1.857   3.668
 2646TIP3    H1 7881   3.271   1.842   3.677
 2646TIP3    H2 7882   3.392   1.796   3.599
 2647TIP3   OH2 7883   0.708   7.645   4.999
 2647TIP3    H1 7884   0.708   7.734   4.964
 2647TIP3    H2 7885   0.686   7.656   5.092
 2648TIP3   OH2 7886   1.042   0.518   4.747
 2648TIP3    H1 7887   0.957   0.518   4.701
 2648TIP3    H2 7888   1.019   0.516   4.840
 2649TIP3   OH2 7889   1.673   5.955   5.314
 2649TIP3    H1 7890   1.673   5.963   5.219
 2649TIP3    H2 7891   1.617   5.880   5.332
 2650TIP3   OH2 7892   0.231   5.428   0.203
 2650TIP3    H1 7893   0.283   5.352   0.230
 2650TIP3    H2 7894   0.295   5.498   0.192
 2651TIP3   OH2 7895   5.972   4.327   3.980
 2651TIP3    H1 7896   6.004   4.398   4.037
 2651TIP3    H2 7897   5.892   4.362   3.941
 2652TIP3   OH2 7898   2.412   0.800   5.183
 2652TIP3    H1 7899   2.418   0.867   5.114
 2652TIP3    H2 7900   2.392   0.719   5.136
 2653TIP3   OH2 7901   6.469   1.818   2.392
 2653TIP3    H1 7902   6.467   1.838   2.486
 2653TIP3    H2 7903   6.377   1.812   2.367
 2654TIP3   OH2 7904   1.326   1.056   5.844
 2654TIP3    H1 7905   1.245   1.039   5.893
 2654TIP3    H2 7906   1.347   1.147   5.862
 2655TIP3   OH2 7907   0.586   6.603   1.886
 2655TIP3    H1 7908   0.518   6.653   1.840
 2655TIP3    H2 7909   0.614   6.537   1.823
 2656TIP3   OH2 7910   0.386   0.197   2.411
 2656TIP3    H1 7911   0.346   0.210   2.325
 2656TIP3    H2 7912   0.320   0.151   2.462
 2657TIP3   OH2 7913   3.088   1.302   4.789
 2657TIP3    H1 7914   3.152   1.261   4.848
 2657TIP3    H2 7915   3.127   1.386   4.766
 2658TIP3   OH2 7916   7.507   0.073   0.746
 2658TIP3    H1 7917   7.505  -0.005   0.800
 2658TIP3    H2 7918   7.416   0.103   0.742
 2659TIP3   OH2 7919   6.561   7.480   0.721
 2659TIP3    H1 7920   6.530   7.549   0.663
 2659TIP3    H2 7921   6.499   7.480   0.793
 2660TIP3   OH2 7922   0.881   7.568   5.897
 2660TIP3    H1 7923   0.846   7.492   5.943
 2660TIP3    H2 7924   0.836   7.568   5.812
 2661TIP3   OH2 7925   0.448   2.968   1.757
 2661TIP3    H1 7926   0.368   3.021   1.766
 2661TIP3    H2 7927   0.455   2.953   1.662
 2662TIP3   OH2 7928   0.518   0.245   0.463
 2662TIP3    H1 7929   0.583   0.244   0.393
 2662TIP3    H2 7930   0.558   0.196   0.534
 2663TIP3   OH2 7931   0.577   3.145   4.572
 2663TIP3    H1 7932   0.637   3.097   4.629
 2663TIP3    H2 7933   0.583   3.101   4.488
 2664TIP3   OH2 7934   7.196   7.358   3.001
 2664TIP3    H1 7935   7.148   7.440   3.011
 2664TIP3    H2 7936   7.128   7.292   2.987
 2665TIP3   OH2 7937   0.918   5.602   1.502
 2665TIP3    H1 7938   0.976   5.539   1.546
 2665TIP3    H2 7939   0.944   5.596   1.410
 2666TIP3   OH2 7940   0.049   1.384   4.006
 2666TIP3    H1 7941   0.044   1.359   3.913
 2666TIP3    H2 7942   0.035   1.302   4.053
 2667TIP3   OH2 7943   4.058   2.499   2.128
 2667TIP3    H1 7944   4.147   2.528   2.148
 2667TIP3    H2 7945   4.006   2.526   2.204
 2668TIP3   OH2 7946   0.120   0.941   1.005
 2668TIP3    H1 7947   0.133   0.888   1.084
 2668TIP3    H2 7948   0.052   0.895   0.955
 2669TIP3   OH2 7949   6.411   4.029   5.986
 2669TIP3    H1 7950   6.481   4.024   5.921
 2669TIP3    H2 7951   6.331   4.043   5.934
 2670TIP3   OH2 7952   0.279   4.462   0.281
 2670TIP3    H1 7953   0.292   4.431   0.370
 2670TIP3    H2 7954   0.298   4.556   0.285
 2671TIP3   OH2 7955   1.577   7.561   1.050
 2671TIP3    H1 7956   1.598   7.632   1.111
 2671TIP3    H2 7957   1.558   7.605   0.967
 2672TIP3   OH2 7958   2.955   6.017   5.273
 2672TIP3    H1 7959   2.919   5.962   5.343
 2672TIP3    H2 7960   2.932   6.106   5.298
 2673TIP3   OH2 7961   1.365   0.475   1.174
 2673TIP3    H1 7962   1.404   0.446   1.091
 2673TIP3    H2 7963   1.287   0.525   1.148
 2674TIP3   OH2 7964   2.461   4.350   1.795
 2674TIP3    H1 7965   2.402   4.402   1.741
 2674TIP3    H2 7966   2.442   4.376   1.885
 2675TIP3   OH2 7967   3.527   4.344   5.807
 2675TIP3    H1 7968   3.588   4.378   5.873
 2675TIP3    H2 7969   3.570   4.266   5.772
 2676TIP3   OH2 7970   7.452   1.959   5.641
 2676TIP3    H1 7971   7.470   1.901   5.567
 2676TIP3    H2 7972   7.397   1.908   5.699
 2677TIP3   OH2 7973   5.540   5.585   0.745
 2677TIP3    H1 7974   5.553   5.643   0.820
 2677TIP3    H2 7975   5.584   5.504   0.770
 2678TIP3   OH2 7976   3.456   1.890   3.933
 2678TIP3    H1 7977   3.425   1.973   3.969
 2678TIP3    H2 7978   3.435   1.896   3.840
 2679TIP3   OH2 7979   4.943   4.815   1.181
 2679TIP3    H1 7980   4.868   4.787   1.129
 2679TIP3    H2 7981   5.006   4.849   1.117
 2680TIP3   OH2 7982   5.872   0.218   4.989
 2680TIP3    H1 7983   5.913   0.151   5.044
 2680TIP3    H2 7984   5.929   0.225   4.913
 2681TIP3   OH2 7985   4.122   0.149   4.298
 2681TIP3    H1 7986   4.091   0.106   4.378
 2681TIP3    H2 7987   4.137   0.077   4.236
 2682TIP3   OH2 7988   3.114   1.009   3.141
 2682TIP3    H1 7989   3.131   1.082   3.081
 2682TIP3    H2 7990   3.041   1.039   3.195
 2683TIP3   OH2 7991   1.322   5.296   4.135
 2683TIP3    H1 7992   1.273   5.216   4.154
 2683TIP3    H2 7993   1.257   5.366   4.139
 2684TIP3   OH2 7994   3.270   3.700   5.755
 2684TIP3    H1 7995   3.344   3.705   5.815
 2684TIP3    H2 7996   3.288   3.624   5.700
 2685TIP3   OH2 7997   5.385   3.319   1.687
 2685TIP3    H1 7998   5.320   3.374   1.731
 2685TIP3    H2 7999   5.361   3.229   1.711
 2686TIP3   OH2 8000   4.991   3.295   2.346
 2686TIP3    H1 8001   5.036   3.324   2.267
 2686TIP3    H2 8002   4.906   3.338   2.342
 2687TIP3   OH2 8003   1.490   6.218   5.964
 2687TIP3    H1 8004   1.410   6.248   5.922
 2687TIP3    H2 8005   1.561   6.256   5.912
 2688TIP3   OH2 8006   3.049   6.518   6.537
 2688TIP3    H1 8007   3.085   6.456   6.601
 2688TIP3    H2 8008   3.122   6.577   6.517
 2689TIP3   OH2 8009   3.305   1.952   2.286
 2689TIP3    H1 8010   3.217   1.976   2.256
 2689TIP3    H2 8011   3.298   1.860   2.311
 2690TIP3   OH2 8012   3.177   2.014   1.124
 2690TIP3    H1 8013   3.127   2.095   1.136
 2690TIP3    H2 8014   3.164   1.991   1.032
 2691TIP3   OH2 8015   7.869   5.482   2.862
 2691TIP3    H1 8016   7.911   5.418   2.919
 2691TIP3    H2 8017   7.914   5.565   2.881
 2692TIP3   OH2 8018   4.715   5.068   1.945
 2692TIP3    H1 8019   4.703   5.153   1.986
 2692TIP3    H2 8020   4.803   5.071   1.908
 2693TIP3   OH2 8021   4.897   0.900   0.391
 2693TIP3    H1 8022   4.948   0.928   0.316
 2693TIP3    H2 8023   4.868   0.811   0.369
 2694TIP3   OH2 8024   3.106   2.855   2.022
 2694TIP3    H1 8025   3.142   2.787   1.965
 2694TIP3    H2 8026   3.151   2.843   2.105
 2695TIP3   OH2 8027   1.715   6.423   1.443
 2695TIP3    H1 8028   1.671   6.496   1.398
 2695TIP3    H2 8029   1.736   6.458   1.529
 2696TIP3   OH2 8030   7.440   2.225   0.572
 2696TIP3    H1 8031   7.408   2.134   0.573
 2696TIP3    H2 8032   7.416   2.260   0.658
 2697TIP3   OH2 8033   7.903   7.558   4.234
 2697TIP3    H1 8034   7.971   7.625   4.235
 2697TIP3    H2 8035   7.869   7.560   4.145
 2698TIP3   OH2 8036   2.335   2.918   3.299
 2698TIP3    H1 8037   2.427   2.942   3.305
 2698TIP3    H2 8038   2.301   2.969   3.226
 2699TIP3   OH2 8039   5.297   1.074   5.632
 2699TIP3    H1 8040   5.259   0.994   5.668
 2699TIP3    H2 8041   5.284   1.140   5.701
 2700TIP3   OH2 8042   3.448   7.133   6.527
 2700TIP3    H1 8043   3.442   7.041   6.554
 2700TIP3    H2 8044   3.364   7.151   6.485
 2701TIP3   OH2 8045   5.942   2.427   2.984
 2701TIP3    H1 8046   5.999   2.358   2.949
 2701TIP3    H2 8047   5.957   2.502   2.926
 2702TIP3   OH2 8048   0.015   5.034   2.349
 2702TIP3    H1 8049  -0.014   4.958   2.299
 2702TIP3    H2 8050   0.070   5.083   2.288
 2703TIP3   OH2 8051   5.863   0.064   1.336
 2703TIP3    H1 8052   5.801   0.073   1.264
 2703TIP3    H2 8053   5.823   0.113   1.408
 2704TIP3   OH2 8054   4.304   4.023   4.094
 2704TIP3    H1 8055   4.211   4.007   4.110
 2704TIP3    H2 8056   4.349   3.956   4.144
 2705TIP3   OH2 8057   8.003   2.943   6.009
 2705TIP3    H1 8058   8.060   2.867   5.996
 2705TIP3    H2 8059   8.039   2.988   6.085
 2706TIP3   OH2 8060   7.553   1.226   3.364
 2706TIP3    H1 8061   7.494   1.297   3.391
 2706TIP3    H2 8062   7.641   1.264   3.370
 2707TIP3   OH2 8063   4.395   2.417   6.678
 2707TIP3    H1 8064   4.440   2.437   6.760
 2707TIP3    H2 8065   4.337   2.344   6.700
 2708TIP3   OH2 8066   4.149   1.716   4.191
 2708TIP3    H1 8067   4.066   1.676   4.216
 2708TIP3    H2 8068   4.156   1.793   4.248
 2709TIP3   OH2 8069   4.031   0.303   0.142
 2709TIP3    H1 8070   4.058   0.291   0.233
 2709TIP3    H2 8071   4.101   0.264   0.091
 2710TIP3   OH2 8072   5.276   2.949   0.387
 2710TIP3    H1 8073   5.204   2.910   0.436
 2710TIP3    H2 8074   5.274   2.904   0.303
 2711TIP3   OH2 8075   5.068   0.229   1.658
 2711TIP3    H1 8076   4.989   0.275   1.682
 2711TIP3    H2 8077   5.122   0.230   1.737
 2712TIP3   OH2 8078   5.809   7.582   4.633
 2712TIP3    H1 8079   5.855   7.499   4.622
 2712TIP3    H2 8080   5.846   7.619   4.714
 2713TIP3   OH2 8081   5.525   0.699   3.008
 2713TIP3    H1 8082   5.493   0.642   2.938
 2713TIP3    H2 8083   5.541   0.641   3.082
 2714TIP3   OH2 8084   0.358   6.634   0.672
 2714TIP3    H1 8085   0.359   6.691   0.749
 2714TIP3    H2 8086   0.427   6.668   0.615
 2715TIP3   OH2 8087   5.054   6.340   2.972
 2715TIP3    H1 8088   5.022   6.364   3.058
 2715TIP3    H2 8089   4.995   6.383   2.911
 2716TIP3   OH2 8090   7.832   1.167   3.658
 2716TIP3    H1 8091   7.851   1.080   3.692
 2716TIP3    H2 8092   7.862   1.227   3.727
 2717TIP3   OH2 8093   0.564   7.293   6.514
 2717TIP3    H1 8094   0.593   7.203   6.533
 2717TIP3    H2 8095   0.566   7.337   6.599
 2718TIP3   OH2 8096   1.817   5.554   6.062
 2718TIP3    H1 8097   1.765   5.524   5.987
 2718TIP3    H2 8098   1.763   5.532   6.138
 2719TIP3   OH2 8099   4.491   4.949   4.588
 2719TIP3    H1 8100   4.411   4.933   4.638
 2719TIP3    H2 8101   4.473   5.029   4.539
 2720TIP3   OH2 8102   7.561   6.118   2.751
 2720TIP3    H1 8103   7.544   6.211   2.739
 2720TIP3    H2 8104   7.512   6.094   2.830
 2721TIP3   OH2 8105   7.258   1.048   1.046
 2721TIP3    H1 8106   7.180   1.103   1.045
 2721TIP3    H2 8107   7.268   1.022   1.137
 2722TIP3   OH2 8108   5.794   1.251   5.472
 2722TIP3    H1 8109   5.787   1.242   5.377
 2722TIP3    H2 8110   5.871   1.200   5.495
 2723TIP3   OH2 8111   7.466   2.123   5.849
 2723TIP3    H1 8112   7.487   2.097   5.759
 2723TIP3    H2 8113   7.396   2.064   5.876
 2724TIP3   OH2 8114   7.953   0.498   3.289
 2724TIP3    H1 8115   7.886   0.476   3.354
 2724TIP3    H2 8116   8.009   0.421   3.286
 2725TIP3   OH2 8117   3.150   5.804   1.660
 2725TIP3    H1 8118   3.093   5.876   1.631
 2725TIP3    H2 8119   3.144   5.806   1.756
 2726TIP3   OH2 8120  -0.018   0.043   2.758
 2726TIP3    H1 8121   0.010   0.059   2.668
 2726TIP3    H2 8122   0.063   0.026   2.806
 2727TIP3   OH2 8123   4.611   0.317   6.589
 2727TIP3    H1 8124   4.651   0.388   6.539
 2727TIP3    H2 8125   4.633   0.238   6.539
 2728TIP3   OH2 8126   0.829   0.378   4.392
 2728TIP3    H1 8127   0.854   0.299   4.441
 2728TIP3    H2 8128   0.855   0.360   4.302
 2729TIP3   OH2 8129   4.073   4.236   4.507
 2729TIP3    H1 8130   3.990   4.276   4.531
 2729TIP3    H2 8131   4.105   4.290   4.433
 2730TIP3   OH2 8132   3.573   4.275   6.197
 2730TIP3    H1 8133   3.520   4.349   6.168
 2730TIP3    H2 8134   3.604   4.300   6.284
 2731TIP3   OH2 8135   3.335   7.454   3.363
 2731TIP3    H1 8136   3.425   7.487   3.356
 2731TIP3    H2 8137   3.318   7.412   3.279
 2732TIP3   OH2 8138   1.429   2.852   2.272
 2732TIP3    H1 8139   1.449   2.891   2.357
 2732TIP3    H2 8140   1.394   2.924   2.220
 2733TIP3   OH2 8141   3.042   3.143   2.146
 2733TIP3    H1 8142   3.021   3.229   2.181
 2733TIP3    H2 8143   3.137   3.135   2.155
 2734TIP3   OH2 8144   7.497   6.449   2.132
 2734TIP3    H1 8145   7.428   6.408   2.185
 2734TIP3    H2 8146   7.579   6.412   2.166
 2735TIP3   OH2 8147   3.708   1.742   6.719
 2735TIP3    H1 8148   3.643   1.800   6.682
 2735TIP3    H2 8149   3.710   1.764   6.812
 2736TIP3   OH2 8150   4.282   2.054   6.348
 2736TIP3    H1 8151   4.311   2.045   6.439
 2736TIP3    H2 8152   4.204   1.999   6.342
 2737TIP3   OH2 8153   7.532   1.646   4.065
 2737TIP3    H1 8154   7.542   1.584   3.993
 2737TIP3    H2 8155   7.567   1.729   4.031
 2738TIP3   OH2 8156   5.088   4.530   3.281
 2738TIP3    H1 8157   5.145   4.605   3.295
 2738TIP3    H2 8158   5.146   4.461   3.248
 2739TIP3   OH2 8159   2.786   5.402   4.571
 2739TIP3    H1 8160   2.839   5.327   4.543
 2739TIP3    H2 8161   2.775   5.390   4.665
 2740TIP3   OH2 8162   4.068   3.123   5.485
 2740TIP3    H1 8163   3.977   3.132   5.516
 2740TIP3    H2 8164   4.069   3.039   5.438
 2741TIP3   OH2 8165   8.262   5.695   2.315
 2741TIP3    H1 8166   8.235   5.768   2.260
 2741TIP3    H2 8167   8.228   5.716   2.402
 2742TIP3   OH2 8168   0.334   5.248   2.872
 2742TIP3    H1 8169   0.365   5.211   2.954
 2742TIP3    H2 8170   0.239   5.239   2.875
 2743TIP3   OH2 8171   6.978   4.178   3.590
 2743TIP3    H1 8172   6.918   4.236   3.544
 2743TIP3    H2 8173   6.972   4.095   3.542
 2744TIP3   OH2 8174   5.792   2.885   6.239
 2744TIP3    H1 8175   5.835   2.892   6.324
 2744TIP3    H2 8176   5.863   2.891   6.175
 2745TIP3   OH2 8177   4.824   7.025   1.618
 2745TIP3    H1 8178   4.838   6.971   1.696
 2745TIP3    H2 8179   4.902   7.009   1.564
 2746TIP3   OH2 8180   0.954   3.676   1.369
 2746TIP3    H1 8181   1.043   3.674   1.406
 2746TIP3    H2 8182   0.933   3.584   1.354
 2747TIP3   OH2 8183   7.537   5.738   1.613
 2747TIP3    H1 8184   7.491   5.711   1.533
 2747TIP3    H2 8185   7.485   5.700   1.684
 2748TIP3   OH2 8186   6.851   4.799   0.674
 2748TIP3    H1 8187   6.776   4.847   0.640
 2748TIP3    H2 8188   6.886   4.752   0.598
 2749TIP3   OH2 8189   2.407   4.349   2.628
 2749TIP3    H1 8190   2.479   4.388   2.676
 2749TIP3    H2 8191   2.420   4.378   2.537
 2750TIP3   OH2 8192   7.822   3.122   3.573
 2750TIP3    H1 8193   7.810   3.054   3.639
 2750TIP3    H2 8194   7.745   3.115   3.517
 2751TIP3   OH2 8195   7.084   1.201   3.652
 2751TIP3    H1 8196   7.018   1.135   3.673
 2751TIP3    H2 8197   7.035   1.271   3.609
 2752TIP3   OH2 8198   5.897   4.917   6.183
 2752TIP3    H1 8199   5.891   4.828   6.216
 2752TIP3    H2 8200   5.892   4.972   6.261
 2753TIP3   OH2 8201   5.014   6.833   4.569
 2753TIP3    H1 8202   4.948   6.900   4.548
 2753TIP3    H2 8203   5.019   6.780   4.490
 2754TIP3   OH2 8204   7.843   5.842   3.401
 2754TIP3    H1 8205   7.881   5.906   3.460
 2754TIP3    H2 8206   7.903   5.838   3.327
 2755TIP3   OH2 8207   6.198   1.061   6.391
 2755TIP3    H1 8208   6.103   1.065   6.395
 2755TIP3    H2 8209   6.217   0.977   6.349
 2756TIP3   OH2 8210   3.229   4.651   2.608
 2756TIP3    H1 8211   3.285   4.574   2.600
 2756TIP3    H2 8212   3.140   4.616   2.608
 2757TIP3   OH2 8213   0.336   0.394   4.334
 2757TIP3    H1 8214   0.342   0.331   4.405
 2757TIP3    H2 8215   0.272   0.459   4.364
 2758TIP3   OH2 8216   5.592   5.523   5.774
 2758TIP3    H1 8217   5.588   5.615   5.748
 2758TIP3    H2 8218   5.682   5.496   5.754
 2759TIP3   OH2 8219   0.990   2.597   3.267
 2759TIP3    H1 8220   0.917   2.573   3.209
 2759TIP3    H2 8221   1.041   2.660   3.216
 2760TIP3   OH2 8222   5.317   0.021   1.046
 2760TIP3    H1 8223   5.282   0.103   1.009
 2760TIP3    H2 8224   5.411   0.034   1.047
 2761TIP3   OH2 8225   5.269   4.313   3.140
 2761TIP3    H1 8226   5.223   4.249   3.086
 2761TIP3    H2 8227   5.325   4.260   3.198
 2762TIP3   OH2 8228   3.950   1.973   3.377
 2762TIP3    H1 8229   3.906   2.028   3.313
 2762TIP3    H2 8230   3.892   1.897   3.388
 2763TIP3   OH2 8231   7.193   6.576   2.929
 2763TIP3    H1 8232   7.148   6.632   2.992
 2763TIP3    H2 8233   7.205   6.493   2.975
 2764TIP3   OH2 8234   1.853   4.468   1.983
 2764TIP3    H1 8235   1.944   4.466   2.014
 2764TIP3    H2 8236   1.801   4.474   2.064
 2765TIP3   OH2 8237   0.855   1.366   3.798
 2765TIP3    H1 8238   0.918   1.363   3.871
 2765TIP3    H2 8239   0.781   1.314   3.827
 2766TIP3   OH2 8240   7.482   5.733   5.297
 2766TIP3    H1 8241   7.396   5.697   5.279
 2766TIP3    H2 8242   7.542   5.681   5.243
 2767TIP3   OH2 8243   5.573   1.404   0.760
 2767TIP3    H1 8244   5.631   1.348   0.709
 2767TIP3    H2 8245   5.620   1.420   0.842
 2768TIP3   OH2 8246   5.452   7.449   2.682
 2768TIP3    H1 8247   5.492   7.493   2.757
 2768TIP3    H2 8248   5.390   7.387   2.722
 2769TIP3   OH2 8249   3.137   1.999   0.185
 2769TIP3    H1 8250   3.134   1.959   0.098
 2769TIP3    H2 8251   3.118   1.927   0.245
 2770TIP3   OH2 8252   1.744   7.130   6.344
 2770TIP3    H1 8253   1.773   7.098   6.429
 2770TIP3    H2 8254   1.823   7.133   6.291
 2771TIP3   OH2 8255   7.925   4.939   5.695
 2771TIP3    H1 8256   7.873   5.000   5.643
 2771TIP3    H2 8257   7.865   4.868   5.717
 2772TIP3   OH2 8258   0.471   2.802   5.610
 2772TIP3    H1 8259   0.397   2.774   5.664
 2772TIP3    H2 8260   0.532   2.842   5.672
 2773TIP3   OH2 8261   0.065   3.382   2.527
 2773TIP3    H1 8262   0.030   3.468   2.501
 2773TIP3    H2 8263   0.039   3.324   2.455
 2774TIP3   OH2 8264   5.657   3.940   5.032
 2774TIP3    H1 8265   5.629   3.902   4.948
 2774TIP3    H2 8266   5.649   4.034   5.019
 2775TIP3   OH2 8267   3.234   1.751   0.765
 2775TIP3    H1 8268   3.312   1.742   0.820
 2775TIP3    H2 8269   3.263   1.804   0.691
 2776TIP3   OH2 8270   4.637  -0.011   5.854
 2776TIP3    H1 8271   4.608  -0.009   5.945
 2776TIP3    H2 8272   4.650   0.081   5.831
 2777TIP3   OH2 8273   1.410   0.177   2.306
 2777TIP3    H1 8274   1.466   0.104   2.334
 2777TIP3    H2 8275   1.471   0.241   2.268
 2778TIP3   OH2 8276   4.745   3.328   1.989
 2778TIP3    H1 8277   4.749   3.233   1.987
 2778TIP3    H2 8278   4.816   3.356   1.930
 2779TIP3   OH2 8279   5.730   7.784   2.151
 2779TIP3    H1 8280   5.752   7.691   2.147
 2779TIP3    H2 8281   5.642   7.786   2.188
 2780TIP3   OH2 8282   4.866   4.246   0.592
 2780TIP3    H1 8283   4.783   4.294   0.598
 2780TIP3    H2 8284   4.933   4.313   0.603
 2781TIP3   OH2 8285   7.827   1.971   3.823
 2781TIP3    H1 8286   7.907   1.994   3.870
 2781TIP3    H2 8287   7.816   1.877   3.839
 2782TIP3   OH2 8288   3.188   0.175   4.197
 2782TIP3    H1 8289   3.183   0.192   4.291
 2782TIP3    H2 8290   3.180   0.080   4.189
 2783TIP3   OH2 8291   1.418   4.163   2.086
 2783TIP3    H1 8292   1.431   4.182   2.179
 2783TIP3    H2 8293   1.495   4.113   2.061
 2784TIP3   OH2 8294   3.722   1.180   5.981
 2784TIP3    H1 8295   3.766   1.099   5.956
 2784TIP3    H2 8296   3.629   1.161   5.974
 2785TIP3   OH2 8297   6.746   6.174   6.537
 2785TIP3    H1 8298   6.654   6.156   6.518
 2785TIP3    H2 8299   6.767   6.251   6.484
 2786TIP3   OH2 8300   3.813   6.843   0.520
 2786TIP3    H1 8301   3.863   6.879   0.446
 2786TIP3    H2 8302   3.795   6.752   0.495
 2787TIP3   OH2 8303   3.141   3.900   5.041
 2787TIP3    H1 8304   3.102   3.924   5.125
 2787TIP3    H2 8305   3.186   3.817   5.059
 2788TIP3   OH2 8306   6.829   2.075   4.692
 2788TIP3    H1 8307   6.740   2.046   4.674
 2788TIP3    H2 8308   6.884   2.020   4.636
 2789TIP3   OH2 8309   0.736   3.990   1.470
 2789TIP3    H1 8310   0.809   4.047   1.493
 2789TIP3    H2 8311   0.709   3.951   1.553
 2790TIP3   OH2 8312   0.507   1.864   2.915
 2790TIP3    H1 8313   0.440   1.815   2.868
 2790TIP3    H2 8314   0.474   1.871   3.004
 2791TIP3   OH2 8315   3.984   4.554   6.294
 2791TIP3    H1 8316   3.901   4.552   6.342
 2791TIP3    H2 8317   3.963   4.515   6.209
 2792TIP3   OH2 8318   6.081   6.496   6.245
 2792TIP3    H1 8319   6.041   6.558   6.184
 2792TIP3    H2 8320   6.175   6.504   6.230
 2793TIP3   OH2 8321   5.154   0.533   4.126
 2793TIP3    H1 8322   5.241   0.494   4.123
 2793TIP3    H2 8323   5.153   0.595   4.053
 2794TIP3   OH2 8324   0.141   4.572   6.693
 2794TIP3    H1 8325   0.200   4.635   6.653
 2794TIP3    H2 8326   0.068   4.625   6.726
 2795TIP3   OH2 8327   7.756   4.394   5.284
 2795TIP3    H1 8328   7.666   4.387   5.252
 2795TIP3    H2 8329   7.809   4.359   5.213
 2796TIP3   OH2 8330   5.078   1.336   3.608
 2796TIP3    H1 8331   5.159   1.287   3.623
 2796TIP3    H2 8332   5.080   1.355   3.514
 2797TIP3   OH2 8333   5.139   3.610   3.780
 2797TIP3    H1 8334   5.172   3.680   3.836
 2797TIP3    H2 8335   5.094   3.550   3.840
 2798TIP3   OH2 8336   8.264   5.216   4.012
 2798TIP3    H1 8337   8.222   5.236   4.096
 2798TIP3    H2 8338   8.276   5.301   3.971
 2799TIP3   OH2 8339   5.002   3.873   0.626
 2799TIP3    H1 8340   4.922   3.912   0.659
 2799TIP3    H2 8341   4.973   3.801   0.570
 2800TIP3   OH2 8342   5.052   3.061   2.778
 2800TIP3    H1 8343   5.142   3.078   2.753
 2800TIP3    H2 8344   5.009   3.146   2.772
 2801TIP3   OH2 8345   6.406   5.657   1.224
 2801TIP3    H1 8346   6.438   5.676   1.313
 2801TIP3    H2 8347   6.422   5.738   1.176
 2802TIP3   OH2 8348   6.721   0.478   2.311
 2802TIP3    H1 8349   6.752   0.407   2.368
 2802TIP3    H2 8350   6.661   0.528   2.367
 2803TIP3   OH2 8351   7.772   7.738   1.019
 2803TIP3    H1 8352   7.863   7.734   0.992
 2803TIP3    H2 8353   7.739   7.819   0.982
 2804TIP3   OH2 8354   4.455   5.829   3.322
 2804TIP3    H1 8355   4.431   5.875   3.242
 2804TIP3    H2 8356   4.422   5.740   3.309
 2805TIP3   OH2 8357   2.929   2.874   4.812
 2805TIP3    H1 8358   2.868   2.806   4.787
 2805TIP3    H2 8359   2.904   2.950   4.759
 2806TIP3   OH2 8360   3.462   1.590   6.592
 2806TIP3    H1 8361   3.522   1.515   6.597
 2806TIP3    H2 8362   3.502   1.648   6.527
 2807TIP3   OH2 8363   2.676   0.924   0.842
 2807TIP3    H1 8364   2.672   0.828   0.839
 2807TIP3    H2 8365   2.768   0.944   0.827
 2808TIP3   OH2 8366   7.592   5.709   3.544
 2808TIP3    H1 8367   7.597   5.769   3.469
 2808TIP3    H2 8368   7.532   5.640   3.516
 2809TIP3   OH2 8369   8.225   5.404   6.006
 2809TIP3    H1 8370   8.222   5.308   6.009
 2809TIP3    H2 8371   8.319   5.425   6.008
 2810TIP3   OH2 8372   3.399   2.631   3.928
 2810TIP3    H1 8373   3.443   2.547   3.940
 2810TIP3    H2 8374   3.307   2.609   3.913
 2811TIP3   OH2 8375   1.232   3.099   5.956
 2811TIP3    H1 8376   1.320   3.108   5.920
 2811TIP3    H2 8377   1.233   3.016   6.003
 2812TIP3   OH2 8378   7.111   0.598   6.385
 2812TIP3    H1 8379   7.114   0.575   6.478
 2812TIP3    H2 8380   7.181   0.661   6.374
 2813TIP3   OH2 8381   4.199   7.508   6.669
 2813TIP3    H1 8382   4.214   7.464   6.752
 2813TIP3    H2 8383   4.111   7.546   6.677
 2814TIP3   OH2 8384   5.927   7.321   2.296
 2814TIP3    H1 8385   5.871   7.397   2.281
 2814TIP3    H2 8386   5.877   7.265   2.355
 2815TIP3   OH2 8387   0.391   6.350   0.262
 2815TIP3    H1 8388   0.320   6.381   0.318
 2815TIP3    H2 8389   0.469   6.395   0.296
 2816TIP3   OH2 8390   4.558   5.069   5.197
 2816TIP3    H1 8391   4.637   5.045   5.246
 2816TIP3    H2 8392   4.589   5.126   5.127
 2817TIP3   OH2 8393   6.128   1.941   5.525
 2817TIP3    H1 8394   6.167   1.938   5.613
 2817TIP3    H2 8395   6.141   2.031   5.497
 2818TIP3   OH2 8396   0.726   4.794   6.607
 2818TIP3    H1 8397   0.677   4.861   6.654
 2818TIP3    H2 8398   0.661   4.748   6.554
 2819TIP3   OH2 8399   6.622   5.720   2.483
 2819TIP3    H1 8400   6.692   5.661   2.510
 2819TIP3    H2 8401   6.634   5.729   2.388
 2820TIP3   OH2 8402   7.306   1.102   4.458
 2820TIP3    H1 8403   7.268   1.044   4.393
 2820TIP3    H2 8404   7.234   1.119   4.520
 2821TIP3   OH2 8405   4.052   1.823   1.840
 2821TIP3    H1 8406   3.982   1.877   1.804
 2821TIP3    H2 8407   4.131   1.876   1.830
 2822TIP3   OH2 8408   2.834   6.135   1.867
 2822TIP3    H1 8409   2.903   6.077   1.897
 2822TIP3    H2 8410   2.807   6.100   1.783
 2823TIP3   OH2 8411   5.448   3.952   3.741
 2823TIP3    H1 8412   5.464   3.897   3.664
 2823TIP3    H2 8413   5.384   3.903   3.792
 2824TIP3   OH2 8414   5.427   5.592   4.655
 2824TIP3    H1 8415   5.522   5.586   4.668
 2824TIP3    H2 8416   5.413   5.561   4.566
 2825TIP3   OH2 8417   3.758   5.985   1.277
 2825TIP3    H1 8418   3.758   5.996   1.182
 2825TIP3    H2 8419   3.682   6.035   1.307
 2826TIP3   OH2 8420   7.043   4.828   0.867
 2826TIP3    H1 8421   6.990   4.801   0.941
 2826TIP3    H2 8422   6.986   4.816   0.791
 2827TIP3   OH2 8423   7.171   5.172   3.604
 2827TIP3    H1 8424   7.119   5.241   3.645
 2827TIP3    H2 8425   7.181   5.200   3.513
 2828TIP3   OH2 8426   7.571   2.962   0.833
 2828TIP3    H1 8427   7.499   2.923   0.883
 2828TIP3    H2 8428   7.618   2.887   0.796
 2829TIP3   OH2 8429   4.894   2.261   0.293
 2829TIP3    H1 8430   4.869   2.238   0.382
 2829TIP3    H2 8431   4.820   2.311   0.258
 2830TIP3   OH2 8432   7.138   2.113   5.831
 2830TIP3    H1 8433   7.126   2.018   5.839
 2830TIP3    H2 8434   7.085   2.137   5.755
 2831TIP3   OH2 8435   5.877   3.405   0.327
 2831TIP3    H1 8436   5.840   3.366   0.406
 2831TIP3    H2 8437   5.829   3.488   0.317
 2832TIP3   OH2 8438   3.795   5.166   3.627
 2832TIP3    H1 8439   3.890   5.162   3.638
 2832TIP3    H2 8440   3.761   5.170   3.716
 2833TIP3   OH2 8441   7.787   5.541   5.841
 2833TIP3    H1 8442   7.753   5.485   5.910
 2833TIP3    H2 8443   7.882   5.539   5.853
 2834TIP3   OH2 8444   4.397   6.819   1.375
 2834TIP3    H1 8445   4.487   6.849   1.360
 2834TIP3    H2 8446   4.391   6.737   1.326
 2835TIP3   OH2 8447   5.019   0.460   4.592
 2835TIP3    H1 8448   4.991   0.389   4.534
 2835TIP3    H2 8449   5.043   0.531   4.532
 2836TIP3   OH2 8450   1.925   4.957   1.359
 2836TIP3    H1 8451   1.882   4.966   1.444
 2836TIP3    H2 8452   1.961   5.044   1.341
 2837TIP3   OH2 8453   5.051   6.099   4.706
 2837TIP3    H1 8454   5.045   6.021   4.761
 2837TIP3    H2 8455   5.144   6.119   4.704
 2838TIP3   OH2 8456   8.033   6.695   3.966
 2838TIP3    H1 8457   8.068   6.687   3.877
 2838TIP3    H2 8458   7.992   6.610   3.983
 2839TIP3   OH2 8459   0.803   2.504   2.320
 2839TIP3    H1 8460   0.834   2.456   2.397
 2839TIP3    H2 8461   0.882   2.520   2.269
 2840TIP3   OH2 8462   4.148   0.103   3.176
 2840TIP3    H1 8463   4.193   0.022   3.200
 2840TIP3    H2 8464   4.071   0.074   3.127
 2841TIP3   OH2 8465   2.290   3.850   6.595
 2841TIP3    H1 8466   2.300   3.828   6.503
 2841TIP3    H2 8467   2.201   3.885   6.602
 2842TIP3   OH2 8468   0.521   6.525   6.504
 2842TIP3    H1 8469   0.524   6.554   6.413
 2842TIP3    H2 8470   0.479   6.439   6.501
 2843TIP3   OH2 8471   5.421   1.299   4.272
 2843TIP3    H1 8472   5.349   1.322   4.331
 2843TIP3    H2 8473   5.403   1.209   4.247
 2844TIP3   OH2 8474   4.785   3.785   6.541
 2844TIP3    H1 8475   4.705   3.774   6.490
 2844TIP3    H2 8476   4.824   3.865   6.507
 2845TIP3   OH2 8477   4.907   4.953   4.780
 2845TIP3    H1 8478   4.851   4.991   4.849
 2845TIP3    H2 8479   4.846   4.908   4.722
 2846TIP3   OH2 8480   6.849   4.907   4.523
 2846TIP3    H1 8481   6.867   4.921   4.430
 2846TIP3    H2 8482   6.933   4.880   4.560
 2847TIP3   OH2 8483   1.090   3.442   6.175
 2847TIP3    H1 8484   1.073   3.494   6.254
 2847TIP3    H2 8485   1.176   3.403   6.190
 2848TIP3   OH2 8486   6.907   0.511   1.145
 2848TIP3    H1 8487   6.869   0.501   1.232
 2848TIP3    H2 8488   6.836   0.486   1.085
 2849TIP3   OH2 8489   5.624   4.152   0.942
 2849TIP3    H1 8490   5.634   4.230   0.888
 2849TIP3    H2 8491   5.530   4.148   0.961
 2850TIP3   OH2 8492   0.346   2.234   3.643
 2850TIP3    H1 8493   0.319   2.324   3.661
 2850TIP3    H2 8494   0.268   2.182   3.659
 2851TIP3   OH2 8495   6.634   1.512   0.341
 2851TIP3    H1 8496   6.695   1.458   0.391
 2851TIP3    H2 8497   6.680   1.531   0.260
 2852TIP3   OH2 8498   4.932   0.621   6.129
 2852TIP3    H1 8499   4.841   0.644   6.113
 2852TIP3    H2 8500   4.949   0.648   6.219
 2853TIP3   OH2 8501   6.468   4.090   4.806
 2853TIP3    H1 8502   6.404   4.107   4.737
 2853TIP3    H2 8503   6.420   4.105   4.888
 2854TIP3   OH2 8504   4.243   2.117   5.537
 2854TIP3    H1 8505   4.317   2.176   5.552
 2854TIP3    H2 8506   4.193   2.118   5.619
 2855TIP3   OH2 8507   4.964   1.568   6.255
 2855TIP3    H1 8508   5.048   1.572   6.209
 2855TIP3    H2 8509   4.918   1.494   6.216
 2856TIP3   OH2 8510   5.367   6.996   0.443
 2856TIP3    H1 8511   5.278   7.018   0.471
 2856TIP3    H2 8512   5.375   6.902   0.463
 2857TIP3   OH2 8513   1.102   6.933   0.331
 2857TIP3    H1 8514   1.094   6.989   0.408
 2857TIP3    H2 8515   1.066   6.986   0.259
 2858TIP3   OH2 8516   2.850   1.274   1.061
 2858TIP3    H1 8517   2.913   1.240   0.997
 2858TIP3    H2 8518   2.782   1.316   1.008
 2859TIP3   OH2 8519   2.846   1.740   4.365
 2859TIP3    H1 8520   2.829   1.833   4.351
 2859TIP3    H2 8521   2.907   1.716   4.294
 2860TIP3   OH2 8522   3.526   2.045   1.565
 2860TIP3    H1 8523   3.535   2.140   1.575
 2860TIP3    H2 8524   3.469   2.019   1.638
 2861TIP3   OH2 8525   5.963   3.761   0.206
 2861TIP3    H1 8526   6.058   3.769   0.212
 2861TIP3    H2 8527   5.942   3.775   0.114
 2862TIP3   OH2 8528   0.530   6.524   0.948
 2862TIP3    H1 8529   0.494   6.607   0.979
 2862TIP3    H2 8530   0.617   6.520   0.987
 2863TIP3   OH2 8531   7.433   6.415   1.750
 2863TIP3    H1 8532   7.379   6.470   1.807
 2863TIP3    H2 8533   7.449   6.336   1.801
 2864TIP3   OH2 8534   1.503   3.765   5.065
 2864TIP3    H1 8535   1.426   3.721   5.029
 2864TIP3    H2 8536   1.548   3.800   4.989
 2865TIP3   OH2 8537   0.819   1.811   5.959
 2865TIP3    H1 8538   0.865   1.806   5.875
 2865TIP3    H2 8539   0.727   1.793   5.937
 2866TIP3   OH2 8540   2.365   0.580   5.051
 2866TIP3    H1 8541   2.399   0.495   5.022
 2866TIP3    H2 8542   2.279   0.586   5.010
 2867TIP3   OH2 8543   1.584   5.451   5.165
 2867TIP3    H1 8544   1.546   5.364   5.179
 2867TIP3    H2 8545   1.660   5.434   5.109
 2868TIP3   OH2 8546   4.995   6.109   1.496
 2868TIP3    H1 8547   4.995   6.135   1.588
 2868TIP3    H2 8548   4.937   6.032   1.493
 2869TIP3   OH2 8549   6.969   5.783   5.831
 2869TIP3    H1 8550   7.010   5.733   5.900
 2869TIP3    H2 8551   6.882   5.744   5.821
 2870TIP3   OH2 8552   8.116   4.474   3.627
 2870TIP3    H1 8553   8.104   4.408   3.558
 2870TIP3    H2 8554   8.116   4.424   3.708
 2871TIP3   OH2 8555   3.766   2.328   0.096
 2871TIP3    H1 8556   3.775   2.306   0.004
 2871TIP3    H2 8557   3.710   2.259   0.132
 2872TIP3   OH2 8558   3.689   7.292   2.159
 2872TIP3    H1 8559   3.671   7.374   2.114
 2872TIP3    H2 8560   3.784   7.280   2.151
 2873TIP3   OH2 8561   1.342   2.727   4.965
 2873TIP3    H1 8562   1.357   2.647   5.016
 2873TIP3    H2 8563   1.397   2.716   4.887
 2874TIP3   OH2 8564   6.540   1.538   1.156
 2874TIP3    H1 8565   6.624   1.499   1.182
 2874TIP3    H2 8566   6.486   1.463   1.132
 2875TIP3   OH2 8567   5.671   2.938   3.983
 2875TIP3    H1 8568   5.764   2.927   4.004
 2875TIP3    H2 8569   5.636   2.992   4.054
 2876TIP3   OH2 8570   7.977   5.828   3.163
 2876TIP3    H1 8571   7.963   5.761   3.096
 2876TIP3    H2 8572   8.036   5.891   3.121
 2877TIP3   OH2 8573   1.112   6.516   2.798
 2877TIP3    H1 8574   1.198   6.505   2.757
 2877TIP3    H2 8575   1.055   6.545   2.726
 2878TIP3   OH2 8576   7.691   7.688   2.329
 2878TIP3    H1 8577   7.664   7.747   2.399
 2878TIP3    H2 8578   7.750   7.626   2.372
 2879TIP3   OH2 8579   6.892   2.848   1.613
 2879TIP3    H1 8580   6.872   2.905   1.688
 2879TIP3    H2 8581   6.841   2.769   1.630
 2880TIP3   OH2 8582   0.690   1.324  -0.023
 2880TIP3    H1 8583   0.730   1.252   0.027
 2880TIP3    H2 8584   0.642   1.374   0.042
 2881TIP3   OH2 8585   5.515   1.707   3.173
 2881TIP3    H1 8586   5.607   1.719   3.194
 2881TIP3    H2 8587   5.506   1.741   3.084
 2882TIP3   OH2 8588   2.065   5.693   0.923
 2882TIP3    H1 8589   1.970   5.699   0.913
 2882TIP3    H2 8590   2.079   5.623   0.987
 2883TIP3   OH2 8591   1.752   3.103   6.378
 2883TIP3    H1 8592   1.846   3.117   6.388
 2883TIP3    H2 8593   1.725   3.063   6.461
 2884TIP3   OH2 8594   7.519   6.618   6.194
 2884TIP3    H1 8595   7.534   6.546   6.133
 2884TIP3    H2 8596   7.429   6.607   6.224
 2885TIP3   OH2 8597   4.510   6.527   0.969
 2885TIP3    H1 8598   4.461   6.451   1.002
 2885TIP3    H2 8599   4.550   6.496   0.888
 2886TIP3   OH2 8600   1.251   7.729   4.767
 2886TIP3    H1 8601   1.256   7.787   4.691
 2886TIP3    H2 8602   1.186   7.769   4.825
 2887TIP3   OH2 8603   1.709   2.543   1.717
 2887TIP3    H1 8604   1.668   2.568   1.635
 2887TIP3    H2 8605   1.752   2.459   1.698
 2888TIP3   OH2 8606   0.142   2.073   5.347
 2888TIP3    H1 8607   0.111   2.160   5.373
 2888TIP3    H2 8608   0.062   2.027   5.321
 2889TIP3   OH2 8609   3.705   1.083   0.447
 2889TIP3    H1 8610   3.755   1.048   0.373
 2889TIP3    H2 8611   3.619   1.103   0.411
 2890TIP3   OH2 8612   2.674   7.105   2.624
 2890TIP3    H1 8613   2.603   7.080   2.565
 2890TIP3    H2 8614   2.660   7.199   2.639
 2891TIP3   OH2 8615   2.795   5.260   5.930
 2891TIP3    H1 8616   2.821   5.183   5.980
 2891TIP3    H2 8617   2.762   5.225   5.847
 2892TIP3   OH2 8618   3.510   0.568   2.983
 2892TIP3    H1 8619   3.495   0.648   3.033
 2892TIP3    H2 8620   3.605   0.564   2.970
 2893TIP3   OH2 8621   7.337   7.421   0.103
 2893TIP3    H1 8622   7.246   7.449   0.103
 2893TIP3    H2 8623   7.386   7.497   0.074
 2894TIP3   OH2 8624   3.552   5.721   1.896
 2894TIP3    H1 8625   3.515   5.710   1.808
 2894TIP3    H2 8626   3.636   5.763   1.881
 2895TIP3   OH2 8627   7.284   0.681   3.776
 2895TIP3    H1 8628   7.346   0.748   3.806
 2895TIP3    H2 8629   7.338   0.603   3.763
 2896TIP3   OH2 8630   7.907   3.183   4.942
 2896TIP3    H1 8631   7.927   3.151   5.030
 2896TIP3    H2 8632   7.982   3.238   4.919
 2897TIP3   OH2 8633   3.138   4.831   2.372
 2897TIP3    H1 8634   3.154   4.763   2.439
 2897TIP3    H2 8635   3.104   4.905   2.421
 2898TIP3   OH2 8636   6.856   5.874   3.718
 2898TIP3    H1 8637   6.864   5.883   3.623
 2898TIP3    H2 8638   6.931   5.921   3.754
 2899TIP3   OH2 8639   1.396   3.463   2.464
 2899TIP3    H1 8640   1.306   3.447   2.493
 2899TIP3    H2 8641   1.416   3.552   2.493
 2900TIP3   OH2 8642   1.450   6.412   5.443
 2900TIP3    H1 8643   1.482   6.323   5.455
 2900TIP3    H2 8644   1.446   6.448   5.532
 2901TIP3   OH2 8645   5.401   7.602   3.815
 2901TIP3    H1 8646   5.428   7.690   3.790
 2901TIP3    H2 8647   5.462   7.544   3.770
 2902TIP3   OH2 8648   5.270   2.809   3.728
 2902TIP3    H1 8649   5.294   2.843   3.642
 2902TIP3    H2 8650   5.352   2.775   3.764
 2903TIP3   OH2 8651   6.994   5.407   3.601
 2903TIP3    H1 8652   7.028   5.496   3.590
 2903TIP3    H2 8653   6.905   5.410   3.567
 2904TIP3   OH2 8654   6.062   6.617   0.154
 2904TIP3    H1 8655   6.056   6.586   0.245
 2904TIP3    H2 8656   5.976   6.596   0.117
 2905TIP3   OH2 8657   1.755   7.148  -0.002
 2905TIP3    H1 8658   1.676   7.181  -0.045
 2905TIP3    H2 8659   1.755   7.190   0.084
 2906TIP3   OH2 8660   2.550   5.642   4.850
 2906TIP3    H1 8661   2.496   5.591   4.910
 2906TIP3    H2 8662   2.530   5.733   4.871
 2907TIP3   OH2 8663   0.031   6.111   4.245
 2907TIP3    H1 8664   0.034   6.028   4.197
 2907TIP3    H2 8665  -0.062   6.135   4.244
 2908TIP3   OH2 8666   3.464   5.316   4.464
 2908TIP3    H1 8667   3.534   5.252   4.482
 2908TIP3    H2 8668   3.399   5.267   4.414
 2909TIP3   OH2 8669   0.283   6.537   2.513
 2909TIP3    H1 8670   0.330   6.545   2.430
 2909TIP3    H2 8671   0.311   6.452   2.548
 2910TIP3   OH2 8672   7.762   7.289   3.771
 2910TIP3    H1 8673   7.700   7.312   3.701
 2910TIP3    H2 8674   7.713   7.230   3.828
 2911TIP3   OH2 8675   4.225   0.378   4.681
 2911TIP3    H1 8676   4.250   0.406   4.593
 2911TIP3    H2 8677   4.130   0.384   4.682
 2912TIP3   OH2 8678   6.338   1.866   5.349
 2912TIP3    H1 8679   6.298   1.792   5.303
 2912TIP3    H2 8680   6.265   1.908   5.395
 2913TIP3   OH2 8681   5.336   7.154   1.673
 2913TIP3    H1 8682   5.351   7.119   1.586
 2913TIP3    H2 8683   5.423   7.161   1.712
 2914TIP3   OH2 8684   5.001   4.856   3.486
 2914TIP3    H1 8685   4.946   4.892   3.416
 2914TIP3    H2 8686   4.985   4.914   3.561
 2915TIP3   OH2 8687   6.261   2.188   6.609
 2915TIP3    H1 8688   6.273   2.251   6.679
 2915TIP3    H2 8689   6.219   2.113   6.650
 2916TIP3   OH2 8690   7.053   0.718   2.420
 2916TIP3    H1 8691   7.023   0.674   2.341
 2916TIP3    H2 8692   7.006   0.802   2.421
 2917TIP3   OH2 8693   3.510   4.371   4.172
 2917TIP3    H1 8694   3.460   4.390   4.092
 2917TIP3    H2 8695   3.546   4.456   4.198
 2918TIP3   OH2 8696   7.746   5.625   2.652
 2918TIP3    H1 8697   7.701   5.698   2.694
 2918TIP3    H2 8698   7.805   5.591   2.719
 2919TIP3   OH2 8699   1.332   7.307   5.717
 2919TIP3    H1 8700   1.419   7.280   5.685
 2919TIP3    H2 8701   1.345   7.397   5.747
 2920TIP3   OH2 8702   1.202   1.557   0.627
 2920TIP3    H1 8703   1.296   1.538   0.626
 2920TIP3    H2 8704   1.181   1.575   0.536
 2921TIP3   OH2 8705   6.719   1.030   3.894
 2921TIP3    H1 8706   6.663   1.007   3.969
 2921TIP3    H2 8707   6.689   1.117   3.868
 2922TIP3   OH2 8708   1.723   0.092   2.921
 2922TIP3    H1 8709   1.636   0.131   2.930
 2922TIP3    H2 8710   1.705   0.001   2.897
 2923TIP3   OH2 8711   2.451   7.362   1.832
 2923TIP3    H1 8712   2.538   7.324   1.821
 2923TIP3    H2 8713   2.419   7.375   1.743
 2924TIP3   OH2 8714   1.856   0.040   0.242
 2924TIP3    H1 8715   1.915   0.098   0.195
 2924TIP3    H2 8716   1.904  -0.043   0.248
 2925TIP3   OH2 8717   1.772   0.190   1.748
 2925TIP3    H1 8718   1.737   0.106   1.718
 2925TIP3    H2 8719   1.855   0.168   1.791
 2926TIP3   OH2 8720   6.861   5.947   6.398
 2926TIP3    H1 8721   6.779   5.898   6.391
 2926TIP3    H2 8722   6.837   6.027   6.444
 2927TIP3   OH2 8723   4.219   4.327   6.594
 2927TIP3    H1 8724   4.205   4.294   6.682
 2927TIP3    H2 8725   4.312   4.348   6.591
 2928TIP3   OH2 8726   4.812   7.188   2.541
 2928TIP3    H1 8727   4.730   7.162   2.584
 2928TIP3    H2 8728   4.787   7.255   2.478
 2929TIP3   OH2 8729   5.061   2.644   3.629
 2929TIP3    H1 8730   5.144   2.690   3.642
 2929TIP3    H2 8731   5.068   2.607   3.541
 2930TIP3   OH2 8732   7.533   1.839   2.537
 2930TIP3    H1 8733   7.533   1.867   2.628
 2930TIP3    H2 8734   7.625   1.819   2.518
 2931TIP3   OH2 8735   0.009   0.621   2.514
 2931TIP3    H1 8736  -0.012   0.531   2.538
 2931TIP3    H2 8737   0.022   0.619   2.419
 2932TIP3   OH2 8738   4.512   5.538   3.570
 2932TIP3    H1 8739   4.532   5.456   3.614
 2932TIP3    H2 8740   4.598   5.578   3.553
 2933TIP3   OH2 8741   7.843   1.466   4.351
 2933TIP3    H1 8742   7.747   1.469   4.350
 2933TIP3    H2 8743   7.870   1.527   4.283
 2934TIP3   OH2 8744   3.409   4.250   2.966
 2934TIP3    H1 8745   3.338   4.295   2.920
 2934TIP3    H2 8746   3.455   4.201   2.897
 2935TIP3   OH2 8747   3.099   6.211   1.552
 2935TIP3    H1 8748   3.028   6.267   1.582
 2935TIP3    H2 8749   3.107   6.229   1.458
 2936TIP3   OH2 8750   6.418   1.722   6.062
 2936TIP3    H1 8751   6.499   1.673   6.077
 2936TIP3    H2 8752   6.350   1.656   6.052
 2937TIP3   OH2 8753   2.457   7.713   2.698
 2937TIP3    H1 8754   2.383   7.716   2.638
 2937TIP3    H2 8755   2.522   7.658   2.654
 2938TIP3   OH2 8756   5.786   3.003   2.154
 2938TIP3    H1 8757   5.826   2.924   2.191
 2938TIP3    H2 8758   5.692   2.990   2.166
 2939TIP3   OH2 8759   7.880   2.143   0.917
 2939TIP3    H1 8760   7.806   2.159   0.859
 2939TIP3    H2 8761   7.842   2.143   1.005
 2940TIP3   OH2 8762   4.172   2.868   2.683
 2940TIP3    H1 8763   4.224   2.793   2.714
 2940TIP3    H2 8764   4.229   2.912   2.620
 2941TIP3   OH2 8765   6.544   1.885   4.470
 2941TIP3    H1 8766   6.576   1.797   4.492
 2941TIP3    H2 8767   6.539   1.929   4.555
 2942TIP3   OH2 8768   3.851   7.474   0.784
 2942TIP3    H1 8769   3.758   7.467   0.764
 2942TIP3    H2 8770   3.886   7.387   0.768
 2943TIP3   OH2 8771   1.261   5.242   1.167
 2943TIP3    H1 8772   1.317   5.266   1.092
 2943TIP3    H2 8773   1.247   5.325   1.213
 2944TIP3   OH2 8774   0.505   5.871   2.912
 2944TIP3    H1 8775   0.571   5.887   2.980
 2944TIP3    H2 8776   0.463   5.955   2.898
 2945TIP3   OH2 8777   2.444   6.414   1.373
 2945TIP3    H1 8778   2.410   6.327   1.392
 2945TIP3    H2 8779   2.384   6.473   1.418
 2946TIP3   OH2 8780   4.285   7.208   3.870
 2946TIP3    H1 8781   4.240   7.164   3.797
 2946TIP3    H2 8782   4.229   7.282   3.891
 2947TIP3   OH2 8783   4.865   1.812   3.394
 2947TIP3    H1 8784   4.803   1.843   3.460
 2947TIP3    H2 8785   4.887   1.723   3.421
 2948TIP3   OH2 8786   6.009   2.900   6.066
 2948TIP3    H1 8787   6.079   2.931   6.009
 2948TIP3    H2 8788   5.997   2.808   6.043
 2949TIP3   OH2 8789   7.664   1.612   2.271
 2949TIP3    H1 8790   7.666   1.637   2.179
 2949TIP3    H2 8791   7.736   1.659   2.311
 2950TIP3   OH2 8792   5.552   5.212   4.425
 2950TIP3    H1 8793   5.491   5.173   4.487
 2950TIP3    H2 8794   5.602   5.276   4.477
 2951TIP3   OH2 8795   3.838   2.865   0.319
 2951TIP3    H1 8796   3.845   2.770   0.305
 2951TIP3    H2 8797   3.925   2.898   0.297
 2952TIP3   OH2 8798   2.875   6.475   0.306
 2952TIP3    H1 8799   2.895   6.537   0.376
 2952TIP3    H2 8800   2.813   6.521   0.250
 2953TIP3   OH2 8801   2.016   6.883   4.433
 2953TIP3    H1 8802   2.023   6.853   4.523
 2953TIP3    H2 8803   2.053   6.972   4.434
 2954TIP3   OH2 8804   4.082   7.432   3.614
 2954TIP3    H1 8805   4.152   7.392   3.666
 2954TIP3    H2 8806   4.015   7.455   3.678
 2955TIP3   OH2 8807   2.665   7.083   0.191
 2955TIP3    H1 8808   2.603   7.056   0.123
 2955TIP3    H2 8809   2.744   7.032   0.173
 2956TIP3   OH2 8810   4.745   4.112   3.447
 2956TIP3    H1 8811   4.784   4.056   3.513
 2956TIP3    H2 8812   4.787   4.197   3.460
 2957TIP3   OH2 8813   4.462   3.366   6.517
 2957TIP3    H1 8814   4.472   3.358   6.612
 2957TIP3    H2 8815   4.391   3.428   6.505
 2958TIP3   OH2 8816   3.427   5.904   5.481
 2958TIP3    H1 8817   3.357   5.906   5.416
 2958TIP3    H2 8818   3.508   5.911   5.429
 2959TIP3   OH2 8819   8.081   0.740   0.695
 2959TIP3    H1 8820   8.047   0.815   0.742
 2959TIP3    H2 8821   8.030   0.666   0.726
 2960TIP3   OH2 8822   3.757   4.902   0.745
 2960TIP3    H1 8823   3.743   4.934   0.656
 2960TIP3    H2 8824   3.682   4.935   0.795
 2961TIP3   OH2 8825   2.471   2.143   3.877
 2961TIP3    H1 8826   2.498   2.148   3.785
 2961TIP3    H2 8827   2.526   2.074   3.914
 2962TIP3   OH2 8828   2.340   6.453   4.291
 2962TIP3    H1 8829   2.417   6.445   4.234
 2962TIP3    H2 8830   2.291   6.527   4.255
 2963TIP3   OH2 8831   0.916   4.746   0.977
 2963TIP3    H1 8832   0.876   4.689   0.912
 2963TIP3    H2 8833   1.010   4.745   0.956
 2964TIP3   OH2 8834   8.219   4.293   5.764
 2964TIP3    H1 8835   8.258   4.295   5.676
 2964TIP3    H2 8836   8.154   4.223   5.760
 2965TIP3   OH2 8837   2.409   4.285   0.973
 2965TIP3    H1 8838   2.345   4.356   0.967
 2965TIP3    H2 8839   2.444   4.291   1.062
 2966TIP3   OH2 8840   5.934   4.175   2.948
 2966TIP3    H1 8841   5.932   4.222   2.865
 2966TIP3    H2 8842   5.904   4.239   3.013
 2967TIP3   OH2 8843   3.736   7.768   3.163
 2967TIP3    H1 8844   3.739   7.823   3.085
 2967TIP3    H2 8845   3.827   7.754   3.187
 2968TIP3   OH2 8846   7.095   0.592  -0.006
 2968TIP3    H1 8847   7.172   0.547  -0.041
 2968TIP3    H2 8848   7.123   0.627   0.078
 2969TIP3   OH2 8849   7.012   6.097   0.504
 2969TIP3    H1 8850   7.100   6.060   0.512
 2969TIP3    H2 8851   6.978   6.059   0.423
 2970TIP3   OH2 8852   5.098   0.653   3.864
 2970TIP3    H1 8853   5.115   0.747   3.852
 2970TIP3    H2 8854   5.006   0.643   3.841
 2971TIP3   OH2 8855   0.480   6.781   4.158
 2971TIP3    H1 8856   0.476   6.692   4.192
 2971TIP3    H2 8857   0.404   6.787   4.099
 2972TIP3   OH2 8858   1.079   1.703   4.133
 2972TIP3    H1 8859   1.111   1.690   4.223
 2972TIP3    H2 8860   1.025   1.626   4.115
 2973TIP3   OH2 8861   0.657   5.752   1.499
 2973TIP3    H1 8862   0.644   5.843   1.523
 2973TIP3    H2 8863   0.752   5.741   1.498
 2974TIP3   OH2 8864   7.020   3.023   6.132
 2974TIP3    H1 8865   7.062   2.945   6.167
 2974TIP3    H2 8866   6.933   3.024   6.172
 2975TIP3   OH2 8867   6.269   5.598   0.589
 2975TIP3    H1 8868   6.202   5.546   0.633
 2975TIP3    H2 8869   6.343   5.539   0.579
 2976TIP3   OH2 8870   0.104   7.255   2.644
 2976TIP3    H1 8871   0.172   7.213   2.698
 2976TIP3    H2 8872   0.135   7.242   2.554
 2977TIP3   OH2 8873   5.742   1.450   0.984
 2977TIP3    H1 8874   5.765   1.531   1.030
 2977TIP3    H2 8875   5.777   1.380   1.040
 2978TIP3   OH2 8876   2.700   2.853   2.566
 2978TIP3    H1 8877   2.702   2.867   2.471
 2978TIP3    H2 8878   2.611   2.874   2.591
 2979TIP3   OH2 8879   4.426   6.403   3.177
 2979TIP3    H1 8880   4.369   6.400   3.254
 2979TIP3    H2 8881   4.371   6.374   3.105
 2980TIP3   OH2 8882   3.706   1.073   3.169
 2980TIP3    H1 8883   3.723   1.028   3.086
 2980TIP3    H2 8884   3.620   1.114   3.156
 2981TIP3   OH2 8885   4.877   6.547   3.775
 2981TIP3    H1 8886   4.884   6.609   3.703
 2981TIP3    H2 8887   4.797   6.498   3.756
 2982TIP3   OH2 8888   2.219   7.305   3.064
 2982TIP3    H1 8889   2.249   7.311   3.155
 2982TIP3    H2 8890   2.294   7.271   3.016
 2983TIP3   OH2 8891   1.553   6.625   4.415
 2983TIP3    H1 8892   1.544   6.530   4.407
 2983TIP3    H2 8893   1.647   6.639   4.431
 2984TIP3   OH2 8894   3.870   6.702   5.583
 2984TIP3    H1 8895   3.924   6.706   5.504
 2984TIP3    H2 8896   3.833   6.790   5.590
 2985TIP3   OH2 8897   1.661   6.184   1.776
 2985TIP3    H1 8898   1.621   6.169   1.690
 2985TIP3    H2 8899   1.683   6.277   1.776
 2986TIP3   OH2 8900   3.814   6.878   6.114
 2986TIP3    H1 8901   3.865   6.948   6.153
 2986TIP3    H2 8902   3.738   6.923   6.075
 2987TIP3   OH2 8903   7.599   0.385   0.956
 2987TIP3    H1 8904   7.627   0.353   1.042
 2987TIP3    H2 8905   7.650   0.332   0.894
 2988TIP3   OH2 8906   1.317   2.591   5.310
 2988TIP3    H1 8907   1.317   2.551   5.223
 2988TIP3    H2 8908   1.305   2.518   5.370
 2989TIP3   OH2 8909   7.081   1.930   3.609
 2989TIP3    H1 8910   7.024   1.903   3.681
 2989TIP3    H2 8911   7.168   1.936   3.647
 2990TIP3   OH2 8912   5.490   6.706   0.965
 2990TIP3    H1 8913   5.421   6.730   1.027
 2990TIP3    H2 8914   5.511   6.788   0.920
 2991TIP3   OH2 8915   0.710   3.629   1.552
 2991TIP3    H1 8916   0.787   3.650   1.498
 2991TIP3    H2 8917   0.725   3.675   1.634
 2992TIP3   OH2 8918   2.219   2.849   1.161
 2992TIP3    H1 8919   2.264   2.796   1.095
 2992TIP3    H2 8920   2.152   2.790   1.196
 2993TIP3   OH2 8921   2.546   5.790   0.641
 2993TIP3    H1 8922   2.620   5.731   0.657
 2993TIP3    H2 8923   2.470   5.740   0.669
 2994TIP3   OH2 8924   3.960   0.829   3.289
 2994TIP3    H1 8925   3.926   0.918   3.286
 2994TIP3    H2 8926   4.053   0.838   3.267
 2995TIP3   OH2 8927   1.362   2.069   3.155
 2995TIP3    H1 8928   1.322   2.008   3.093
 2995TIP3    H2 8929   1.455   2.064   3.136
 2996TIP3   OH2 8930   7.329   1.930   3.731
 2996TIP3    H1 8931   7.370   1.853   3.693
 2996TIP3    H2 8932   7.338   1.918   3.826
 2997TIP3   OH2 8933   1.914   6.361   0.787
 2997TIP3    H1 8934   1.979   6.292   0.776
 2997TIP3    H2 8935   1.899   6.364   0.882
 2998TIP3   OH2 8936   3.390   4.219   0.430
 2998TIP3    H1 8937   3.430   4.219   0.343
 2998TIP3    H2 8938   3.387   4.312   0.455
 2999TIP3   OH2 8939   0.928   1.254   0.671
 2999TIP3    H1 8940   0.851   1.197   0.658
 2999TIP3    H2 8941   0.930   1.268   0.766
 3000TIP3   OH2 8942   7.145   0.446   3.984
 3000TIP3    H1 8943   7.128   0.357   4.013
 3000TIP3    H2 8944   7.148   0.440   3.889
 3001TIP3   OH2 8945   1.336   7.270   0.932
 3001TIP3    H1 8946   1.338   7.335   0.862
 3001TIP3    H2 8947   1.364   7.317   1.010
 3002TIP3   OH2 8948   2.388   3.701   2.258
 3002TIP3    H1 8949   2.422   3.686   2.347
 3002TIP3    H2 8950   2.293   3.699   2.268
 3003TIP3   OH2 8951   6.509   1.887   0.125
 3003TIP3    H1 8952   6.414   1.900   0.130
 3003TIP3    H2 8953   6.519   1.809   0.069
 3004TIP3   OH2 8954   4.958   5.018   0.548
 3004TIP3    H1 8955   5.007   5.072   0.610
 3004TIP3    H2 8956   4.896   4.970   0.603
 3005TIP3   OH2 8957   2.195   4.586   1.089
 3005TIP3    H1 8958   2.187   4.562   1.181
 3005TIP3    H2 8959   2.182   4.681   1.087
 3006TIP3   OH2 8960   2.262   5.036   2.681
 3006TIP3    H1 8961   2.284   5.113   2.629
 3006TIP3    H2 8962   2.332   5.028   2.745
 3007TIP3   OH2 8963   5.340   4.409   4.836
 3007TIP3    H1 8964   5.387   4.333   4.870
 3007TIP3    H2 8965   5.259   4.412   4.887
 3008TIP3   OH2 8966   6.859   4.700   6.113
 3008TIP3    H1 8967   6.832   4.789   6.091
 3008TIP3    H2 8968   6.955   4.703   6.108
 3009TIP3   OH2 8969   7.604   4.578   1.973
 3009TIP3    H1 8970   7.669   4.563   2.041
 3009TIP3    H2 8971   7.520   4.575   2.019
 3010TIP3   OH2 8972   5.184   7.667   0.301
 3010TIP3    H1 8973   5.242   7.671   0.225
 3010TIP3    H2 8974   5.097   7.647   0.264
 3011TIP3   OH2 8975   6.112   3.471   0.212
 3011TIP3    H1 8976   6.109   3.492   0.118
 3011TIP3    H2 8977   6.028   3.430   0.230
 3012TIP3   OH2 8978   1.686   2.175   1.193
 3012TIP3    H1 8979   1.763   2.135   1.152
 3012TIP3    H2 8980   1.638   2.215   1.120
 3013TIP3   OH2 8981   1.159   6.137   1.182
 3013TIP3    H1 8982   1.183   6.196   1.254
 3013TIP3    H2 8983   1.106   6.069   1.223
 3014TIP3   OH2 8984   3.047   1.986   3.637
 3014TIP3    H1 8985   3.125   2.041   3.649
 3014TIP3    H2 8986   3.078   1.911   3.586
 3015TIP3   OH2 8987   5.825   1.157   3.848
 3015TIP3    H1 8988   5.889   1.189   3.912
 3015TIP3    H2 8989   5.872   1.157   3.765
 3016TIP3   OH2 8990   2.938   4.767   6.179
 3016TIP3    H1 8991   3.013   4.752   6.121
 3016TIP3    H2 8992   2.978   4.788   6.264
 3017TIP3   OH2 8993   5.982   7.802   5.113
 3017TIP3    H1 8994   5.942   7.719   5.136
 3017TIP3    H2 8995   6.059   7.808   5.169
 3018TIP3   OH2 8996   3.494   0.732   3.862
 3018TIP3    H1 8997   3.516   0.654   3.812
 3018TIP3    H2 8998   3.545   0.802   3.821
 3019TIP3   OH2 8999   4.044   6.656   3.852
 3019TIP3    H1 9000   4.057   6.701   3.768
 3019TIP3    H2 9001   3.973   6.704   3.895
 3020TIP3   OH2 9002   0.660   5.300   5.422
 3020TIP3    H1 9003   0.754   5.300   5.407
 3020TIP3    H2 9004   0.649   5.343   5.507
 3021TIP3   OH2 9005   3.972   2.906   5.718
 3021TIP3    H1 9006   3.978   2.814   5.743
 3021TIP3    H2 9007   4.059   2.929   5.685
 3022TIP3   OH2 9008   7.199   3.848   2.267
 3022TIP3    H1 9009   7.189   3.770   2.213
 3022TIP3    H2 9010   7.170   3.821   2.354
 3023TIP3   OH2 9011   0.361   0.741   4.286
 3023TIP3    H1 9012   0.390   0.674   4.224
 3023TIP3    H2 9013   0.266   0.741   4.278
 3024TIP3   OH2 9014   7.141   3.660   0.347
 3024TIP3    H1 9015   7.118   3.578   0.390
 3024TIP3    H2 9016   7.149   3.723   0.420
 3025TIP3   OH2 9017   8.214   1.311   5.333
 3025TIP3    H1 9018   8.178   1.224   5.314
 3025TIP3    H2 9019   8.143   1.371   5.314
 3026TIP3   OH2 9020   7.433   6.579   3.489
 3026TIP3    H1 9021   7.518   6.572   3.445
 3026TIP3    H2 9022   7.452   6.626   3.570
 3027TIP3   OH2 9023   6.217   3.694   5.492
 3027TIP3    H1 9024   6.204   3.653   5.577
 3027TIP3    H2 9025   6.307   3.673   5.468
 3028TIP3   OH2 9026   1.295   2.284   4.566
 3028TIP3    H1 9027   1.228   2.279   4.634
 3028TIP3    H2 9028   1.270   2.360   4.513
 3029TIP3   OH2 9029   5.611   3.421   1.851
 3029TIP3    H1 9030   5.574   3.477   1.920
 3029TIP3    H2 9031   5.535   3.391   1.802
 3030TIP3   OH2 9032   1.642   0.034   2.442
 3030TIP3    H1 9033   1.564   0.023   2.495
 3030TIP3    H2 9034   1.706   0.074   2.501
 3031TIP3   OH2 9035   4.759   6.131   2.196
 3031TIP3    H1 9036   4.677   6.127   2.244
 3031TIP3    H2 9037   4.820   6.078   2.248
 3032TIP3   OH2 9038   5.186   2.407   4.066
 3032TIP3    H1 9039   5.282   2.413   4.057
 3032TIP3    H2 9040   5.167   2.314   4.056
 3033TIP3   OH2 9041   0.295   1.434   5.786
 3033TIP3    H1 9042   0.350   1.420   5.709
 3033TIP3    H2 9043   0.346   1.400   5.859
 3034TIP3   OH2 9044   3.307   6.250   2.991
 3034TIP3    H1 9045   3.298   6.344   2.977
 3034TIP3    H2 9046   3.256   6.209   2.921
 3035TIP3   OH2 9047   1.427   0.245   2.682
 3035TIP3    H1 9048   1.382   0.232   2.765
 3035TIP3    H2 9049   1.408   0.166   2.631
 3036TIP3   OH2 9050   3.832   4.360   3.166
 3036TIP3    H1 9051   3.818   4.362   3.260
 3036TIP3    H2 9052   3.927   4.350   3.156
 3037TIP3   OH2 9053   3.247   3.181   0.630
 3037TIP3    H1 9054   3.262   3.087   0.621
 3037TIP3    H2 9055   3.161   3.195   0.590
 3038TIP3   OH2 9056   1.462   2.953   1.817
 3038TIP3    H1 9057   1.498   2.946   1.905
 3038TIP3    H2 9058   1.383   2.899   1.818
 3039TIP3   OH2 9059   2.249   6.616   6.044
 3039TIP3    H1 9060   2.213   6.601   6.132
 3039TIP3    H2 9061   2.239   6.710   6.029
 3040TIP3   OH2 9062   7.346   6.940   4.157
 3040TIP3    H1 9063   7.392   7.023   4.158
 3040TIP3    H2 9064   7.266   6.956   4.207
 3041TIP3   OH2 9065   4.499   1.731   1.778
 3041TIP3    H1 9066   4.539   1.762   1.860
 3041TIP3    H2 9067   4.511   1.636   1.780
 3042TIP3   OH2 9068   1.094   5.123   1.347
 3042TIP3    H1 9069   1.157   5.187   1.313
 3042TIP3    H2 9070   1.073   5.068   1.271
 3043TIP3   OH2 9071   2.367   7.493   0.632
 3043TIP3    H1 9072   2.347   7.447   0.713
 3043TIP3    H2 9073   2.366   7.425   0.564
 3044TIP3   OH2 9074   4.532   0.844   3.244
 3044TIP3    H1 9075   4.571   0.809   3.164
 3044TIP3    H2 9076   4.587   0.809   3.315
 3045TIP3   OH2 9077   7.569   0.590   5.742
 3045TIP3    H1 9078   7.628   0.662   5.717
 3045TIP3    H2 9079   7.520   0.570   5.663
 3046TIP3   OH2 9080   7.796   2.136   6.166
 3046TIP3    H1 9081   7.878   2.087   6.156
 3046TIP3    H2 9082   7.786   2.148   6.260
 3047TIP3   OH2 9083   0.013   2.142   5.955
 3047TIP3    H1 9084   0.056   2.114   6.035
 3047TIP3    H2 9085   0.084   2.144   5.890
 3048TIP3   OH2 9086   0.592   3.241   0.328
 3048TIP3    H1 9087   0.598   3.156   0.371
 3048TIP3    H2 9088   0.599   3.304   0.400
 3049TIP3   OH2 9089   7.539   1.384   2.297
 3049TIP3    H1 9090   7.585   1.468   2.302
 3049TIP3    H2 9091   7.458   1.399   2.345
 3050TIP3   OH2 9092   5.599   7.441   0.775
 3050TIP3    H1 9093   5.536   7.455   0.846
 3050TIP3    H2 9094   5.615   7.528   0.740
 3051TIP3   OH2 9095   2.003   0.075   1.863
 3051TIP3    H1 9096   2.084   0.120   1.884
 3051TIP3    H2 9097   1.995   0.008   1.931
 3052TIP3   OH2 9098   4.841   5.814   3.784
 3052TIP3    H1 9099   4.855   5.854   3.698
 3052TIP3    H2 9100   4.816   5.886   3.840
 3053TIP3   OH2 9101   4.177   4.236   1.263
 3053TIP3    H1 9102   4.118   4.185   1.318
 3053TIP3    H2 9103   4.255   4.248   1.317
 3054TIP3   OH2 9104   7.094   6.674   0.787
 3054TIP3    H1 9105   7.009   6.631   0.794
 3054TIP3    H2 9106   7.116   6.699   0.876
 3055TIP3   OH2 9107   7.080   7.482   0.090
 3055TIP3    H1 9108   7.086   7.577   0.098
 3055TIP3    H2 9109   6.986   7.463   0.097
 3056TIP3   OH2 9110   1.190   7.434   3.192
 3056TIP3    H1 9111   1.172   7.405   3.102
 3056TIP3    H2 9112   1.256   7.502   3.182
 3057TIP3   OH2 9113   2.380   5.495   5.418
 3057TIP3    H1 9114   2.428   5.466   5.341
 3057TIP3    H2 9115   2.318   5.425   5.436
 3058TIP3   OH2 9116   6.144   7.140   4.860
 3058TIP3    H1 9117   6.053   7.159   4.884
 3058TIP3    H2 9118   6.183   7.226   4.843
 3059TIP3   OH2 9119   1.924   4.070   1.361
 3059TIP3    H1 9120   1.934   4.024   1.278
 3059TIP3    H2 9121   2.004   4.049   1.410
 3060TIP3   OH2 9122   2.417   5.053   3.863
 3060TIP3    H1 9123   2.478   5.042   3.936
 3060TIP3    H2 9124   2.451   4.995   3.794
 3061TIP3   OH2 9125   1.523   6.509   2.495
 3061TIP3    H1 9126   1.544   6.602   2.495
 3061TIP3    H2 9127   1.594   6.468   2.445
 3062TIP3   OH2 9128   2.053   0.118   0.555
 3062TIP3    H1 9129   2.101   0.103   0.474
 3062TIP3    H2 9130   1.987   0.049   0.558
 3063TIP3   OH2 9131   0.326   2.566   5.828
 3063TIP3    H1 9132   0.321   2.472   5.846
 3063TIP3    H2 9133   0.385   2.601   5.895
 3064TIP3   OH2 9134   2.390   3.311   3.355
 3064TIP3    H1 9135   2.421   3.233   3.310
 3064TIP3    H2 9136   2.385   3.378   3.287
 3065TIP3   OH2 9137   4.935   7.503   4.253
 3065TIP3    H1 9138   5.001   7.563   4.288
 3065TIP3    H2 9139   4.955   7.498   4.160
 3066TIP3   OH2 9140   0.393   0.639   2.769
 3066TIP3    H1 9141   0.379   0.626   2.863
 3066TIP3    H2 9142   0.308   0.667   2.736
 3067TIP3   OH2 9143   4.777   2.178   4.423
 3067TIP3    H1 9144   4.703   2.201   4.478
 3067TIP3    H2 9145   4.739   2.164   4.336
 3068TIP3   OH2 9146   6.055   4.748   3.463
 3068TIP3    H1 9147   6.066   4.709   3.550
 3068TIP3    H2 9148   6.138   4.732   3.419
 3069TIP3   OH2 9149   8.001   2.026   2.262
 3069TIP3    H1 9150   8.049   2.069   2.333
 3069TIP3    H2 9151   7.909   2.035   2.287
 3070TIP3   OH2 9152   7.394   1.027   0.168
 3070TIP3    H1 9153   7.486   1.051   0.167
 3070TIP3    H2 9154   7.394   0.933   0.185
 3071TIP3   OH2 9155   1.105   1.150   3.080
 3071TIP3    H1 9156   1.028   1.107   3.114
 3071TIP3    H2 9157   1.103   1.131   2.986
 3072TIP3   OH2 9158   3.951   5.088   5.414
 3072TIP3    H1 9159   3.891   5.036   5.467
 3072TIP3    H2 9160   3.894   5.139   5.357
 3073TIP3   OH2 9161   6.544   5.881   4.976
 3073TIP3    H1 9162   6.507   5.794   4.961
 3073TIP3    H2 9163   6.545   5.922   4.890
 3074TIP3   OH2 9164   3.832   0.190   3.845
 3074TIP3    H1 9165   3.842   0.275   3.804
 3074TIP3    H2 9166   3.901   0.187   3.912
 3075TIP3   OH2 9167   8.107   2.758   3.192
 3075TIP3    H1 9168   8.014   2.741   3.206
 3075TIP3    H2 9169   8.151   2.693   3.246
 3076TIP3   OH2 9170   1.391   0.245   6.018
 3076TIP3    H1 9171   1.463   0.307   6.007
 3076TIP3    H2 9172   1.339   0.282   6.090
 3077TIP3   OH2 9173   2.508   5.631   4.554
 3077TIP3    H1 9174   2.490   5.619   4.647
 3077TIP3    H2 9175   2.536   5.545   4.524
 3078TIP3   OH2 9176   5.546   1.365   2.697
 3078TIP3    H1 9177   5.556   1.390   2.605
 3078TIP3    H2 9178   5.635   1.348   2.727
 3079TIP3   OH2 9179   3.653   6.822   2.237
 3079TIP3    H1 9180   3.626   6.803   2.148
 3079TIP3    H2 9181   3.575   6.807   2.290
 3080TIP3   OH2 9182   5.382   3.867   4.147
 3080TIP3    H1 9183   5.406   3.801   4.082
 3080TIP3    H2 9184   5.287   3.856   4.159
 3081TIP3   OH2 9185   0.354   4.653   5.446
 3081TIP3    H1 9186   0.318   4.597   5.377
 3081TIP3    H2 9187   0.448   4.656   5.427
 3082TIP3   OH2 9188   2.932   3.943   2.306
 3082TIP3    H1 9189   2.895   3.904   2.385
 3082TIP3    H2 9190   3.021   3.908   2.301
 3083TIP3   OH2 9191   6.209   3.569   3.002
 3083TIP3    H1 9192   6.123   3.530   3.020
 3083TIP3    H2 9193   6.271   3.497   3.012
 3084TIP3   OH2 9194   3.530   3.318   0.411
 3084TIP3    H1 9195   3.459   3.273   0.365
 3084TIP3    H2 9196   3.489   3.351   0.491
 3085TIP3   OH2 9197   6.247   5.064   2.321
 3085TIP3    H1 9198   6.251   5.095   2.231
 3085TIP3    H2 9199   6.285   5.135   2.373
 3086TIP3   OH2 9200   4.415   2.505   0.333
 3086TIP3    H1 9201   4.395   2.578   0.391
 3086TIP3    H2 9202   4.448   2.436   0.390
 3087TIP3   OH2 9203   6.868   3.898   2.156
 3087TIP3    H1 9204   6.928   3.823   2.164
 3087TIP3    H2 9205   6.782   3.859   2.141
 3088TIP3   OH2 9206   8.197   7.689   6.709
 3088TIP3    H1 9207   8.194   7.750   6.783
 3088TIP3    H2 9208   8.287   7.656   6.709
 3089TIP3   OH2 9209   0.094   6.174   1.353
 3089TIP3    H1 9210   0.056   6.206   1.271
 3089TIP3    H2 9211   0.052   6.089   1.366
 3090TIP3   OH2 9212   3.720   5.999   5.670
 3090TIP3    H1 9213   3.715   6.094   5.680
 3090TIP3    H2 9214   3.693   5.964   5.754
 3091TIP3   OH2 9215   4.683   0.078   1.857
 3091TIP3    H1 9216   4.762   0.131   1.850
 3091TIP3    H2 9217   4.663   0.053   1.766
 3092TIP3   OH2 9218   8.243   1.889   6.307
 3092TIP3    H1 9219   8.275   1.798   6.307
 3092TIP3    H2 9220   8.158   1.883   6.262
 3093TIP3   OH2 9221   4.422   0.215   1.916
 3093TIP3    H1 9222   4.505   0.169   1.898
 3093TIP3    H2 9223   4.401   0.190   2.006
 3094TIP3   OH2 9224   1.095   5.431   5.863
 3094TIP3    H1 9225   1.178   5.411   5.819
 3094TIP3    H2 9226   1.089   5.364   5.932
 3095TIP3   OH2 9227   4.542   3.794   6.389
 3095TIP3    H1 9228   4.501   3.879   6.398
 3095TIP3    H2 9229   4.572   3.792   6.298
 3096TIP3   OH2 9230   2.946   4.415   1.038
 3096TIP3    H1 9231   3.031   4.379   1.064
 3096TIP3    H2 9232   2.963   4.508   1.024
 3097TIP3   OH2 9233   7.647   2.931   5.537
 3097TIP3    H1 9234   7.580   2.883   5.585
 3097TIP3    H2 9235   7.692   2.864   5.486
 3098TIP3   OH2 9236   3.442   0.948   6.750
 3098TIP3    H1 9237   3.369   0.924   6.808
 3098TIP3    H2 9238   3.446   0.875   6.687
 3099TIP3   OH2 9239   2.626   2.387   3.761
 3099TIP3    H1 9240   2.659   2.384   3.671
 3099TIP3    H2 9241   2.546   2.335   3.759
 3100TIP3   OH2 9242   7.020   5.633   1.489
 3100TIP3    H1 9243   7.051   5.555   1.444
 3100TIP3    H2 9244   6.926   5.634   1.476
 3101TIP3   OH2 9245   5.524   0.706   3.959
 3101TIP3    H1 9246   5.497   0.615   3.962
 3101TIP3    H2 9247   5.471   0.745   3.890
 3102TIP3   OH2 9248   6.799   7.562   0.986
 3102TIP3    H1 9249   6.751   7.645   0.997
 3102TIP3    H2 9250   6.804   7.550   0.891
 3103TIP3   OH2 9251   7.820   4.284   1.736
 3103TIP3    H1 9252   7.903   4.255   1.698
 3103TIP3    H2 9253   7.845   4.345   1.805
 3104TIP3   OH2 9254   4.105   4.111   1.947
 3104TIP3    H1 9255   4.133   4.027   1.911
 3104TIP3    H2 9256   4.010   4.106   1.949
 3105TIP3   OH2 9257   3.583   2.424   4.714
 3105TIP3    H1 9258   3.677   2.438   4.721
 3105TIP3    H2 9259   3.574   2.337   4.674
 3106TIP3   OH2 9260   6.519   6.311   2.913
 3106TIP3    H1 9261   6.512   6.348   3.001
 3106TIP3    H2 9262   6.535   6.387   2.856
 3107TIP3   OH2 9263   4.481   0.736  -0.008
 3107TIP3    H1 9264   4.424   0.769   0.061
 3107TIP3    H2 9265   4.503   0.647   0.019
 3108TIP3   OH2 9266   1.574   0.109   0.772
 3108TIP3    H1 9267   1.559   0.026   0.726
 3108TIP3    H2 9268   1.521   0.101   0.851
 3109TIP3   OH2 9269   4.522   4.994   5.620
 3109TIP3    H1 9270   4.546   4.914   5.575
 3109TIP3    H2 9271   4.598   5.015   5.674
 3110TIP3   OH2 9272   3.147   2.890   2.703
 3110TIP3    H1 9273   3.134   2.984   2.712
 3110TIP3    H2 9274   3.234   2.881   2.664
 3111TIP3   OH2 9275   2.282   6.008   6.684
 3111TIP3    H1 9276   2.296   6.032   6.592
 3111TIP3    H2 9277   2.371   5.999   6.720
 3112TIP3   OH2 9278   3.541   6.756   5.641
 3112TIP3    H1 9279   3.448   6.746   5.621
 3112TIP3    H2 9280   3.560   6.849   5.624
 3113TIP3   OH2 9281   2.876   6.945   3.829
 3113TIP3    H1 9282   2.856   7.026   3.876
 3113TIP3    H2 9283   2.792   6.900   3.821
 3114TIP3   OH2 9284   1.347   4.272   1.113
 3114TIP3    H1 9285   1.313   4.344   1.166
 3114TIP3    H2 9286   1.428   4.247   1.157
 3115TIP3   OH2 9287   0.943   7.209   3.733
 3115TIP3    H1 9288   0.990   7.154   3.796
 3115TIP3    H2 9289   0.852   7.179   3.738
 3116TIP3   OH2 9290   7.435   6.969   2.493
 3116TIP3    H1 9291   7.499   6.913   2.449
 3116TIP3    H2 9292   7.354   6.918   2.492
 3117TIP3   OH2 9293   3.085   7.632   6.639
 3117TIP3    H1 9294   3.010   7.616   6.582
 3117TIP3    H2 9295   3.083   7.560   6.703
 3118TIP3   OH2 9296   3.663   4.944   2.368
 3118TIP3    H1 9297   3.723   4.894   2.424
 3118TIP3    H2 9298   3.576   4.912   2.392
 3119TIP3   OH2 9299   7.258   5.309   6.598
 3119TIP3    H1 9300   7.219   5.393   6.573
 3119TIP3    H2 9301   7.196   5.273   6.663
 3120TIP3   OH2 9302   5.562   3.012   6.229
 3120TIP3    H1 9303   5.646   2.968   6.236
 3120TIP3    H2 9304   5.559   3.044   6.139
 3121TIP3   OH2 9305   6.687   7.585   4.377
 3121TIP3    H1 9306   6.719   7.639   4.304
 3121TIP3    H2 9307   6.710   7.635   4.455
 3122TIP3   OH2 9308   6.767   6.910   5.422
 3122TIP3    H1 9309   6.842   6.919   5.482
 3122TIP3    H2 9310   6.721   6.994   5.430
 3123TIP3   OH2 9311   0.359   5.649   2.978
 3123TIP3    H1 9312   0.416   5.719   2.946
 3123TIP3    H2 9313   0.275   5.691   2.993
 3124TIP3   OH2 9314   5.747  -0.006   0.131
 3124TIP3    H1 9315   5.703   0.060   0.078
 3124TIP3    H2 9316   5.831   0.034   0.153
 3125TIP3   OH2 9317   6.940   3.410   0.471
 3125TIP3    H1 9318   6.863   3.422   0.416
 3125TIP3    H2 9319   6.917   3.339   0.531
 3126TIP3   OH2 9320   1.583   3.686   5.725
 3126TIP3    H1 9321   1.568   3.722   5.813
 3126TIP3    H2 9322   1.495   3.667   5.692
 3127TIP3   OH2 9323   7.829   1.305   5.470
 3127TIP3    H1 9324   7.767   1.238   5.498
 3127TIP3    H2 9325   7.822   1.374   5.537
 3128TIP3   OH2 9326   4.730   6.761   5.130
 3128TIP3    H1 9327   4.798   6.823   5.103
 3128TIP3    H2 9328   4.655   6.782   5.073
 3129TIP3   OH2 9329   6.512   7.486   2.924
 3129TIP3    H1 9330   6.528   7.405   2.972
 3129TIP3    H2 9331   6.520   7.555   2.990
 3130TIP3   OH2 9332   2.852   7.324   6.253
 3130TIP3    H1 9333   2.891   7.237   6.262
 3130TIP3    H2 9334   2.909   7.369   6.190
 3131TIP3   OH2 9335   4.653   2.679   5.229
 3131TIP3    H1 9336   4.726   2.639   5.275
 3131TIP3    H2 9337   4.586   2.692   5.297
 3132TIP3   OH2 9338   3.562   5.871   2.533
 3132TIP3    H1 9339   3.515   5.791   2.510
 3132TIP3    H2 9340   3.605   5.850   2.616
 3133TIP3   OH2 9341   7.399   0.222   3.329
 3133TIP3    H1 9342   7.344   0.152   3.364
 3133TIP3    H2 9343   7.379   0.224   3.236
 3134TIP3   OH2 9344   8.013   1.694   1.175
 3134TIP3    H1 9345   7.952   1.749   1.225
 3134TIP3    H2 9346   8.016   1.736   1.089
 3135TIP3   OH2 9347   5.964   1.439   0.811
 3135TIP3    H1 9348   5.941   1.382   0.737
 3135TIP3    H2 9349   5.880   1.460   0.852
 3136TIP3   OH2 9350   3.270   4.273   4.272
 3136TIP3    H1 9351   3.342   4.329   4.245
 3136TIP3    H2 9352   3.195   4.331   4.278
 3137TIP3   OH2 9353   0.765   1.714   1.011
 3137TIP3    H1 9354   0.813   1.795   1.028
 3137TIP3    H2 9355   0.692   1.740   0.955
 3138TIP3   OH2 9356   6.609   5.859   1.037
 3138TIP3    H1 9357   6.582   5.950   1.029
 3138TIP3    H2 9358   6.628   5.847   1.130
 3139TIP3   OH2 9359   0.269   1.707   5.755
 3139TIP3    H1 9360   0.308   1.644   5.814
 3139TIP3    H2 9361   0.313   1.790   5.775
 3140TIP3   OH2 9362   0.320   3.775   2.868
 3140TIP3    H1 9363   0.302   3.704   2.806
 3140TIP3    H2 9364   0.245   3.834   2.860
 3141TIP3   OH2 9365   4.589   6.138   2.996
 3141TIP3    H1 9366   4.647   6.103   2.928
 3141TIP3    H2 9367   4.552   6.216   2.957
 3142TIP3   OH2 9368   3.243   0.693   0.505
 3142TIP3    H1 9369   3.294   0.629   0.556
 3142TIP3    H2 9370   3.161   0.701   0.553
 3143TIP3   OH2 9371   7.635   4.527   2.892
 3143TIP3    H1 9372   7.676   4.465   2.953
 3143TIP3    H2 9373   7.554   4.553   2.936
 3144TIP3   OH2 9374   6.963   2.933   4.297
 3144TIP3    H1 9375   6.878   2.963   4.263
 3144TIP3    H2 9376   6.948   2.921   4.390
 3145TIP3   OH2 9377   5.252   3.901   3.042
 3145TIP3    H1 9378   5.303   3.895   2.962
 3145TIP3    H2 9379   5.162   3.920   3.013
 3146TIP3   OH2 9380   3.351   7.743   2.009
 3146TIP3    H1 9381   3.269   7.755   2.057
 3146TIP3    H2 9382   3.324   7.734   1.918
 3147TIP3   OH2 9383   7.377   2.730   2.532
 3147TIP3    H1 9384   7.290   2.689   2.533
 3147TIP3    H2 9385   7.410   2.713   2.445
 3148TIP3   OH2 9386   0.298   3.144   1.289
 3148TIP3    H1 9387   0.282   3.090   1.212
 3148TIP3    H2 9388   0.291   3.234   1.257
 3149TIP3   OH2 9389   5.989   1.503   1.935
 3149TIP3    H1 9390   6.067   1.501   1.991
 3149TIP3    H2 9391   5.928   1.441   1.976
 3150TIP3   OH2 9392   3.327   6.005   3.853
 3150TIP3    H1 9393   3.411   6.043   3.828
 3150TIP3    H2 9394   3.265   6.035   3.787
 3151TIP3   OH2 9395   6.053   0.752   6.340
 3151TIP3    H1 9396   6.061   0.786   6.251
 3151TIP3    H2 9397   6.139   0.713   6.358
 3152TIP3   OH2 9398   2.284   3.203   2.826
 3152TIP3    H1 9399   2.231   3.124   2.819
 3152TIP3    H2 9400   2.371   3.172   2.848
 3153TIP3   OH2 9401   4.708   7.340   2.338
 3153TIP3    H1 9402   4.748   7.290   2.266
 3153TIP3    H2 9403   4.728   7.431   2.318
 3154TIP3   OH2 9404   3.539   5.238   2.056
 3154TIP3    H1 9405   3.589   5.211   2.134
 3154TIP3    H2 9406   3.546   5.333   2.055
 3155TIP3   OH2 9407   0.188   0.840   1.276
 3155TIP3    H1 9408   0.095   0.821   1.290
 3155TIP3    H2 9409   0.232   0.810   1.355
 3156TIP3   OH2 9410   6.559   4.068   1.931
 3156TIP3    H1 9411   6.564   3.988   1.983
 3156TIP3    H2 9412   6.567   4.138   1.996
 3157TIP3   OH2 9413   2.817   5.826   6.531
 3157TIP3    H1 9414   2.875   5.802   6.604
 3157TIP3    H2 9415   2.741   5.769   6.542
 3158TIP3   OH2 9416   2.377   3.733   4.236
 3158TIP3    H1 9417   2.426   3.652   4.246
 3158TIP3    H2 9418   2.442   3.802   4.247
 3159TIP3   OH2 9419   6.620   0.971   3.522
 3159TIP3    H1 9420   6.621   0.885   3.563
 3159TIP3    H2 9421   6.651   1.031   3.589
 3160TIP3   OH2 9422   0.808   6.265   0.039
 3160TIP3    H1 9423   0.831   6.232   0.126
 3160TIP3    H2 9424   0.830   6.358   0.041
 3161TIP3   OH2 9425   2.457   7.328   5.606
 3161TIP3    H1 9426   2.546   7.354   5.585
 3161TIP3    H2 9427   2.443   7.358   5.696
 3162TIP3   OH2 9428   1.309   1.816   2.562
 3162TIP3    H1 9429   1.400   1.840   2.549
 3162TIP3    H2 9430   1.260   1.879   2.508
 3163TIP3   OH2 9431   2.175   0.763   5.351
 3163TIP3    H1 9432   2.113   0.700   5.315
 3163TIP3    H2 9433   2.249   0.762   5.290
 3164TIP3   OH2 9434   6.806   0.651   1.645
 3164TIP3    H1 9435   6.792   0.588   1.574
 3164TIP3    H2 9436   6.730   0.709   1.641
 3165TIP3   OH2 9437   4.104   0.900   5.766
 3165TIP3    H1 9438   4.058   0.844   5.703
 3165TIP3    H2 9439   4.189   0.915   5.725
 3166TIP3   OH2 9440   2.051   1.734   5.231
 3166TIP3    H1 9441   1.965   1.694   5.217
 3166TIP3    H2 9442   2.033   1.828   5.235
 3167TIP3   OH2 9443   2.819   3.296   1.639
 3167TIP3    H1 9444   2.896   3.282   1.583
 3167TIP3    H2 9445   2.799   3.209   1.674
 3168TIP3   OH2 9446   3.074   6.029   6.672
 3168TIP3    H1 9447   3.091   6.088   6.745
 3168TIP3    H2 9448   2.982   6.044   6.650
 3169TIP3   OH2 9449   7.298   3.577   4.660
 3169TIP3    H1 9450   7.326   3.521   4.733
 3169TIP3    H2 9451   7.254   3.517   4.600
 3170TIP3   OH2 9452   6.851   0.007   6.508
 3170TIP3    H1 9453   6.825  -0.034   6.591
 3170TIP3    H2 9454   6.928   0.059   6.529
 3171TIP3   OH2 9455   0.832   6.698   1.502
 3171TIP3    H1 9456   0.878   6.628   1.457
 3171TIP3    H2 9457   0.886   6.775   1.489
 3172TIP3   OH2 9458   6.399   5.668   2.971
 3172TIP3    H1 9459   6.353   5.596   3.015
 3172TIP3    H2 9460   6.375   5.659   2.879
 3173TIP3   OH2 9461   6.203   2.055   6.338
 3173TIP3    H1 9462   6.118   2.099   6.332
 3173TIP3    H2 9463   6.252   2.107   6.401
 3174TIP3   OH2 9464   6.185   1.552   6.004
 3174TIP3    H1 9465   6.113   1.489   6.008
 3174TIP3    H2 9466   6.162   1.610   5.931
 3175TIP3   OH2 9467   3.539   0.122   0.880
 3175TIP3    H1 9468   3.464   0.080   0.838
 3175TIP3    H2 9469   3.511   0.137   0.970
 3176TIP3   OH2 9470   3.684   1.459   3.497
 3176TIP3    H1 9471   3.598   1.499   3.482
 3176TIP3    H2 9472   3.712   1.494   3.582
 3177TIP3   OH2 9473   1.340   6.525   4.723
 3177TIP3    H1 9474   1.304   6.440   4.747
 3177TIP3    H2 9475   1.375   6.560   4.805
 3178TIP3   OH2 9476   1.510   0.053   6.241
 3178TIP3    H1 9477   1.586   0.107   6.221
 3178TIP3    H2 9478   1.437   0.099   6.199
 3179TIP3   OH2 9479   3.947   6.062   1.552
 3179TIP3    H1 9480   3.896   6.128   1.505
 3179TIP3    H2 9481   3.967   6.103   1.637
 3180TIP3   OH2 9482   5.243   7.391   4.385
 3180TIP3    H1 9483   5.258   7.307   4.341
 3180TIP3    H2 9484   5.224   7.452   4.313
 3181TIP3   OH2 9485   1.792   4.197   2.194
 3181TIP3    H1 9486   1.712   4.183   2.246
 3181TIP3    H2 9487   1.812   4.290   2.206
 3182TIP3   OH2 9488   7.561   2.706   5.706
 3182TIP3    H1 9489   7.618   2.774   5.741
 3182TIP3    H2 9490   7.571   2.633   5.767
 3183TIP3   OH2 9491   8.075   6.913   0.900
 3183TIP3    H1 9492   8.113   6.909   0.988
 3183TIP3    H2 9493   8.101   6.999   0.866
 3184TIP3   OH2 9494   0.235   3.907   6.333
 3184TIP3    H1 9495   0.167   3.974   6.329
 3184TIP3    H2 9496   0.220   3.863   6.416
 3185TIP3   OH2 9497   2.587   0.487   2.024
 3185TIP3    H1 9498   2.520   0.510   1.960
 3185TIP3    H2 9499   2.649   0.559   2.022
 3186TIP3   OH2 9500   7.106   6.676   5.385
 3186TIP3    H1 9501   7.125   6.731   5.309
 3186TIP3    H2 9502   7.141   6.590   5.362
 3187TIP3   OH2 9503   1.604   6.991   1.637
 3187TIP3    H1 9504   1.624   7.033   1.721
 3187TIP3    H2 9505   1.508   6.982   1.637
 3188TIP3   OH2 9506   4.440   3.310   2.057
 3188TIP3    H1 9507   4.436   3.373   1.985
 3188TIP3    H2 9508   4.527   3.271   2.049
 3189TIP3   OH2 9509   5.809   5.886   5.163
 3189TIP3    H1 9510   5.814   5.942   5.085
 3189TIP3    H2 9511   5.717   5.884   5.186
 3190TIP3   OH2 9512   2.236   4.141   1.449
 3190TIP3    H1 9513   2.250   4.151   1.355
 3190TIP3    H2 9514   2.305   4.193   1.489
 3191TIP3   OH2 9515   2.723   4.110   4.886
 3191TIP3    H1 9516   2.772   4.030   4.866
 3191TIP3    H2 9517   2.678   4.132   4.804
 3192TIP3   OH2 9518   0.067   4.322   0.139
 3192TIP3    H1 9519   0.149   4.366   0.159
 3192TIP3    H2 9520   0.003   4.393   0.131
 3193TIP3   OH2 9521   1.504   6.409   6.161
 3193TIP3    H1 9522   1.457   6.469   6.103
 3193TIP3    H2 9523   1.504   6.325   6.114
 3194TIP3   OH2 9524   0.132   4.220   5.130
 3194TIP3    H1 9525   0.148   4.303   5.176
 3194TIP3    H2 9526   0.094   4.247   5.046
 3195TIP3   OH2 9527   5.477   1.176   5.041
 3195TIP3    H1 9528   5.466   1.211   4.952
 3195TIP3    H2 9529   5.390   1.178   5.079
 3196TIP3   OH2 9530   7.548   0.704   3.336
 3196TIP3    H1 9531   7.643   0.691   3.337
 3196TIP3    H2 9532   7.535   0.794   3.366
 3197TIP3   OH2 9533   2.614   0.442   1.561
 3197TIP3    H1 9534   2.660   0.510   1.610
 3197TIP3    H2 9535   2.539   0.487   1.522
 3198TIP3   OH2 9536   4.909   2.644   0.674
 3198TIP3    H1 9537   5.004   2.649   0.673
 3198TIP3    H2 9538   4.883   2.697   0.750
 3199TIP3   OH2 9539   7.553   1.746   4.735
 3199TIP3    H1 9540   7.530   1.803   4.661
 3199TIP3    H2 9541   7.604   1.675   4.695
 3200TIP3   OH2 9542   8.021   7.766   0.887
 3200TIP3    H1 9543   8.067   7.781   0.969
 3200TIP3    H2 9544   7.975   7.849   0.870
 3201TIP3   OH2 9545   2.920   2.661   6.323
 3201TIP3    H1 9546   3.015   2.652   6.334
 3201TIP3    H2 9547   2.909   2.739   6.270
 3202TIP3   OH2 9548   2.554   5.592   3.478
 3202TIP3    H1 9549   2.477   5.609   3.532
 3202TIP3    H2 9550   2.545   5.499   3.453
 3203TIP3   OH2 9551   2.524   6.592   6.391
 3203TIP3    H1 9552   2.520   6.587   6.486
 3203TIP3    H2 9553   2.595   6.653   6.373
 3204TIP3   OH2 9554   5.350   2.113   1.698
 3204TIP3    H1 9555   5.357   2.209   1.698
 3204TIP3    H2 9556   5.385   2.087   1.613
 3205TIP3   OH2 9557   2.712   2.407   5.815
 3205TIP3    H1 9558   2.805   2.416   5.832
 3205TIP3    H2 9559   2.670   2.437   5.897
 3206TIP3   OH2 9560   5.959   5.195   2.369
 3206TIP3    H1 9561   5.886   5.257   2.371
 3206TIP3    H2 9562   5.952   5.148   2.452
 3207TIP3   OH2 9563   0.243   1.853   4.696
 3207TIP3    H1 9564   0.290   1.928   4.732
 3207TIP3    H2 9565   0.306   1.781   4.701
 3208TIP3   OH2 9566   3.075   4.288   4.028
 3208TIP3    H1 9567   3.104   4.198   4.014
 3208TIP3    H2 9568   3.088   4.303   4.121
 3209TIP3   OH2 9569   2.695   7.696   0.152
 3209TIP3    H1 9570   2.650   7.748   0.085
 3209TIP3    H2 9571   2.787   7.722   0.144
 3210TIP3   OH2 9572   0.108   0.952   1.630
 3210TIP3    H1 9573   0.190   0.983   1.668
 3210TIP3    H2 9574   0.075   1.027   1.581
 3211TIP3   OH2 9575   4.415   3.686   3.919
 3211TIP3    H1 9576   4.353   3.683   3.992
 3211TIP3    H2 9577   4.500   3.702   3.960
 3212TIP3   OH2 9578   4.527   4.160   5.859
 3212TIP3    H1 9579   4.576   4.242   5.869
 3212TIP3    H2 9580   4.463   4.162   5.930
 3213TIP3   OH2 9581   0.588   1.379   4.142
 3213TIP3    H1 9582   0.638   1.323   4.202
 3213TIP3    H2 9583   0.501   1.340   4.140
 3214TIP3   OH2 9584   0.254   3.262   0.600
 3214TIP3    H1 9585   0.248   3.170   0.628
 3214TIP3    H2 9586   0.173   3.302   0.631
 3215TIP3   OH2 9587   4.071   6.633   4.495
 3215TIP3    H1 9588   4.078   6.719   4.538
 3215TIP3    H2 9589   4.018   6.650   4.417
 3216TIP3   OH2 9590   1.079   0.481   4.203
 3216TIP3    H1 9591   1.100   0.493   4.296
 3216TIP3    H2 9592   1.164   0.474   4.160
 3217TIP3   OH2 9593   3.588   0.129   6.302
 3217TIP3    H1 9594   3.531   0.187   6.252
 3217TIP3    H2 9595   3.632   0.075   6.236
 3218TIP3   OH2 9596   7.122   4.675   6.463
 3218TIP3    H1 9597   7.137   4.764   6.495
 3218TIP3    H2 9598   7.040   4.648   6.504
 3219TIP3   OH2 9599   1.045   1.461   2.864
 3219TIP3    H1 9600   1.066   1.544   2.821
 3219TIP3    H2 9601   1.129   1.414   2.867
 3220TIP3   OH2 9602   7.321   2.314   1.656
 3220TIP3    H1 9603   7.350   2.281   1.741
 3220TIP3    H2 9604   7.273   2.242   1.617
 3221TIP3   OH2 9605   7.313   3.710   2.772
 3221TIP3    H1 9606   7.242   3.648   2.751
 3221TIP3    H2 9607   7.392   3.656   2.775
 3222TIP3   OH2 9608   7.233   1.148   5.088
 3222TIP3    H1 9609   7.159   1.198   5.055
 3222TIP3    H2 9610   7.304   1.212   5.094
 3223TIP3   OH2 9611   0.772   1.134   3.005
 3223TIP3    H1 9612   0.745   1.217   3.043
 3223TIP3    H2 9613   0.734   1.134   2.917
 3224TIP3   OH2 9614   1.664   2.981   4.488
 3224TIP3    H1 9615   1.580   2.986   4.533
 3224TIP3    H2 9616   1.711   2.909   4.532
 3225TIP3   OH2 9617   8.261   3.600   5.146
 3225TIP3    H1 9618   8.214   3.651   5.080
 3225TIP3    H2 9619   8.290   3.522   5.098
 3226TIP3   OH2 9620   4.797   2.487   6.365
 3226TIP3    H1 9621   4.732   2.461   6.299
 3226TIP3    H2 9622   4.801   2.582   6.358
 3227TIP3   OH2 9623   4.350   0.803   0.242
 3227TIP3    H1 9624   4.403   0.882   0.256
 3227TIP3    H2 9625   4.372   0.746   0.315
 3228TIP3   OH2 9626   0.622   5.678   0.855
 3228TIP3    H1 9627   0.535   5.655   0.823
 3228TIP3    H2 9628   0.650   5.751   0.799
 3229TIP3   OH2 9629   0.745   5.818   0.657
 3229TIP3    H1 9630   0.783   5.905   0.645
 3229TIP3    H2 9631   0.727   5.787   0.569
 3230TIP3   OH2 9632   2.719   5.090   1.488
 3230TIP3    H1 9633   2.657   5.022   1.513
 3230TIP3    H2 9634   2.730   5.080   1.394
 3231TIP3   OH2 9635   2.196   5.887   5.607
 3231TIP3    H1 9636   2.204   5.978   5.578
 3231TIP3    H2 9637   2.285   5.864   5.635
 3232TIP3   OH2 9638   1.786   5.023   1.591
 3232TIP3    H1 9639   1.785   5.097   1.651
 3232TIP3    H2 9640   1.756   4.949   1.644
 3233TIP3   OH2 9641   3.395   4.016   1.514
 3233TIP3    H1 9642   3.414   3.925   1.540
 3233TIP3    H2 9643   3.325   4.008   1.448
 3234TIP3   OH2 9644   1.116   1.281   1.746
 3234TIP3    H1 9645   1.140   1.372   1.765
 3234TIP3    H2 9646   1.089   1.282   1.654
 3235TIP3   OH2 9647   1.857   3.636   4.279
 3235TIP3    H1 9648   1.943   3.646   4.320
 3235TIP3    H2 9649   1.856   3.702   4.209
 3236TIP3   OH2 9650   0.474   5.064   5.889
 3236TIP3    H1 9651   0.491   5.158   5.890
 3236TIP3    H2 9652   0.392   5.055   5.841
 3237TIP3   OH2 9653   4.566   3.050   4.145
 3237TIP3    H1 9654   4.562   3.003   4.062
 3237TIP3    H2 9655   4.508   3.125   4.132
 3238TIP3   OH2 9656   2.495   3.256   2.303
 3238TIP3    H1 9657   2.577   3.291   2.268
 3238TIP3    H2 9658   2.517   3.227   2.392
 3239TIP3   OH2 9659   0.824   5.227   6.220
 3239TIP3    H1 9660   0.760   5.266   6.279
 3239TIP3    H2 9661   0.904   5.221   6.273
 3240TIP3   OH2 9662   7.916   3.694   6.734
 3240TIP3    H1 9663   7.855   3.755   6.776
 3240TIP3    H2 9664   7.938   3.736   6.651
 3241TIP3   OH2 9665   6.904   5.229   2.004
 3241TIP3    H1 9666   6.872   5.300   2.060
 3241TIP3    H2 9667   6.906   5.152   2.062
 3242TIP3   OH2 9668   1.441   4.835   4.602
 3242TIP3    H1 9669   1.506   4.781   4.559
 3242TIP3    H2 9670   1.483   4.865   4.682
 3243TIP3   OH2 9671   7.465   7.614   4.017
 3243TIP3    H1 9672   7.408   7.543   4.046
 3243TIP3    H2 9673   7.548   7.598   4.061
 3244TIP3   OH2 9674   2.836   0.138   5.059
 3244TIP3    H1 9675   2.901   0.207   5.067
 3244TIP3    H2 9676   2.774   0.170   4.994
 3245TIP3   OH2 9677   6.669   0.169   1.622
 3245TIP3    H1 9678   6.699   0.080   1.642
 3245TIP3    H2 9679   6.691   0.219   1.701
 3246TIP3   OH2 9680   6.159   5.727   1.783
 3246TIP3    H1 9681   6.107   5.771   1.850
 3246TIP3    H2 9682   6.212   5.797   1.744
 3247TIP3   OH2 9683   1.721   1.356   1.351
 3247TIP3    H1 9684   1.654   1.345   1.418
 3247TIP3    H2 9685   1.696   1.294   1.282
 3248TIP3   OH2 9686   4.708   1.646   6.743
 3248TIP3    H1 9687   4.694   1.740   6.752
 3248TIP3    H2 9688   4.629   1.613   6.701
 3249TIP3   OH2 9689   6.585   5.477   3.276
 3249TIP3    H1 9690   6.567   5.471   3.182
 3249TIP3    H2 9691   6.621   5.565   3.288
 3250TIP3   OH2 9692   4.924   1.183   1.969
 3250TIP3    H1 9693   4.905   1.094   2.000
 3250TIP3    H2 9694   4.915   1.178   1.874
 3251TIP3   OH2 9695   7.685   1.042   0.190
 3251TIP3    H1 9696   7.698   1.114   0.251
 3251TIP3    H2 9697   7.737   1.065   0.113
 3252TIP3   OH2 9698   7.596   2.829   6.638
 3252TIP3    H1 9699   7.532   2.774   6.593
 3252TIP3    H2 9700   7.543   2.885   6.696
 3253TIP3   OH2 9701   6.963   2.217   5.588
 3253TIP3    H1 9702   6.915   2.277   5.645
 3253TIP3    H2 9703   6.898   2.154   5.559
 3254TIP3   OH2 9704   0.174   4.862   5.545
 3254TIP3    H1 9705   0.089   4.859   5.502
 3254TIP3    H2 9706   0.203   4.770   5.545
 3255TIP3   OH2 9707   8.166   5.761   3.448
 3255TIP3    H1 9708   8.116   5.709   3.512
 3255TIP3    H2 9709   8.252   5.720   3.447
 3256TIP3   OH2 9710   4.285   4.637   1.563
 3256TIP3    H1 9711   4.220   4.707   1.559
 3256TIP3    H2 9712   4.258   4.584   1.637
 3257TIP3   OH2 9713   5.542   6.377   5.958
 3257TIP3    H1 9714   5.514   6.390   6.049
 3257TIP3    H2 9715   5.466   6.400   5.906
 3258TIP3   OH2 9716   4.298   6.831   3.588
 3258TIP3    H1 9717   4.234   6.761   3.574
 3258TIP3    H2 9718   4.361   6.794   3.649
 3259TIP3   OH2 9719   2.418   6.192   4.072
 3259TIP3    H1 9720   2.465   6.213   3.991
 3259TIP3    H2 9721   2.334   6.237   4.063
 3260TIP3   OH2 9722   4.004   5.806   6.484
 3260TIP3    H1 9723   4.090   5.826   6.449
 3260TIP3    H2 9724   4.019   5.734   6.546
 3261TIP3   OH2 9725   4.284   4.094   5.279
 3261TIP3    H1 9726   4.360   4.149   5.259
 3261TIP3    H2 9727   4.212   4.133   5.231
 3262TIP3   OH2 9728   8.127   2.928   3.908
 3262TIP3    H1 9729   8.218   2.898   3.903
 3262TIP3    H2 9730   8.124   3.003   3.848
 3263TIP3   OH2 9731   5.148   1.857   0.820
 3263TIP3    H1 9732   5.145   1.838   0.914
 3263TIP3    H2 9733   5.239   1.881   0.803
 3264TIP3   OH2 9734   4.011   4.915   6.208
 3264TIP3    H1 9735   3.968   4.943   6.289
 3264TIP3    H2 9736   4.054   4.994   6.175
 3265TIP3   OH2 9737   5.417   7.806   6.402
 3265TIP3    H1 9738   5.334   7.804   6.449
 3265TIP3    H2 9739   5.484   7.812   6.470
 3266TIP3   OH2 9740   7.311   7.335   6.205
 3266TIP3    H1 9741   7.298   7.427   6.226
 3266TIP3    H2 9742   7.258   7.321   6.126
 3267TIP3   OH2 9743   4.909   5.391   4.236
 3267TIP3    H1 9744   4.817   5.417   4.226
 3267TIP3    H2 9745   4.934   5.359   4.150
 3268TIP3   OH2 9746   0.519   0.484   6.636
 3268TIP3    H1 9747   0.456   0.441   6.578
 3268TIP3    H2 9748   0.468   0.551   6.681
 3269TIP3   OH2 9749   0.620   6.342   5.633
 3269TIP3    H1 9750   0.706   6.335   5.673
 3269TIP3    H2 9751   0.567   6.275   5.675
 3270TIP3   OH2 9752   0.934   6.254   5.496
 3270TIP3    H1 9753   0.964   6.215   5.579
 3270TIP3    H2 9754   1.014   6.268   5.446
 3271TIP3   OH2 9755   6.822   3.319   5.692
 3271TIP3    H1 9756   6.853   3.291   5.778
 3271TIP3    H2 9757   6.754   3.384   5.710
 3272TIP3   OH2 9758   4.424   5.449   5.908
 3272TIP3    H1 9759   4.362   5.398   5.959
 3272TIP3    H2 9760   4.387   5.538   5.906
 3273TIP3   OH2 9761   6.493   6.306   0.897
 3273TIP3    H1 9762   6.560   6.321   0.831
 3273TIP3    H2 9763   6.455   6.221   0.875
 3274TIP3   OH2 9764   0.135   7.639   0.553
 3274TIP3    H1 9765   0.068   7.593   0.503
 3274TIP3    H2 9766   0.086   7.686   0.622
 3275TIP3   OH2 9767   2.380   2.901   1.353
 3275TIP3    H1 9768   2.303   2.899   1.296
 3275TIP3    H2 9769   2.412   2.811   1.352
 3276TIP3   OH2 9770   3.811   0.339   1.498
 3276TIP3    H1 9771   3.835   0.430   1.514
 3276TIP3    H2 9772   3.853   0.290   1.569
 3277TIP3   OH2 9773   4.764   5.080   0.100
 3277TIP3    H1 9774   4.762   5.097   0.006
 3277TIP3    H2 9775   4.839   5.129   0.132
 3278TIP3   OH2 9776   2.553   0.268   3.940
 3278TIP3    H1 9777   2.578   0.352   3.901
 3278TIP3    H2 9778   2.540   0.287   4.033
 3279TIP3   OH2 9779   2.516   0.348   4.222
 3279TIP3    H1 9780   2.486   0.377   4.308
 3279TIP3    H2 9781   2.488   0.257   4.216
 3280TIP3   OH2 9782   0.487   2.491   1.245
 3280TIP3    H1 9783   0.580   2.502   1.268
 3280TIP3    H2 9784   0.458   2.417   1.299
 3281TIP3   OH2 9785   8.180   3.855   5.885
 3281TIP3    H1 9786   8.141   3.770   5.906
 3281TIP3    H2 9787   8.151   3.913   5.956
 3282TIP3   OH2 9788   5.859   6.008   4.572
 3282TIP3    H1 9789   5.876   5.999   4.478
 3282TIP3    H2 9790   5.935   5.969   4.614
 3283TIP3   OH2 9791   5.384   0.939   6.232
 3283TIP3    H1 9792   5.434   1.018   6.252
 3283TIP3    H2 9793   5.356   0.950   6.141
 3284TIP3   OH2 9794   7.113   2.119   6.495
 3284TIP3    H1 9795   7.182   2.088   6.436
 3284TIP3    H2 9796   7.159   2.140   6.577
 3285TIP3   OH2 9797   1.761   0.140   3.201
 3285TIP3    H1 9798   1.714   0.091   3.268
 3285TIP3    H2 9799   1.721   0.112   3.118
 3286TIP3   OH2 9800   4.292   6.452   0.610
 3286TIP3    H1 9801   4.207   6.498   0.608
 3286TIP3    H2 9802   4.290   6.394   0.534
 3287TIP3   OH2 9803   3.113   6.064   1.812
 3287TIP3    H1 9804   3.126   6.147   1.857
 3287TIP3    H2 9805   3.136   6.081   1.721
 3288TIP3   OH2 9806   7.185   2.793   5.670
 3288TIP3    H1 9807   7.150   2.719   5.720
 3288TIP3    H2 9808   7.195   2.863   5.735
 3289TIP3   OH2 9809   4.244   0.632   4.056
 3289TIP3    H1 9810   4.275   0.679   4.133
 3289TIP3    H2 9811   4.323   0.590   4.021
 3290TIP3   OH2 9812   4.278   6.808   5.935
 3290TIP3    H1 9813   4.245   6.730   5.891
 3290TIP3    H2 9814   4.224   6.817   6.013
 3291TIP3   OH2 9815   5.571   5.171   6.510
 3291TIP3    H1 9816   5.562   5.157   6.604
 3291TIP3    H2 9817   5.542   5.261   6.496
 3292TIP3   OH2 9818   2.738   5.157   5.655
 3292TIP3    H1 9819   2.698   5.112   5.581
 3292TIP3    H2 9820   2.750   5.247   5.625
 3293TIP3   OH2 9821   0.534   5.683   5.766
 3293TIP3    H1 9822   0.503   5.666   5.855
 3293TIP3    H2 9823   0.555   5.596   5.732
 3294TIP3   OH2 9824   1.447   4.956   0.189
 3294TIP3    H1 9825   1.437   4.986   0.098
 3294TIP3    H2 9826   1.413   5.028   0.241
 3295TIP3   OH2 9827   0.058   2.021   0.742
 3295TIP3    H1 9828   0.060   1.941   0.690
 3295TIP3    H2 9829   0.101   1.997   0.824
 3296TIP3   OH2 9830   5.792   3.483   2.574
 3296TIP3    H1 9831   5.715   3.432   2.598
 3296TIP3    H2 9832   5.778   3.569   2.613
 3297TIP3   OH2 9833   1.396   0.315   3.641
 3297TIP3    H1 9834   1.443   0.303   3.559
 3297TIP3    H2 9835   1.384   0.410   3.649
 3298TIP3   OH2 9836   2.913   1.727   3.628
 3298TIP3    H1 9837   2.957   1.761   3.706
 3298TIP3    H2 9838   2.824   1.708   3.658
 3299TIP3   OH2 9839   7.438   2.855   4.487
 3299TIP3    H1 9840   7.473   2.878   4.573
 3299TIP3    H2 9841   7.419   2.761   4.494
 3300TIP3   OH2 9842   2.990   4.626   5.751
 3300TIP3    H1 9843   2.898   4.605   5.740
 3300TIP3    H2 9844   3.000   4.712   5.709
 3301TIP3   OH2 9845   5.123   6.197   2.381
 3301TIP3    H1 9846   5.037   6.168   2.410
 3301TIP3    H2 9847   5.110   6.289   2.356
 3302TIP3   OH2 9848   0.815   2.380   0.289
 3302TIP3    H1 9849   0.873   2.316   0.246
 3302TIP3    H2 9850   0.826   2.460   0.237
 3303TIP3   OH2 9851   7.217   0.983   1.620
 3303TIP3    H1 9852   7.158   0.962   1.693
 3303TIP3    H2 9853   7.181   0.935   1.546
 3304TIP3   OH2 9854   3.338   3.173   2.324
 3304TIP3    H1 9855   3.431   3.153   2.335
 3304TIP3    H2 9856   3.319   3.237   2.393
 3305TIP3   OH2 9857   6.860   7.136   6.019
 3305TIP3    H1 9858   6.855   7.104   6.109
 3305TIP3    H2 9859   6.822   7.066   5.967
 3306TIP3   OH2 9860   2.062   6.866   3.652
 3306TIP3    H1 9861   1.980   6.915   3.657
 3306TIP3    H2 9862   2.042   6.781   3.690
 3307TIP3   OH2 9863   3.031   5.405   3.761
 3307TIP3    H1 9864   3.113   5.442   3.728
 3307TIP3    H2 9865   2.989   5.368   3.683
 3308TIP3   OH2 9866   1.130   2.119   0.877
 3308TIP3    H1 9867   1.115   2.126   0.971
 3308TIP3    H2 9868   1.225   2.129   0.867
 3309TIP3   OH2 9869   4.577   0.849   4.073
 3309TIP3    H1 9870   4.508   0.807   4.124
 3309TIP3    H2 9871   4.627   0.900   4.136
 3310TIP3   OH2 9872   1.013   5.420   4.317
 3310TIP3    H1 9873   0.958   5.344   4.337
 3310TIP3    H2 9874   0.982   5.488   4.376
 3311TIP3   OH2 9875   7.353   6.920   6.503
 3311TIP3    H1 9876   7.278   6.975   6.482
 3311TIP3    H2 9877   7.346   6.905   6.598
 3312TIP3   OH2 9878   4.713   4.752   0.060
 3312TIP3    H1 9879   4.696   4.789  -0.027
 3312TIP3    H2 9880   4.696   4.825   0.120
 3313TIP3   OH2 9881   1.919   4.620   0.471
 3313TIP3    H1 9882   1.988   4.664   0.420
 3313TIP3    H2 9883   1.932   4.527   0.453
 3314TIP3   OH2 9884   3.477   6.602   6.528
 3314TIP3    H1 9885   3.408   6.562   6.581
 3314TIP3    H2 9886   3.558   6.576   6.570
 3315TIP3   OH2 9887   0.349   1.973   4.065
 3315TIP3    H1 9888   0.367   1.917   4.140
 3315TIP3    H2 9889   0.343   2.061   4.101
 3316TIP3   OH2 9890   4.926   3.018   4.510
 3316TIP3    H1 9891   4.915   3.058   4.424
 3316TIP3    H2 9892   4.945   3.091   4.568
 3317TIP3   OH2 9893   2.877   2.550   2.294
 3317TIP3    H1 9894   2.783   2.567   2.299
 3317TIP3    H2 9895   2.913   2.588   2.375
 3318TIP3   OH2 9896   0.653   3.933   4.357
 3318TIP3    H1 9897   0.625   4.006   4.302
 3318TIP3    H2 9898   0.703   3.974   4.427
 3319TIP3   OH2 9899   6.581   7.498   5.689
 3319TIP3    H1 9900   6.558   7.566   5.752
 3319TIP3    H2 9901   6.675   7.509   5.674
 3320TIP3   OH2 9902   4.793   2.817   4.399
 3320TIP3    H1 9903   4.702   2.821   4.425
 3320TIP3    H2 9904   4.840   2.870   4.463
 3321TIP3   OH2 9905   4.925   3.957   4.437
 3321TIP3    H1 9906   5.004   3.989   4.482
 3321TIP3    H2 9907   4.923   4.005   4.355
 3322TIP3   OH2 9908   7.256   2.474   3.974
 3322TIP3    H1 9909   7.306   2.401   3.939
 3322TIP3    H2 9910   7.280   2.548   3.918
 3323TIP3   OH2 9911   0.659   3.990   2.672
 3323TIP3    H1 9912   0.727   4.013   2.736
 3323TIP3    H2 9913   0.694   3.915   2.626
 3324TIP3   OH2 9914   4.264   1.768   6.556
 3324TIP3    H1 9915   4.349   1.724   6.549
 3324TIP3    H2 9916   4.285   1.856   6.587
 3325TIP3   OH2 9917   3.647   3.511   1.455
 3325TIP3    H1 9918   3.708   3.510   1.381
 3325TIP3    H2 9919   3.647   3.602   1.484
 3326TIP3   OH2 9920   2.413   5.802   5.750
 3326TIP3    H1 9921   2.390   5.824   5.840
 3326TIP3    H2 9922   2.456   5.716   5.757
 3327TIP3   OH2 9923   7.581   4.464   4.573
 3327TIP3    H1 9924   7.628   4.519   4.635
 3327TIP3    H2 9925   7.649   4.411   4.531
 3328TIP3   OH2 9926   4.697   5.132   2.612
 3328TIP3    H1 9927   4.682   5.096   2.699
 3328TIP3    H2 9928   4.663   5.066   2.551
 3329TIP3   OH2 9929   6.690   1.637   2.971
 3329TIP3    H1 9930   6.697   1.629   3.066
 3329TIP3    H2 9931   6.682   1.547   2.939
 3330TIP3   OH2 9932   3.864   0.285   3.162
 3330TIP3    H1 9933   3.909   0.365   3.134
 3330TIP3    H2 9934   3.771   0.302   3.143
 3331TIP3   OH2 9935   0.137   5.132   4.762
 3331TIP3    H1 9936   0.079   5.129   4.685
 3331TIP3    H2 9937   0.085   5.093   4.832
 3332TIP3   OH2 9938   3.676   4.213   4.309
 3332TIP3    H1 9939   3.592   4.246   4.276
 3332TIP3    H2 9940   3.653   4.166   4.389
 3333TIP3   OH2 9941   0.960   7.727   5.212
 3333TIP3    H1 9942   0.978   7.801   5.153
 3333TIP3    H2 9943   0.865   7.721   5.215
 3334TIP3   OH2 9944   5.309   1.337   0.391
 3334TIP3    H1 9945   5.273   1.416   0.350
 3334TIP3    H2 9946   5.364   1.298   0.323
 3335TIP3   OH2 9947   6.967   0.615   6.739
 3335TIP3    H1 9948   7.002   0.672   6.807
 3335TIP3    H2 9949   7.018   0.534   6.747
 3336TIP3   OH2 9950   0.081   5.583   6.323
 3336TIP3    H1 9951   0.129   5.659   6.290
 3336TIP3    H2 9952   0.149   5.519   6.344
 3337TIP3   OH2 9953   4.610   1.743   4.815
 3337TIP3    H1 9954   4.536   1.698   4.774
 3337TIP3    H2 9955   4.683   1.731   4.754
 3338TIP3   OH2 9956   1.131   0.600   1.243
 3338TIP3    H1 9957   1.143   0.607   1.338
 3338TIP3    H2 9958   1.183   0.672   1.208
 3339TIP3   OH2 9959   3.545   3.503   2.854
 3339TIP3    H1 9960   3.628   3.549   2.859
 3339TIP3    H2 9961   3.568   3.411   2.865
 3340TIP3   OH2 9962   3.261   3.337   2.091
 3340TIP3    H1 9963   3.307   3.283   2.027
 3340TIP3    H2 9964   3.318   3.337   2.168
 3341TIP3   OH2 9965   0.368   1.097   2.616
 3341TIP3    H1 9966   0.283   1.131   2.588
 3341TIP3    H2 9967   0.387   1.024   2.558
 3342TIP3   OH2 9968   4.519   0.438   5.483
 3342TIP3    H1 9969   4.526   0.464   5.575
 3342TIP3    H2 9970   4.437   0.389   5.479
 3343TIP3   OH2 9971   5.329   1.371   6.217
 3343TIP3    H1 9972   5.304   1.339   6.304
 3343TIP3    H2 9973   5.424   1.383   6.222
 3344TIP3   OH2 9974   2.983   2.728   2.478
 3344TIP3    H1 9975   2.976   2.822   2.461
 3344TIP3    H2 9976   2.947   2.716   2.565
 3345TIP3   OH2 9977   4.546   3.568   4.328
 3345TIP3    H1 9978   4.635   3.597   4.303
 3345TIP3    H2 9979   4.544   3.476   4.304
 3346TIP3   OH2 9980   8.125   2.319   5.546
 3346TIP3    H1 9981   8.034   2.324   5.516
 3346TIP3    H2 9982   8.118   2.304   5.640
 3347TIP3   OH2 9983   1.144   3.343   2.534
 3347TIP3    H1 9984   1.206   3.271   2.545
 3347TIP3    H2 9985   1.142   3.360   2.440
 3348TIP3   OH2 9986   3.203   0.375   5.114
 3348TIP3    H1 9987   3.152   0.374   5.195
 3348TIP3    H2 9988   3.258   0.453   5.122
 3349TIP3   OH2 9989   4.848   1.575   3.115
 3349TIP3    H1 9990   4.912   1.632   3.072
 3349TIP3    H2 9991   4.877   1.486   3.094
 3350TIP3   OH2 9992   7.068   2.887   2.664
 3350TIP3    H1 9993   7.111   2.818   2.613
 3350TIP3    H2 9994   7.130   2.960   2.663
 3351TIP3   OH2 9995   4.514   1.533   2.211
 3351TIP3    H1 9996   4.444   1.545   2.275
 3351TIP3    H2 9997   4.589   1.505   2.264
 3352TIP3   OH2 9998   8.244   2.273   0.701
 3352TIP3    H1 9999   8.238   2.306   0.790
 3352TIP3    H210000   8.281   2.185   0.710
 3353TIP3   OH210001   3.253   4.832   4.515
 3353TIP3    H110002   3.285   4.838   4.605
 3353TIP3    H210003   3.159   4.847   4.522
 3354TIP3   OH210004   7.959   3.503   0.880
 3354TIP3    H110005   7.991   3.524   0.792
 3354TIP3    H210006   7.910   3.580   0.907
 3355TIP3   OH210007   4.405   5.193   2.771
 3355TIP3    H110008   4.331   5.242   2.807
 3355TIP3    H210009   4.378   5.170   2.682
 3356TIP3   OH210010   3.181   3.325   4.315
 3356TIP3    H110011   3.205   3.331   4.222
 3356TIP3    H210012   3.197   3.412   4.350
 3357TIP3   OH210013   7.412   6.395   6.410
 3357TIP3    H110014   7.459   6.312   6.400
 3357TIP3    H210015   7.363   6.404   6.328
 3358TIP3   OH210016   5.396   4.111   0.368
 3358TIP3    H110017   5.413   4.092   0.460
 3358TIP3    H210018   5.393   4.207   0.364
 3359TIP3   OH210019   1.999   6.013   4.706
 3359TIP3    H110020   1.983   6.008   4.611
 3359TIP3    H210021   1.923   6.060   4.740
 3360TIP3   OH210022   1.351   3.738   0.822
 3360TIP3    H110023   1.261   3.711   0.842
 3360TIP3    H210024   1.351   3.753   0.727
 3361TIP3   OH210025   4.645   6.361   2.036
 3361TIP3    H110026   4.662   6.269   2.056
 3361TIP3    H210027   4.552   6.373   2.054
 3362TIP3   OH210028   7.144   1.785   3.379
 3362TIP3    H110029   7.150   1.851   3.310
 3362TIP3    H210030   7.141   1.835   3.461
 3363TIP3   OH210031   1.188   6.243   6.142
 3363TIP3    H110032   1.215   6.155   6.167
 3363TIP3    H210033   1.189   6.292   6.224
 3364TIP3   OH210034   3.471   1.697   3.429
 3364TIP3    H110035   3.419   1.623   3.463
 3364TIP3    H210036   3.490   1.673   3.338
 3365TIP3   OH210037   0.518   0.764   3.890
 3365TIP3    H110038   0.477   0.679   3.874
 3365TIP3    H210039   0.570   0.751   3.970
 3366TIP3   OH210040   4.953   4.563   6.536
 3366TIP3    H110041   4.967   4.596   6.625
 3366TIP3    H210042   5.025   4.600   6.485
 3367TIP3   OH210043   5.207   5.630   1.541
 3367TIP3    H110044   5.160   5.615   1.459
 3367TIP3    H210045   5.293   5.590   1.527
 3368TIP3   OH210046   2.497   2.012   2.944
 3368TIP3    H110047   2.576   1.968   2.910
 3368TIP3    H210048   2.514   2.105   2.930
 3369TIP3   OH210049   7.598   2.283   6.062
 3369TIP3    H110050   7.538   2.230   6.010
 3369TIP3    H210051   7.671   2.226   6.081
 3370TIP3   OH210052   2.146   5.665   2.198
 3370TIP3    H110053   2.159   5.573   2.220
 3370TIP3    H210054   2.067   5.667   2.145
 3371TIP3   OH210055   2.504   0.698   6.721
 3371TIP3    H110056   2.544   0.639   6.656
 3371TIP3    H210057   2.412   0.674   6.722
 3372TIP3   OH210058   1.733   2.877   3.876
 3372TIP3    H110059   1.788   2.949   3.906
 3372TIP3    H210060   1.682   2.852   3.953
 3373TIP3   OH210061   6.031   3.608   4.017
 3373TIP3    H110062   5.969   3.583   4.086
 3373TIP3    H210063   6.065   3.524   3.985
 3374TIP3   OH210064   2.701   1.588   3.753
 3374TIP3    H110065   2.616   1.628   3.773
 3374TIP3    H210066   2.722   1.537   3.831
 3375TIP3   OH210067   1.096   6.123   1.912
 3375TIP3    H110068   1.135   6.129   1.825
 3375TIP3    H210069   1.009   6.162   1.902
 3376TIP3   OH210070   2.972   5.008   3.002
 3376TIP3    H110071   3.011   4.942   2.945
 3376TIP3    H210072   3.031   5.014   3.077
 3377TIP3   OH210073   8.158  -0.021   0.566
 3377TIP3    H110074   8.151   0.021   0.480
 3377TIP3    H210075   8.158   0.052   0.628
 3378TIP3   OH210076   7.050   2.462   4.386
 3378TIP3    H110077   7.093   2.412   4.317
 3378TIP3    H210078   7.056   2.553   4.357
 3379TIP3   OH210079   5.703   3.691   6.209
 3379TIP3    H110080   5.765   3.734   6.151
 3379TIP3    H210081   5.754   3.625   6.255
 3380TIP3   OH210082   7.143   0.337   1.627
 3380TIP3    H110083   7.060   0.289   1.627
 3380TIP3    H210084   7.122   0.421   1.587
 3381TIP3   OH210085   4.529   1.364   6.671
 3381TIP3    H110086   4.565   1.318   6.595
 3381TIP3    H210087   4.472   1.300   6.713
 3382TIP3   OH210088   4.800   5.638   0.062
 3382TIP3    H110089   4.755   5.597  -0.012
 3382TIP3    H210090   4.851   5.567   0.101
 3383TIP3   OH210091   6.370   2.580   1.874
 3383TIP3    H110092   6.357   2.656   1.816
 3383TIP3    H210093   6.294   2.525   1.859
 3384TIP3   OH210094   5.796   5.489   5.312
 3384TIP3    H110095   5.769   5.404   5.277
 3384TIP3    H210096   5.876   5.510   5.263
 3385TIP3   OH210097   5.029   6.871   1.364
 3385TIP3    H110098   5.081   6.947   1.388
 3385TIP3    H210099   5.072   6.837   1.285
 3386TIP3   OH210100   4.264   1.708   0.211
 3386TIP3    H110101   4.348   1.744   0.182
 3386TIP3    H210102   4.211   1.706   0.131
 3387TIP3   OH210103   5.756   1.838   3.171
 3387TIP3    H110104   5.744   1.901   3.101
 3387TIP3    H210105   5.790   1.889   3.244
 3388TIP3   OH210106   1.105   5.480   6.268
 3388TIP3    H110107   1.070   5.418   6.332
 3388TIP3    H210108   1.112   5.429   6.187
 3389TIP3   OH210109   7.530   0.418   1.584
 3389TIP3    H110110   7.546   0.471   1.662
 3389TIP3    H210111   7.504   0.482   1.517
 3390TIP3   OH210112   3.324   6.330   5.181
 3390TIP3    H110113   3.418   6.342   5.196
 3390TIP3    H210114   3.288   6.419   5.181
 3391TIP3   OH210115   8.199   7.677   4.155
 3391TIP3    H110116   8.191   7.597   4.103
 3391TIP3    H210117   8.289   7.707   4.140
 3392TIP3   OH210118   4.585   2.722   3.987
 3392TIP3    H110119   4.654   2.733   4.053
 3392TIP3    H210120   4.562   2.630   3.992
 3393TIP3   OH210121   1.651   0.680   1.513
 3393TIP3    H110122   1.719   0.707   1.575
 3393TIP3    H210123   1.680   0.716   1.429
 3394TIP3   OH210124   4.479   6.883   6.359
 3394TIP3    H110125   4.423   6.829   6.303
 3394TIP3    H210126   4.425   6.959   6.381
 3395TIP3   OH210127   1.977   1.839   4.027
 3395TIP3    H110128   2.002   1.931   4.031
 3395TIP3    H210129   1.889   1.836   4.063
 3396TIP3   OH210130   6.309   1.806   6.385
 3396TIP3    H110131   6.397   1.816   6.422
 3396TIP3    H210132   6.283   1.895   6.361
 3397TIP3   OH210133   3.408   0.957   1.021
 3397TIP3    H110134   3.435   0.986   0.934
 3397TIP3    H210135   3.415   0.862   1.018
 3398TIP3   OH210136   1.615   4.428   1.084
 3398TIP3    H110137   1.567   4.450   1.004
 3398TIP3    H210138   1.673   4.503   1.098
 3399TIP3   OH210139   6.984   3.018   2.397
 3399TIP3    H110140   6.957   3.087   2.458
 3399TIP3    H210141   6.932   2.942   2.423
 3400TIP3   OH210142   2.689   3.961   6.603
 3400TIP3    H110143   2.663   4.046   6.567
 3400TIP3    H210144   2.785   3.966   6.610
 3401TIP3   OH210145   6.905   1.592   4.032
 3401TIP3    H110146   6.943   1.556   3.952
 3401TIP3    H210147   6.862   1.517   4.074
 3402TIP3   OH210148   7.356   3.132   3.067
 3402TIP3    H110149   7.379   3.136   2.974
 3402TIP3    H210150   7.424   3.184   3.110
 3403TIP3   OH210151   5.634   3.833   6.707
 3403TIP3    H110152   5.681   3.750   6.698
 3403TIP3    H210153   5.633   3.851   6.801
 3404TIP3   OH210154   4.357   2.974   5.386
 3404TIP3    H110155   4.308   3.003   5.309
 3404TIP3    H210156   4.447   2.964   5.355
 3405TIP3   OH210157   3.219   2.457   1.404
 3405TIP3    H110158   3.135   2.496   1.430
 3405TIP3    H210159   3.219   2.371   1.445
 3406TIP3   OH210160   1.140   2.974   3.786
 3406TIP3    H110161   1.230   2.955   3.814
 3406TIP3    H210162   1.141   2.962   3.691
 3407TIP3   OH210163   4.235   3.501   3.513
 3407TIP3    H110164   4.230   3.543   3.598
 3407TIP3    H210165   4.312   3.540   3.471
 3408TIP3   OH210166   4.611   5.355   1.692
 3408TIP3    H110167   4.593   5.321   1.780
 3408TIP3    H210168   4.581   5.446   1.695
 3409TIP3   OH210169   7.200   0.898   3.590
 3409TIP3    H110170   7.153   0.826   3.631
 3409TIP3    H210171   7.232   0.951   3.663
 3410TIP3   OH210172   2.913   0.299   6.245
 3410TIP3    H110173   2.912   0.361   6.172
 3410TIP3    H210174   2.959   0.222   6.211
 3411TIP3   OH210175   2.873   0.493   0.691
 3411TIP3    H110176   2.918   0.578   0.691
 3411TIP3    H210177   2.935   0.434   0.647
 3412TIP3   OH210178   3.733   6.853   4.720
 3412TIP3    H110179   3.708   6.861   4.812
 3412TIP3    H210180   3.826   6.830   4.721
 3413TIP3   OH210181   8.176   0.185   2.046
 3413TIP3    H110182   8.185   0.107   2.100
 3413TIP3    H210183   8.149   0.152   1.960
 3414TIP3   OH210184   4.979   3.742   6.737
 3414TIP3    H110185   5.042   3.692   6.685
 3414TIP3    H210186   4.911   3.767   6.674
 3415TIP3   OH210187   5.560   0.494   6.309
 3415TIP3    H110188   5.471   0.524   6.288
 3415TIP3    H210189   5.589   0.449   6.230
 3416TIP3   OH210190   6.867   2.329   0.651
 3416TIP3    H110191   6.893   2.256   0.707
 3416TIP3    H210192   6.935   2.333   0.583
 3417TIP3   OH210193   0.329   1.380   2.365
 3417TIP3    H110194   0.239   1.404   2.342
 3417TIP3    H210195   0.375   1.463   2.374
 3418TIP3   OH210196   4.509   0.609   2.501
 3418TIP3    H110197   4.447   0.674   2.533
 3418TIP3    H210198   4.478   0.526   2.537
 3419TIP3   OH210199   2.030   4.574   2.223
 3419TIP3    H110200   2.115   4.577   2.267
 3419TIP3    H210201   2.002   4.666   2.219
 3420TIP3   OH210202   7.812   4.286   2.142
 3420TIP3    H110203   7.833   4.214   2.202
 3420TIP3    H210204   7.799   4.243   2.057
 3421TIP3   OH210205   6.463   6.932   4.612
 3421TIP3    H110206   6.426   6.964   4.694
 3421TIP3    H210207   6.388   6.892   4.566
 3422TIP3   OH210208   5.974   6.855   6.129
 3422TIP3    H110209   5.884   6.881   6.112
 3422TIP3    H210210   5.989   6.780   6.071
 3423TIP3   OH210211   4.227   1.727   0.496
 3423TIP3    H110212   4.231   1.729   0.400
 3423TIP3    H210213   4.250   1.638   0.519
 3424TIP3   OH210214   6.830   6.829   2.805
 3424TIP3    H110215   6.860   6.886   2.875
 3424TIP3    H210216   6.815   6.887   2.731
 3425TIP3   OH210217   5.928   0.619   4.283
 3425TIP3    H110218   5.916   0.562   4.207
 3425TIP3    H210219   5.943   0.706   4.245
 3426TIP3   OH210220   5.680   5.730   2.131
 3426TIP3    H110221   5.643   5.788   2.198
 3426TIP3    H210222   5.714   5.790   2.064
 3427TIP3   OH210223   0.854   5.475   5.975
 3427TIP3    H110224   0.898   5.540   6.031
 3427TIP3    H210225   0.916   5.459   5.904
 3428TIP3   OH210226   7.797   3.557   4.320
 3428TIP3    H110227   7.709   3.520   4.326
 3428TIP3    H210228   7.844   3.499   4.261
 3429TIP3   OH210229   1.556   4.187   5.608
 3429TIP3    H110230   1.492   4.249   5.644
 3429TIP3    H210231   1.516   4.101   5.623
 3430TIP3   OH210232   2.626   3.265   6.717
 3430TIP3    H110233   2.708   3.309   6.737
 3430TIP3    H210234   2.602   3.220   6.799
 3431TIP3   OH210235   6.544   2.094   1.849
 3431TIP3    H110236   6.496   2.011   1.840
 3431TIP3    H210237   6.482   2.160   1.820
 3432TIP3   OH210238   0.137   3.521   0.886
 3432TIP3    H110239   0.088   3.439   0.876
 3432TIP3    H210240   0.105   3.577   0.815
 3433TIP3   OH210241   3.194   1.346   3.636
 3433TIP3    H110242   3.231   1.268   3.595
 3433TIP3    H210243   3.270   1.396   3.667
 3434TIP3   OH210244   3.934   5.068   1.862
 3434TIP3    H110245   3.911   5.085   1.954
 3434TIP3    H210246   3.877   4.995   1.837
 3435TIP3   OH210247   0.077   3.072   2.017
 3435TIP3    H110248   0.139   3.142   2.039
 3435TIP3    H210249   0.086   3.009   2.088
 3436TIP3   OH210250   6.911   3.500   6.251
 3436TIP3    H110251   6.905   3.595   6.255
 3436TIP3    H210252   6.980   3.477   6.314
 3437TIP3   OH210253   7.216   3.970   3.913
 3437TIP3    H110254   7.233   3.909   3.984
 3437TIP3    H210255   7.121   3.971   3.904
 3438TIP3   OH210256   7.658   4.886   1.546
 3438TIP3    H110257   7.635   4.976   1.568
 3438TIP3    H210258   7.729   4.864   1.607
 3439TIP3   OH210259   1.652   1.105   4.515
 3439TIP3    H110260   1.722   1.124   4.453
 3439TIP3    H210261   1.677   1.021   4.555
 3440TIP3   OH210262   5.990   1.344   5.014
 3440TIP3    H110263   6.053   1.339   4.943
 3440TIP3    H210264   5.989   1.437   5.040
 3441TIP3   OH210265   1.818   4.706   4.711
 3441TIP3    H110266   1.836   4.737   4.623
 3441TIP3    H210267   1.854   4.773   4.769
 3442TIP3   OH210268   2.342   6.882   3.608
 3442TIP3    H110269   2.249   6.898   3.627
 3442TIP3    H210270   2.346   6.789   3.586
 3443TIP3   OH210271   2.377   5.539   5.018
 3443TIP3    H110272   2.348   5.628   5.037
 3443TIP3    H210273   2.296   5.492   4.998
 3444TIP3   OH210274   4.827   2.088   1.443
 3444TIP3    H110275   4.752   2.041   1.479
 3444TIP3    H210276   4.859   2.141   1.516
 3445TIP3   OH210277   0.137   3.398   6.692
 3445TIP3    H110278   0.064   3.436   6.741
 3445TIP3    H210279   0.157   3.463   6.625
 3446TIP3   OH210280   7.415   1.847   5.922
 3446TIP3    H110281   7.483   1.863   5.987
 3446TIP3    H210282   7.334   1.875   5.964
 3447TIP3   OH210283   4.656   7.454   1.491
 3447TIP3    H110284   4.621   7.373   1.528
 3447TIP3    H210285   4.744   7.460   1.527
 3448TIP3   OH210286   1.432   1.418   1.782
 3448TIP3    H110287   1.448   1.325   1.802
 3448TIP3    H210288   1.419   1.458   1.868
 3449TIP3   OH210289   4.989   1.618   2.819
 3449TIP3    H110290   5.004   1.681   2.890
 3449TIP3    H210291   5.033   1.538   2.849
 3450TIP3   OH210292   6.968   3.366   3.448
 3450TIP3    H110293   6.876   3.340   3.445
 3450TIP3    H210294   7.016   3.284   3.444
 3451TIP3   OH210295   6.574   4.711   4.490
 3451TIP3    H110296   6.594   4.714   4.583
 3451TIP3    H210297   6.614   4.791   4.454
 3452TIP3   OH210298   7.697   1.169   1.660
 3452TIP3    H110299   7.611   1.147   1.695
 3452TIP3    H210300   7.729   1.087   1.622
 3453TIP3   OH210301   5.392   0.106   4.793
 3453TIP3    H110302   5.476   0.081   4.830
 3453TIP3    H210303   5.328   0.085   4.861
 3454TIP3   OH210304   6.345   0.197   3.898
 3454TIP3    H110305   6.386   0.146   3.827
 3454TIP3    H210306   6.330   0.283   3.859
 3455TIP3   OH210307   3.609   3.372   6.176
 3455TIP3    H110308   3.525   3.409   6.202
 3455TIP3    H210309   3.613   3.386   6.081
 3456TIP3   OH210310   0.478   1.012   5.986
 3456TIP3    H110311   0.447   0.994   6.075
 3456TIP3    H210312   0.398   1.008   5.932
 3457TIP3   OH210313   3.531   3.212   2.737
 3457TIP3    H110314   3.553   3.283   2.677
 3457TIP3    H210315   3.605   3.152   2.732
 3458TIP3   OH210316   7.828   1.420   6.169
 3458TIP3    H110317   7.811   1.344   6.225
 3458TIP3    H210318   7.920   1.410   6.143
 3459TIP3   OH210319   4.049   1.115   2.202
 3459TIP3    H110320   4.020   1.143   2.115
 3459TIP3    H210321   4.142   1.138   2.206
 3460TIP3   OH210322   4.373   5.392   3.907
 3460TIP3    H110323   4.388   5.364   3.816
 3460TIP3    H210324   4.393   5.485   3.907
 3461TIP3   OH210325   2.068   3.087   6.075
 3461TIP3    H110326   2.141   3.127   6.028
 3461TIP3    H210327   2.027   3.160   6.121
 3462TIP3   OH210328   0.675   7.718   5.260
 3462TIP3    H110329   0.688   7.633   5.302
 3462TIP3    H210330   0.598   7.756   5.303
 3463TIP3   OH210331   3.659   4.442   4.818
 3463TIP3    H110332   3.688   4.533   4.826
 3463TIP3    H210333   3.571   4.448   4.781
 3464TIP3   OH210334   2.820   7.500   2.389
 3464TIP3    H110335   2.814   7.563   2.461
 3464TIP3    H210336   2.739   7.514   2.340
 3465TIP3   OH210337   0.434   5.677   6.041
 3465TIP3    H110338   0.429   5.773   6.038
 3465TIP3    H210339   0.511   5.659   6.095
 3466TIP3   OH210340   2.422   0.451   3.021
 3466TIP3    H110341   2.459   0.425   2.936
 3466TIP3    H210342   2.373   0.374   3.050
 3467TIP3   OH210343   7.280   2.342   3.601
 3467TIP3    H110344   7.282   2.301   3.687
 3467TIP3    H210345   7.366   2.382   3.591
 3468TIP3   OH210346   7.720   2.738   0.719
 3468TIP3    H110347   7.663   2.667   0.689
 3468TIP3    H210348   7.798   2.694   0.753
 3469TIP3   OH210349   5.208   1.227   0.906
 3469TIP3    H110350   5.244   1.309   0.940
 3469TIP3    H210351   5.273   1.195   0.844
 3470TIP3   OH210352   6.565   2.077   4.674
 3470TIP3    H110353   6.530   2.104   4.759
 3470TIP3    H210354   6.557   2.154   4.619
 3471TIP3   OH210355   0.631   4.067   5.807
 3471TIP3    H110356   0.700   4.099   5.749
 3471TIP3    H210357   0.567   4.138   5.811
 3472TIP3   OH210358   6.915   4.388   0.219
 3472TIP3    H110359   6.851   4.399   0.290
 3472TIP3    H210360   6.872   4.425   0.142
 3473TIP3   OH210361   1.167   4.933   6.232
 3473TIP3    H110362   1.082   4.932   6.275
 3473TIP3    H210363   1.231   4.933   6.304
 3474TIP3   OH210364   1.260   3.348   5.671
 3474TIP3    H110365   1.295   3.302   5.595
 3474TIP3    H210366   1.167   3.326   5.672
 3475TIP3   OH210367   6.416   5.240   6.650
 3475TIP3    H110368   6.440   5.155   6.612
 3475TIP3    H210369   6.432   5.229   6.744
 3476TIP3   OH210370   2.761   3.477   4.709
 3476TIP3    H110371   2.745   3.401   4.653
 3476TIP3    H210372   2.679   3.527   4.706
 3477TIP3   OH210373   7.241   1.542   2.679
 3477TIP3    H110374   7.156   1.580   2.700
 3477TIP3    H210375   7.301   1.580   2.743
 3478TIP3   OH210376   6.940   5.025   6.737
 3478TIP3    H110377   7.015   4.966   6.729
 3478TIP3    H210378   6.867   4.976   6.699
 3479TIP3   OH210379   6.586   4.578   1.731
 3479TIP3    H110380   6.620   4.496   1.767
 3479TIP3    H210381   6.536   4.617   1.803
 3480TIP3   OH210382   0.599   2.733   0.733
 3480TIP3    H110383   0.600   2.640   0.757
 3480TIP3    H210384   0.555   2.736   0.648
 3481TIP3   OH210385   1.086   2.812   3.126
 3481TIP3    H110386   1.067   2.804   3.032
 3481TIP3    H210387   1.042   2.893   3.152
 3482TIP3   OH210388   1.816   0.512   6.493
 3482TIP3    H110389   1.895   0.541   6.538
 3482TIP3    H210390   1.813   0.565   6.414
 3483TIP3   OH210391   3.130   2.378   6.198
 3483TIP3    H110392   3.213   2.334   6.183
 3483TIP3    H210393   3.148   2.442   6.266
 3484TIP3   OH210394   7.228   4.596   5.850
 3484TIP3    H110395   7.311   4.636   5.824
 3484TIP3    H210396   7.249   4.503   5.857
 3485TIP3   OH210397   7.590   2.231   1.484
 3485TIP3    H110398   7.526   2.266   1.422
 3485TIP3    H210399   7.665   2.291   1.479
 3486TIP3   OH210400   4.904   5.602   1.902
 3486TIP3    H110401   4.924   5.679   1.849
 3486TIP3    H210402   4.930   5.528   1.848
 3487TIP3   OH210403   2.707   7.371   3.459
 3487TIP3    H110404   2.698   7.339   3.548
 3487TIP3    H210405   2.730   7.463   3.469
 3488TIP3   OH210406   8.165   6.367   1.370
 3488TIP3    H110407   8.237   6.325   1.417
 3488TIP3    H210408   8.092   6.366   1.432
 3489TIP3   OH210409   5.648   5.568   0.077
 3489TIP3    H110410   5.728   5.518   0.060
 3489TIP3    H210411   5.674   5.633   0.143
 3490TIP3   OH210412   0.337   3.037   6.202
 3490TIP3    H110413   0.408   3.045   6.265
 3490TIP3    H210414   0.285   3.117   6.214
 3491TIP3   OH210415   2.428   0.855   4.018
 3491TIP3    H110416   2.483   0.791   4.064
 3491TIP3    H210417   2.339   0.824   4.031
 3492TIP3   OH210418   4.873   6.383   5.010
 3492TIP3    H110419   4.847   6.332   4.933
 3492TIP3    H210420   4.943   6.332   5.050
 3493TIP3   OH210421   5.899   4.395   0.099
 3493TIP3    H110422   5.839   4.362   0.032
 3493TIP3    H210423   5.842   4.423   0.171
 3494TIP3   OH210424   0.869   1.287   2.685
 3494TIP3    H110425   0.875   1.309   2.592
 3494TIP3    H210426   0.921   1.354   2.729
 3495TIP3   OH210427   7.432   0.495   6.335
 3495TIP3    H110428   7.416   0.549   6.258
 3495TIP3    H210429   7.433   0.405   6.303
 3496TIP3   OH210430   7.734   3.657   2.081
 3496TIP3    H110431   7.798   3.588   2.062
 3496TIP3    H210432   7.657   3.610   2.113
 3497TIP3   OH210433   6.119   4.571   1.979
 3497TIP3    H110434   6.182   4.541   1.914
 3497TIP3    H210435   6.033   4.557   1.939
 3498TIP3   OH210436   1.086   2.986   2.342
 3498TIP3    H110437   1.060   2.950   2.257
 3498TIP3    H210438   1.028   2.944   2.405
 3499TIP3   OH210439   2.354   5.496   0.432
 3499TIP3    H110440   2.434   5.540   0.460
 3499TIP3    H210441   2.352   5.509   0.337
 3500TIP3   OH210442   0.264   2.646   1.326
 3500TIP3    H110443   0.358   2.629   1.332
 3500TIP3    H210444   0.244   2.697   1.404
 3501TIP3   OH210445   3.429   1.117   6.018
 3501TIP3    H110446   3.423   1.174   6.095
 3501TIP3    H210447   3.484   1.044   6.045
 3502TIP3   OH210448   1.337   1.167   1.558
 3502TIP3    H110449   1.283   1.092   1.581
 3502TIP3    H210450   1.275   1.231   1.523
 3503TIP3   OH210451   4.111   3.028   3.500
 3503TIP3    H110452   4.054   2.989   3.433
 3503TIP3    H210453   4.105   3.122   3.483
 3504TIP3   OH210454   6.600   7.659   1.867
 3504TIP3    H110455   6.612   7.754   1.863
 3504TIP3    H210456   6.514   7.648   1.909
 3505TIP3   OH210457   0.066   1.549   5.985
 3505TIP3    H110458   0.109   1.533   6.069
 3505TIP3    H210459   0.046   1.643   5.985
 3506TIP3   OH210460   8.211   5.687   4.402
 3506TIP3    H110461   8.183   5.653   4.487
 3506TIP3    H210462   8.288   5.635   4.378
 3507TIP3   OH210463   6.779   1.387   5.243
 3507TIP3    H110464   6.699   1.439   5.236
 3507TIP3    H210465   6.752   1.299   5.215
 3508TIP3   OH210466   6.812   5.440   4.461
 3508TIP3    H110467   6.802   5.421   4.554
 3508TIP3    H210468   6.723   5.449   4.428
 3509TIP3   OH210469   4.126   2.045   1.075
 3509TIP3    H110470   4.057   1.995   1.032
 3509TIP3    H210471   4.170   1.981   1.131
 3510TIP3   OH210472   1.175   2.220   2.218
 3510TIP3    H110473   1.111   2.188   2.155
 3510TIP3    H210474   1.260   2.194   2.181
 3511TIP3   OH210475   0.211   4.453   4.267
 3511TIP3    H110476   0.180   4.431   4.179
 3511TIP3    H210477   0.141   4.426   4.325
 3512TIP3   OH210478   1.935   4.828   2.192
 3512TIP3    H110479   1.860   4.808   2.136
 3512TIP3    H210480   1.941   4.923   2.192
 3513TIP3   OH210481   8.307   2.364   5.313
 3513TIP3    H110482   8.253   2.349   5.235
 3513TIP3    H210483   8.245   2.357   5.386
 3514TIP3   OH210484   5.001   3.628   2.730
 3514TIP3    H110485   4.946   3.673   2.665
 3514TIP3    H210486   5.060   3.573   2.677
 3515TIP3   OH210487   5.829   2.655   4.317
 3515TIP3    H110488   5.784   2.636   4.235
 3515TIP3    H210489   5.922   2.643   4.298
 3516TIP3   OH210490   1.473   1.159   3.792
 3516TIP3    H110491   1.449   1.074   3.829
 3516TIP3    H210492   1.419   1.169   3.715
 3517TIP3   OH210493   1.818   5.167   1.851
 3517TIP3    H110494   1.860   5.233   1.906
 3517TIP3    H210495   1.794   5.097   1.912
 3518TIP3   OH210496   6.078   5.287   3.270
 3518TIP3    H110497   6.040   5.209   3.311
 3518TIP3    H210498   6.110   5.340   3.343
 3519TIP3   OH210499   2.224   7.718   5.832
 3519TIP3    H110500   2.199   7.665   5.757
 3519TIP3    H210501   2.242   7.805   5.796
 3520TIP3   OH210502   8.259   1.597   1.091
 3520TIP3    H110503   8.239   1.511   1.055
 3520TIP3    H210504   8.174   1.637   1.110
 3521TIP3   OH210505   0.955   3.610   0.395
 3521TIP3    H110506   0.895   3.541   0.424
 3521TIP3    H210507   0.927   3.688   0.443
 3522TIP3   OH210508   5.956   4.183   5.359
 3522TIP3    H110509   6.026   4.155   5.300
 3522TIP3    H210510   5.876   4.171   5.308
 3523TIP3   OH210511   3.221   0.464   3.367
 3523TIP3    H110512   3.195   0.545   3.411
 3523TIP3    H210513   3.317   0.463   3.373
 3524TIP3   OH210514   5.693   2.230   0.065
 3524TIP3    H110515   5.770   2.230   0.008
 3524TIP3    H210516   5.620   2.246   0.005
 3525TIP3   OH210517   4.574   0.101   3.366
 3525TIP3    H110518   4.592   0.139   3.280
 3525TIP3    H210519   4.650   0.046   3.384
 3526TIP3   OH210520   2.837   2.763   1.447
 3526TIP3    H110521   2.911   2.797   1.498
 3526TIP3    H210522   2.788   2.840   1.420
 3527TIP3   OH210523   6.639   7.325   4.384
 3527TIP3    H110524   6.708   7.295   4.443
 3527TIP3    H210525   6.660   7.418   4.368
 3528TIP3   OH210526   0.049   5.716   1.496
 3528TIP3    H110527   0.014   5.656   1.430
 3528TIP3    H210528   0.056   5.663   1.576
 3529TIP3   OH210529   6.825   6.040   1.436
 3529TIP3    H110530   6.836   6.059   1.529
 3529TIP3    H210531   6.839   6.125   1.393
 3530TIP3   OH210532   2.738   0.808   2.532
 3530TIP3    H110533   2.831   0.799   2.511
 3530TIP3    H210534   2.718   0.901   2.516
 3531TIP3   OH210535   6.758   5.006   2.230
 3531TIP3    H110536   6.837   4.977   2.184
 3531TIP3    H210537   6.736   5.090   2.189
 3532TIP3   OH210538   3.058   0.928   6.461
 3532TIP3    H110539   3.068   0.932   6.556
 3532TIP3    H210540   2.981   0.873   6.447
 3533TIP3   OH210541   6.965   4.524   3.698
 3533TIP3    H110542   6.944   4.437   3.734
 3533TIP3    H210543   6.890   4.578   3.720
 3534TIP3   OH210544   5.065   6.353   1.914
 3534TIP3    H110545   5.106   6.383   1.833
 3534TIP3    H210546   5.078   6.258   1.915
 3535TIP3   OH210547   1.739   7.136   5.511
 3535TIP3    H110548   1.787   7.218   5.523
 3535TIP3    H210549   1.750   7.115   5.418
 3536TIP3   OH210550   5.614   1.563   6.576
 3536TIP3    H110551   5.596   1.469   6.569
 3536TIP3    H210552   5.694   1.576   6.524
 3537TIP3   OH210553   6.477   3.621   3.979
 3537TIP3    H110554   6.529   3.542   3.962
 3537TIP3    H210555   6.423   3.631   3.900
 3538TIP3   OH210556   4.851   3.051   2.393
 3538TIP3    H110557   4.870   3.144   2.406
 3538TIP3    H210558   4.796   3.027   2.468
 3539TIP3   OH210559   7.237   1.251   1.384
 3539TIP3    H110560   7.250   1.162   1.351
 3539TIP3    H210561   7.303   1.304   1.338
 3540TIP3   OH210562   5.162   2.150   4.373
 3540TIP3    H110563   5.121   2.212   4.433
 3540TIP3    H210564   5.094   2.084   4.357
 3541TIP3   OH210565   6.926   2.934   0.634
 3541TIP3    H110566   7.004   2.983   0.660
 3541TIP3    H210567   6.960   2.851   0.600
 3542TIP3   OH210568   0.368   7.674   6.663
 3542TIP3    H110569   0.400   7.714   6.582
 3542TIP3    H210570   0.318   7.597   6.635
 3543TIP3   OH210571   0.643   7.777   1.905
 3543TIP3    H110572   0.609   7.709   1.846
 3543TIP3    H210573   0.678   7.728   1.979
 3544TIP3   OH210574   4.616   3.963   4.367
 3544TIP3    H110575   4.638   3.904   4.439
 3544TIP3    H210576   4.688   3.952   4.304
 3545TIP3   OH210577   5.273   0.453   0.286
 3545TIP3    H110578   5.225   0.495   0.357
 3545TIP3    H210579   5.347   0.511   0.270
 3546TIP3   OH210580   2.579   6.279   6.126
 3546TIP3    H110581   2.532   6.196   6.110
 3546TIP3    H210582   2.589   6.318   6.040
 3547TIP3   OH210583   5.566   0.173   5.642
 3547TIP3    H110584   5.559   0.122   5.562
 3547TIP3    H210585   5.656   0.158   5.672
 3548TIP3   OH210586   4.023   0.097   6.539
 3548TIP3    H110587   4.053   0.186   6.553
 3548TIP3    H210588   4.084   0.043   6.589
 3549TIP3   OH210589   3.230   5.896   4.566
 3549TIP3    H110590   3.325   5.884   4.563
 3549TIP3    H210591   3.195   5.808   4.551
 3550TIP3   OH210592   4.223   7.315   5.825
 3550TIP3    H110593   4.131   7.291   5.809
 3550TIP3    H210594   4.270   7.233   5.820
 3551TIP3   OH210595   0.074   5.873   4.114
 3551TIP3    H110596   0.133   5.870   4.039
 3551TIP3    H210597   0.102   5.801   4.170
 3552TIP3   OH210598   1.722   5.357   2.589
 3552TIP3    H110599   1.783   5.301   2.636
 3552TIP3    H210600   1.755   5.358   2.499
 3553TIP3   OH210601   3.302   3.116   2.593
 3553TIP3    H110602   3.381   3.157   2.630
 3553TIP3    H210603   3.336   3.050   2.533
 3554TIP3   OH210604   5.618   7.547   6.536
 3554TIP3    H110605   5.601   7.470   6.482
 3554TIP3    H210606   5.657   7.611   6.476
 3555TIP3   OH210607   0.775   7.358   6.060
 3555TIP3    H110608   0.721   7.286   6.027
 3555TIP3    H210609   0.852   7.315   6.097
 3556TIP3   OH210610   5.819   1.862   6.211
 3556TIP3    H110611   5.840   1.899   6.297
 3556TIP3    H210612   5.850   1.927   6.148
 3557TIP3   OH210613   1.099   2.243   4.761
 3557TIP3    H110614   1.042   2.171   4.791
 3557TIP3    H210615   1.043   2.321   4.766
 3558TIP3   OH210616   6.719   2.912   5.935
 3558TIP3    H110617   6.784   2.983   5.941
 3558TIP3    H210618   6.666   2.936   5.858
 3559TIP3   OH210619   3.695   3.081   6.117
 3559TIP3    H110620   3.655   3.162   6.149
 3559TIP3    H210621   3.781   3.108   6.084
 3560TIP3   OH210622   4.382   4.140   3.149
 3560TIP3    H110623   4.304   4.084   3.152
 3560TIP3    H210624   4.428   4.121   3.231
 3561TIP3   OH210625   2.674   0.559   0.499
 3561TIP3    H110626   2.733   0.521   0.564
 3561TIP3    H210627   2.587   0.533   0.528
 3562TIP3   OH210628   2.292   5.953   3.666
 3562TIP3    H110629   2.375   5.980   3.706
 3562TIP3    H210630   2.314   5.872   3.620
 3563TIP3   OH210631   3.239   0.679   1.311
 3563TIP3    H110632   3.321   0.640   1.341
 3563TIP3    H210633   3.221   0.637   1.227
 3564TIP3   OH210634   0.573   1.230   0.944
 3564TIP3    H110635   0.487   1.218   0.904
 3564TIP3    H210636   0.558   1.214   1.037
 3565TIP3   OH210637   8.245   7.712   1.366
 3565TIP3    H110638   8.164   7.685   1.408
 3565TIP3    H210639   8.314   7.690   1.429
 3566TIP3   OH210640   2.639   7.736   4.478
 3566TIP3    H110641   2.713   7.717   4.535
 3566TIP3    H210642   2.674   7.726   4.389
 3567TIP3   OH210643   3.737   0.672   4.827
 3567TIP3    H110644   3.672   0.732   4.791
 3567TIP3    H210645   3.821   0.707   4.798
 3568TIP3   OH210646   7.490   7.225   5.723
 3568TIP3    H110647   7.508   7.136   5.693
 3568TIP3    H210648   7.397   7.238   5.703
 3569TIP3   OH210649   7.060   1.097   4.607
 3569TIP3    H110650   7.030   1.186   4.629
 3569TIP3    H210651   6.989   1.061   4.553
 3570TIP3   OH210652   5.964   6.254   3.359
 3570TIP3    H110653   5.996   6.339   3.330
 3570TIP3    H210654   5.890   6.275   3.417
 3571TIP3   OH210655   0.515   7.543   4.664
 3571TIP3    H110656   0.440   7.594   4.694
 3571TIP3    H210657   0.587   7.605   4.660
 3572TIP3   OH210658   3.359   6.214   4.588
 3572TIP3    H110659   3.273   6.173   4.576
 3572TIP3    H210660   3.351   6.260   4.672
 3573TIP3   OH210661   2.414   1.651   3.779
 3573TIP3    H110662   2.386   1.587   3.844
 3573TIP3    H210663   2.377   1.618   3.697
 3574TIP3   OH210664   0.694   2.770   6.608
 3574TIP3    H110665   0.665   2.720   6.685
 3574TIP3    H210666   0.671   2.714   6.534
 3575TIP3   OH210667   2.503   1.002   4.980
 3575TIP3    H110668   2.570   0.983   5.046
 3575TIP3    H210669   2.470   1.089   5.004
 3576TIP3   OH210670   5.127   5.279   5.150
 3576TIP3    H110671   5.220   5.283   5.128
 3576TIP3    H210672   5.107   5.365   5.185
 3577TIP3   OH210673   6.692   1.914   2.262
 3577TIP3    H110674   6.620   1.880   2.315
 3577TIP3    H210675   6.771   1.887   2.308
 3578TIP3   OH210676   7.639   6.240   3.046
 3578TIP3    H110677   7.675   6.316   3.000
 3578TIP3    H210678   7.716   6.193   3.078
 3579TIP3   OH210679   3.358   1.819   5.945
 3579TIP3    H110680   3.433   1.850   5.995
 3579TIP3    H210681   3.306   1.897   5.929
 3580TIP3   OH210682   7.984   3.066   4.108
 3580TIP3    H110683   8.026   3.023   4.033
 3580TIP3    H210684   8.038   3.041   4.183
 3581TIP3   OH210685   5.696   3.804   2.404
 3581TIP3    H110686   5.616   3.850   2.380
 3581TIP3    H210687   5.765   3.851   2.359
 3582TIP3   OH210688   0.438   1.190   3.649
 3582TIP3    H110689   0.491   1.149   3.718
 3582TIP3    H210690   0.471   1.153   3.567
 3583TIP3   OH210691   6.186   5.111   3.501
 3583TIP3    H110692   6.242   5.051   3.453
 3583TIP3    H210693   6.229   5.124   3.585
 3584TIP3   OH210694   5.580   2.324   5.296
 3584TIP3    H110695   5.575   2.229   5.286
 3584TIP3    H210696   5.507   2.358   5.245
 3585TIP3   OH210697   0.079   4.891   1.552
 3585TIP3    H110698   0.031   4.960   1.506
 3585TIP3    H210699   0.011   4.840   1.597
 3586TIP3   OH210700   5.241   7.597   4.167
 3586TIP3    H110701   5.192   7.634   4.094
 3586TIP3    H210702   5.220   7.655   4.241
 3587TIP3   OH210703   5.471   4.494   0.833
 3587TIP3    H110704   5.444   4.402   0.837
 3587TIP3    H210705   5.409   4.539   0.891
 3588TIP3   OH210706   3.561   5.069   1.271
 3588TIP3    H110707   3.536   4.980   1.248
 3588TIP3    H210708   3.558   5.071   1.367
 3589TIP3   OH210709   1.148   2.842   4.178
 3589TIP3    H110710   1.222   2.833   4.238
 3589TIP3    H210711   1.188   2.864   4.093
 3590TIP3   OH210712   3.243   0.213   5.465
 3590TIP3    H110713   3.214   0.280   5.527
 3590TIP3    H210714   3.241   0.131   5.515
 3591TIP3   OH210715   6.237   3.331   4.795
 3591TIP3    H110716   6.199   3.292   4.715
 3591TIP3    H210717   6.314   3.378   4.764
 3592TIP3   OH210718   7.261   7.572   6.326
 3592TIP3    H110719   7.209   7.630   6.381
 3592TIP3    H210720   7.307   7.514   6.388
 3593TIP3   OH210721   4.685   6.671   4.197
 3593TIP3    H110722   4.762   6.692   4.144
 3593TIP3    H210723   4.682   6.576   4.197
 3594TIP3   OH210724   6.588   3.332   1.539
 3594TIP3    H110725   6.666   3.280   1.520
 3594TIP3    H210726   6.617   3.400   1.599
 3595TIP3   OH210727   3.654   6.512   3.562
 3595TIP3    H110728   3.659   6.607   3.566
 3595TIP3    H210729   3.604   6.494   3.481
 3596TIP3   OH210730   6.990   0.868   1.499
 3596TIP3    H110731   6.934   0.891   1.573
 3596TIP3    H210732   6.929   0.837   1.432
 3597TIP3   OH210733   7.399   3.255  -0.019
 3597TIP3    H110734   7.342   3.207   0.041
 3597TIP3    H210735   7.377   3.347  -0.005
 3598TIP3   OH210736   7.538   6.105   2.187
 3598TIP3    H110737   7.576   6.018   2.201
 3598TIP3    H210738   7.444   6.089   2.178
 3599TIP3   OH210739   0.631   7.276   2.146
 3599TIP3    H110740   0.679   7.310   2.221
 3599TIP3    H210741   0.588   7.197   2.178
 3600TIP3   OH210742   7.029   0.406   0.471
 3600TIP3    H110743   6.951   0.350   0.475
 3600TIP3    H210744   7.100   0.350   0.503
 3601TIP3   OH210745   6.015   5.913   1.164
 3601TIP3    H110746   5.934   5.861   1.167
 3601TIP3    H210747   6.075   5.860   1.113
 3602TIP3   OH210748   5.197   1.736   3.844
 3602TIP3    H110749   5.119   1.730   3.900
 3602TIP3    H210750   5.178   1.809   3.784
 3603TIP3   OH210751   4.472   4.051   3.399
 3603TIP3    H110752   4.562   4.084   3.408
 3603TIP3    H210753   4.481   3.956   3.403
 3604TIP3   OH210754   4.542   2.274   1.130
 3604TIP3    H110755   4.591   2.206   1.083
 3604TIP3    H210756   4.534   2.241   1.219
 3605TIP3   OH210757   5.127   3.404   4.211
 3605TIP3    H110758   5.104   3.354   4.289
 3605TIP3    H210759   5.143   3.493   4.244
 3606TIP3   OH210760   2.009   2.101   0.950
 3606TIP3    H110761   2.035   2.062   0.867
 3606TIP3    H210762   1.958   2.032   0.993
 3607TIP3   OH210763   3.670   2.655   3.001
 3607TIP3    H110764   3.590   2.613   2.968
 3607TIP3    H210765   3.648   2.748   3.003
 3608TIP3   OH210766   0.352   2.259   6.198
 3608TIP3    H110767   0.428   2.307   6.228
 3608TIP3    H210768   0.334   2.294   6.111
 3609TIP3   OH210769   1.047   6.453   0.732
 3609TIP3    H110770   0.997   6.491   0.804
 3609TIP3    H210771   1.138   6.469   0.755
 3610TIP3   OH210772   3.935   4.713   5.435
 3610TIP3    H110773   3.920   4.801   5.401
 3610TIP3    H210774   3.951   4.660   5.357
 3611TIP3   OH210775   3.603   6.565   5.444
 3611TIP3    H110776   3.614   6.610   5.528
 3611TIP3    H210777   3.532   6.502   5.459
 3612TIP3   OH210778   1.838   3.809   5.789
 3612TIP3    H110779   1.792   3.848   5.863
 3612TIP3    H210780   1.768   3.781   5.729
 3613TIP3   OH210781   3.194   4.719   0.680
 3613TIP3    H110782   3.113   4.701   0.633
 3613TIP3    H210783   3.189   4.665   0.759
 3614TIP3   OH210784   1.191   3.426   6.565
 3614TIP3    H110785   1.182   3.378   6.648
 3614TIP3    H210786   1.183   3.518   6.590
 3615TIP3   OH210787   2.255   6.706   2.881
 3615TIP3    H110788   2.276   6.623   2.924
 3615TIP3    H210789   2.177   6.687   2.829
 3616TIP3   OH210790   5.239   6.190   0.161
 3616TIP3    H110791   5.144   6.193   0.171
 3616TIP3    H210792   5.262   6.278   0.132
 3617TIP3   OH210793   4.740   1.308   2.106
 3617TIP3    H110794   4.652   1.286   2.075
 3617TIP3    H210795   4.799   1.275   2.039
 3618TIP3   OH210796   0.913   6.556   1.282
 3618TIP3    H110797   0.828   6.517   1.264
 3618TIP3    H210798   0.976   6.488   1.260
 3619TIP3   OH210799   0.774   5.805   6.266
 3619TIP3    H110800   0.741   5.795   6.355
 3619TIP3    H210801   0.723   5.742   6.214
 3620TIP3   OH210802   3.331   6.350   6.565
 3620TIP3    H110803   3.318   6.279   6.628
 3620TIP3    H210804   3.347   6.305   6.482
 3621TIP3   OH210805   5.171   1.598   1.519
 3621TIP3    H110806   5.251   1.638   1.487
 3621TIP3    H210807   5.163   1.627   1.610
 3622TIP3   OH210808   7.621   2.258   3.127
 3622TIP3    H110809   7.532   2.288   3.105
 3622TIP3    H210810   7.676   2.296   3.059
 3623TIP3   OH210811   6.464   0.662   6.060
 3623TIP3    H110812   6.545   0.627   6.022
 3623TIP3    H210813   6.425   0.588   6.106
 3624TIP3   OH210814   7.952   5.165   3.842
 3624TIP3    H110815   8.038   5.194   3.814
 3624TIP3    H210816   7.927   5.227   3.910
 3625TIP3   OH210817   0.813   0.609   3.075
 3625TIP3    H110818   0.731   0.650   3.103
 3625TIP3    H210819   0.828   0.643   2.987
 3626TIP3   OH210820   6.844   2.020   4.041
 3626TIP3    H110821   6.774   2.025   4.106
 3626TIP3    H210822   6.842   1.930   4.010
 3627TIP3   OH210823   7.135   3.867   2.574
 3627TIP3    H110824   7.163   3.959   2.572
 3627TIP3    H210825   7.187   3.828   2.643
 3628TIP3   OH210826   7.140   7.521   3.813
 3628TIP3    H110827   7.105   7.574   3.743
 3628TIP3    H210828   7.209   7.575   3.853
 3629TIP3   OH210829   1.168   2.598   1.511
 3629TIP3    H110830   1.158   2.668   1.576
 3629TIP3    H210831   1.263   2.593   1.496
 3630TIP3   OH210832   8.093   2.596   1.568
 3630TIP3    H110833   8.180   2.556   1.574
 3630TIP3    H210834   8.041   2.549   1.633
 3631TIP3   OH210835   5.611   3.174   4.486
 3631TIP3    H110836   5.698   3.161   4.523
 3631TIP3    H210837   5.563   3.221   4.553
 3632TIP3   OH210838   3.890   0.798   5.307
 3632TIP3    H110839   3.897   0.839   5.221
 3632TIP3    H210840   3.959   0.732   5.308
 3633TIP3   OH210841   6.098   6.256   2.925
 3633TIP3    H110842   6.028   6.260   2.860
 3633TIP3    H210843   6.096   6.341   2.968
 3634TIP3   OH210844   7.095   2.414   0.969
 3634TIP3    H110845   7.099   2.486   0.905
 3634TIP3    H210846   7.003   2.412   0.997
 3635TIP3   OH210847   0.645   0.254   0.847
 3635TIP3    H110848   0.551   0.242   0.862
 3635TIP3    H210849   0.686   0.239   0.932
 3636TIP3   OH210850   1.931   1.528   2.882
 3636TIP3    H110851   2.010   1.537   2.935
 3636TIP3    H210852   1.963   1.495   2.798
 3637TIP3   OH210853   4.555   6.121   3.303
 3637TIP3    H110854   4.471   6.091   3.338
 3637TIP3    H210855   4.544   6.117   3.208
 3638TIP3   OH210856   7.122   5.397   1.360
 3638TIP3    H110857   7.150   5.345   1.436
 3638TIP3    H210858   7.186   5.376   1.292
 3639TIP3   OH210859   6.064   2.330   0.586
 3639TIP3    H110860   6.115   2.404   0.618
 3639TIP3    H210861   6.128   2.270   0.549
 3640TIP3   OH210862   6.748   1.730   2.699
 3640TIP3    H110863   6.803   1.801   2.732
 3640TIP3    H210864   6.725   1.679   2.777
 3641TIP3   OH210865   5.190   7.467   6.378
 3641TIP3    H110866   5.239   7.467   6.460
 3641TIP3    H210867   5.099   7.480   6.404
 3642TIP3   OH210868   5.037   6.427   4.250
 3642TIP3    H110869   5.094   6.396   4.180
 3642TIP3    H210870   4.957   6.456   4.205
 3643TIP3   OH210871   3.846   2.174   6.333
 3643TIP3    H110872   3.855   2.098   6.391
 3643TIP3    H210873   3.822   2.246   6.392
 3644TIP3   OH210874   4.993   0.599   4.985
 3644TIP3    H110875   5.036   0.584   5.069
 3644TIP3    H210876   5.020   0.525   4.931
 3645TIP3   OH210877   7.887   0.994   5.167
 3645TIP3    H110878   7.820   0.965   5.106
 3645TIP3    H210879   7.894   1.088   5.151
 3646TIP3   OH210880   7.270   4.938   1.078
 3646TIP3    H110881   7.272   4.962   1.170
 3646TIP3    H210882   7.179   4.912   1.062
 3647TIP3   OH210883   4.757   4.674   1.853
 3647TIP3    H110884   4.772   4.732   1.779
 3647TIP3    H210885   4.694   4.609   1.820
 3648TIP3   OH210886   8.114   0.308   0.091
 3648TIP3    H110887   8.051   0.236   0.089
 3648TIP3    H210888   8.078   0.370   0.154
 3649TIP3   OH210889   0.773   4.300   3.846
 3649TIP3    H110890   0.686   4.284   3.810
 3649TIP3    H210891   0.764   4.279   3.939
 3650TIP3   OH210892   0.006   5.100   0.504
 3650TIP3    H110893   0.082   5.101   0.563
 3650TIP3    H210894  -0.040   5.182   0.523
 3651TIP3   OH210895   3.652   0.097   3.669
 3651TIP3    H110896   3.722   0.135   3.723
 3651TIP3    H210897   3.666   0.002   3.676
 3652TIP3   OH210898   1.258   3.599   3.463
 3652TIP3    H110899   1.195   3.576   3.531
 3652TIP3    H210900   1.249   3.530   3.398
 3653TIP3   OH210901   7.646   1.578   1.972
 3653TIP3    H110902   7.737   1.567   1.945
 3653TIP3    H210903   7.598   1.592   1.891
 3654TIP3   OH210904   0.507   6.856   4.816
 3654TIP3    H110905   0.424   6.808   4.820
 3654TIP3    H210906   0.486   6.944   4.848
 3655TIP3   OH210907   0.138   6.550   5.646
 3655TIP3    H110908   0.121   6.462   5.681
 3655TIP3    H210909   0.190   6.593   5.713
 3656TIP3   OH210910   0.067   4.985   1.112
 3656TIP3    H110911   0.105   5.060   1.158
 3656TIP3    H210912   0.029   5.023   1.032
 3657TIP3   OH210913   2.866   2.125   0.379
 3657TIP3    H110914   2.901   2.059   0.439
 3657TIP3    H210915   2.804   2.077   0.324
 3658TIP3   OH210916   8.158   6.317   1.777
 3658TIP3    H110917   8.161   6.397   1.830
 3658TIP3    H210918   8.086   6.332   1.716
 3659TIP3   OH210919   0.744   2.520   1.806
 3659TIP3    H110920   0.730   2.481   1.720
 3659TIP3    H210921   0.676   2.481   1.862
 3660TIP3   OH210922   3.821   2.554   1.786
 3660TIP3    H110923   3.799   2.542   1.693
 3660TIP3    H210924   3.772   2.486   1.831
 3661TIP3   OH210925   2.908   2.348   0.164
 3661TIP3    H110926   2.884   2.296   0.240
 3661TIP3    H210927   2.996   2.319   0.142
 3662TIP3   OH210928   4.723   1.072   1.504
 3662TIP3    H110929   4.728   1.004   1.437
 3662TIP3    H210930   4.723   1.154   1.454
 3663TIP3   OH210931   5.964   6.053   0.173
 3663TIP3    H110932   5.979   5.961   0.151
 3663TIP3    H210933   6.033   6.075   0.235
 3664TIP3   OH210934   2.621   6.907   3.731
 3664TIP3    H110935   2.618   6.844   3.659
 3664TIP3    H210936   2.598   6.991   3.691
 3665TIP3   OH210937   5.889   3.488   4.944
 3665TIP3    H110938   5.880   3.548   5.018
 3665TIP3    H210939   5.924   3.542   4.874
 3666TIP3   OH210940   1.882   7.057   1.998
 3666TIP3    H110941   1.879   6.971   1.956
 3666TIP3    H210942   1.805   7.103   1.964
 3667TIP3   OH210943   5.304   6.694   1.220
 3667TIP3    H110944   5.238   6.687   1.152
 3667TIP3    H210945   5.309   6.788   1.239
 3668TIP3   OH210946   4.835   2.621   0.062
 3668TIP3    H110947   4.866   2.705   0.029
 3668TIP3    H210948   4.859   2.559  -0.007
 3669TIP3   OH210949   3.660   0.110   2.234
 3669TIP3    H110950   3.697   0.108   2.322
 3669TIP3    H210951   3.626   0.021   2.220
 3670TIP3   OH210952   7.017   3.770   1.356
 3670TIP3    H110953   7.050   3.768   1.266
 3670TIP3    H210954   7.043   3.856   1.390
 3671TIP3   OH210955   0.211   5.265   1.162
 3671TIP3    H110956   0.236   5.263   1.255
 3671TIP3    H210957   0.155   5.342   1.154
 3672TIP3   OH210958   3.236   2.932   3.278
 3672TIP3    H110959   3.160   2.878   3.301
 3672TIP3    H210960   3.308   2.893   3.327
 3673TIP3   OH210961   5.712   1.741   3.687
 3673TIP3    H110962   5.707   1.658   3.639
 3673TIP3    H210963   5.621   1.769   3.698
 3674TIP3   OH210964   3.252   3.504   2.720
 3674TIP3    H110965   3.341   3.527   2.747
 3674TIP3    H210966   3.264   3.441   2.649
 3675TIP3   OH210967   5.901   4.891   5.858
 3675TIP3    H110968   5.911   4.796   5.858
 3675TIP3    H210969   5.811   4.907   5.884
 3676TIP3   OH210970   6.729   7.118   6.270
 3676TIP3    H110971   6.762   7.202   6.240
 3676TIP3    H210972   6.676   7.139   6.347
 3677TIP3   OH210973   6.516   5.115   3.479
 3677TIP3    H110974   6.468   5.045   3.522
 3677TIP3    H210975   6.590   5.133   3.537
 3678TIP3   OH210976   1.935   4.750   3.516
 3678TIP3    H110977   2.010   4.696   3.541
 3678TIP3    H210978   1.874   4.740   3.589
 3679TIP3   OH210979   5.666   7.416   3.111
 3679TIP3    H110980   5.640   7.359   3.183
 3679TIP3    H210981   5.741   7.372   3.072
 3680TIP3   OH210982   3.836   0.930   3.748
 3680TIP3    H110983   3.796   0.851   3.713
 3680TIP3    H210984   3.917   0.941   3.698
 3681TIP3   OH210985   4.978   5.068   6.323
 3681TIP3    H110986   4.985   5.106   6.235
 3681TIP3    H210987   4.934   4.984   6.310
 3682TIP3   OH210988   1.928   1.558   1.647
 3682TIP3    H110989   2.002   1.555   1.708
 3682TIP3    H210990   1.852   1.535   1.701
 3683TIP3   OH210991   4.972   0.139   5.697
 3683TIP3    H110992   4.918   0.194   5.641
 3683TIP3    H210993   5.055   0.131   5.650
 3684TIP3   OH210994   8.081   4.997   3.229
 3684TIP3    H110995   8.049   4.913   3.263
 3684TIP3    H210996   8.003   5.053   3.226
 3685TIP3   OH210997   2.419   0.610   0.560
 3685TIP3    H110998   2.442   0.674   0.627
 3685TIP3    H210999   2.417   0.661   0.479
 3686TIP3   OH211000   3.262   2.394   5.649
 3686TIP3    H111001   3.202   2.469   5.655
 3686TIP3    H211002   3.206   2.318   5.666
 3687TIP3   OH211003   2.605   3.721   4.737
 3687TIP3    H111004   2.679   3.772   4.704
 3687TIP3    H211005   2.640   3.673   4.812
 3688TIP3   OH211006   2.981   5.673   2.622
 3688TIP3    H111007   2.935   5.607   2.673
 3688TIP3    H211008   3.062   5.688   2.670
 3689TIP3   OH211009   5.296   7.138   3.010
 3689TIP3    H111010   5.334   7.051   3.005
 3689TIP3    H211011   5.203   7.123   3.030
 3690TIP3   OH211012   5.342   5.093   0.168
 3690TIP3    H111013   5.319   5.000   0.167
 3690TIP3    H211014   5.310   5.127   0.084
 3691TIP3   OH211015   1.564   0.974   4.977
 3691TIP3    H111016   1.498   0.996   5.043
 3691TIP3    H211017   1.582   1.057   4.933
 3692TIP3   OH211018   3.059   2.266   1.131
 3692TIP3    H111019   2.975   2.287   1.172
 3692TIP3    H211020   3.097   2.350   1.107
 3693TIP3   OH211021   1.143   3.022   1.841
 3693TIP3    H111022   1.202   3.097   1.838
 3693TIP3    H211023   1.056   3.061   1.839
 3694TIP3   OH211024   5.172   0.725   2.743
 3694TIP3    H111025   5.132   0.790   2.801
 3694TIP3    H211026   5.172   0.768   2.657
 3695TIP3   OH211027   7.302   5.366   3.926
 3695TIP3    H111028   7.375   5.378   3.865
 3695TIP3    H211029   7.328   5.415   4.004
 3696TIP3   OH211030   3.922   6.808   3.331
 3696TIP3    H111031   3.945   6.715   3.324
 3696TIP3    H211032   3.834   6.813   3.293
 3697TIP3   OH211033   3.810   4.881   4.346
 3697TIP3    H111034   3.787   4.970   4.319
 3697TIP3    H211035   3.726   4.843   4.374
 3698TIP3   OH211036   4.597   5.298   3.725
 3698TIP3    H111037   4.686   5.264   3.727
 3698TIP3    H211038   4.542   5.224   3.750
 3699TIP3   OH211039   3.303   3.761   1.304
 3699TIP3    H111040   3.223   3.802   1.337
 3699TIP3    H211041   3.276   3.674   1.276
 3700TIP3   OH211042   7.148   4.639   4.859
 3700TIP3    H111043   7.228   4.590   4.841
 3700TIP3    H211044   7.134   4.630   4.953
 3701TIP3   OH211045   8.114   5.500   6.260
 3701TIP3    H111046   8.139   5.475   6.171
 3701TIP3    H211047   8.187   5.553   6.291
 3702TIP3   OH211048   3.098   5.056   5.354
 3702TIP3    H111049   3.188   5.084   5.338
 3702TIP3    H211050   3.077   5.001   5.279
 3703TIP3   OH211051   0.213   1.289   4.527
 3703TIP3    H111052   0.222   1.327   4.439
 3703TIP3    H211053   0.119   1.279   4.539
 3704TIP3   OH211054   7.492   0.692   3.040
 3704TIP3    H111055   7.518   0.629   3.107
 3704TIP3    H211056   7.539   0.772   3.063
 3705TIP3   OH211057   5.661   4.148   1.737
 3705TIP3    H111058   5.640   4.199   1.659
 3705TIP3    H211059   5.587   4.088   1.748
 3706TIP3   OH211060   2.576   3.903   3.801
 3706TIP3    H111061   2.596   3.820   3.844
 3706TIP3    H211062   2.536   3.878   3.718
 3707TIP3   OH211063   4.645   4.525   4.725
 3707TIP3    H111064   4.618   4.435   4.747
 3707TIP3    H211065   4.667   4.565   4.810
 3708TIP3   OH211066   4.141   7.211   4.271
 3708TIP3    H111067   4.078   7.229   4.201
 3708TIP3    H211068   4.088   7.179   4.344
 3709TIP3   OH211069   1.250   0.184   3.156
 3709TIP3    H111070   1.268   0.222   3.243
 3709TIP3    H211071   1.154   0.183   3.151
 3710TIP3   OH211072   6.701   6.989   4.489
 3710TIP3    H111073   6.703   7.047   4.413
 3710TIP3    H211074   6.609   6.969   4.502
 3711TIP3   OH211075   5.570   1.099   5.641
 3711TIP3    H111076   5.476   1.085   5.629
 3711TIP3    H211077   5.579   1.117   5.735
 3712TIP3   OH211078   4.553   0.095   0.621
 3712TIP3    H111079   4.474   0.135   0.583
 3712TIP3    H211080   4.624   0.154   0.597
 3713TIP3   OH211081   5.312   6.716   1.761
 3713TIP3    H111082   5.370   6.701   1.686
 3713TIP3    H211083   5.363   6.687   1.837
 3714TIP3   OH211084   1.686   3.132   4.951
 3714TIP3    H111085   1.759   3.085   4.991
 3714TIP3    H211086   1.608   3.090   4.988
 3715TIP3   OH211087   4.276   4.426   1.052
 3715TIP3    H111088   4.321   4.495   1.003
 3715TIP3    H211089   4.209   4.472   1.102
 3716TIP3   OH211090   1.138   4.667   1.529
 3716TIP3    H111091   1.066   4.684   1.468
 3716TIP3    H211092   1.168   4.753   1.557
 3717TIP3   OH211093   3.978   7.179   6.781
 3717TIP3    H111094   3.886   7.204   6.789
 3717TIP3    H211095   3.987   7.152   6.689
 3718TIP3   OH211096   0.598   4.321   6.219
 3718TIP3    H111097   0.577   4.262   6.147
 3718TIP3    H211098   0.666   4.379   6.183
 3719TIP3   OH211099   5.982   1.875   5.282
 3719TIP3    H111100   6.033   1.883   5.362
 3719TIP3    H211101   5.925   1.800   5.296
 3720TIP3   OH211102   5.276   7.079   5.909
 3720TIP3    H111103   5.248   7.068   6.000
 3720TIP3    H211104   5.241   7.003   5.863
 3721TIP3   OH211105   8.193   4.803   0.679
 3721TIP3    H111106   8.222   4.863   0.748
 3721TIP3    H211107   8.115   4.845   0.642
 3722TIP3   OH211108   5.005   0.195   4.501
 3722TIP3    H111109   5.077   0.174   4.442
 3722TIP3    H211110   4.942   0.124   4.488
 3723TIP3   OH211111   2.670   1.018   1.121
 3723TIP3    H111112   2.637   1.107   1.135
 3723TIP3    H211113   2.649   1.000   1.029
 3724TIP3   OH211114   8.096   0.580   4.265
 3724TIP3    H111115   8.034   0.543   4.328
 3724TIP3    H211116   8.060   0.666   4.244
 3725TIP3   OH211117   4.123   5.426   1.343
 3725TIP3    H111118   4.192   5.362   1.358
 3725TIP3    H211119   4.110   5.468   1.428
 3726TIP3   OH211120   2.173   6.982   1.391
 3726TIP3    H111121   2.187   6.910   1.453
 3726TIP3    H211122   2.233   6.963   1.319
 3727TIP3   OH211123   2.859   6.363   5.692
 3727TIP3    H111124   2.948   6.348   5.658
 3727TIP3    H211125   2.806   6.297   5.647
 3728TIP3   OH211126   0.876   3.651   6.588
 3728TIP3    H111127   0.887   3.611   6.674
 3728TIP3    H211128   0.813   3.722   6.602
 3729TIP3   OH211129   4.779   6.904   6.538
 3729TIP3    H111130   4.862   6.906   6.586
 3729TIP3    H211131   4.714   6.927   6.604
 3730TIP3   OH211132   1.814   4.407   4.731
 3730TIP3    H111133   1.826   4.496   4.699
 3730TIP3    H211134   1.760   4.416   4.810
 3731TIP3   OH211135   7.105   7.398   3.525
 3731TIP3    H111136   7.049   7.472   3.548
 3731TIP3    H211137   7.163   7.432   3.457
 3732TIP3   OH211138   8.283   7.213   1.062
 3732TIP3    H111139   8.241   7.202   0.977
 3732TIP3    H211140   8.268   7.304   1.086
 3733TIP3   OH211141   5.383   6.694   2.540
 3733TIP3    H111142   5.472   6.661   2.552
 3733TIP3    H211143   5.327   6.629   2.582
 3734TIP3   OH211144   3.687   1.992   3.190
 3734TIP3    H111145   3.711   2.075   3.231
 3734TIP3    H211146   3.725   1.925   3.247
 3735TIP3   OH211147   1.427   1.210   5.591
 3735TIP3    H111148   1.380   1.127   5.598
 3735TIP3    H211149   1.368   1.275   5.631
 3736TIP3   OH211150   0.061   4.121   6.301
 3736TIP3    H111151   0.010   4.195   6.335
 3736TIP3    H211152   0.139   4.160   6.263
 3737TIP3   OH211153   5.805   0.145   0.433
 3737TIP3    H111154   5.738   0.181   0.492
 3737TIP3    H211155   5.813   0.054   0.460
 3738TIP3   OH211156   4.206   0.364   3.091
 3738TIP3    H111157   4.295   0.365   3.125
 3738TIP3    H211158   4.176   0.274   3.104
 3739TIP3   OH211159   5.302   1.436   2.801
 3739TIP3    H111160   5.394   1.443   2.774
 3739TIP3    H211161   5.305   1.435   2.896
 3740TIP3   OH211162   2.693   2.524   1.419
 3740TIP3    H111163   2.651   2.511   1.505
 3740TIP3    H211164   2.736   2.609   1.426
 3741TIP3   OH211165   1.510   3.885   2.405
 3741TIP3    H111166   1.506   3.850   2.316
 3741TIP3    H211167   1.433   3.849   2.449
 3742TIP3   OH211168   8.106   3.751   2.497
 3742TIP3    H111169   8.152   3.717   2.420
 3742TIP3    H211170   8.014   3.751   2.472
 3743TIP3   OH211171   2.079   5.472   4.738
 3743TIP3    H111172   2.072   5.439   4.828
 3743TIP3    H211173   2.117   5.559   4.746
 3744TIP3   OH211174   3.802   5.799   2.856
 3744TIP3    H111175   3.840   5.731   2.800
 3744TIP3    H211176   3.709   5.799   2.836
 3745TIP3   OH211177   1.219   2.504   1.855
 3745TIP3    H111178   1.270   2.437   1.810
 3745TIP3    H211179   1.129   2.471   1.854
 3746TIP3   OH211180   6.788   6.346   0.843
 3746TIP3    H111181   6.815   6.350   0.751
 3746TIP3    H211182   6.776   6.437   0.869
 3747TIP3   OH211183   7.675   0.070   4.457
 3747TIP3    H111184   7.683  -0.025   4.451
 3747TIP3    H211185   7.654   0.087   4.549
 3748TIP3   OH211186   0.707   7.451   2.381
 3748TIP3    H111187   0.710   7.503   2.301
 3748TIP3    H211188   0.798   7.447   2.410
 3749TIP3   OH211189   6.219   0.759   2.420
 3749TIP3    H111190   6.271   0.814   2.479
 3749TIP3    H211191   6.260   0.673   2.425
 3750TIP3   OH211192   2.393   3.087   4.926
 3750TIP3    H111193   2.480   3.075   4.889
 3750TIP3    H211194   2.346   3.006   4.904
 3751TIP3   OH211195   4.151   3.771   1.338
 3751TIP3    H111196   4.125   3.838   1.274
 3751TIP3    H211197   4.068   3.742   1.377
 3752TIP3   OH211198   6.760   4.523   4.006
 3752TIP3    H111199   6.688   4.517   4.068
 3752TIP3    H211200   6.822   4.455   4.034
 3753TIP3   OH211201   2.318   4.752   6.193
 3753TIP3    H111202   2.277   4.817   6.250
 3753TIP3    H211203   2.298   4.782   6.104
 3754TIP3   OH211204   0.771   5.836   3.103
 3754TIP3    H111205   0.832   5.909   3.097
 3754TIP3    H211206   0.739   5.840   3.193
 3755TIP3   OH211207   0.201   5.801   2.535
 3755TIP3    H111208   0.296   5.796   2.522
 3755TIP3    H211209   0.164   5.780   2.450
 3756TIP3   OH211210   2.303   4.601   3.642
 3756TIP3    H111211   2.329   4.509   3.640
 3756TIP3    H211212   2.315   4.631   3.552
 3757TIP3   OH211213   3.693   3.837   1.425
 3757TIP3    H111214   3.760   3.835   1.356
 3757TIP3    H211215   3.722   3.906   1.484
 3758TIP3   OH211216   6.345   6.281   1.594
 3758TIP3    H111217   6.434   6.315   1.607
 3758TIP3    H211218   6.351   6.222   1.519
 3759TIP3   OH211219   5.334   4.685   3.248
 3759TIP3    H111220   5.425   4.663   3.227
 3759TIP3    H211221   5.319   4.770   3.207
 3760TIP3   OH211222   2.004   2.685   1.280
 3760TIP3    H111223   2.022   2.721   1.366
 3760TIP3    H211224   1.915   2.713   1.260
 3761TIP3   OH211225   3.902   4.717   0.605
 3761TIP3    H111226   3.870   4.794   0.654
 3761TIP3    H211227   3.861   4.726   0.519
 3762TIP3   OH211228   1.796   4.530   4.271
 3762TIP3    H111229   1.753   4.464   4.325
 3762TIP3    H211230   1.725   4.584   4.237
 3763TIP3   OH211231   4.201   7.661   6.237
 3763TIP3    H111232   4.163   7.633   6.154
 3763TIP3    H211233   4.183   7.755   6.241
 3764TIP3   OH211234   1.617   5.851   3.085
 3764TIP3    H111235   1.684   5.783   3.081
 3764TIP3    H211236   1.558   5.832   3.013
 3765TIP3   OH211237   6.634   3.421   3.215
 3765TIP3    H111238   6.634   3.516   3.215
 3765TIP3    H211239   6.657   3.397   3.305
 3766TIP3   OH211240   2.967   5.620   5.414
 3766TIP3    H111241   3.061   5.605   5.405
 3766TIP3    H211242   2.954   5.637   5.507
 3767TIP3   OH211243   2.038   0.703   0.565
 3767TIP3    H111244   2.079   0.636   0.619
 3767TIP3    H211245   1.974   0.745   0.622
 3768TIP3   OH211246   0.227   0.515   1.195
 3768TIP3    H111247   0.283   0.565   1.255
 3768TIP3    H211248   0.156   0.482   1.251
 3769TIP3   OH211249   7.540   7.633   0.195
 3769TIP3    H111250   7.627   7.611   0.163
 3769TIP3    H211251   7.515   7.559   0.250
 3770TIP3   OH211252   6.402   2.264   5.545
 3770TIP3    H111253   6.445   2.184   5.575
 3770TIP3    H211254   6.355   2.238   5.465
 3771TIP3   OH211255   4.052   2.309   1.379
 3771TIP3    H111256   4.010   2.310   1.293
 3771TIP3    H211257   4.132   2.360   1.367
 3772TIP3   OH211258   2.006   3.676   6.145
 3772TIP3    H111259   1.911   3.662   6.148
 3772TIP3    H211260   2.017   3.770   6.161
 3773TIP3   OH211261   7.622   7.017   3.683
 3773TIP3    H111262   7.592   7.075   3.753
 3773TIP3    H211263   7.588   7.057   3.603
 3774TIP3   OH211264   1.447   6.244   0.565
 3774TIP3    H111265   1.496   6.301   0.625
 3774TIP3    H211266   1.392   6.190   0.622
 3775TIP3   OH211267   5.991   4.795   4.820
 3775TIP3    H111268   6.073   4.775   4.775
 3775TIP3    H211269   5.923   4.762   4.762
 3776TIP3   OH211270   5.921   0.171   2.452
 3776TIP3    H111271   5.993   0.109   2.441
 3776TIP3    H211272   5.842   0.120   2.437
 3777TIP3   OH211273   2.820   6.107   6.584
 3777TIP3    H111274   2.798   6.018   6.556
 3777TIP3    H211275   2.796   6.162   6.510
 3778TIP3   OH211276   1.764   4.751   5.072
 3778TIP3    H111277   1.813   4.689   5.126
 3778TIP3    H211278   1.825   4.774   5.001
 3779TIP3   OH211279   0.738  -0.014   3.472
 3779TIP3    H111280   0.677   0.028   3.412
 3779TIP3    H211281   0.710   0.016   3.559
 3780TIP3   OH211282   6.759   5.852   3.426
 3780TIP3    H111283   6.673   5.889   3.408
 3780TIP3    H211284   6.803   5.850   3.341
 3781TIP3   OH211285   7.943   3.196   2.367
 3781TIP3    H111286   7.854   3.205   2.334
 3781TIP3    H211287   7.995   3.169   2.291
 3782TIP3   OH211288   2.931   0.401   5.019
 3782TIP3    H111289   2.886   0.452   5.086
 3782TIP3    H211290   3.024   0.414   5.037
 3783TIP3   OH211291   4.927   2.532   2.410
 3783TIP3    H111292   4.841   2.493   2.426
 3783TIP3    H211293   4.988   2.477   2.459
 3784TIP3   OH211294   5.913   7.748   0.815
 3784TIP3    H111295   5.894   7.841   0.821
 3784TIP3    H211296   5.934   7.733   0.723
 3785TIP3   OH211297   6.108   2.570   6.120
 3785TIP3    H111298   6.055   2.571   6.040
 3785TIP3    H211299   6.194   2.602   6.093
 3786TIP3   OH211300   4.670   1.387   5.621
 3786TIP3    H111301   4.729   1.360   5.551
 3786TIP3    H211302   4.618   1.308   5.639
 3787TIP3   OH211303   4.502   6.017   4.168
 3787TIP3    H111304   4.483   5.945   4.228
 3787TIP3    H211305   4.590   6.046   4.191
 3788TIP3   OH211306   7.976   0.267   2.256
 3788TIP3    H111307   8.043   0.245   2.320
 3788TIP3    H211308   8.019   0.258   2.171
 3789TIP3   OH211309   1.079   1.827   4.413
 3789TIP3    H111310   1.125   1.748   4.442
 3789TIP3    H211311   1.145   1.896   4.417
 3790TIP3   OH211312   7.026   2.916   1.077
 3790TIP3    H111313   7.056   3.000   1.040
 3790TIP3    H211314   7.039   2.926   1.171
 3791TIP3   OH211315   7.950   5.315   0.293
 3791TIP3    H111316   7.858   5.340   0.296
 3791TIP3    H211317   7.989   5.374   0.230
 3792TIP3   OH211318   0.070   4.909   6.002
 3792TIP3    H111319  -0.025   4.920   5.990
 3792TIP3    H211320   0.080   4.880   6.092
 3793TIP3   OH211321   6.197   5.494   5.856
 3793TIP3    H111322   6.169   5.519   5.945
 3793TIP3    H211323   6.152   5.556   5.799
 3794TIP3   OH211324   6.854   1.050   1.662
 3794TIP3    H111325   6.815   1.137   1.669
 3794TIP3    H211326   6.925   1.051   1.725
 3795TIP3   OH211327   7.698   7.488   5.803
 3795TIP3    H111328   7.736   7.403   5.824
 3795TIP3    H211329   7.699   7.537   5.885
 3796TIP3   OH211330   5.872   5.428   1.818
 3796TIP3    H111331   5.871   5.333   1.810
 3796TIP3    H211332   5.964   5.453   1.806
 3797TIP3   OH211333   0.625   7.552   0.752
 3797TIP3    H111334   0.680   7.512   0.820
 3797TIP3    H211335   0.651   7.644   0.751
 3798TIP3   OH211336   7.473   0.657   5.126
 3798TIP3    H111337   7.416   0.615   5.190
 3798TIP3    H211338   7.444   0.749   5.124
 3799TIP3   OH211339   7.474   3.408   1.624
 3799TIP3    H111340   7.449   3.398   1.532
 3799TIP3    H211341   7.482   3.503   1.636
 3800TIP3   OH211342   5.529   0.249   6.198
 3800TIP3    H111343   5.487   0.270   6.115
 3800TIP3    H211344   5.473   0.181   6.237
 3801TIP3   OH211345   4.202   3.571   6.010
 3801TIP3    H111346   4.194   3.595   6.103
 3801TIP3    H211347   4.165   3.483   6.005
 3802TIP3   OH211348   3.234   3.501   1.229
 3802TIP3    H111349   3.159   3.545   1.189
 3802TIP3    H211350   3.214   3.408   1.218
 3803TIP3   OH211351   3.740   0.780   0.563
 3803TIP3    H111352   3.662   0.798   0.511
 3803TIP3    H211353   3.768   0.866   0.595
 3804TIP3   OH211354   6.719   4.260   5.851
 3804TIP3    H111355   6.692   4.305   5.931
 3804TIP3    H211356   6.670   4.304   5.781
 3805TIP3   OH211357   0.684   0.247   2.430
 3805TIP3    H111358   0.679   0.343   2.436
 3805TIP3    H211359   0.593   0.220   2.417
 3806TIP3   OH211360   4.761   7.727   3.353
 3806TIP3    H111361   4.700   7.723   3.427
 3806TIP3    H211362   4.705   7.741   3.276
 3807TIP3   OH211363   4.930   4.331   1.694
 3807TIP3    H111364   4.987   4.404   1.721
 3807TIP3    H211365   4.868   4.322   1.766
 3808TIP3   OH211366   7.369   2.990   1.706
 3808TIP3    H111367   7.420   2.940   1.770
 3808TIP3    H211368   7.283   2.948   1.706
 3809TIP3   OH211369   0.546   0.360   4.126
 3809TIP3    H111370   0.609   0.292   4.149
 3809TIP3    H211371   0.493   0.372   4.205
 3810TIP3   OH211372   4.976   0.107   1.027
 3810TIP3    H111373   4.999   0.041   0.962
 3810TIP3    H211374   4.894   0.144   0.996
 3811TIP3   OH211375   6.143   2.916   4.174
 3811TIP3    H111376   6.197   2.994   4.187
 3811TIP3    H211377   6.173   2.855   4.242
 3812TIP3   OH211378   1.123   1.623   5.198
 3812TIP3    H111379   1.169   1.690   5.146
 3812TIP3    H211380   1.180   1.546   5.192
 3813TIP3   OH211381   1.652   4.848   1.296
 3813TIP3    H111382   1.740   4.878   1.317
 3813TIP3    H211383   1.622   4.907   1.226
 3814TIP3   OH211384   3.187   0.062   5.687
 3814TIP3    H111385   3.111   0.006   5.671
 3814TIP3    H211386   3.215   0.040   5.776
 3815TIP3   OH211387   2.696   0.025   5.302
 3815TIP3    H111388   2.757   0.046   5.231
 3815TIP3    H211389   2.616  -0.001   5.257
 3816TIP3   OH211390   6.961   0.981   2.379
 3816TIP3    H111391   6.896   1.022   2.322
 3816TIP3    H211392   7.042   0.983   2.328
 3817TIP3   OH211393   3.757   4.429   1.154
 3817TIP3    H111394   3.822   4.485   1.198
 3817TIP3    H211395   3.806   4.349   1.133
 3818TIP3   OH211396   6.563   3.476   3.658
 3818TIP3    H111397   6.535   3.565   3.681
 3818TIP3    H211398   6.588   3.436   3.741
 3819TIP3   OH211399   2.008   6.118   3.254
 3819TIP3    H111400   1.955   6.191   3.223
 3819TIP3    H211401   1.995   6.118   3.349
 3820TIP3   OH211402   1.064   5.694   5.526
 3820TIP3    H111403   1.130   5.662   5.464
 3820TIP3    H211404   1.034   5.777   5.488
 3821TIP3   OH211405   5.428   1.949   3.358
 3821TIP3    H111406   5.511   1.986   3.389
 3821TIP3    H211407   5.409   1.878   3.419
 3822TIP3   OH211408   4.143   3.102   0.838
 3822TIP3    H111409   4.132   3.131   0.748
 3822TIP3    H211410   4.055   3.107   0.876
 3823TIP3   OH211411   2.907   3.617   3.344
 3823TIP3    H111412   2.877   3.664   3.266
 3823TIP3    H211413   2.900   3.525   3.320
 3824TIP3   OH211414   3.105   5.061   2.499
 3824TIP3    H111415   3.173   5.083   2.563
 3824TIP3    H211416   3.089   5.142   2.451
 3825TIP3   OH211417   2.925   6.638   0.552
 3825TIP3    H111418   2.989   6.709   0.554
 3825TIP3    H211419   2.841   6.682   0.536
 3826TIP3   OH211420   2.806   3.220   0.484
 3826TIP3    H111421   2.831   3.277   0.556
 3826TIP3    H211422   2.850   3.257   0.407
 3827TIP3   OH211423   2.771   3.411   0.822
 3827TIP3    H111424   2.750   3.499   0.854
 3827TIP3    H211425   2.749   3.353   0.895
 3828TIP3   OH211426   6.513   7.715   3.524
 3828TIP3    H111427   6.576   7.785   3.544
 3828TIP3    H211428   6.439   7.760   3.485
 3829TIP3   OH211429   7.133   0.134   3.725
 3829TIP3    H111430   7.084   0.055   3.748
 3829TIP3    H211431   7.207   0.135   3.786
 3830TIP3   OH211432   3.476   2.771   2.705
 3830TIP3    H111433   3.467   2.778   2.800
 3830TIP3    H211434   3.566   2.742   2.692
 3831TIP3   OH211435   6.373   6.577   5.325
 3831TIP3    H111436   6.438   6.607   5.389
 3831TIP3    H211437   6.424   6.527   5.261
 3832TIP3   OH211438   3.417   5.358   5.922
 3832TIP3    H111439   3.418   5.298   5.997
 3832TIP3    H211440   3.352   5.424   5.945
 3833TIP3   OH211441   7.640   5.635   3.162
 3833TIP3    H111442   7.692   5.647   3.241
 3833TIP3    H211443   7.639   5.721   3.120
 3834TIP3   OH211444   4.167   3.018   6.671
 3834TIP3    H111445   4.207   2.933   6.686
 3834TIP3    H211446   4.172   3.030   6.576
 3835TIP3   OH211447   5.220   7.085   3.484
 3835TIP3    H111448   5.187   7.173   3.467
 3835TIP3    H211449   5.264   7.060   3.402
 3836TIP3   OH211450   5.433   5.510   5.978
 3836TIP3    H111451   5.483   5.461   6.044
 3836TIP3    H211452   5.482   5.498   5.897
 3837TIP3   OH211453   2.691   4.936   6.709
 3837TIP3    H111454   2.654   4.976   6.630
 3837TIP3    H211455   2.783   4.963   6.708
 3838TIP3   OH211456   2.779   3.176   2.437
 3838TIP3    H111457   2.733   3.243   2.489
 3838TIP3    H211458   2.863   3.167   2.480
 3839TIP3   OH211459   2.305   5.867   1.642
 3839TIP3    H111460   2.330   5.805   1.710
 3839TIP3    H211461   2.379   5.867   1.581
 3840TIP3   OH211462   5.728   7.765   5.315
 3840TIP3    H111463   5.815   7.786   5.349
 3840TIP3    H211464   5.682   7.849   5.312
 3841TIP3   OH211465   7.164   3.865   5.862
 3841TIP3    H111466   7.125   3.846   5.947
 3841TIP3    H211467   7.234   3.928   5.881
 3842TIP3   OH211468   4.461   5.978   2.455
 3842TIP3    H111469   4.522   5.907   2.434
 3842TIP3    H211470   4.395   5.937   2.511
 3843TIP3   OH211471   0.237   3.818   4.281
 3843TIP3    H111472   0.190   3.886   4.329
 3843TIP3    H211473   0.173   3.747   4.270
 3844TIP3   OH211474   3.756   3.962   5.240
 3844TIP3    H111475   3.763   3.917   5.156
 3844TIP3    H211476   3.722   4.049   5.218
 3845TIP3   OH211477   6.533   1.503   2.497
 3845TIP3    H111478   6.498   1.586   2.530
 3845TIP3    H211479   6.462   1.440   2.510
 3846TIP3   OH211480   3.235   6.906   4.206
 3846TIP3    H111481   3.237   6.810   4.209
 3846TIP3    H211482   3.156   6.930   4.254
 3847TIP3   OH211483   4.031   0.833   1.182
 3847TIP3    H111484   3.981   0.753   1.163
 3847TIP3    H211485   4.047   0.872   1.097
 3848TIP3   OH211486   3.951   1.912   0.870
 3848TIP3    H111487   4.034   1.898   0.825
 3848TIP3    H211488   3.907   1.827   0.869
 3849TIP3   OH211489   6.755   6.717   5.843
 3849TIP3    H111490   6.751   6.712   5.747
 3849TIP3    H211491   6.770   6.627   5.871
 3850TIP3   OH211492   6.122   1.535   2.600
 3850TIP3    H111493   6.032   1.504   2.612
 3850TIP3    H211494   6.164   1.520   2.685
 3851TIP3   OH211495   3.341   3.195   5.166
 3851TIP3    H111496   3.364   3.102   5.172
 3851TIP3    H211497   3.273   3.199   5.098
 3852TIP3   OH211498   3.099   3.455   0.949
 3852TIP3    H111499   3.072   3.519   0.883
 3852TIP3    H211500   3.023   3.398   0.959
 3853TIP3   OH211501   2.546   2.576   2.820
 3853TIP3    H111502   2.530   2.484   2.839
 3853TIP3    H211503   2.516   2.587   2.729
 3854TIP3   OH211504   1.288   2.184   3.797
 3854TIP3    H111505   1.220   2.223   3.741
 3854TIP3    H211506   1.243   2.165   3.879
 3855TIP3   OH211507   3.586   3.630   4.020
 3855TIP3    H111508   3.564   3.540   4.045
 3855TIP3    H211509   3.666   3.649   4.068
 3856TIP3   OH211510   0.206   7.009   4.572
 3856TIP3    H111511   0.167   6.990   4.657
 3856TIP3    H211512   0.291   7.049   4.593
 3857TIP3   OH211513   5.832   2.980   1.853
 3857TIP3    H111514   5.906   2.953   1.908
 3857TIP3    H211515   5.780   3.037   1.909
 3858TIP3   OH211516   0.514   1.911   1.582
 3858TIP3    H111517   0.469   1.835   1.545
 3858TIP3    H211518   0.599   1.912   1.539
 3859TIP3   OH211519   0.887   3.376   5.105
 3859TIP3    H111520   0.956   3.388   5.040
 3859TIP3    H211521   0.908   3.440   5.174
 3860TIP3   OH211522   5.731   5.948   0.333
 3860TIP3    H111523   5.737   5.856   0.306
 3860TIP3    H211524   5.822   5.977   0.341
 3861TIP3   OH211525   1.157   3.200   1.191
 3861TIP3    H111526   1.177   3.123   1.245
 3861TIP3    H211527   1.099   3.167   1.123
 3862TIP3   OH211528   1.972   5.168   3.703
 3862TIP3    H111529   2.024   5.113   3.644
 3862TIP3    H211530   1.890   5.120   3.715
 3863TIP3   OH211531   5.055   6.031   2.150
 3863TIP3    H111532   5.111   6.039   2.073
 3863TIP3    H211533   5.105   6.070   2.221
 3864TIP3   OH211534   0.465   0.612   2.153
 3864TIP3    H111535   0.429   0.612   2.064
 3864TIP3    H211536   0.533   0.680   2.151
 3865TIP3   OH211537   2.858   4.671   1.704
 3865TIP3    H111538   2.763   4.659   1.716
 3865TIP3    H211539   2.894   4.667   1.792
 3866TIP3   OH211540   6.890   4.504   1.655
 3866TIP3    H111541   6.949   4.524   1.583
 3866TIP3    H211542   6.880   4.409   1.653
 3867TIP3   OH211543   7.966   3.498   1.363
 3867TIP3    H111544   7.951   3.411   1.401
 3867TIP3    H211545   7.880   3.528   1.336
 3868TIP3   OH211546   3.202   6.178   0.567
 3868TIP3    H111547   3.202   6.148   0.658
 3868TIP3    H211548   3.273   6.242   0.562
 3869TIP3   OH211549   5.638   7.442   2.432
 3869TIP3    H111550   5.595   7.368   2.388
 3869TIP3    H211551   5.592   7.519   2.399
 3870TIP3   OH211552   1.719   0.473   0.291
 3870TIP3    H111553   1.690   0.384   0.268
 3870TIP3    H211554   1.794   0.459   0.349
 3871TIP3   OH211555   3.718   5.142   5.898
 3871TIP3    H111556   3.662   5.191   5.838
 3871TIP3    H211557   3.668   5.138   5.980
 3872TIP3   OH211558   1.977   5.443   5.245
 3872TIP3    H111559   2.005   5.354   5.270
 3872TIP3    H211560   1.959   5.437   5.151
 3873TIP3   OH211561   7.395   0.936   5.177
 3873TIP3    H111562   7.437   0.958   5.094
 3873TIP3    H211563   7.325   1.001   5.186
 3874TIP3   OH211564   4.206   1.257   3.302
 3874TIP3    H111565   4.278   1.193   3.304
 3874TIP3    H211566   4.238   1.328   3.248
 3875TIP3   OH211567   0.896   0.746   5.771
 3875TIP3    H111568   0.901   0.712   5.682
 3875TIP3    H211569   0.905   0.669   5.827
 3876TIP3   OH211570   0.171   5.894   2.845
 3876TIP3    H111571   0.187   5.879   2.752
 3876TIP3    H211572   0.229   5.968   2.867
 3877TIP3   OH211573   6.363   2.429   0.880
 3877TIP3    H111574   6.287   2.410   0.935
 3877TIP3    H211575   6.396   2.512   0.913
 3878TIP3   OH211576   2.186   5.903   1.073
 3878TIP3    H111577   2.135   5.836   1.028
 3878TIP3    H211578   2.212   5.964   1.005
 3879TIP3   OH211579   6.378   1.286   5.303
 3879TIP3    H111580   6.453   1.227   5.312
 3879TIP3    H211581   6.417   1.370   5.276
 3880TIP3   OH211582   7.754   7.673   3.682
 3880TIP3    H111583   7.660   7.661   3.694
 3880TIP3    H211584   7.781   7.733   3.752
 3881TIP3   OH211585   2.488   6.318   3.850
 3881TIP3    H111586   2.555   6.327   3.782
 3881TIP3    H211587   2.407   6.300   3.802
 3882TIP3   OH211588   3.386   1.528   4.959
 3882TIP3    H111589   3.456   1.465   4.942
 3882TIP3    H211590   3.344   1.540   4.875
 3883TIP3   OH211591   4.055   1.762   1.526
 3883TIP3    H111592   3.968   1.750   1.564
 3883TIP3    H211593   4.112   1.707   1.579
 3884TIP3   OH211594   5.442   3.853   3.228
 3884TIP3    H111595   5.450   3.758   3.223
 3884TIP3    H211596   5.373   3.875   3.166
 3885TIP3   OH211597   3.249   2.936   3.019
 3885TIP3    H111598   3.182   2.868   3.004
 3885TIP3    H211599   3.253   2.945   3.114
 3886TIP3   OH211600   5.532   7.250   4.174
 3886TIP3    H111601   5.501   7.323   4.121
 3886TIP3    H211602   5.455   7.194   4.184
 3887TIP3   OH211603   7.377   4.034   5.054
 3887TIP3    H111604   7.361   4.118   5.011
 3887TIP3    H211605   7.297   4.017   5.104
 3888TIP3   OH211606   6.854   0.483   1.858
 3888TIP3    H111607   6.855   0.398   1.815
 3888TIP3    H211608   6.844   0.546   1.787
 3889TIP3   OH211609   2.789   3.914   1.444
 3889TIP3    H111610   2.719   3.967   1.482
 3889TIP3    H211611   2.855   3.909   1.513
 3890TIP3   OH211612   2.100   3.304   6.313
 3890TIP3    H111613   2.159   3.374   6.340
 3890TIP3    H211614   2.110   3.237   6.380
 3891TIP3   OH211615   3.967   7.303   5.729
 3891TIP3    H111616   3.973   7.399   5.728
 3891TIP3    H211617   3.931   7.281   5.643
 3892TIP3   OH211618   5.556   2.343   5.593
 3892TIP3    H111619   5.465   2.314   5.607
 3892TIP3    H211620   5.578   2.311   5.506
 3893TIP3   OH211621   4.327   2.796   1.902
 3893TIP3    H111622   4.242   2.837   1.887
 3893TIP3    H211623   4.350   2.820   1.992
 3894TIP3   OH211624   6.021   1.886   1.003
 3894TIP3    H111625   5.979   1.917   0.923
 3894TIP3    H211626   5.998   1.950   1.070
 3895TIP3   OH211627   5.593   0.175   1.692
 3895TIP3    H111628   5.678   0.213   1.713
 3895TIP3    H211629   5.549   0.242   1.640
 3896TIP3   OH211630   3.726   3.684   1.000
 3896TIP3    H111631   3.792   3.741   1.041
 3896TIP3    H211632   3.655   3.681   1.064
 3897TIP3   OH211633   7.784   2.046   2.593
 3897TIP3    H111634   7.776   2.116   2.658
 3897TIP3    H211635   7.767   2.091   2.509
 3898TIP3   OH211636   4.477   6.359   2.838
 3898TIP3    H111637   4.398   6.337   2.887
 3898TIP3    H211638   4.472   6.454   2.826
 3899TIP3   OH211639   4.625   6.972   1.133
 3899TIP3    H111640   4.604   6.966   1.227
 3899TIP3    H211641   4.659   7.061   1.122
 3900TIP3   OH211642   3.617   1.376   6.611
 3900TIP3    H111643   3.612   1.304   6.548
 3900TIP3    H211644   3.654   1.336   6.690
 3901TIP3   OH211645   4.395   4.993   6.150
 3901TIP3    H111646   4.376   4.973   6.242
 3901TIP3    H211647   4.349   4.925   6.101
 3902TIP3   OH211648   2.137   0.449   1.366
 3902TIP3    H111649   2.047   0.422   1.347
 3902TIP3    H211650   2.167   0.384   1.430
 3903TIP3   OH211651   2.335   0.980   2.356
 3903TIP3    H111652   2.429   0.987   2.341
 3903TIP3    H211653   2.327   0.942   2.444
 3904TIP3   OH211654   8.007   6.670   1.268
 3904TIP3    H111655   8.012   6.601   1.334
 3904TIP3    H211656   7.963   6.628   1.193
 3905TIP3   OH211657   6.579   6.196   4.981
 3905TIP3    H111658   6.614   6.212   4.894
 3905TIP3    H211659   6.636   6.129   5.018
 3906TIP3   OH211660   2.164   7.321   6.370
 3906TIP3    H111661   2.092   7.357   6.318
 3906TIP3    H211662   2.215   7.397   6.397
 3907TIP3   OH211663   5.138   0.518   2.904
 3907TIP3    H111664   5.148   0.585   2.836
 3907TIP3    H211665   5.226   0.505   2.938
 3908TIP3   OH211666   6.631   1.965   2.590
 3908TIP3    H111667   6.539   1.987   2.600
 3908TIP3    H211668   6.637   1.873   2.616
 3909TIP3   OH211669   7.016   3.978   0.744
 3909TIP3    H111670   7.010   4.064   0.785
 3909TIP3    H211671   6.927   3.960   0.712
 3910TIP3   OH211672   0.091   6.434   3.266
 3910TIP3    H111673   0.132   6.449   3.181
 3910TIP3    H211674  -0.003   6.446   3.250
 3911TIP3   OH211675   1.916   6.146   2.235
 3911TIP3    H111676   1.842   6.086   2.246
 3911TIP3    H211677   1.992   6.089   2.226
 3912TIP3   OH211678   2.402   7.094   0.333
 3912TIP3    H111679   2.364   7.114   0.247
 3912TIP3    H211680   2.480   7.044   0.313
 3913TIP3   OH211681   6.119   0.051   0.590
 3913TIP3    H111682   6.161  -0.010   0.651
 3913TIP3    H211683   6.031   0.064   0.625
 3914TIP3   OH211684   8.121   1.890   2.528
 3914TIP3    H111685   8.039   1.937   2.514
 3914TIP3    H211686   8.183   1.958   2.556
 3915TIP3   OH211687   4.765   1.204   0.564
 3915TIP3    H111688   4.768   1.297   0.583
 3915TIP3    H211689   4.688   1.172   0.610
 3916TIP3   OH211690   4.447   1.908   0.064
 3916TIP3    H111691   4.386   1.925  -0.008
 3916TIP3    H211692   4.417   1.966   0.134
 3917TIP3   OH211693   7.913   0.331   3.663
 3917TIP3    H111694   7.904   0.383   3.743
 3917TIP3    H211695   8.000   0.354   3.629
 3918TIP3   OH211696   2.462   3.425   0.211
 3918TIP3    H111697   2.450   3.512   0.173
 3918TIP3    H211698   2.530   3.436   0.277
 3919TIP3   OH211699   6.953   1.899   5.492
 3919TIP3    H111700   6.881   1.918   5.431
 3919TIP3    H211701   7.024   1.957   5.464
 3920TIP3   OH211702   1.219   2.631   6.583
 3920TIP3    H111703   1.164   2.709   6.586
 3920TIP3    H211704   1.183   2.577   6.513
 3921TIP3   OH211705   0.133   4.605   4.937
 3921TIP3    H111706   0.122   4.654   5.019
 3921TIP3    H211707   0.224   4.574   4.940
 3922TIP3   OH211708   7.381   7.719   2.291
 3922TIP3    H111709   7.438   7.701   2.366
 3922TIP3    H211710   7.311   7.773   2.327
 3923TIP3   OH211711   1.218   4.244   1.938
 3923TIP3    H111712   1.299   4.232   1.988
 3923TIP3    H211713   1.236   4.205   1.853
 3924TIP3   OH211714   2.568   6.688   1.870
 3924TIP3    H111715   2.617   6.711   1.791
 3924TIP3    H211716   2.516   6.766   1.890
 3925TIP3   OH211717   7.369   4.306   1.154
 3925TIP3    H111718   7.289   4.340   1.195
 3925TIP3    H211719   7.437   4.368   1.178
 3926TIP3   OH211720   3.183   6.605   5.618
 3926TIP3    H111721   3.112   6.618   5.555
 3926TIP3    H211722   3.207   6.693   5.646
 3927TIP3   OH211723   7.570   3.390   1.256
 3927TIP3    H111724   7.666   3.379   1.260
 3927TIP3    H211725   7.546   3.361   1.168
 3928TIP3   OH211726   3.790   6.452   3.073
 3928TIP3    H111727   3.765   6.518   3.008
 3928TIP3    H211728   3.731   6.379   3.056
 3929TIP3   OH211729   4.215   2.098   0.602
 3929TIP3    H111730   4.141   2.154   0.579
 3929TIP3    H211731   4.257   2.142   0.676
 3930TIP3   OH211732   1.871   2.926   6.690
 3930TIP3    H111733   1.921   3.008   6.694
 3930TIP3    H211734   1.780   2.954   6.692
 3931TIP3   OH211735   5.540   1.333   0.204
 3931TIP3    H111736   5.603   1.261   0.212
 3931TIP3    H211737   5.530   1.346   0.110
 3932TIP3   OH211738   6.303   6.051   6.281
 3932TIP3    H111739   6.270   5.975   6.233
 3932TIP3    H211740   6.232   6.072   6.342
 3933TIP3   OH211741   1.827   3.916   2.195
 3933TIP3    H111742   1.854   3.950   2.281
 3933TIP3    H211743   1.764   3.980   2.163
 3934TIP3   OH211744   0.361   0.220   5.489
 3934TIP3    H111745   0.267   0.226   5.471
 3934TIP3    H211746   0.367   0.173   5.572
 3935TIP3   OH211747   2.580   4.908   2.421
 3935TIP3    H111748   2.667   4.945   2.433
 3935TIP3    H211749   2.529   4.941   2.495
 3936TIP3   OH211750   4.310   5.381   6.157
 3936TIP3    H111751   4.283   5.460   6.204
 3936TIP3    H211752   4.392   5.354   6.200
 3937TIP3   OH211753   5.351   4.588   2.957
 3937TIP3    H111754   5.432   4.619   2.916
 3937TIP3    H211755   5.380   4.542   3.036
 3938TIP3   OH211756   7.886   6.467   1.062
 3938TIP3    H111757   7.875   6.382   1.018
 3938TIP3    H211758   7.911   6.527   0.992
 3939TIP3   OH211759   6.587   4.535   4.246
 3939TIP3    H111760   6.582   4.617   4.296
 3939TIP3    H211761   6.635   4.475   4.303
 3940TIP3   OH211762   1.224   4.897   5.403
 3940TIP3    H111763   1.221   4.966   5.337
 3940TIP3    H211764   1.150   4.840   5.382
 3941TIP3   OH211765   0.255   2.629   2.146
 3941TIP3    H111766   0.179   2.688   2.137
 3941TIP3    H211767   0.330   2.683   2.121
 3942TIP3   OH211768   6.402   1.810   2.723
 3942TIP3    H111769   6.436   1.826   2.811
 3942TIP3    H211770   6.352   1.889   2.702
 3943TIP3   OH211771   0.349   2.814   4.342
 3943TIP3    H111772   0.306   2.837   4.260
 3943TIP3    H211773   0.435   2.781   4.315
 3944TIP3   OH211774   0.818   4.435   2.151
 3944TIP3    H111775   0.909   4.439   2.124
 3944TIP3    H211776   0.769   4.467   2.075
 3945TIP3   OH211777   4.521   3.593   0.889
 3945TIP3    H111778   4.465   3.589   0.967
 3945TIP3    H211779   4.459   3.592   0.816
 3946TIP3   OH211780   6.989   6.503   3.605
 3946TIP3    H111781   6.893   6.502   3.601
 3946TIP3    H211782   7.014   6.585   3.563
 3947TIP3   OH211783   2.340   1.427   3.620
 3947TIP3    H111784   2.257   1.402   3.578
 3947TIP3    H211785   2.401   1.357   3.595
 3948TIP3   OH211786   5.409   1.298   5.873
 3948TIP3    H111787   5.341   1.361   5.895
 3948TIP3    H211788   5.437   1.262   5.957
 3949TIP3   OH211789   1.840   6.401   4.420
 3949TIP3    H111790   1.846   6.496   4.436
 3949TIP3    H211791   1.800   6.366   4.499
 3950TIP3   OH211792   7.587   3.823   6.292
 3950TIP3    H111793   7.650   3.852   6.358
 3950TIP3    H211794   7.554   3.740   6.326
 3951TIP3   OH211795   7.916   5.067   2.330
 3951TIP3    H111796   7.828   5.034   2.312
 3951TIP3    H211797   7.974   4.995   2.304
 3952TIP3   OH211798   1.069   3.582   2.944
 3952TIP3    H111799   1.038   3.565   2.855
 3952TIP3    H211800   1.127   3.657   2.935
 3953TIP3   OH211801   1.839   1.782   2.861
 3953TIP3    H111802   1.820   1.804   2.952
 3953TIP3    H211803   1.851   1.687   2.861
 3954TIP3   OH211804   7.650   5.629   4.207
 3954TIP3    H111805   7.627   5.540   4.179
 3954TIP3    H211806   7.675   5.618   4.299
 3955TIP3   OH211807   7.666   6.547   6.485
 3955TIP3    H111808   7.646   6.463   6.444
 3955TIP3    H211809   7.627   6.612   6.426
 3956TIP3   OH211810   7.505   2.804   1.864
 3956TIP3    H111811   7.549   2.828   1.945
 3956TIP3    H211812   7.576   2.791   1.801
 3957TIP3   OH211813   0.396   2.015   5.411
 3957TIP3    H111814   0.313   2.043   5.372
 3957TIP3    H211815   0.385   1.921   5.424
 3958TIP3   OH211816   3.787   3.652   6.514
 3958TIP3    H111817   3.865   3.680   6.562
 3958TIP3    H211818   3.808   3.669   6.422
 3959TIP3   OH211819   7.926   6.513   4.968
 3959TIP3    H111820   7.854   6.571   4.943
 3959TIP3    H211821   7.965   6.555   5.045
 3960TIP3   OH211822   2.885   1.424   4.036
 3960TIP3    H111823   2.939   1.427   3.957
 3960TIP3    H211824   2.940   1.380   4.101
 3961TIP3   OH211825   6.239   3.139   3.808
 3961TIP3    H111826   6.281   3.126   3.723
 3961TIP3    H211827   6.244   3.053   3.850
 3962TIP3   OH211828   4.127   5.822   2.202
 3962TIP3    H111829   4.221   5.813   2.185
 3962TIP3    H211830   4.093   5.733   2.199
 3963TIP3   OH211831   1.585   2.296   0.517
 3963TIP3    H111832   1.599   2.211   0.560
 3963TIP3    H211833   1.614   2.282   0.427
 3964TIP3   OH211834   7.380   4.599   3.024
 3964TIP3    H111835   7.304   4.597   2.964
 3964TIP3    H211836   7.341   4.597   3.111
 3965TIP3   OH211837   5.388   0.216   0.560
 3965TIP3    H111838   5.434   0.142   0.600
 3965TIP3    H211839   5.449   0.248   0.493
 3966TIP3   OH211840   0.171   0.799   4.039
 3966TIP3    H111841   0.233   0.726   4.041
 3966TIP3    H211842   0.158   0.817   3.946
 3967TIP3   OH211843   0.670   4.404   3.133
 3967TIP3    H111844   0.581   4.380   3.108
 3967TIP3    H211845   0.669   4.500   3.136
 3968TIP3   OH211846   7.391   4.084   3.722
 3968TIP3    H111847   7.337   4.050   3.793
 3968TIP3    H211848   7.330   4.133   3.667
 3969TIP3   OH211849   6.073   3.601   5.706
 3969TIP3    H111850   6.022   3.559   5.636
 3969TIP3    H211851   6.082   3.533   5.773
 3970TIP3   OH211852   6.160   5.430   1.935
 3970TIP3    H111853   6.147   5.394   2.023
 3970TIP3    H211854   6.167   5.524   1.948
 3971TIP3   OH211855   5.622   4.014   5.694
 3971TIP3    H111856   5.605   3.933   5.741
 3971TIP3    H211857   5.680   3.988   5.622
 3972TIP3   OH211858   2.616   0.477   0.239
 3972TIP3    H111859   2.610   0.531   0.318
 3972TIP3    H211860   2.630   0.540   0.168
 3973TIP3   OH211861   4.959   3.472   5.258
 3973TIP3    H111862   5.006   3.551   5.286
 3973TIP3    H211863   4.876   3.476   5.305
 3974TIP3   OH211864   3.024   0.358   5.327
 3974TIP3    H111865   2.983   0.285   5.374
 3974TIP3    H211866   2.952   0.415   5.304
 3975TIP3   OH211867   7.974   6.495   2.148
 3975TIP3    H111868   7.980   6.566   2.212
 3975TIP3    H211869   7.915   6.431   2.189
 3976TIP3   OH211870   5.725   4.040   0.446
 3976TIP3    H111871   5.808   3.992   0.454
 3976TIP3    H211872   5.704   4.037   0.353
 3977TIP3   OH211873   1.336   6.593   6.024
 3977TIP3    H111874   1.289   6.631   6.098
 3977TIP3    H211875   1.268   6.578   5.958
 3978TIP3   OH211876   1.865   5.578   4.573
 3978TIP3    H111877   1.932   5.563   4.640
 3978TIP3    H211878   1.818   5.655   4.602
 3979TIP3   OH211879   0.854   1.495   4.961
 3979TIP3    H111880   0.845   1.412   5.009
 3979TIP3    H211881   0.834   1.562   5.026
 3980TIP3   OH211882   0.565   6.190   1.856
 3980TIP3    H111883   0.471   6.208   1.862
 3980TIP3    H211884   0.606   6.264   1.902
 3981TIP3   OH211885   2.783   3.021   2.745
 3981TIP3    H111886   2.780   2.978   2.660
 3981TIP3    H211887   2.865   3.071   2.745
 3982TIP3   OH211888   2.127   4.510   1.360
 3982TIP3    H111889   2.051   4.456   1.343
 3982TIP3    H211890   2.099   4.571   1.429
 3983TIP3   OH211891   1.068   6.855   0.891
 3983TIP3    H111892   1.029   6.828   0.974
 3983TIP3    H211893   1.159   6.875   0.912
 3984TIP3   OH211894   2.918   3.808   0.670
 3984TIP3    H111895   2.984   3.876   0.683
 3984TIP3    H211896   2.968   3.726   0.672
 3985TIP3   OH211897   1.513   3.310   1.601
 3985TIP3    H111898   1.573   3.296   1.528
 3985TIP3    H211899   1.567   3.351   1.668
 3986TIP3   OH211900   2.904   6.064   2.246
 3986TIP3    H111901   2.991   6.045   2.283
 3986TIP3    H211902   2.912   6.152   2.209
 3987TIP3   OH211903   7.344   7.326   1.099
 3987TIP3    H111904   7.364   7.393   1.033
 3987TIP3    H211905   7.358   7.243   1.055
 3988TIP3   OH211906   5.504   6.556   5.336
 3988TIP3    H111907   5.484   6.645   5.365
 3988TIP3    H211908   5.419   6.515   5.323
 3989TIP3   OH211909   0.599   1.049   6.600
 3989TIP3    H111910   0.634   1.135   6.623
 3989TIP3    H211911   0.625   1.036   6.509
 3990TIP3   OH211912   5.582   6.240   3.679
 3990TIP3    H111913   5.644   6.253   3.751
 3990TIP3    H211914   5.513   6.185   3.717
 3991TIP3   OH211915   2.827   2.395   6.369
 3991TIP3    H111916   2.732   2.390   6.380
 3991TIP3    H211917   2.847   2.489   6.370
 3992TIP3   OH211918   5.211   4.101   6.204
 3992TIP3    H111919   5.247   4.094   6.116
 3992TIP3    H211920   5.117   4.113   6.191
 3993TIP3   OH211921   6.769   5.655   5.014
 3993TIP3    H111922   6.718   5.576   5.029
 3993TIP3    H211923   6.706   5.719   4.982
 3994TIP3   OH211924   0.148   6.999   0.221
 3994TIP3    H111925   0.053   6.996   0.209
 3994TIP3    H211926   0.170   6.911   0.253
 3995TIP3   OH211927   2.559   4.906   3.428
 3995TIP3    H111928   2.505   4.980   3.402
 3995TIP3    H211929   2.547   4.900   3.523
 3996TIP3   OH211930   3.100   1.230   1.938
 3996TIP3    H111931   3.092   1.312   1.986
 3996TIP3    H211932   3.096   1.256   1.846
 3997TIP3   OH211933   5.486   6.757   4.832
 3997TIP3    H111934   5.489   6.776   4.738
 3997TIP3    H211935   5.573   6.783   4.863
 3998TIP3   OH211936   3.613   2.508   6.206
 3998TIP3    H111937   3.549   2.448   6.244
 3998TIP3    H211938   3.693   2.492   6.255
 3999TIP3   OH211939   8.135   5.941   0.095
 3999TIP3    H111940   8.141   5.947   0.000
 3999TIP3    H211941   8.044   5.919   0.112
 4000TIP3   OH211942   7.777   5.696   6.761
 4000TIP3    H111943   7.773   5.699   6.665
 4000TIP3    H211944   7.796   5.604   6.782
 4001TIP3   OH211945   0.321   6.702   2.750
 4001TIP3    H111946   0.272   6.785   2.749
 4001TIP3    H211947   0.288   6.654   2.674
 4002TIP3   OH211948   3.920   7.488   0.498
 4002TIP3    H111949   3.977   7.531   0.562
 4002TIP3    H211950   3.856   7.556   0.474
 4003TIP3   OH211951   0.647   1.879   4.409
 4003TIP3    H111952   0.720   1.850   4.464
 4003TIP3    H211953   0.655   1.974   4.406
 4004TIP3   OH211954   1.266   0.008   6.412
 4004TIP3    H111955   1.233   0.096   6.428
 4004TIP3    H211956   1.188  -0.045   6.394
 4005TIP3   OH211957   5.587   5.353   3.591
 4005TIP3    H111958   5.543   5.268   3.585
 4005TIP3    H211959   5.679   5.331   3.607
 4006TIP3   OH211960   0.835   5.121   5.209
 4006TIP3    H111961   0.776   5.140   5.135
 4006TIP3    H211962   0.856   5.207   5.245
 4007TIP3   OH211963   2.288   3.200   5.420
 4007TIP3    H111964   2.316   3.230   5.506
 4007TIP3    H211965   2.210   3.251   5.400
 4008TIP3   OH211966   4.507   3.555   3.074
 4008TIP3    H111967   4.412   3.547   3.081
 4008TIP3    H211968   4.524   3.565   2.980
 4009TIP3   OH211969   2.455   0.948   6.162
 4009TIP3    H111970   2.533   0.996   6.187
 4009TIP3    H211971   2.487   0.874   6.110
 4010TIP3   OH211972   6.017   4.942   1.732
 4010TIP3    H111973   5.960   5.017   1.748
 4010TIP3    H211974   6.037   4.909   1.820
 4011TIP3   OH211975   4.914   4.203   6.070
 4011TIP3    H111976   4.856   4.277   6.051
 4011TIP3    H211977   4.890   4.137   6.005
 4012TIP3   OH211978   7.729   2.418   0.541
 4012TIP3    H111979   7.705   2.330   0.568
 4012TIP3    H211980   7.776   2.406   0.458
 4013TIP3   OH211981   0.146   1.307   3.720
 4013TIP3    H111982   0.149   1.371   3.650
 4013TIP3    H211983   0.238   1.296   3.747
 4014TIP3   OH211984   5.972   6.257   6.314
 4014TIP3    H111985   6.011   6.338   6.283
 4014TIP3    H211986   6.005   6.190   6.254
 4015TIP3   OH211987   0.102   5.204   6.319
 4015TIP3    H111988   0.143   5.256   6.250
 4015TIP3    H211989   0.027   5.163   6.277
 4016TIP3   OH211990   0.212   4.040   2.545
 4016TIP3    H111991   0.182   3.954   2.516
 4016TIP3    H211992   0.297   4.052   2.504
 4017TIP3   OH211993   7.209   2.063   4.969
 4017TIP3    H111994   7.221   2.055   4.874
 4017TIP3    H211995   7.115   2.055   4.982
 4018TIP3   OH211996   5.992   6.085   6.105
 4018TIP3    H111997   6.060   6.021   6.083
 4018TIP3    H211998   5.916   6.032   6.127
 4019TIP3   OH211999   5.632   0.468   5.785
 4019TIP3    H112000   5.722   0.436   5.793
 4019TIP3    H212001   5.614   0.465   5.691
 4020TIP3   OH212002   4.904   7.809   2.858
 4020TIP3    H112003   4.917   7.763   2.775
 4020TIP3    H212004   4.809   7.815   2.868
 4021TIP3   OH212005   7.963   0.693   4.900
 4021TIP3    H112006   7.875   0.667   4.928
 4021TIP3    H212007   7.962   0.682   4.805
 4022TIP3   OH212008   7.672   4.048   3.934
 4022TIP3    H112009   7.623   4.037   3.853
 4022TIP3    H212010   7.627   3.990   3.996
 4023TIP3   OH212011   1.019   7.694   1.126
 4023TIP3    H112012   0.967   7.711   1.205
 4023TIP3    H212013   1.052   7.605   1.138
 4024TIP3   OH212014   6.012   5.335   2.829
 4024TIP3    H112015   5.949   5.315   2.898
 4024TIP3    H212016   5.983   5.419   2.793
 4025TIP3   OH212017   1.049   2.675   5.448
 4025TIP3    H112018   1.123   2.615   5.442
 4025TIP3    H212019   0.991   2.649   5.378
 4026TIP3   OH212020   1.571   0.798   6.193
 4026TIP3    H112021   1.600   0.817   6.104
 4026TIP3    H212022   1.648   0.814   6.248
 4027TIP3   OH212023   4.445   6.105   6.788
 4027TIP3    H112024   4.496   6.177   6.750
 4027TIP3    H212025   4.461   6.031   6.731
 4028TIP3   OH212026   6.979   0.916   2.075
 4028TIP3    H112027   6.988   0.949   1.986
 4028TIP3    H212028   6.885   0.913   2.090
 4029TIP3   OH212029   1.974   1.994   5.283
 4029TIP3    H112030   1.933   1.996   5.369
 4029TIP3    H212031   1.948   2.077   5.243
 4030TIP3   OH212032   1.483   5.621   2.151
 4030TIP3    H112033   1.485   5.668   2.067
 4030TIP3    H212034   1.407   5.563   2.144
 4031TIP3   OH212035   1.096   5.995   0.942
 4031TIP3    H112036   1.160   6.051   0.986
 4031TIP3    H212037   1.100   5.913   0.990
 4032TIP3   OH212038   0.988   1.586   3.358
 4032TIP3    H112039   0.973   1.626   3.272
 4032TIP3    H212040   0.960   1.495   3.348
 4033TIP3   OH212041   0.886   6.810   6.458
 4033TIP3    H112042   0.885   6.891   6.508
 4033TIP3    H212043   0.841   6.747   6.514
 4034TIP3   OH212044   3.934   7.239   2.096
 4034TIP3    H112045   4.010   7.254   2.040
 4034TIP3    H212046   3.885   7.170   2.052
 4035TIP3   OH212047   1.149   4.421   1.628
 4035TIP3    H112048   1.111   4.384   1.549
 4035TIP3    H212049   1.140   4.515   1.618
 4036TIP3   OH212050   5.193   1.712   5.239
 4036TIP3    H112051   5.104   1.721   5.274
 4036TIP3    H212052   5.186   1.738   5.147
 4037TIP3   OH212053   7.384   0.180   1.600
 4037TIP3    H112054   7.432   0.263   1.597
 4037TIP3    H212055   7.295   0.204   1.627
 4038TIP3   OH212056   4.648   6.476   5.173
 4038TIP3    H112057   4.625   6.569   5.170
 4038TIP3    H212058   4.712   6.466   5.103
 4039TIP3   OH212059   6.872   1.123   5.545
 4039TIP3    H112060   6.836   1.106   5.458
 4039TIP3    H212061   6.797   1.113   5.604
 4040TIP3   OH212062   8.121   4.680   0.233
 4040TIP3    H112063   8.193   4.733   0.199
 4040TIP3    H212064   8.159   4.631   0.306
 4041TIP3   OH212065   8.279   5.923   4.520
 4041TIP3    H112066   8.315   5.878   4.596
 4041TIP3    H212067   8.246   5.853   4.464
 4042TIP3   OH212068   1.702   3.445   1.759
 4042TIP3    H112069   1.797   3.444   1.745
 4042TIP3    H212070   1.690   3.407   1.846
 4043TIP3   OH212071   5.419   6.419   0.957
 4043TIP3    H112072   5.450   6.509   0.944
 4043TIP3    H212073   5.365   6.401   0.880
 4044TIP3   OH212074   3.464   2.876   0.074
 4044TIP3    H112075   3.534   2.817   0.046
 4044TIP3    H212076   3.509   2.955   0.105
 4045TIP3   OH212077   0.360   7.614   1.767
 4045TIP3    H112078   0.316   7.645   1.688
 4045TIP3    H212079   0.326   7.669   1.837
 4046TIP3   OH212080   4.777   0.969   2.667
 4046TIP3    H112081   4.691   1.008   2.683
 4046TIP3    H212082   4.767   0.877   2.692
 4047TIP3   OH212083   3.131   2.707   0.905
 4047TIP3    H112084   3.056   2.674   0.855
 4047TIP3    H212085   3.110   2.799   0.922
 4048TIP3   OH212086   5.081   2.092   2.740
 4048TIP3    H112087   5.080   2.043   2.657
 4048TIP3    H212088   5.007   2.056   2.789
 4049TIP3   OH212089   7.133   2.187   3.191
 4049TIP3    H112090   7.039   2.184   3.170
 4049TIP3    H212091   7.167   2.104   3.157
 4050TIP3   OH212092   0.109   6.394   2.047
 4050TIP3    H112093   0.054   6.460   2.004
 4050TIP3    H212094   0.046   6.329   2.078
 4051TIP3   OH212095   5.009   4.282   4.895
 4051TIP3    H112096   5.065   4.229   4.951
 4051TIP3    H212097   5.051   4.278   4.809
 4052TIP3   OH212098   5.252   0.233   6.183
 4052TIP3    H112099   5.156   0.231   6.182
 4052TIP3    H212100   5.273   0.326   6.192
 4053TIP3   OH212101   2.097   6.586   0.886
 4053TIP3    H112102   2.018   6.575   0.834
 4053TIP3    H212103   2.084   6.667   0.935
 4054TIP3   OH212104   3.764   0.836   5.576
 4054TIP3    H112105   3.687   0.893   5.573
 4054TIP3    H212106   3.768   0.796   5.489
 4055TIP3   OH212107   5.604   7.133   2.915
 4055TIP3    H112108   5.612   7.153   2.822
 4055TIP3    H212109   5.546   7.201   2.949
 4056TIP3   OH212110   3.565   3.170   5.847
 4056TIP3    H112111   3.610   3.087   5.863
 4056TIP3    H212112   3.496   3.148   5.784
 4057TIP3   OH212113   5.256   0.877   5.328
 4057TIP3    H112114   5.323   0.907   5.388
 4057TIP3    H212115   5.286   0.790   5.301
 4058TIP3   OH212116   0.109   4.286   2.536
 4058TIP3    H112117   0.160   4.207   2.552
 4058TIP3    H212118   0.027   4.272   2.584
 4059TIP3   OH212119   3.395   4.499   3.905
 4059TIP3    H112120   3.390   4.568   3.971
 4059TIP3    H212121   3.306   4.490   3.872
 4060TIP3   OH212122   7.369   0.708   1.407
 4060TIP3    H112123   7.458   0.713   1.442
 4060TIP3    H212124   7.374   0.640   1.340
 4061TIP3   OH212125   1.781   0.339   2.424
 4061TIP3    H112126   1.823   0.423   2.442
 4061TIP3    H212127   1.712   0.332   2.490
 4062TIP3   OH212128   2.398   6.607   3.140
 4062TIP3    H112129   2.395   6.692   3.097
 4062TIP3    H212130   2.319   6.605   3.195
 4063TIP3   OH212131   5.755   3.608   5.608
 4063TIP3    H112132   5.673   3.601   5.657
 4063TIP3    H212133   5.803   3.678   5.651
 4064TIP3   OH212134   3.563   7.404   0.702
 4064TIP3    H112135   3.537   7.355   0.624
 4064TIP3    H212136   3.497   7.382   0.768
 4065TIP3   OH212137   3.478   5.324   0.090
 4065TIP3    H112138   3.388   5.292   0.086
 4065TIP3    H212139   3.526   5.270   0.027
 4066TIP3   OH212140   6.884   2.637   5.211
 4066TIP3    H112141   6.882   2.655   5.116
 4066TIP3    H212142   6.977   2.638   5.233
 4067TIP3   OH212143   0.435   4.552   5.708
 4067TIP3    H112144   0.440   4.623   5.644
 4067TIP3    H212145   0.366   4.578   5.768
 4068TIP3   OH212146   6.183   0.769   5.798
 4068TIP3    H112147   6.246   0.723   5.742
 4068TIP3    H212148   6.189   0.861   5.770
 4069TIP3   OH212149   3.835   1.596   3.690
 4069TIP3    H112150   3.902   1.563   3.631
 4069TIP3    H212151   3.869   1.577   3.778
 4070TIP3   OH212152   1.097   3.382   4.844
 4070TIP3    H112153   1.039   3.384   4.767
 4070TIP3    H212154   1.165   3.447   4.823
 4071TIP3   OH212155   7.300   2.106   2.281
 4071TIP3    H112156   7.375   2.119   2.339
 4071TIP3    H212157   7.225   2.139   2.331
 4072TIP3   OH212158   0.585   2.099   3.827
 4072TIP3    H112159   0.573   2.007   3.850
 4072TIP3    H212160   0.530   2.112   3.749
 4073TIP3   OH212161   5.270   5.751   5.304
 4073TIP3    H112162   5.261   5.845   5.291
 4073TIP3    H212163   5.235   5.736   5.392
 4074TIP3   OH212164   0.915   6.533   6.285
 4074TIP3    H112165   0.879   6.451   6.319
 4074TIP3    H212166   0.951   6.577   6.362
 4075TIP3   OH212167   0.959   7.757   6.146
 4075TIP3    H112168   0.946   7.663   6.130
 4075TIP3    H212169   1.046   7.762   6.186
 4076TIP3   OH212170   5.801   0.276   5.378
 4076TIP3    H112171   5.894   0.255   5.364
 4076TIP3    H212172   5.759   0.255   5.294
 4077TIP3   OH212173   1.921   5.441   1.692
 4077TIP3    H112174   1.914   5.521   1.743
 4077TIP3    H212175   1.831   5.416   1.672
 4078TIP3   OH212176   2.449   0.898   0.053
 4078TIP3    H112177   2.489   0.814   0.076
 4078TIP3    H212178   2.362   0.875   0.020
 4079TIP3   OH212179   4.150   5.521   3.218
 4079TIP3    H112180   4.143   5.600   3.164
 4079TIP3    H212181   4.219   5.542   3.281
 4080TIP3   OH212182   3.533   4.547   4.528
 4080TIP3    H112183   3.521   4.574   4.619
 4080TIP3    H212184   3.522   4.452   4.529
 4081TIP3   OH212185   3.181   7.098   6.446
 4081TIP3    H112186   3.123   7.065   6.378
 4081TIP3    H212187   3.144   7.183   6.470
 4082TIP3   OH212188   1.461   2.894   5.861
 4082TIP3    H112189   1.481   2.821   5.920
 4082TIP3    H212190   1.483   2.861   5.774
 4083TIP3   OH212191   4.089   3.302   4.685
 4083TIP3    H112192   4.053   3.362   4.620
 4083TIP3    H212193   4.181   3.292   4.661
 4084TIP3   OH212194   7.477   1.690   0.458
 4084TIP3    H112195   7.485   1.606   0.413
 4084TIP3    H212196   7.564   1.729   0.452
 4085TIP3   OH212197   7.924   1.586   1.560
 4085TIP3    H112198   7.851   1.620   1.509
 4085TIP3    H212199   7.942   1.654   1.625
 4086TIP3   OH212200   4.718   2.562   4.966
 4086TIP3    H112201   4.634   2.516   4.969
 4086TIP3    H212202   4.729   2.596   5.055
 4087TIP3   OH212203   4.834   2.218   0.563
 4087TIP3    H112204   4.790   2.248   0.643
 4087TIP3    H212205   4.917   2.181   0.593
 4088TIP3   OH212206   8.240   0.315   2.855
 4088TIP3    H112207   8.225   0.350   2.768
 4088TIP3    H212208   8.264   0.223   2.841
 4089TIP3   OH212209   1.874   0.568   1.247
 4089TIP3    H112210   1.922   0.629   1.303
 4089TIP3    H212211   1.909   0.584   1.159
 4090TIP3   OH212212   5.407   1.720   6.634
 4090TIP3    H112213   5.364   1.696   6.552
 4090TIP3    H212214   5.486   1.667   6.637
 4091TIP3   OH212215   7.199   5.831   4.012
 4091TIP3    H112216   7.269   5.790   3.960
 4091TIP3    H212217   7.138   5.759   4.030
 4092TIP3   OH212218   1.539   7.152   3.600
 4092TIP3    H112219   1.534   7.089   3.527
 4092TIP3    H212220   1.452   7.148   3.639
 4093TIP3   OH212221   0.547   1.044   0.350
 4093TIP3    H112222   0.588   1.128   0.328
 4093TIP3    H212223   0.499   1.062   0.431
 4094TIP3   OH212224   3.506   1.556   2.222
 4094TIP3    H112225   3.564   1.546   2.147
 4094TIP3    H212226   3.564   1.556   2.298
 4095TIP3   OH212227   4.993   4.256   0.022
 4095TIP3    H112228   5.003   4.263   0.116
 4095TIP3    H212229   5.082   4.265  -0.013
 4096TIP3   OH212230   4.271   1.456   0.604
 4096TIP3    H112231   4.259   1.407   0.523
 4096TIP3    H212232   4.364   1.476   0.606
 4097TIP3   OH212233   7.370   5.642   1.023
 4097TIP3    H112234   7.353   5.600   0.938
 4097TIP3    H212235   7.283   5.663   1.056
 4098TIP3   OH212236   1.385   2.619   5.763
 4098TIP3    H112237   1.471   2.638   5.798
 4098TIP3    H212238   1.334   2.590   5.839
 4099TIP3   OH212239   7.537   3.857   6.024
 4099TIP3    H112240   7.542   3.848   6.119
 4099TIP3    H212241   7.628   3.851   5.995
 4100TIP3   OH212242   1.585   0.336   2.192
 4100TIP3    H112243   1.584   0.414   2.135
 4100TIP3    H212244   1.642   0.361   2.265
 4101TIP3   OH212245   6.042   7.732   4.374
 4101TIP3    H112246   5.965   7.676   4.370
 4101TIP3    H212247   6.115   7.671   4.385
 4102TIP3   OH212248   6.891   0.324   5.728
 4102TIP3    H112249   6.817   0.270   5.755
 4102TIP3    H212250   6.920   0.367   5.809
 4103TIP3   OH212251   5.996   5.593   3.095
 4103TIP3    H112252   6.079   5.593   3.143
 4103TIP3    H212253   5.944   5.662   3.138
 4104TIP3   OH212254   0.644   5.573   4.513
 4104TIP3    H112255   0.663   5.501   4.453
 4104TIP3    H212256   0.710   5.564   4.582
 4105TIP3   OH212257   8.015   6.232   5.628
 4105TIP3    H112258   7.955   6.205   5.558
 4105TIP3    H212259   8.089   6.172   5.621
 4106TIP3   OH212260   6.738   5.689   4.002
 4106TIP3    H112261   6.731   5.780   3.974
 4106TIP3    H212262   6.817   5.686   4.056
 4107TIP3   OH212263   5.603   6.159   1.621
 4107TIP3    H112264   5.597   6.113   1.705
 4107TIP3    H212265   5.513   6.167   1.591
 4108TIP3   OH212266   7.714   4.977   6.209
 4108TIP3    H112267   7.777   4.929   6.264
 4108TIP3    H212268   7.769   5.025   6.147
 4109TIP3   OH212269   7.096   5.786   0.399
 4109TIP3    H112270   7.175   5.795   0.453
 4109TIP3    H212271   7.024   5.778   0.461
 4110TIP3   OH212272   1.183   6.306   2.555
 4110TIP3    H112273   1.100   6.257   2.560
 4110TIP3    H212274   1.168   6.371   2.487
 4111TIP3   OH212275   7.674   3.369   0.826
 4111TIP3    H112276   7.738   3.364   0.897
 4111TIP3    H212277   7.700   3.299   0.766
 4112TIP3   OH212278   1.714   0.063   6.025
 4112TIP3    H112279   1.773  -0.013   6.029
 4112TIP3    H212280   1.643   0.036   5.968
 4113TIP3   OH212281   7.733   7.472   0.972
 4113TIP3    H112282   7.721   7.527   1.050
 4113TIP3    H212283   7.722   7.532   0.898
 4114TIP3   OH212284   7.957   0.682   1.802
 4114TIP3    H112285   7.999   0.746   1.744
 4114TIP3    H212286   7.876   0.660   1.758
 4115TIP3   OH212287   1.427   0.490   1.770
 4115TIP3    H112288   1.484   0.514   1.697
 4115TIP3    H212289   1.415   0.395   1.760
 4116TIP3   OH212290   5.275   4.744   5.402
 4116TIP3    H112291   5.179   4.749   5.392
 4116TIP3    H212292   5.295   4.651   5.389
 4117TIP3   OH212293   7.433   1.164   1.655
 4117TIP3    H112294   7.366   1.101   1.629
 4117TIP3    H212295   7.462   1.203   1.572
 4118TIP3   OH212296   6.028   5.012   5.405
 4118TIP3    H112297   6.069   4.930   5.432
 4118TIP3    H212298   5.964   5.030   5.474
 4119TIP3   OH212299   0.959   6.958   6.237
 4119TIP3    H112300   0.931   6.899   6.307
 4119TIP3    H212301   0.883   6.965   6.179
 4120TIP3   OH212302   4.063   0.507   0.603
 4120TIP3    H112303   3.993   0.531   0.663
 4120TIP3    H212304   4.060   0.573   0.534
 4121TIP3   OH212305   3.118   3.513   2.968
 4121TIP3    H112306   3.174   3.516   2.890
 4121TIP3    H212307   3.177   3.538   3.040
 4122TIP3   OH212308   7.104   6.595   2.642
 4122TIP3    H112309   7.138   6.594   2.731
 4122TIP3    H212310   7.010   6.577   2.653
 4123TIP3   OH212311   1.148   7.592   5.800
 4123TIP3    H112312   1.072   7.570   5.853
 4123TIP3    H212313   1.146   7.687   5.794
 4124TIP3   OH212314   5.129   0.699   0.397
 4124TIP3    H112315   5.138   0.742   0.312
 4124TIP3    H212316   5.038   0.669   0.398
 4125TIP3   OH212317   5.391   6.037   4.975
 4125TIP3    H112318   5.432   5.952   4.959
 4125TIP3    H212319   5.300   6.016   4.992
 4126TIP3   OH212320   0.367   3.456   6.238
 4126TIP3    H112321   0.292   3.404   6.209
 4126TIP3    H212322   0.443   3.404   6.211
 4127TIP3   OH212323   0.773   6.996   1.245
 4127TIP3    H112324   0.684   6.974   1.216
 4127TIP3    H212325   0.760   7.047   1.325
 4128TIP3   OH212326   5.169   1.690   4.244
 4128TIP3    H112327   5.175   1.713   4.337
 4128TIP3    H212328   5.120   1.608   4.243
 4129TIP3   OH212329   3.899   1.651   4.276
 4129TIP3    H112330   3.900   1.722   4.340
 4129TIP3    H212331   3.809   1.649   4.243
 4130TIP3   OH212332   6.167   6.159   4.468
 4130TIP3    H112333   6.197   6.074   4.436
 4130TIP3    H212334   6.175   6.152   4.563
 4131TIP3   OH212335   4.995   1.625   0.361
 4131TIP3    H112336   5.074   1.592   0.318
 4131TIP3    H212337   5.024   1.703   0.408
 4132TIP3   OH212338   2.678   7.090   1.233
 4132TIP3    H112339   2.662   7.161   1.171
 4132TIP3    H212340   2.591   7.055   1.252
 4133TIP3   OH212341   3.378   0.417   2.398
 4133TIP3    H112342   3.387   0.395   2.305
 4133TIP3    H212343   3.292   0.382   2.423
 4134TIP3   OH212344   3.711   6.255   1.528
 4134TIP3    H112345   3.688   6.319   1.595
 4134TIP3    H212346   3.757   6.305   1.461
 4135TIP3   OH212347   4.818   1.907   0.163
 4135TIP3    H112348   4.740   1.859   0.134
 4135TIP3    H212349   4.887   1.878   0.104
 4136TIP3   OH212350   6.748   7.725   4.618
 4136TIP3    H112351   6.729   7.811   4.580
 4136TIP3    H212352   6.706   7.727   4.704
 4137TIP3   OH212353   5.081   6.073   6.432
 4137TIP3    H112354   5.045   6.005   6.375
 4137TIP3    H212355   5.085   6.151   6.376
 4138TIP3   OH212356   6.738   6.309   3.652
 4138TIP3    H112357   6.808   6.299   3.717
 4138TIP3    H212358   6.664   6.342   3.702
 4139TIP3   OH212359   7.974   4.065   1.334
 4139TIP3    H112360   7.945   4.060   1.243
 4139TIP3    H212361   8.010   3.979   1.353
 4140TIP3   OH212362   7.167   1.792   3.937
 4140TIP3    H112363   7.189   1.845   4.014
 4140TIP3    H212364   7.074   1.809   3.922
 4141TIP3   OH212365   4.849   5.197   0.835
 4141TIP3    H112366   4.911   5.247   0.781
 4141TIP3    H212367   4.894   5.185   0.918
 4142TIP3   OH212368   6.265   6.150   0.660
 4142TIP3    H112369   6.214   6.094   0.601
 4142TIP3    H212370   6.280   6.095   0.737
 4143TIP3   OH212371   1.976   2.191   0.435
 4143TIP3    H112372   1.987   2.102   0.468
 4143TIP3    H212373   1.930   2.181   0.352
 4144TIP3   OH212374   7.609   1.098   1.329
 4144TIP3    H112375   7.599   1.190   1.351
 4144TIP3    H212376   7.703   1.081   1.340
 4145TIP3   OH212377   0.731   4.950   0.150
 4145TIP3    H112378   0.678   4.875   0.176
 4145TIP3    H212379   0.697   4.975   0.064
 4146TIP3   OH212380   6.602   2.787   6.548
 4146TIP3    H112381   6.527   2.752   6.500
 4146TIP3    H212382   6.584   2.880   6.556
 4147TIP3   OH212383   0.781   6.419   0.564
 4147TIP3    H112384   0.819   6.503   0.588
 4147TIP3    H212385   0.804   6.360   0.636
 4148TIP3   OH212386   0.708   6.359   6.037
 4148TIP3    H112387   0.632   6.304   6.055
 4148TIP3    H212388   0.783   6.303   6.057
 4149TIP3   OH212389   5.989   6.746   1.350
 4149TIP3    H112390   6.047   6.676   1.322
 4149TIP3    H212391   6.044   6.802   1.405
 4150TIP3   OH212392   6.856   3.980   6.217
 4150TIP3    H112393   6.837   3.886   6.205
 4150TIP3    H212394   6.776   4.015   6.256
 4151TIP3   OH212395   2.520   7.004   0.575
 4151TIP3    H112396   2.479   7.050   0.648
 4151TIP3    H212397   2.465   7.026   0.499
 4152TIP3   OH212398   7.606   5.713   6.042
 4152TIP3    H112399   7.697   5.731   6.064
 4152TIP3    H212400   7.572   5.662   6.115
 4153TIP3   OH212401   7.472   1.672   0.733
 4153TIP3    H112402   7.494   1.650   0.643
 4153TIP3    H212403   7.378   1.690   0.731
 4154TIP3   OH212404   2.450   4.039   3.331
 4154TIP3    H112405   2.538   4.071   3.349
 4154TIP3    H212406   2.400   4.118   3.310
 4155TIP3   OH212407   5.586   2.967   5.026
 4155TIP3    H112408   5.533   2.932   5.098
 4155TIP3    H212409   5.522   3.005   4.966
 4156TIP3   OH212410   2.718   5.843   5.718
 4156TIP3    H112411   2.675   5.773   5.766
 4156TIP3    H212412   2.668   5.922   5.741
 4157TIP3   OH212413   7.457   6.270   4.484
 4157TIP3    H112414   7.447   6.198   4.546
 4157TIP3    H212415   7.497   6.230   4.407
 4158TIP3   OH212416   6.041   4.180   1.890
 4158TIP3    H112417   6.014   4.090   1.907
 4158TIP3    H212418   5.961   4.232   1.902
 4159TIP3   OH212419   3.971   5.179   1.163
 4159TIP3    H112420   3.882   5.183   1.129
 4159TIP3    H212421   3.960   5.180   1.259
 4160TIP3   OH212422   7.577   1.550   2.740
 4160TIP3    H112423   7.608   1.589   2.822
 4160TIP3    H212424   7.544   1.464   2.766
 4161TIP3   OH212425   4.924   5.641   4.718
 4161TIP3    H112426   5.010   5.663   4.754
 4161TIP3    H212427   4.943   5.582   4.645
 4162TIP3   OH212428   1.169   7.295   4.446
 4162TIP3    H112429   1.126   7.341   4.374
 4162TIP3    H212430   1.198   7.212   4.408
 4163TIP3   OH212431   3.462   1.816   1.739
 4163TIP3    H112432   3.445   1.751   1.671
 4163TIP3    H212433   3.382   1.869   1.743
 4164TIP3   OH212434   1.574   2.582   3.312
 4164TIP3    H112435   1.558   2.667   3.353
 4164TIP3    H212436   1.581   2.521   3.385
 4165TIP3   OH212437   1.053   4.110   3.903
 4165TIP3    H112438   1.063   4.106   3.808
 4165TIP3    H212439   0.962   4.082   3.918
 4166TIP3   OH212440   1.017   2.399   5.249
 4166TIP3    H112441   1.076   2.349   5.305
 4166TIP3    H212442   0.953   2.334   5.218
 4167TIP3   OH212443   1.544   4.606   3.841
 4167TIP3    H112444   1.559   4.606   3.935
 4167TIP3    H212445   1.577   4.522   3.810
 4168TIP3   OH212446   0.857   3.006   6.519
 4168TIP3    H112447   0.791   2.970   6.579
 4168TIP3    H212448   0.810   3.019   6.437
 4169TIP3   OH212449   4.938   0.073   5.340
 4169TIP3    H112450   5.012   0.128   5.365
 4169TIP3    H212451   4.911   0.106   5.254
 4170TIP3   OH212452   7.279   2.572   1.507
 4170TIP3    H112453   7.249   2.550   1.419
 4170TIP3    H212454   7.294   2.488   1.550
 4171TIP3   OH212455   0.103   7.025   2.339
 4171TIP3    H112456   0.125   7.115   2.363
 4171TIP3    H212457   0.007   7.023   2.336
 4172TIP3   OH212458   2.072   5.766   2.691
 4172TIP3    H112459   2.084   5.860   2.679
 4172TIP3    H212460   2.034   5.757   2.778
 4173TIP3   OH212461   6.752   7.662   5.079
 4173TIP3    H112462   6.717   7.716   5.149
 4173TIP3    H212463   6.846   7.683   5.076
 4174TIP3   OH212464   2.852   3.762   5.276
 4174TIP3    H112465   2.939   3.799   5.282
 4174TIP3    H212466   2.815   3.771   5.363
 4175TIP3   OH212467   1.729   0.054   3.664
 4175TIP3    H112468   1.670   0.068   3.739
 4175TIP3    H212469   1.727   0.137   3.617
 4176TIP3   OH212470   1.594   6.424   0.730
 4176TIP3    H112471   1.671   6.383   0.771
 4176TIP3    H212472   1.595   6.514   0.764
 4177TIP3   OH212473   0.647   4.645   3.765
 4177TIP3    H112474   0.566   4.593   3.767
 4177TIP3    H212475   0.646   4.692   3.849
 4178TIP3   OH212476   3.646   2.995   2.120
 4178TIP3    H112477   3.668   3.084   2.092
 4178TIP3    H212478   3.609   2.954   2.042
 4179TIP3   OH212479   2.830   2.906   2.077
 4179TIP3    H112480   2.925   2.893   2.071
 4179TIP3    H212481   2.814   2.990   2.034
 4180TIP3   OH212482   6.972   6.922   1.272
 4180TIP3    H112483   7.059   6.901   1.306
 4180TIP3    H212484   6.974   7.017   1.260
 4181TIP3   OH212485   0.202   7.805   3.163
 4181TIP3    H112486   0.270   7.744   3.132
 4181TIP3    H212487   0.138   7.807   3.092
 4182TIP3   OH212488   5.813   0.463   3.270
 4182TIP3    H112489   5.827   0.388   3.212
 4182TIP3    H212490   5.720   0.482   3.263
 4183TIP3   OH212491   6.645   5.131   4.295
 4183TIP3    H112492   6.579   5.103   4.231
 4183TIP3    H212493   6.727   5.129   4.246
 4184TIP3   OH212494   1.179   5.140   0.888
 4184TIP3    H112495   1.204   5.228   0.862
 4184TIP3    H212496   1.261   5.091   0.892
 4185TIP3   OH212497   4.356   3.114   6.462
 4185TIP3    H112498   4.375   3.122   6.368
 4185TIP3    H212499   4.337   3.204   6.490
 4186TIP3   OH212500   3.128   6.559   4.834
 4186TIP3    H112501   3.106   6.471   4.803
 4186TIP3    H212502   3.220   6.554   4.858
 4187TIP3   OH212503   3.683   4.275   2.565
 4187TIP3    H112504   3.606   4.227   2.597
 4187TIP3    H212505   3.649   4.330   2.495
 4188TIP3   OH212506   6.635   4.955   6.730
 4188TIP3    H112507   6.645   5.001   6.647
 4188TIP3    H212508   6.545   4.972   6.757
 4189TIP3   OH212509   2.746   5.083   3.335
 4189TIP3    H112510   2.732   5.021   3.406
 4189TIP3    H212511   2.690   5.051   3.264
 4190TIP3   OH212512   4.615   6.363   0.720
 4190TIP3    H112513   4.552   6.366   0.649
 4190TIP3    H212514   4.593   6.284   0.769
 4191TIP3   OH212515   4.964   4.751   2.494
 4191TIP3    H112516   5.024   4.765   2.421
 4191TIP3    H212517   5.018   4.712   2.563
 4192TIP3   OH212518   4.383   2.332   2.329
 4192TIP3    H112519   4.408   2.316   2.420
 4192TIP3    H212520   4.428   2.413   2.306
 4193TIP3   OH212521   6.011   7.641   6.129
 4193TIP3    H112522   5.953   7.683   6.065
 4193TIP3    H212523   6.012   7.549   6.102
 4194TIP3   OH212524   2.039   3.451   3.035
 4194TIP3    H112525   1.998   3.498   2.962
 4194TIP3    H212526   1.999   3.487   3.113
 4195TIP3   OH212527   3.930   2.818   3.871
 4195TIP3    H112528   3.883   2.746   3.829
 4195TIP3    H212529   4.017   2.818   3.830
 4196TIP3   OH212530   1.945   3.529   2.767
 4196TIP3    H112531   1.897   3.448   2.756
 4196TIP3    H212532   2.007   3.531   2.694
 4197TIP3   OH212533   6.357   0.011   2.786
 4197TIP3    H112534   6.287  -0.014   2.845
 4197TIP3    H212535   6.428   0.041   2.843
 4198TIP3   OH212536   3.079   1.972   3.234
 4198TIP3    H112537   3.138   1.997   3.163
 4198TIP3    H212538   2.995   1.955   3.191
 4199TIP3   OH212539   1.504   4.785   3.227
 4199TIP3    H112540   1.569   4.855   3.225
 4199TIP3    H212541   1.434   4.820   3.282
 4200TIP3   OH212542   4.803   6.760   1.089
 4200TIP3    H112543   4.759   6.844   1.100
 4200TIP3    H212544   4.769   6.725   1.007
 4201TIP3   OH212545   7.559   0.755   4.487
 4201TIP3    H112546   7.559   0.841   4.530
 4201TIP3    H212547   7.482   0.757   4.431
 4202TIP3   OH212548   2.301   6.802   6.309
 4202TIP3    H112549   2.306   6.888   6.351
 4202TIP3    H212550   2.392   6.780   6.290
 4203TIP3   OH212551   2.654   5.358   3.809
 4203TIP3    H112552   2.559   5.358   3.826
 4203TIP3    H212553   2.694   5.374   3.894
 4204TIP3   OH212554   5.029   7.014   4.252
 4204TIP3    H112555   4.939   7.046   4.249
 4204TIP3    H212556   5.020   6.919   4.266
 4205TIP3   OH212557   4.163   4.810   0.105
 4205TIP3    H112558   4.201   4.783   0.021
 4205TIP3    H212559   4.076   4.841   0.083
 4206TIP3   OH212560   5.214   4.476   4.615
 4206TIP3    H112561   5.158   4.400   4.597
 4206TIP3    H212562   5.278   4.443   4.678
 4207TIP3   OH212563   6.604   4.647   2.261
 4207TIP3    H112564   6.669   4.579   2.245
 4207TIP3    H212565   6.655   4.723   2.288
 4208TIP3   OH212566   7.582   7.420   4.815
 4208TIP3    H112567   7.612   7.403   4.904
 4208TIP3    H212568   7.584   7.334   4.772
 4209TIP3   OH212569   7.634   3.935   1.667
 4209TIP3    H112570   7.599   3.970   1.586
 4209TIP3    H212571   7.718   3.896   1.642
 4210TIP3   OH212572   7.161   5.518   1.973
 4210TIP3    H112573   7.144   5.477   2.058
 4210TIP3    H212574   7.161   5.612   1.991
 4211TIP3   OH212575   7.907   2.771   4.960
 4211TIP3    H112576   7.824   2.725   4.971
 4211TIP3    H212577   7.972   2.716   5.004
 4212TIP3   OH212578   4.608   1.167   1.729
 4212TIP3    H112579   4.643   1.106   1.665
 4212TIP3    H212580   4.632   1.254   1.695
 4213TIP3   OH212581   4.594   5.131   0.769
 4213TIP3    H112582   4.588   5.109   0.676
 4213TIP3    H212583   4.688   5.140   0.785
 4214TIP3   OH212584   3.277   4.152   5.354
 4214TIP3    H112585   3.214   4.188   5.291
 4214TIP3    H212586   3.238   4.069   5.382
 4215TIP3   OH212587   4.687   6.675   1.557
 4215TIP3    H112588   4.760   6.634   1.603
 4215TIP3    H212589   4.637   6.602   1.520
 4216TIP3   OH212590   0.615   3.067   0.058
 4216TIP3    H112591   0.636   3.119   0.136
 4216TIP3    H212592   0.675   2.993   0.062
 4217TIP3   OH212593   1.892   4.734   0.717
 4217TIP3    H112594   1.899   4.704   0.626
 4217TIP3    H212595   1.915   4.827   0.713
 4218TIP3   OH212596   4.412   5.082   3.707
 4218TIP3    H112597   4.383   5.030   3.782
 4218TIP3    H212598   4.341   5.074   3.643
 4219TIP3   OH212599   8.140   0.094   0.308
 4219TIP3    H112600   8.055   0.137   0.305
 4219TIP3    H212601   8.202   0.161   0.281
 4220TIP3   OH212602   8.028   2.380   1.721
 4220TIP3    H112603   8.008   2.309   1.782
 4220TIP3    H212604   7.994   2.349   1.637
 4221TIP3   OH212605   6.652   6.938   1.855
 4221TIP3    H112606   6.664   7.030   1.834
 4221TIP3    H212607   6.561   6.931   1.883
 4222TIP3   OH212608   5.995   5.557   1.425
 4222TIP3    H112609   5.932   5.488   1.443
 4222TIP3    H212610   6.036   5.575   1.510
 4223TIP3   OH212611   5.036   7.611   3.054
 4223TIP3    H112612   4.984   7.690   3.038
 4223TIP3    H212613   5.087   7.600   2.974
 4224TIP3   OH212614   6.612   0.457   0.146
 4224TIP3    H112615   6.600   0.463   0.241
 4224TIP3    H212616   6.648   0.542   0.121
 4225TIP3   OH212617   3.201   7.654   5.989
 4225TIP3    H112618   3.196   7.578   5.932
 4225TIP3    H212619   3.243   7.722   5.935
 4226TIP3   OH212620   1.122   6.122   4.301
 4226TIP3    H112621   1.047   6.178   4.278
 4226TIP3    H212622   1.186   6.139   4.232
 4227TIP3   OH212623   3.655   2.724   4.737
 4227TIP3    H112624   3.734   2.671   4.733
 4227TIP3    H212625   3.608   2.693   4.813
 4228TIP3   OH212626   0.710   0.561   0.437
 4228TIP3    H112627   0.693   0.527   0.525
 4228TIP3    H212628   0.640   0.525   0.383
 4229TIP3   OH212629   1.910   5.144   2.659
 4229TIP3    H112630   1.984   5.189   2.617
 4229TIP3    H212631   1.866   5.100   2.587
 4230TIP3   OH212632   4.221   1.049   4.368
 4230TIP3    H112633   4.138   1.084   4.337
 4230TIP3    H212634   4.251   1.112   4.433
 4231TIP3   OH212635   6.895   1.387   3.565
 4231TIP3    H112636   6.859   1.317   3.511
 4231TIP3    H212637   6.924   1.453   3.502
 4232TIP3   OH212638   2.934   1.621   3.144
 4232TIP3    H112639   2.904   1.678   3.215
 4232TIP3    H212640   3.023   1.650   3.126
 4233TIP3   OH212641   5.754   3.750   2.693
 4233TIP3    H112642   5.690   3.780   2.758
 4233TIP3    H212643   5.735   3.802   2.615
 4234TIP3   OH212644   2.224   1.874   6.468
 4234TIP3    H112645   2.317   1.885   6.486
 4234TIP3    H212646   2.186   1.960   6.488
 4235TIP3   OH212647   3.726   1.985   4.603
 4235TIP3    H112648   3.705   2.065   4.652
 4235TIP3    H212649   3.686   1.914   4.655
 4236TIP3   OH212650   4.259   3.686   2.094
 4236TIP3    H112651   4.215   3.621   2.148
 4236TIP3    H212652   4.251   3.768   2.144
 4237TIP3   OH212653   7.016   3.982   6.464
 4237TIP3    H112654   6.953   3.986   6.392
 4237TIP3    H212655   6.975   3.925   6.529
 4238TIP3   OH212656   8.004   2.706   0.741
 4238TIP3    H112657   8.093   2.714   0.774
 4238TIP3    H212658   8.015   2.678   0.650
 4239TIP3   OH212659   5.801   5.453   0.487
 4239TIP3    H112660   5.745   5.411   0.552
 4239TIP3    H212661   5.887   5.414   0.500
 4240TIP3   OH212662   2.540   0.570   6.240
 4240TIP3    H112663   2.524   0.623   6.318
 4240TIP3    H212664   2.584   0.629   6.179
 4241TIP3   OH212665   7.259   6.572   4.678
 4241TIP3    H112666   7.233   6.521   4.601
 4241TIP3    H212667   7.237   6.663   4.655
 4242TIP3   OH212668   5.735   3.633   0.608
 4242TIP3    H112669   5.789   3.686   0.549
 4242TIP3    H212670   5.645   3.661   0.590
 4243TIP3   OH212671   0.332   2.782   6.747
 4243TIP3    H112672   0.356   2.752   6.659
 4243TIP3    H212673   0.288   2.866   6.733
 4244TIP3   OH212674   6.351   6.734   1.091
 4244TIP3    H112675   6.310   6.660   1.046
 4244TIP3    H212676   6.444   6.725   1.070
 4245TIP3   OH212677   2.847   1.051   1.507
 4245TIP3    H112678   2.858   1.139   1.471
 4245TIP3    H212679   2.905   0.996   1.454
 4246TIP3   OH212680   1.192   7.000   2.179
 4246TIP3    H112681   1.240   7.079   2.203
 4246TIP3    H212682   1.170   6.958   2.262
 4247TIP3   OH212683   4.243   6.807   2.638
 4247TIP3    H112684   4.156   6.821   2.599
 4247TIP3    H212685   4.271   6.894   2.665
 4248TIP3   OH212686   4.619   5.215   4.963
 4248TIP3    H112687   4.548   5.260   4.917
 4248TIP3    H212688   4.699   5.247   4.922
 4249TIP3   OH212689   5.568   7.106   0.593
 4249TIP3    H112690   5.506   7.054   0.542
 4249TIP3    H212691   5.653   7.089   0.552
 4250TIP3   OH212692   0.932   4.189   1.567
 4250TIP3    H112693   0.988   4.235   1.504
 4250TIP3    H212694   0.932   4.246   1.644
 4251TIP3   OH212695   0.419   0.114   1.599
 4251TIP3    H112696   0.332   0.118   1.560
 4251TIP3    H212697   0.404   0.121   1.693
 4252TIP3   OH212698   0.391   5.507   4.306
 4252TIP3    H112699   0.444   5.445   4.355
 4252TIP3    H212700   0.400   5.479   4.215
 4253TIP3   OH212701   4.258   5.020   2.129
 4253TIP3    H112702   4.184   5.059   2.083
 4253TIP3    H212703   4.227   5.010   2.219
 4254TIP3   OH212704   4.295   4.700   4.854
 4254TIP3    H112705   4.229   4.764   4.828
 4254TIP3    H212706   4.333   4.670   4.771
 4255TIP3   OH212707   1.684   7.311   1.655
 4255TIP3    H112708   1.676   7.245   1.586
 4255TIP3    H212709   1.778   7.325   1.664
 4256TIP3   OH212710   2.450   3.094   1.004
 4256TIP3    H112711   2.409   3.127   0.924
 4256TIP3    H212712   2.428   3.001   1.006
 4257TIP3   OH212713   2.238   1.281   4.416
 4257TIP3    H112714   2.311   1.332   4.382
 4257TIP3    H212715   2.243   1.291   4.511
 4258TIP3   OH212716   1.567   5.675   4.465
 4258TIP3    H112717   1.599   5.595   4.508
 4258TIP3    H212718   1.618   5.681   4.385
 4259TIP3   OH212719   3.548   6.498   4.605
 4259TIP3    H112720   3.474   6.518   4.662
 4259TIP3    H212721   3.508   6.470   4.523
 4260TIP3   OH212722   7.710   0.250   1.837
 4260TIP3    H112723   7.731   0.202   1.757
 4260TIP3    H212724   7.728   0.188   1.907
 4261TIP3   OH212725   1.001   5.098   2.487
 4261TIP3    H112726   0.934   5.054   2.539
 4261TIP3    H212727   1.050   5.151   2.550
 4262TIP3   OH212728   0.898   3.144   1.804
 4262TIP3    H112729   0.866   3.234   1.812
 4262TIP3    H212730   0.850   3.108   1.729
 4263TIP3   OH212731   2.299   0.097   0.051
 4263TIP3    H112732   2.268   0.007   0.044
 4263TIP3    H212733   2.359   0.108  -0.022
 4264TIP3   OH212734   6.455   6.032   3.866
 4264TIP3    H112735   6.430   6.044   3.775
 4264TIP3    H212736   6.504   5.949   3.867
 4265TIP3   OH212737   7.810   3.765   4.526
 4265TIP3    H112738   7.776   3.693   4.472
 4265TIP3    H212739   7.732   3.815   4.552
 4266TIP3   OH212740   0.102   3.393   4.999
 4266TIP3    H112741   0.161   3.347   5.059
 4266TIP3    H212742   0.160   3.428   4.931
 4267TIP3   OH212743   5.857   6.561   2.657
 4267TIP3    H112744   5.885   6.619   2.728
 4267TIP3    H212745   5.908   6.591   2.581
 4268TIP3   OH212746   5.623   4.648   5.700
 4268TIP3    H112747   5.719   4.651   5.691
 4268TIP3    H212748   5.594   4.735   5.674
 4269TIP3   OH212749   6.250   7.089   5.807
 4269TIP3    H112750   6.285   7.178   5.802
 4269TIP3    H212751   6.312   7.042   5.862
 4270TIP3   OH212752   2.046   3.055   6.461
 4270TIP3    H112753   2.098   2.975   6.451
 4270TIP3    H212754   2.074   3.092   6.544
 4271TIP3   OH212755   0.265   6.601   6.307
 4271TIP3    H112756   0.202   6.627   6.374
 4271TIP3    H212757   0.320   6.678   6.294
 4272TIP3   OH212758   6.718   7.401   5.380
 4272TIP3    H112759   6.684   7.389   5.292
 4272TIP3    H212760   6.681   7.485   5.408
 4273TIP3   OH212761   1.562   6.601   2.167
 4273TIP3    H112762   1.627   6.653   2.214
 4273TIP3    H212763   1.583   6.614   2.075
 4274TIP3   OH212764   6.878   7.272   0.311
 4274TIP3    H112765   6.862   7.354   0.357
 4274TIP3    H212766   6.799   7.258   0.259
 4275TIP3   OH212767   1.220   4.091   3.275
 4275TIP3    H112768   1.288   4.120   3.214
 4275TIP3    H212769   1.159   4.040   3.221
 4276TIP3   OH212770   4.536   3.986   1.156
 4276TIP3    H112771   4.584   3.968   1.075
 4276TIP3    H212772   4.524   3.901   1.197
 4277TIP3   OH212773   3.385   0.892   4.949
 4277TIP3    H112774   3.375   0.959   4.882
 4277TIP3    H212775   3.322   0.916   5.017
 4278TIP3   OH212776   0.431   6.980   1.293
 4278TIP3    H112777   0.338   7.002   1.300
 4278TIP3    H212778   0.459   6.962   1.383
 4279TIP3   OH212779   2.645   5.980   6.309
 4279TIP3    H112780   2.728   5.990   6.262
 4279TIP3    H212781   2.623   6.068   6.339
 4280TIP3   OH212782   8.110   5.399   3.685
 4280TIP3    H112783   8.119   5.493   3.666
 4280TIP3    H212784   8.038   5.370   3.629
 4281TIP3   OH212785   7.260   2.968   3.893
 4281TIP3    H112786   7.273   3.059   3.919
 4281TIP3    H212787   7.272   2.918   3.974
 4282TIP3   OH212788   2.937   5.033   6.619
 4282TIP3    H112789   2.951   5.123   6.646
 4282TIP3    H212790   2.989   5.022   6.540
 4283TIP3   OH212791   1.208   6.558   2.001
 4283TIP3    H112792   1.122   6.590   2.028
 4283TIP3    H212793   1.237   6.502   2.073
 4284TIP3   OH212794   3.339   7.806   2.354
 4284TIP3    H112795   3.406   7.794   2.421
 4284TIP3    H212796   3.332   7.720   2.311
 4285TIP3   OH212797   7.204   1.936   6.117
 4285TIP3    H112798   7.229   2.028   6.130
 4285TIP3    H212799   7.129   1.940   6.059
 4286TIP3   OH212800   7.527   7.336   4.425
 4286TIP3    H112801   7.436   7.357   4.448
 4286TIP3    H212802   7.554   7.272   4.491
 4287TIP3   OH212803   5.200   3.495   0.115
 4287TIP3    H112804   5.212   3.581   0.154
 4287TIP3    H212805   5.155   3.444   0.182
 4288TIP3   OH212806   0.554   3.514   3.321
 4288TIP3    H112807   0.489   3.508   3.252
 4288TIP3    H212808   0.637   3.492   3.278
 4289TIP3   OH212809   2.167   4.255   2.680
 4289TIP3    H112810   2.136   4.203   2.606
 4289TIP3    H212811   2.259   4.273   2.660
 4290TIP3   OH212812   1.772   3.968   0.349
 4290TIP3    H112813   1.791   3.880   0.317
 4290TIP3    H212814   1.755   4.019   0.269
 4291TIP3   OH212815   7.740   6.944   0.607
 4291TIP3    H112816   7.753   6.945   0.702
 4291TIP3    H212817   7.817   6.898   0.572
 4292TIP3   OH212818   4.110   6.468   0.113
 4292TIP3    H112819   4.117   6.560   0.139
 4292TIP3    H212820   4.040   6.433   0.169
 4293TIP3   OH212821   1.041   2.314   5.526
 4293TIP3    H112822   1.005   2.403   5.523
 4293TIP3    H212823   1.133   2.326   5.546
 4294TIP3   OH212824   8.100   3.265   0.495
 4294TIP3    H112825   8.072   3.235   0.581
 4294TIP3    H212826   8.196   3.270   0.501
 4295TIP3   OH212827   7.102  -0.012   0.884
 4295TIP3    H112828   7.180   0.024   0.842
 4295TIP3    H212829   7.077   0.054   0.949
 4296TIP3   OH212830   5.275   4.783   1.521
 4296TIP3    H112831   5.261   4.691   1.500
 4296TIP3    H212832   5.187   4.819   1.534
 4297TIP3   OH212833   0.037   2.074   0.119
 4297TIP3    H112834   0.133   2.079   0.115
 4297TIP3    H212835   0.016   2.090   0.211
 4298TIP3   OH212836   1.073   1.348   1.111
 4298TIP3    H112837   0.992   1.309   1.080
 4298TIP3    H212838   1.101   1.406   1.039
 4299TIP3   OH212839   5.012   7.050   3.207
 4299TIP3    H112840   4.968   7.024   3.125
 4299TIP3    H212841   4.941   7.062   3.269
 4300TIP3   OH212842   1.187   5.903   4.708
 4300TIP3    H112843   1.232   5.886   4.625
 4300TIP3    H212844   1.123   5.972   4.688
 4301TIP3   OH212845   0.641   5.889   3.331
 4301TIP3    H112846   0.663   5.908   3.422
 4301TIP3    H212847   0.554   5.927   3.320
 4302TIP3   OH212848   3.367   6.025   0.920
 4302TIP3    H112849   3.420   5.958   0.964
 4302TIP3    H212850   3.424   6.057   0.850
 4303TIP3   OH212851   2.210   1.554   1.302
 4303TIP3    H112852   2.178   1.607   1.375
 4303TIP3    H212853   2.281   1.503   1.339
 4304TIP3   OH212854   4.821   4.547   6.240
 4304TIP3    H112855   4.909   4.509   6.235
 4304TIP3    H212856   4.781   4.524   6.156
 4305TIP3   OH212857   0.181   0.072   1.085
 4305TIP3    H112858   0.237   0.128   1.031
 4305TIP3    H212859   0.212  -0.017   1.070
 4306TIP3   OH212860   5.479   5.673   2.442
 4306TIP3    H112861   5.525   5.742   2.490
 4306TIP3    H212862   5.433   5.719   2.372
 4307TIP3   OH212863   2.082   5.232   1.749
 4307TIP3    H112864   1.990   5.250   1.769
 4307TIP3    H212865   2.097   5.276   1.665
 4308TIP3   OH212866   1.418   0.370   0.638
 4308TIP3    H112867   1.337   0.321   0.622
 4308TIP3    H212868   1.477   0.307   0.678
 4309TIP3   OH212869   3.930   1.944   5.598
 4309TIP3    H112870   3.837   1.949   5.576
 4309TIP3    H212871   3.975   1.987   5.525
 4310TIP3   OH212872   3.754   4.279   4.020
 4310TIP3    H112873   3.688   4.251   4.083
 4310TIP3    H212874   3.716   4.257   3.935
 4311TIP3   OH212875   4.637   6.791   2.080
 4311TIP3    H112876   4.542   6.787   2.068
 4311TIP3    H212877   4.671   6.724   2.021
 4312TIP3   OH212878   0.953   2.344   1.047
 4312TIP3    H112879   0.876   2.317   1.098
 4312TIP3    H212880   0.917   2.387   0.970
 4313TIP3   OH212881   7.513   1.128   1.942
 4313TIP3    H112882   7.492   1.057   1.882
 4313TIP3    H212883   7.442   1.192   1.929
 4314TIP3   OH212884   7.853   3.840   4.200
 4314TIP3    H112885   7.759   3.837   4.180
 4314TIP3    H212886   7.868   3.765   4.258
 4315TIP3   OH212887   5.881   5.783   1.670
 4315TIP3    H112888   5.911   5.874   1.661
 4315TIP3    H212889   5.959   5.736   1.699
 4316TIP3   OH212890   2.155   0.877   3.256
 4316TIP3    H112891   2.160   0.909   3.346
 4316TIP3    H212892   2.073   0.912   3.222
 4317TIP3   OH212893   7.104   6.730   6.457
 4317TIP3    H112894   7.057   6.718   6.374
 4317TIP3    H212895   7.194   6.751   6.430
 4318TIP3   OH212896   7.108   0.710   2.883
 4318TIP3    H112897   7.022   0.702   2.841
 4318TIP3    H212898   7.143   0.621   2.881
 4319TIP3   OH212899   5.627   5.109   1.626
 4319TIP3    H112900   5.591   5.020   1.632
 4319TIP3    H212901   5.686   5.105   1.550
 4320TIP3   OH212902   4.460   7.467   4.256
 4320TIP3    H112903   4.412   7.384   4.251
 4320TIP3    H212904   4.550   7.441   4.277
 4321TIP3   OH212905   0.035   1.907   5.665
 4321TIP3    H112906  -0.002   1.875   5.583
 4321TIP3    H212907   0.124   1.933   5.642
 4322TIP3   OH212908   5.399   7.718   6.147
 4322TIP3    H112909   5.478   7.664   6.144
 4322TIP3    H212910   5.400   7.756   6.235
 4323TIP3   OH212911   5.474   2.965   3.077
 4323TIP3    H112912   5.521   2.882   3.077
 4323TIP3    H212913   5.403   2.953   3.139
 4324TIP3   OH212914   1.881   1.970   0.572
 4324TIP3    H112915   1.958   1.915   0.589
 4324TIP3    H212916   1.856   1.949   0.482
 4325TIP3   OH212917   0.157   4.856   2.016
 4325TIP3    H112918   0.167   4.835   1.923
 4325TIP3    H212919   0.068   4.890   2.023
 4326TIP3   OH212920   1.426   5.833   4.848
 4326TIP3    H112921   1.347   5.835   4.793
 4326TIP3    H212922   1.400   5.782   4.925
 4327TIP3   OH212923   2.229   3.213   2.366
 4327TIP3    H112924   2.166   3.160   2.317
 4327TIP3    H212925   2.314   3.173   2.347
 4328TIP3   OH212926   3.174   6.767   0.758
 4328TIP3    H112927   3.109   6.804   0.818
 4328TIP3    H212928   3.154   6.806   0.673
 4329TIP3   OH212929   5.091   4.850   0.916
 4329TIP3    H112930   5.088   4.944   0.897
 4329TIP3    H212931   5.034   4.810   0.851
 4330TIP3   OH212932   3.437   6.140   3.580
 4330TIP3    H112933   3.527   6.115   3.602
 4330TIP3    H212934   3.397   6.060   3.545
 4331TIP3   OH212935   8.190   7.485   0.422
 4331TIP3    H112936   8.147   7.537   0.489
 4331TIP3    H212937   8.187   7.395   0.455
 4332TIP3   OH212938   0.625   3.941   0.195
 4332TIP3    H112939   0.687   4.012   0.179
 4332TIP3    H212940   0.549   3.964   0.141
 4333TIP3   OH212941   1.310   1.329   3.001
 4333TIP3    H112942   1.280   1.366   3.085
 4333TIP3    H212943   1.255   1.252   2.988
 4334TIP3   OH212944   2.593   5.666   3.806
 4334TIP3    H112945   2.523   5.640   3.746
 4334TIP3    H212946   2.570   5.623   3.889
 4335TIP3   OH212947   4.064   0.624   6.691
 4335TIP3    H112948   4.073   0.711   6.729
 4335TIP3    H212949   3.970   0.614   6.675
 4336TIP3   OH212950   0.840   2.761   0.420
 4336TIP3    H112951   0.909   2.707   0.459
 4336TIP3    H212952   0.764   2.746   0.476
 4337TIP3   OH212953   3.122   6.830   0.498
 4337TIP3    H112954   3.057   6.893   0.468
 4337TIP3    H212955   3.178   6.814   0.422
 4338TIP3   OH212956   0.732   2.113   4.094
 4338TIP3    H112957   0.779   2.032   4.114
 4338TIP3    H212958   0.715   2.108   4.000
 4339TIP3   OH212959   5.211   0.212   0.894
 4339TIP3    H112960   5.135   0.237   0.946
 4339TIP3    H212961   5.188   0.237   0.804
 4340TIP3   OH212962   0.933   0.559   0.224
 4340TIP3    H112963   1.019   0.522   0.244
 4340TIP3    H212964   0.880   0.542   0.302
 4341TIP3   OH212965   7.357   5.197   3.242
 4341TIP3    H112966   7.435   5.253   3.232
 4341TIP3    H212967   7.392   5.109   3.251
 4342TIP3   OH212968   2.534   3.409   1.335
 4342TIP3    H112969   2.554   3.319   1.309
 4342TIP3    H212970   2.564   3.463   1.263
 4343TIP3   OH212971   2.310   4.076   3.742
 4343TIP3    H112972   2.311   3.982   3.763
 4343TIP3    H212973   2.401   4.096   3.719
 4344TIP3   OH212974   3.392   1.425   1.237
 4344TIP3    H112975   3.347   1.507   1.215
 4344TIP3    H212976   3.423   1.391   1.153
 4345TIP3   OH212977   2.304   1.222   6.329
 4345TIP3    H112978   2.220   1.177   6.331
 4345TIP3    H212979   2.334   1.221   6.420
 4346TIP3   OH212980   7.861   7.353   0.583
 4346TIP3    H112981   7.908   7.275   0.554
 4346TIP3    H212982   7.862   7.411   0.507
 4347TIP3   OH212983   3.127   0.479   3.112
 4347TIP3    H112984   3.069   0.403   3.111
 4347TIP3    H212985   3.154   0.488   3.204
 4348TIP3   OH212986   0.817   6.851   0.742
 4348TIP3    H112987   0.830   6.766   0.699
 4348TIP3    H212988   0.906   6.885   0.753
 4349TIP3   OH212989   6.389   6.719   5.667
 4349TIP3    H112990   6.458   6.658   5.643
 4349TIP3    H212991   6.369   6.767   5.587
 4350TIP3   OH212992   5.773   1.583   2.520
 4350TIP3    H112993   5.811   1.660   2.563
 4350TIP3    H212994   5.684   1.577   2.555
 4351TIP3   OH212995   0.044   5.578   6.622
 4351TIP3    H112996   0.053   5.495   6.574
 4351TIP3    H212997  -0.042   5.611   6.597
 4352TIP3   OH212998   7.800   0.038   1.668
 4352TIP3    H112999   7.787   0.094   1.592
 4352TIP3    H213000   7.712   0.010   1.693
 4353TIP3   OH213001   4.391   5.267   0.671
 4353TIP3    H113002   4.435   5.211   0.735
 4353TIP3    H213003   4.376   5.210   0.596
 4354TIP3   OH213004   6.771   6.779   4.078
 4354TIP3    H113005   6.778   6.841   4.151
 4354TIP3    H213006   6.763   6.834   4.000
 4355TIP3   OH213007   5.231   5.709   6.352
 4355TIP3    H113008   5.271   5.767   6.287
 4355TIP3    H213009   5.210   5.629   6.304
 4356TIP3   OH213010   7.207   3.317   2.465
 4356TIP3    H113011   7.266   3.387   2.493
 4356TIP3    H213012   7.220   3.311   2.370
 4357TIP3   OH213013   3.207   1.245   1.333
 4357TIP3    H113014   3.234   1.205   1.416
 4357TIP3    H213015   3.267   1.319   1.322
 4358TIP3   OH213016   3.655   1.552   1.969
 4358TIP3    H113017   3.743   1.517   1.978
 4358TIP3    H213018   3.667   1.643   1.941
 4359TIP3   OH213019   1.050   4.732   2.144
 4359TIP3    H113020   1.114   4.792   2.108
 4359TIP3    H213021   0.965   4.772   2.125
 4360TIP3   OH213022   5.821   6.016   6.461
 4360TIP3    H113023   5.759   5.945   6.444
 4360TIP3    H213024   5.770   6.096   6.445
 4361TIP3   OH213025   0.120   3.928   2.780
 4361TIP3    H113026   0.107   3.999   2.717
 4361TIP3    H213027   0.036   3.884   2.784
 4362TIP3   OH213028   5.881   6.534   4.494
 4362TIP3    H113029   5.879   6.546   4.589
 4362TIP3    H213030   5.968   6.498   4.476
 4363TIP3   OH213031   2.894   6.972   4.920
 4363TIP3    H113032   2.956   6.986   4.848
 4363TIP3    H213033   2.901   6.879   4.940
 4364TIP3   OH213034   7.857   5.149   1.767
 4364TIP3    H113035   7.866   5.241   1.795
 4364TIP3    H213036   7.766   5.143   1.738
 4365TIP3   OH213037   0.837   5.967   0.161
 4365TIP3    H113038   0.793   5.910   0.099
 4365TIP3    H213039   0.921   5.988   0.119
 4366TIP3   OH213040   2.043   2.638   0.819
 4366TIP3    H113041   2.035   2.543   0.827
 4366TIP3    H213042   2.122   2.651   0.767
 4367TIP3   OH213043   8.052   0.767   5.707
 4367TIP3    H113044   8.045   0.787   5.801
 4367TIP3    H213045   8.000   0.688   5.696
 4368TIP3   OH213046   5.759   5.090   0.833
 4368TIP3    H113047   5.825   5.023   0.817
 4368TIP3    H213048   5.688   5.071   0.772
 4369TIP3   OH213049   7.505   4.387   5.785
 4369TIP3    H113050   7.443   4.319   5.758
 4369TIP3    H213051   7.581   4.339   5.817
 4370TIP3   OH213052   5.928   1.732   5.629
 4370TIP3    H113053   6.005   1.769   5.584
 4370TIP3    H213054   5.931   1.639   5.607
 4371TIP3   OH213055   5.886   2.802   4.596
 4371TIP3    H113056   5.856   2.730   4.541
 4371TIP3    H213057   5.980   2.808   4.580
 4372TIP3   OH213058   3.597   0.132   4.558
 4372TIP3    H113059   3.587   0.225   4.580
 4372TIP3    H213060   3.624   0.133   4.466
 4373TIP3   OH213061   7.374   1.894   2.152
 4373TIP3    H113062   7.331   1.964   2.200
 4373TIP3    H213063   7.319   1.817   2.166
 4374TIP3   OH213064   0.882   2.044   0.775
 4374TIP3    H113065   0.962   2.090   0.797
 4374TIP3    H213066   0.857   1.998   0.856
 4375TIP3   OH213067   7.769   4.181   0.260
 4375TIP3    H113068   7.838   4.241   0.232
 4375TIP3    H213069   7.812   4.096   0.266
 4376TIP3   OH213070   6.295   6.041   4.692
 4376TIP3    H113071   6.239   5.965   4.675
 4376TIP3    H213072   6.373   6.005   4.734
 4377TIP3   OH213073   3.165   1.572   4.723
 4377TIP3    H113074   3.094   1.633   4.704
 4377TIP3    H213075   3.241   1.609   4.679
 4378TIP3   OH213076   4.920   3.200   5.268
 4378TIP3    H113077   4.901   3.288   5.237
 4378TIP3    H213078   4.859   3.186   5.340
 4379TIP3   OH213079   3.056   7.623   3.342
 4379TIP3    H113080   2.996   7.559   3.304
 4379TIP3    H213081   3.076   7.589   3.429
 4380TIP3   OH213082   0.499   6.137   4.085
 4380TIP3    H113083   0.420   6.189   4.096
 4380TIP3    H213084   0.534   6.126   4.173
 4381TIP3   OH213085   5.402   1.609   0.685
 4381TIP3    H113086   5.408   1.673   0.756
 4381TIP3    H213087   5.462   1.539   0.712
 4382TIP3   OH213088   5.805   2.685   3.675
 4382TIP3    H113089   5.805   2.678   3.580
 4382TIP3    H213090   5.718   2.655   3.701
 4383TIP3   OH213091   6.293   3.962   2.207
 4383TIP3    H113092   6.297   4.057   2.197
 4383TIP3    H213093   6.205   3.944   2.239
 4384TIP3   OH213094   0.496   0.997   4.309
 4384TIP3    H113095   0.559   0.992   4.381
 4384TIP3    H213096   0.465   0.907   4.299
 4385TIP3   OH213097   3.933   5.671   5.137
 4385TIP3    H113098   3.972   5.741   5.083
 4385TIP3    H213099   3.860   5.638   5.084
 4386TIP3   OH213100   6.492   5.257   0.266
 4386TIP3    H113101   6.459   5.345   0.283
 4386TIP3    H213102   6.466   5.239   0.176
 4387TIP3   OH213103   3.657   7.339   6.105
 4387TIP3    H113104   3.723   7.291   6.055
 4387TIP3    H213105   3.654   7.425   6.064
 4388TIP3   OH213106   3.610   6.779   2.611
 4388TIP3    H113107   3.652   6.693   2.614
 4388TIP3    H213108   3.546   6.772   2.540
 4389TIP3   OH213109   2.559   2.239   1.441
 4389TIP3    H113110   2.597   2.297   1.507
 4389TIP3    H213111   2.553   2.293   1.362
 4390TIP3   OH213112   8.230   3.948   1.238
 4390TIP3    H113113   8.193   4.017   1.184
 4390TIP3    H213114   8.197   3.867   1.200
 4391TIP3   OH213115   2.077   4.404   6.714
 4391TIP3    H113116   2.144   4.458   6.672
 4391TIP3    H213117   2.078   4.431   6.806
 4392TIP3   OH213118   8.223   0.988   6.637
 4392TIP3    H113119   8.234   0.898   6.665
 4392TIP3    H213120   8.303   1.033   6.665
 4393TIP3   OH213121   7.086   6.184   2.781
 4393TIP3    H113122   7.034   6.232   2.846
 4393TIP3    H213123   7.025   6.168   2.709
 4394TIP3   OH213124   1.967   6.642   4.925
 4394TIP3    H113125   2.022   6.592   4.986
 4394TIP3    H213126   1.907   6.690   4.982
 4395TIP3   OH213127   0.075   5.176   4.339
 4395TIP3    H113128   0.146   5.113   4.350
 4395TIP3    H213129  -0.001   5.124   4.315
 4396TIP3   OH213130   4.837   3.116   3.906
 4396TIP3    H113131   4.759   3.065   3.883
 4396TIP3    H213132   4.885   3.125   3.824
 4397TIP3   OH213133   6.896   1.197   5.962
 4397TIP3    H113134   6.827   1.215   5.898
 4397TIP3    H213135   6.850   1.188   6.045
 4398TIP3   OH213136   0.490   3.996   2.233
 4398TIP3    H113137   0.552   4.048   2.181
 4398TIP3    H213138   0.503   4.026   2.323
 4399TIP3   OH213139   3.077   6.304   4.731
 4399TIP3    H113140   3.015   6.325   4.661
 4399TIP3    H213141   3.034   6.235   4.782
 4400TIP3   OH213142   0.789   6.915   5.159
 4400TIP3    H113143   0.831   6.839   5.199
 4400TIP3    H213144   0.744   6.880   5.082
 4401TIP3   OH213145   6.034   0.854   3.526
 4401TIP3    H113146   6.005   0.771   3.490
 4401TIP3    H213147   6.120   0.869   3.486
 4402TIP3   OH213148   2.905   5.590   3.454
 4402TIP3    H113149   2.880   5.642   3.531
 4402TIP3    H213150   2.880   5.501   3.476
 4403TIP3   OH213151   8.149   1.627   3.888
 4403TIP3    H113152   8.166   1.587   3.973
 4403TIP3    H213153   8.056   1.610   3.872
 4404TIP3   OH213154   8.271   5.934   1.276
 4404TIP3    H113155   8.182   5.964   1.293
 4404TIP3    H213156   8.264   5.838   1.281
 4405TIP3   OH213157   0.965   2.417   3.496
 4405TIP3    H113158   0.883   2.460   3.518
 4405TIP3    H213159   0.991   2.455   3.413
 4406TIP3   OH213160   3.783   3.676   0.347
 4406TIP3    H113161   3.749   3.640   0.429
 4406TIP3    H213162   3.751   3.616   0.280
 4407TIP3   OH213163   0.105   3.905   4.832
 4407TIP3    H113164   0.192   3.940   4.810
 4407TIP3    H213165   0.055   3.915   4.751
 4408TIP3   OH213166   3.219   3.913   2.149
 4408TIP3    H113167   3.254   3.834   2.108
 4408TIP3    H213168   3.296   3.960   2.181
 4409TIP3   OH213169   5.087   2.997   1.916
 4409TIP3    H113170   5.148   2.939   1.870
 4409TIP3    H213171   5.137   3.028   1.992
 4410TIP3   OH213172   2.454   4.373   4.122
 4410TIP3    H113173   2.487   4.351   4.034
 4410TIP3    H213174   2.530   4.410   4.167
 4411TIP3   OH213175   6.861   0.108   4.734
 4411TIP3    H113176   6.829   0.042   4.673
 4411TIP3    H213177   6.949   0.078   4.759
 4412TIP3   OH213178   8.012   6.983   4.562
 4412TIP3    H113179   7.996   6.920   4.633
 4412TIP3    H213180   8.091   6.951   4.520
 4413TIP3   OH213181   6.215   0.530   1.826
 4413TIP3    H113182   6.161   0.520   1.747
 4413TIP3    H213183   6.204   0.447   1.872
 4414TIP3   OH213184   0.265   1.961   6.481
 4414TIP3    H113185   0.236   2.053   6.479
 4414TIP3    H213186   0.187   1.913   6.509
 4415TIP3   OH213187   2.646   4.453   6.389
 4415TIP3    H113188   2.617   4.499   6.468
 4415TIP3    H213189   2.598   4.494   6.318
 4416TIP3   OH213190   4.831   1.464   0.561
 4416TIP3    H113191   4.910   1.441   0.611
 4416TIP3    H213192   4.862   1.524   0.494
 4417TIP3   OH213193   0.542   5.353   0.898
 4417TIP3    H113194   0.488   5.274   0.905
 4417TIP3    H213195   0.484   5.425   0.921
 4418TIP3   OH213196   1.463   5.798   1.633
 4418TIP3    H113197   1.447   5.781   1.726
 4418TIP3    H213198   1.488   5.713   1.597
 4419TIP3   OH213199   0.482   6.903   3.658
 4419TIP3    H113200   0.563   6.950   3.636
 4419TIP3    H213201   0.510   6.831   3.715
 4420TIP3   OH213202   0.123   5.933   5.269
 4420TIP3    H113203   0.204   5.885   5.285
 4420TIP3    H213204   0.135   6.017   5.314
 4421TIP3   OH213205   1.440   0.603   4.547
 4421TIP3    H113206   1.453   0.671   4.612
 4421TIP3    H213207   1.499   0.627   4.475
 4422TIP3   OH213208   3.295   2.430   1.815
 4422TIP3    H113209   3.333   2.373   1.882
 4422TIP3    H213210   3.221   2.380   1.779
 4423TIP3   OH213211   1.512   2.521   2.504
 4423TIP3    H113212   1.572   2.559   2.439
 4423TIP3    H213213   1.435   2.577   2.502
 4424TIP3   OH213214   2.426   2.002   4.776
 4424TIP3    H113215   2.442   2.075   4.835
 4424TIP3    H213216   2.331   1.999   4.766
 4425TIP3   OH213217   4.869   2.270   5.064
 4425TIP3    H113218   4.795   2.222   5.100
 4425TIP3    H213219   4.861   2.259   4.970
 4426TIP3   OH213220   6.449   3.836   0.127
 4426TIP3    H113221   6.486   3.796   0.206
 4426TIP3    H213222   6.518   3.895   0.095
 4427TIP3   OH213223   3.923   5.998   6.030
 4427TIP3    H113224   3.844   5.964   5.988
 4427TIP3    H213225   3.900   6.004   6.123
 4428TIP3   OH213226   6.048   5.767   5.153
 4428TIP3    H113227   5.956   5.791   5.166
 4428TIP3    H213228   6.090   5.790   5.235
 4429TIP3   OH213229   3.847   5.295   0.379
 4429TIP3    H113230   3.869   5.202   0.372
 4429TIP3    H213231   3.875   5.320   0.467
 4430TIP3   OH213232   2.309   7.201   3.321
 4430TIP3    H113233   2.302   7.209   3.416
 4430TIP3    H213234   2.239   7.140   3.297
 4431TIP3   OH213235   1.688   2.296   4.509
 4431TIP3    H113236   1.702   2.291   4.415
 4431TIP3    H213237   1.723   2.381   4.534
 4432TIP3   OH213238   5.087   5.965   4.965
 4432TIP3    H113239   5.085   5.876   5.000
 4432TIP3    H213240   5.013   6.010   5.007
 4433TIP3   OH213241   7.766   0.116   2.069
 4433TIP3    H113242   7.679   0.080   2.089
 4433TIP3    H213243   7.820   0.090   2.144
 4434TIP3   OH213244   4.963   4.940   5.137
 4434TIP3    H113245   4.877   4.899   5.137
 4434TIP3    H213246   4.949   5.027   5.175
 4435TIP3   OH213247   3.009   0.728   0.669
 4435TIP3    H113248   3.022   0.759   0.759
 4435TIP3    H213249   2.972   0.804   0.623
 4436TIP3   OH213250   2.192   3.898   0.924
 4436TIP3    H113251   2.127   3.904   0.995
 4436TIP3    H213252   2.273   3.931   0.963
 4437TIP3   OH213253   3.345   5.505   0.723
 4437TIP3    H113254   3.394   5.453   0.786
 4437TIP3    H213255   3.392   5.493   0.640
 4438TIP3   OH213256   2.907   3.655   1.387
 4438TIP3    H113257   2.911   3.749   1.407
 4438TIP3    H213258   2.814   3.638   1.368
 4439TIP3   OH213259   4.969   1.734   5.832
 4439TIP3    H113260   5.022   1.788   5.890
 4439TIP3    H213261   5.019   1.729   5.751
 4440TIP3   OH213262   2.437   6.044   6.124
 4440TIP3    H113263   2.506   6.008   6.180
 4440TIP3    H213264   2.381   5.969   6.104
 4441TIP3   OH213265   1.850   3.769   6.428
 4441TIP3    H113266   1.865   3.846   6.374
 4441TIP3    H213267   1.887   3.696   6.378
 4442TIP3   OH213268   2.899   6.930   1.179
 4442TIP3    H113269   2.817   6.979   1.177
 4442TIP3    H213270   2.912   6.908   1.271
 4443TIP3   OH213271   1.461   6.316   4.585
 4443TIP3    H113272   1.483   6.349   4.497
 4443TIP3    H213273   1.426   6.393   4.630
 4444TIP3   OH213274   1.765   0.870   4.661
 4444TIP3    H113275   1.775   0.831   4.574
 4444TIP3    H213276   1.843   0.925   4.672
 4445TIP3   OH213277   0.076   3.081   4.004
 4445TIP3    H113278   0.038   3.161   3.969
 4445TIP3    H213279   0.135   3.050   3.935
 4446TIP3   OH213280   2.860   2.651   3.688
 4446TIP3    H113281   2.949   2.673   3.660
 4446TIP3    H213282   2.817   2.619   3.608
 4447TIP3   OH213283   5.734   6.270   6.440
 4447TIP3    H113284   5.744   6.358   6.478
 4447TIP3    H213285   5.797   6.268   6.368
 4448TIP3   OH213286   4.659   4.076   4.898
 4448TIP3    H113287   4.705   4.146   4.850
 4448TIP3    H213288   4.566   4.092   4.881
 4449TIP3   OH213289   5.333   6.939   6.577
 4449TIP3    H113290   5.386   6.932   6.497
 4449TIP3    H213291   5.273   7.011   6.561
 4450TIP3   OH213292   1.739   5.583   1.195
 4450TIP3    H113293   1.794   5.521   1.147
 4450TIP3    H213294   1.800   5.652   1.222
 4451TIP3   OH213295   3.214   6.499   2.914
 4451TIP3    H113296   3.134   6.539   2.878
 4451TIP3    H213297   3.280   6.514   2.846
 4452TIP3   OH213298   2.906   6.313   6.753
 4452TIP3    H113299   2.864   6.242   6.705
 4452TIP3    H213300   2.857   6.391   6.726
 4453TIP3   OH213301   0.776   2.001   3.013
 4453TIP3    H113302   0.804   1.954   3.092
 4453TIP3    H213303   0.707   1.946   2.976
 4454TIP3   OH213304   1.821   5.441   0.457
 4454TIP3    H113305   1.767   5.380   0.407
 4454TIP3    H213306   1.853   5.503   0.392
 4455TIP3   OH213307   0.865   0.681  -0.007
 4455TIP3    H113308   0.879   0.640   0.079
 4455TIP3    H213309   0.949   0.673  -0.051
 4456TIP3   OH213310   6.264   1.201   3.835
 4456TIP3    H113311   6.317   1.230   3.909
 4456TIP3    H213312   6.189   1.157   3.875
 4457TIP3   OH213313   3.071   5.082   4.179
 4457TIP3    H113314   3.102   5.127   4.100
 4457TIP3    H213315   3.029   5.151   4.231
 4458TIP3   OH213316   7.781   5.668   4.461
 4458TIP3    H113317   7.821   5.607   4.524
 4458TIP3    H213318   7.798   5.755   4.498
 4459TIP3   OH213319   7.583   1.471   4.368
 4459TIP3    H113320   7.548   1.555   4.396
 4459TIP3    H213321   7.519   1.438   4.304
 4460TIP3   OH213322   1.991   7.378   2.074
 4460TIP3    H113323   2.028   7.343   1.993
 4460TIP3    H213324   1.896   7.367   2.063
 4461TIP3   OH213325   0.054   2.555   4.241
 4461TIP3    H113326   0.123   2.564   4.307
 4461TIP3    H213327  -0.009   2.624   4.263
 4462TIP3   OH213328   0.712   1.163   1.381
 4462TIP3    H113329   0.783   1.100   1.394
 4462TIP3    H213330   0.639   1.128   1.432
 4463TIP3   OH213331   5.023   3.095   6.133
 4463TIP3    H113332   5.055   3.180   6.105
 4463TIP3    H213333   4.946   3.079   6.078
 4464TIP3   OH213334   4.005   6.271   6.028
 4464TIP3    H113335   3.971   6.181   6.023
 4464TIP3    H213336   4.057   6.281   5.948
 4465TIP3   OH213337   2.613   5.615   1.407
 4465TIP3    H113338   2.708   5.611   1.407
 4465TIP3    H213339   2.592   5.697   1.362
 4466TIP3   OH213340   7.183   0.431   2.878
 4466TIP3    H113341   7.247   0.401   2.813
 4466TIP3    H213342   7.120   0.358   2.884
 4467TIP3   OH213343   2.374   1.989   5.931
 4467TIP3    H113344   2.413   2.042   5.862
 4467TIP3    H213345   2.401   1.899   5.910
 4468TIP3   OH213346   6.446   7.755   5.058
 4468TIP3    H113347   6.393   7.690   5.105
 4468TIP3    H213348   6.512   7.782   5.121
 4469TIP3   OH213349   3.530   2.548   4.256
 4469TIP3    H113350   3.463   2.518   4.317
 4469TIP3    H213351   3.524   2.487   4.182
 4470TIP3   OH213352   7.983   2.643   0.264
 4470TIP3    H113353   8.045   2.624   0.193
 4470TIP3    H213354   7.903   2.597   0.239
 4471TIP3   OH213355   1.603   3.182   0.815
 4471TIP3    H113356   1.590   3.088   0.797
 4471TIP3    H213357   1.550   3.197   0.894
 4472TIP3   OH213358   0.552   6.273   6.328
 4472TIP3    H113359   0.559   6.180   6.308
 4472TIP3    H213360   0.639   6.298   6.359
 4473TIP3   OH213361   2.960   6.419   0.728
 4473TIP3    H113362   2.905   6.454   0.798
 4473TIP3    H213363   2.972   6.492   0.668
 4474TIP3   OH213364   7.264   4.255   1.784
 4474TIP3    H113365   7.304   4.259   1.871
 4474TIP3    H213366   7.285   4.167   1.752
 4475TIP3   OH213367   2.234   1.966   5.456
 4475TIP3    H113368   2.230   1.914   5.537
 4475TIP3    H213369   2.147   2.004   5.448
 4476TIP3   OH213370  -0.020   5.398   4.820
 4476TIP3    H113371   0.012   5.312   4.847
 4476TIP3    H213372   0.019   5.459   4.882
 4477TIP3   OH213373   2.288   5.350   2.923
 4477TIP3    H113374   2.232   5.428   2.925
 4477TIP3    H213375   2.321   5.342   3.013
 4478TIP3   OH213376   8.202   7.172   1.777
 4478TIP3    H113377   8.166   7.250   1.736
 4478TIP3    H213378   8.297   7.183   1.771
 4479TIP3   OH213379   5.810   6.757   1.561
 4479TIP3    H113380   5.770   6.843   1.551
 4479TIP3    H213381   5.878   6.755   1.494
 4480TIP3   OH213382   2.482   0.462   1.113
 4480TIP3    H113383   2.474   0.392   1.178
 4480TIP3    H213384   2.575   0.464   1.090
 4481TIP3   OH213385   7.699   2.694   3.466
 4481TIP3    H113386   7.783   2.672   3.506
 4481TIP3    H213387   7.717   2.775   3.417
 4482TIP3   OH213388   1.712   6.844   2.247
 4482TIP3    H113389   1.680   6.833   2.337
 4482TIP3    H213390   1.647   6.899   2.205
 4483TIP3   OH213391   7.452   2.563   2.787
 4483TIP3    H113392   7.527   2.557   2.727
 4483TIP3    H213393   7.394   2.627   2.745
 4484TIP3   OH213394   2.799   1.588   1.200
 4484TIP3    H113395   2.767   1.591   1.290
 4484TIP3    H213396   2.744   1.523   1.156
 4485TIP3   OH213397   1.246   3.448   1.242
 4485TIP3    H113398   1.237   3.449   1.338
 4485TIP3    H213399   1.214   3.361   1.216
 4486TIP3   OH213400   5.368   0.342   5.344
 4486TIP3    H113401   5.424   0.391   5.404
 4486TIP3    H213402   5.393   0.374   5.257
 4487TIP3   OH213403   3.951   3.786   4.777
 4487TIP3    H113404   4.002   3.867   4.773
 4487TIP3    H213405   3.870   3.810   4.822
 4488TIP3   OH213406   5.040   6.250   0.857
 4488TIP3    H113407   5.043   6.177   0.795
 4488TIP3    H213408   4.991   6.318   0.811
 4489TIP3   OH213409   3.990   6.889   4.541
 4489TIP3    H113410   3.971   6.968   4.491
 4489TIP3    H213411   4.063   6.913   4.597
 4490TIP3   OH213412   0.996   4.749   2.417
 4490TIP3    H113413   1.009   4.753   2.322
 4490TIP3    H213414   0.907   4.782   2.430
 4491TIP3   OH213415   5.259   2.235   5.591
 4491TIP3    H113416   5.300   2.165   5.539
 4491TIP3    H213417   5.193   2.272   5.533
 4492TIP3   OH213418   7.723   6.189   3.460
 4492TIP3    H113419   7.631   6.193   3.487
 4492TIP3    H213420   7.743   6.278   3.433
 4493TIP3   OH213421   3.901   3.239   5.984
 4493TIP3    H113422   3.989   3.227   6.021
 4493TIP3    H213423   3.917   3.283   5.901
 4494TIP3   OH213424   2.116   7.459   4.513
 4494TIP3    H113425   2.193   7.516   4.508
 4494TIP3    H213426   2.058   7.491   4.444
 4495TIP3   OH213427   4.636   2.484   2.250
 4495TIP3    H113428   4.617   2.549   2.317
 4495TIP3    H213429   4.700   2.527   2.193
 4496TIP3   OH213430   2.730   3.833   5.506
 4496TIP3    H113431   2.728   3.918   5.549
 4496TIP3    H213432   2.760   3.773   5.574
 4497TIP3   OH213433   3.832   7.485   1.349
 4497TIP3    H113434   3.775   7.525   1.284
 4497TIP3    H213435   3.900   7.550   1.364
 4498TIP3   OH213436   2.204   1.241   1.583
 4498TIP3    H113437   2.247   1.254   1.499
 4498TIP3    H213438   2.115   1.274   1.570
 4499TIP3   OH213439   1.600   2.000   2.734
 4499TIP3    H113440   1.582   2.084   2.776
 4499TIP3    H213441   1.695   1.992   2.736
 4500TIP3   OH213442   6.540   5.469   5.079
 4500TIP3    H113443   6.534   5.414   5.157
 4500TIP3    H213444   6.497   5.418   5.010
 4501TIP3   OH213445   5.833   2.269   1.027
 4501TIP3    H113446   5.915   2.242   0.987
 4501TIP3    H213447   5.768   2.209   0.990
 4502TIP3   OH213448   4.695   1.786   5.889
 4502TIP3    H113449   4.668   1.697   5.868
 4502TIP3    H213450   4.791   1.782   5.892
 4503TIP3   OH213451   0.715   7.707   4.649
 4503TIP3    H113452   0.755   7.794   4.642
 4503TIP3    H213453   0.788   7.647   4.639
 4504TIP3   OH213454   2.086   5.462   6.563
 4504TIP3    H113455   2.080   5.497   6.474
 4504TIP3    H213456   2.003   5.415   6.576
 4505TIP3   OH213457  -0.001   1.112   4.086
 4505TIP3    H113458   0.037   1.069   4.163
 4505TIP3    H213459  -0.012   1.042   4.022
 4506TIP3   OH213460   3.288   2.075   4.738
 4506TIP3    H113461   3.337   2.143   4.692
 4506TIP3    H213462   3.215   2.122   4.779
 4507TIP3   OH213463   4.177   6.997   2.919
 4507TIP3    H113464   4.205   7.012   3.009
 4507TIP3    H213465   4.093   7.043   2.913
 4508TIP3   OH213466   8.185   0.671   3.746
 4508TIP3    H113467   8.155   0.600   3.690
 4508TIP3    H213468   8.186   0.633   3.834
 4509TIP3   OH213469   4.950   5.139   1.096
 4509TIP3    H113470   4.888   5.077   1.135
 4509TIP3    H213471   4.923   5.224   1.130
 4510TIP3   OH213472   7.185   1.411   0.871
 4510TIP3    H113473   7.204   1.452   0.786
 4510TIP3    H213474   7.149   1.325   0.848
 4511TIP3   OH213475   5.930   6.549   1.044
 4511TIP3    H113476   5.840   6.537   1.016
 4511TIP3    H213477   5.957   6.463   1.076
 4512TIP3   OH213478   5.038   0.870   2.964
 4512TIP3    H113479   4.964   0.926   2.986
 4512TIP3    H213480   5.052   0.816   3.041
 4513TIP3   OH213481   8.076   0.769   1.224
 4513TIP3    H113482   8.094   0.696   1.283
 4513TIP3    H213483   8.014   0.733   1.160
 4514TIP3   OH213484   8.157   0.291   0.692
 4514TIP3    H113485   8.224   0.350   0.656
 4514TIP3    H213486   8.082   0.301   0.633
 4515TIP3   OH213487   2.552   2.324   1.879
 4515TIP3    H113488   2.590   2.238   1.898
 4515TIP3    H213489   2.516   2.353   1.962
 4516TIP3   OH213490   5.783   5.436   2.411
 4516TIP3    H113491   5.711   5.413   2.353
 4516TIP3    H213492   5.753   5.411   2.499
 4517TIP3   OH213493   2.350   1.726   2.433
 4517TIP3    H113494   2.376   1.652   2.488
 4517TIP3    H213495   2.293   1.688   2.367
 4518TIP3   OH213496   2.045   3.820   4.605
 4518TIP3    H113497   2.119   3.876   4.628
 4518TIP3    H213498   2.068   3.783   4.520
 4519TIP3   OH213499   7.108   6.280   6.146
 4519TIP3    H113500   7.124   6.205   6.204
 4519TIP3    H213501   7.016   6.272   6.122
 4520TIP3   OH213502   2.379   4.823   5.618
 4520TIP3    H113503   2.454   4.777   5.578
 4520TIP3    H213504   2.357   4.769   5.694
 4521TIP3   OH213505   3.302   6.941   1.493
 4521TIP3    H113506   3.290   7.015   1.553
 4521TIP3    H213507   3.397   6.932   1.485
 4522TIP3   OH213508   3.867   0.917   6.521
 4522TIP3    H113509   3.886   0.980   6.590
 4522TIP3    H213510   3.866   0.833   6.565
 4523TIP3   OH213511   0.172   4.452   6.231
 4523TIP3    H113512   0.189   4.367   6.191
 4523TIP3    H213513   0.207   4.515   6.168
 4524TIP3   OH213514   2.644   2.106   2.257
 4524TIP3    H113515   2.659   2.120   2.164
 4524TIP3    H213516   2.563   2.153   2.276
 4525TIP3   OH213517   8.188   5.055   5.462
 4525TIP3    H113518   8.110   5.028   5.414
 4525TIP3    H213519   8.184   5.007   5.545
 4526TIP3   OH213520   2.763   5.370   1.321
 4526TIP3    H113521   2.816   5.421   1.382
 4526TIP3    H213522   2.734   5.434   1.256
 4527TIP3   OH213523   6.707   6.924   2.311
 4527TIP3    H113524   6.791   6.889   2.282
 4527TIP3    H213525   6.642   6.881   2.255
 4528TIP3   OH213526   6.872   0.300   2.124
 4528TIP3    H113527   6.952   0.295   2.177
 4528TIP3    H213528   6.805   0.258   2.177
 4529TIP3   OH213529   3.671   5.153   5.286
 4529TIP3    H113530   3.584   5.176   5.253
 4529TIP3    H213531   3.701   5.084   5.227
 4530TIP3   OH213532   4.263   2.609   4.469
 4530TIP3    H113533   4.357   2.598   4.482
 4530TIP3    H213534   4.240   2.548   4.399
 4531TIP3   OH213535   2.133   2.556   2.481
 4531TIP3    H113536   2.074   2.480   2.473
 4531TIP3    H213537   2.136   2.592   2.393
 4532TIP3   OH213538   1.713   0.224   4.894
 4532TIP3    H113539   1.730   0.318   4.887
 4532TIP3    H213540   1.640   0.208   4.833
 4533TIP3   OH213541   3.139   3.978   0.684
 4533TIP3    H113542   3.154   4.073   0.685
 4533TIP3    H213543   3.224   3.940   0.702
 4534TIP3   OH213544   6.678   7.129   2.994
 4534TIP3    H113545   6.709   7.198   2.935
 4534TIP3    H213546   6.598   7.165   3.033
 4535TIP3   OH213547   0.689   1.024   6.298
 4535TIP3    H113548   0.668   1.104   6.251
 4535TIP3    H213549   0.780   1.035   6.325
 4536TIP3   OH213550   2.746   2.932   0.382
 4536TIP3    H113551   2.783   3.009   0.425
 4536TIP3    H213552   2.674   2.966   0.330
 4537TIP3   OH213553   4.838   7.688   0.421
 4537TIP3    H113554   4.771   7.668   0.486
 4537TIP3    H213555   4.899   7.748   0.466
 4538TIP3   OH213556   7.758   3.246   2.890
 4538TIP3    H113557   7.668   3.276   2.874
 4538TIP3    H213558   7.758   3.155   2.861
 4539TIP3   OH213559   1.502   3.146   5.522
 4539TIP3    H113560   1.575   3.092   5.492
 4539TIP3    H213561   1.543   3.212   5.578
 4540TIP3   OH213562   3.295   7.431   0.468
 4540TIP3    H113563   3.334   7.347   0.492
 4540TIP3    H213564   3.205   7.409   0.443
 4541TIP3   OH213565   4.267   4.009   0.667
 4541TIP3    H113566   4.210   3.945   0.624
 4541TIP3    H213567   4.248   4.092   0.624
 4542TIP3   OH213568   3.734   4.140   6.004
 4542TIP3    H113569   3.802   4.204   6.021
 4542TIP3    H213570   3.662   4.165   6.061
 4543TIP3   OH213571   3.194   6.320   4.266
 4543TIP3    H113572   3.118   6.357   4.310
 4543TIP3    H213573   3.161   6.291   4.181
 4544TIP3   OH213574   0.179   2.401   2.860
 4544TIP3    H113575   0.214   2.334   2.800
 4544TIP3    H213576   0.249   2.416   2.923
 4545TIP3   OH213577   0.311   2.452   6.557
 4545TIP3    H113578   0.340   2.523   6.500
 4545TIP3    H213579   0.287   2.495   6.639
 4546TIP3   OH213580   5.334   0.189   4.541
 4546TIP3    H113581   5.316   0.098   4.515
 4546TIP3    H213582   5.319   0.190   4.636
 4547TIP3   OH213583   3.918   0.675   3.551
 4547TIP3    H113584   3.977   0.703   3.481
 4547TIP3    H213585   3.853   0.621   3.508
 4548TIP3   OH213586   3.134   7.452   5.765
 4548TIP3    H113587   3.107   7.468   5.675
 4548TIP3    H213588   3.071   7.388   5.798
 4549TIP3   OH213589   0.414   2.221   1.316
 4549TIP3    H113590   0.340   2.264   1.272
 4549TIP3    H213591   0.373   2.161   1.378
 4550TIP3   OH213592   8.310   3.154   5.709
 4550TIP3    H113593   8.323   3.069   5.750
 4550TIP3    H213594   8.216   3.157   5.690
 4551TIP3   OH213595   3.171   5.364   1.335
 4551TIP3    H113596   3.165   5.459   1.325
 4551TIP3    H213597   3.143   5.347   1.425
 4552TIP3   OH213598   5.517   3.671   5.761
 4552TIP3    H113599   5.515   3.598   5.824
 4552TIP3    H213600   5.488   3.632   5.679
 4553TIP3   OH213601   5.095   1.329   5.179
 4553TIP3    H113602   5.172   1.280   5.152
 4553TIP3    H213603   5.021   1.274   5.154
 4554TIP3   OH213604   0.138   6.861   5.638
 4554TIP3    H113605   0.195   6.908   5.577
 4554TIP3    H213606   0.166   6.769   5.630
 4555TIP3   OH213607   6.143   2.574   0.665
 4555TIP3    H113608   6.148   2.669   0.654
 4555TIP3    H213609   6.113   2.562   0.755
 4556TIP3   OH213610   0.854   7.158   1.038
 4556TIP3    H113611   0.781   7.112   0.995
 4556TIP3    H213612   0.855   7.124   1.127
 4557TIP3   OH213613   0.911   6.298   3.719
 4557TIP3    H113614   0.930   6.365   3.786
 4557TIP3    H213615   0.893   6.348   3.640
 4558TIP3   OH213616   0.932   2.413   4.937
 4558TIP3    H113617   0.907   2.346   5.001
 4558TIP3    H213618   0.853   2.465   4.925
 4559TIP3   OH213619   6.998   3.695   6.428
 4559TIP3    H113620   7.061   3.628   6.455
 4559TIP3    H213621   6.914   3.665   6.464
 4560TIP3   OH213622   0.724   0.908   4.470
 4560TIP3    H113623   0.815   0.879   4.468
 4560TIP3    H213624   0.674   0.831   4.495
 4561TIP3   OH213625   2.177   0.929   6.119
 4561TIP3    H113626   2.156   0.986   6.193
 4561TIP3    H213627   2.263   0.960   6.090
 4562TIP3   OH213628   4.444   7.050   3.038
 4562TIP3    H113629   4.440   7.091   3.125
 4562TIP3    H213630   4.370   7.086   2.991
 4563TIP3   OH213631   6.138   7.768   0.164
 4563TIP3    H113632   6.209   7.805   0.217
 4563TIP3    H213633   6.169   7.680   0.140
 4564TIP3   OH213634   2.915   1.307   1.323
 4564TIP3    H113635   3.006   1.338   1.324
 4564TIP3    H213636   2.892   1.304   1.230
 4565TIP3   OH213637   4.692   5.030   3.859
 4565TIP3    H113638   4.623   4.966   3.873
 4565TIP3    H213639   4.689   5.087   3.936
 4566TIP3   OH213640   6.088   5.269   1.482
 4566TIP3    H113641   6.065   5.342   1.539
 4566TIP3    H213642   6.118   5.311   1.401
 4567TIP3   OH213643   4.086   6.095   3.535
 4567TIP3    H113644   4.068   6.014   3.582
 4567TIP3    H213645   4.082   6.163   3.602
 4568TIP3   OH213646   2.928   1.571   0.212
 4568TIP3    H113647   2.943   1.486   0.172
 4568TIP3    H213648   2.966   1.634   0.151
 4569TIP3   OH213649   6.988   1.103   1.342
 4569TIP3    H113650   6.995   1.041   1.415
 4569TIP3    H213651   7.067   1.157   1.348
 4570TIP3   OH213652   4.491   4.245   1.385
 4570TIP3    H113653   4.532   4.179   1.441
 4570TIP3    H213654   4.481   4.321   1.442
 4571TIP3   OH213655   6.308   1.856   4.687
 4571TIP3    H113656   6.251   1.898   4.751
 4571TIP3    H213657   6.285   1.897   4.603
 4572TIP3   OH213658   5.209   4.013   5.561
 4572TIP3    H113659   5.264   4.067   5.617
 4572TIP3    H213660   5.195   4.066   5.482
 4573TIP3   OH213661   0.864   6.249   4.022
 4573TIP3    H113662   0.797   6.219   3.961
 4573TIP3    H213663   0.891   6.334   3.988
 4574TIP3   OH213664   6.024   2.740   5.685
 4574TIP3    H113665   6.065   2.702   5.763
 4574TIP3    H213666   6.093   2.794   5.646
 4575TIP3   OH213667   5.106   7.719   3.919
 4575TIP3    H113668   5.192   7.680   3.905
 4575TIP3    H213669   5.096   7.780   3.846
 4576TIP3   OH213670   2.001   7.105   6.300
 4576TIP3    H113671   2.070   7.160   6.265
 4576TIP3    H213672   2.042   7.058   6.373
 4577TIP3   OH213673   6.837   2.834   3.672
 4577TIP3    H113674   6.876   2.879   3.747
 4577TIP3    H213675   6.911   2.815   3.614
 4578TIP3   OH213676   3.382   2.357   1.195
 4578TIP3    H113677   3.307   2.305   1.166
 4578TIP3    H213678   3.348   2.410   1.267
 4579TIP3   OH213679   8.062   1.356   3.031
 4579TIP3    H113680   8.105   1.294   2.971
 4579TIP3    H213681   8.014   1.416   2.973
 4580TIP3   OH213682   4.136   7.154   1.909
 4580TIP3    H113683   4.227   7.183   1.916
 4580TIP3    H213684   4.111   7.175   1.819
 4581TIP3   OH213685   7.343   5.344   5.804
 4581TIP3    H113686   7.298   5.290   5.739
 4581TIP3    H213687   7.286   5.420   5.816
 4582TIP3   OH213688   0.438   7.324   0.171
 4582TIP3    H113689   0.343   7.312   0.177
 4582TIP3    H213690   0.475   7.256   0.226
 4583TIP3   OH213691   3.519   2.392   5.106
 4583TIP3    H113692   3.573   2.323   5.145
 4583TIP3    H213693   3.448   2.405   5.168
 4584TIP3   OH213694   4.192   6.047   6.702
 4584TIP3    H113695   4.193   6.096   6.620
 4584TIP3    H213696   4.281   6.053   6.736
 4585TIP3   OH213697   7.248   1.105   0.382
 4585TIP3    H113698   7.280   1.106   0.292
 4585TIP3    H213699   7.317   1.062   0.432
 4586TIP3   OH213700   2.109   2.268   1.151
 4586TIP3    H113701   2.188   2.223   1.178
 4586TIP3    H213702   2.072   2.212   1.082
 4587TIP3   OH213703   2.624   4.745   1.964
 4587TIP3    H113704   2.713   4.710   1.963
 4587TIP3    H213705   2.621   4.805   1.890
 4588TIP3   OH213706   6.319   2.763   2.631
 4588TIP3    H113707   6.343   2.694   2.569
 4588TIP3    H213708   6.401   2.809   2.648
 4589TIP3   OH213709   3.575   2.772   5.323
 4589TIP3    H113710   3.626   2.827   5.383
 4589TIP3    H213711   3.555   2.694   5.374
 4590TIP3   OH213712   7.995   6.463   5.401
 4590TIP3    H113713   8.062   6.510   5.451
 4590TIP3    H213714   7.931   6.530   5.378
 4591TIP3   OH213715   3.045   3.086   1.447
 4591TIP3    H113716   3.005   3.172   1.436
 4591TIP3    H213717   2.974   3.029   1.476
 4592TIP3   OH213718   2.214   0.982   3.516
 4592TIP3    H113719   2.294   0.963   3.565
 4592TIP3    H213720   2.159   1.032   3.577
 4593TIP3   OH213721   4.082   2.095   2.563
 4593TIP3    H113722   4.097   2.163   2.499
 4593TIP3    H213723   4.164   2.087   2.611
 4594TIP3   OH213724   1.035   6.915   3.454
 4594TIP3    H113725   0.975   6.892   3.525
 4594TIP3    H213726   0.990   6.888   3.374
 4595TIP3   OH213727   7.707   5.230   6.370
 4595TIP3    H113728   7.721   5.168   6.298
 4595TIP3    H213729   7.619   5.210   6.402
 4596TIP3   OH213730   2.846   2.941   6.625
 4596TIP3    H113731   2.818   2.939   6.716
 4596TIP3    H213732   2.788   3.005   6.583
 4597TIP3   OH213733   6.676   0.321   6.025
 4597TIP3    H113734   6.620   0.277   6.089
 4597TIP3    H213735   6.746   0.258   6.007
 4598TIP3   OH213736   7.716   4.189   5.495
 4598TIP3    H113737   7.718   4.257   5.428
 4598TIP3    H213738   7.649   4.127   5.465
 4599TIP3   OH213739   2.087   2.763   1.534
 4599TIP3    H113740   2.153   2.760   1.604
 4599TIP3    H213741   2.011   2.803   1.576
 4600TIP3   OH213742   7.196   6.004   0.121
 4600TIP3    H113743   7.106   6.034   0.114
 4600TIP3    H213744   7.244   6.078   0.156
 4601TIP3   OH213745   7.497   3.125   4.248
 4601TIP3    H113746   7.514   3.134   4.342
 4601TIP3    H213747   7.413   3.079   4.243
 4602TIP3   OH213748   2.839   7.503   3.945
 4602TIP3    H113749   2.864   7.447   4.018
 4602TIP3    H213750   2.921   7.538   3.911
 4603TIP3   OH213751   4.265   1.291   4.113
 4603TIP3    H113752   4.175   1.280   4.146
 4603TIP3    H213753   4.254   1.312   4.021
 4604TIP3   OH213754   7.119   2.564   3.609
 4604TIP3    H113755   7.093   2.528   3.524
 4604TIP3    H213756   7.171   2.495   3.650
 4605TIP3   OH213757   4.536   6.953   3.482
 4605TIP3    H113758   4.452   6.918   3.511
 4605TIP3    H213759   4.555   7.024   3.544
 4606TIP3   OH213760   5.190   5.331   3.362
 4606TIP3    H113761   5.264   5.391   3.355
 4606TIP3    H213762   5.115   5.383   3.334
 4607TIP3   OH213763   5.598   4.741   3.350
 4607TIP3    H113764   5.682   4.696   3.352
 4607TIP3    H213765   5.621   4.834   3.362
 4608TIP3   OH213766   5.924   7.160   3.822
 4608TIP3    H113767   5.949   7.249   3.799
 4608TIP3    H213768   6.004   7.121   3.857
 4609TIP3   OH213769   0.520   7.239   0.659
 4609TIP3    H113770   0.474   7.323   0.651
 4609TIP3    H213771   0.586   7.241   0.590
 4610TIP3   OH213772   6.050   4.038   5.144
 4610TIP3    H113773   6.041   3.944   5.131
 4610TIP3    H213774   6.143   4.055   5.134
 4611TIP3   OH213775   1.414   4.940   3.462
 4611TIP3    H113776   1.500   4.939   3.419
 4611TIP3    H213777   1.427   4.892   3.543
 4612TIP3   OH213778   2.809   5.673   4.462
 4612TIP3    H113779   2.773   5.602   4.515
 4612TIP3    H213780   2.799   5.751   4.516
 4613TIP3   OH213781   2.775   0.301   5.699
 4613TIP3    H113782   2.868   0.320   5.689
 4613TIP3    H213783   2.731   0.375   5.656
 4614TIP3   OH213784   6.168   7.604   1.301
 4614TIP3    H113785   6.226   7.611   1.224
 4614TIP3    H213786   6.114   7.682   1.297
 4615TIP3   OH213787   1.385   6.126   3.321
 4615TIP3    H113788   1.364   6.107   3.412
 4615TIP3    H213789   1.390   6.222   3.316
 4616TIP3   OH213790   7.660   3.372   5.500
 4616TIP3    H113791   7.582   3.324   5.530
 4616TIP3    H213792   7.628   3.461   5.484
 4617TIP3   OH213793   2.399   2.226   2.240
 4617TIP3    H113794   2.349   2.223   2.158
 4617TIP3    H213795   2.333   2.217   2.309
 4618TIP3   OH213796   1.819   3.158   4.284
 4618TIP3    H113797   1.764   3.102   4.339
 4618TIP3    H213798   1.837   3.234   4.338
 4619TIP3   OH213799   6.364   4.061   4.473
 4619TIP3    H113800   6.426   3.997   4.438
 4619TIP3    H213801   6.364   4.132   4.410
 4620TIP3   OH213802   1.363   0.092   0.505
 4620TIP3    H113803   1.356   0.021   0.441
 4620TIP3    H213804   1.371   0.047   0.589
 4621TIP3   OH213805   1.897   7.812   0.081
 4621TIP3    H113806   1.806   7.836   0.061
 4621TIP3    H213807   1.928   7.770   0.001
 4622TIP3   OH213808   7.823   2.834   3.222
 4622TIP3    H113809   7.767   2.911   3.212
 4622TIP3    H213810   7.809   2.784   3.142
 4623TIP3   OH213811   1.274   2.378   3.520
 4623TIP3    H113812   1.196   2.352   3.472
 4623TIP3    H213813   1.336   2.306   3.507
 4624TIP3   OH213814   3.442   7.422   3.042
 4624TIP3    H113815   3.464   7.360   2.973
 4624TIP3    H213816   3.347   7.433   3.035
 4625TIP3   OH213817   1.420   7.484   5.133
 4625TIP3    H113818   1.440   7.426   5.206
 4625TIP3    H213819   1.475   7.561   5.148
 4626TIP3   OH213820   1.403   2.889   6.255
 4626TIP3    H113821   1.333   2.936   6.302
 4626TIP3    H213822   1.358   2.817   6.211
 4627TIP3   OH213823   5.202   0.698   3.567
 4627TIP3    H113824   5.183   0.676   3.658
 4627TIP3    H213825   5.117   0.687   3.523
 4628TIP3   OH213826   5.627   5.153   2.339
 4628TIP3    H113827   5.573   5.206   2.398
 4628TIP3    H213828   5.640   5.070   2.387
 4629TIP3   OH213829   0.358   5.271   5.592
 4629TIP3    H113830   0.360   5.217   5.513
 4629TIP3    H213831   0.299   5.224   5.651
 4630TIP3   OH213832   1.229   6.650   0.027
 4630TIP3    H113833   1.285   6.727   0.015
 4630TIP3    H213834   1.155   6.665  -0.031
 4631TIP3   OH213835   1.603   7.580   0.497
 4631TIP3    H113836   1.613   7.500   0.445
 4631TIP3    H213837   1.619   7.552   0.587
 4632TIP3   OH213838   3.214   7.692   1.779
 4632TIP3    H113839   3.222   7.692   1.683
 4632TIP3    H213840   3.142   7.631   1.797
 4633TIP3   OH213841   4.387   2.382   3.726
 4633TIP3    H113842   4.470   2.429   3.728
 4633TIP3    H213843   4.351   2.392   3.814
 4634TIP3   OH213844   4.617   2.703   5.975
 4634TIP3    H113845   4.596   2.620   6.019
 4634TIP3    H213846   4.622   2.680   5.882
 4635TIP3   OH213847   5.176   6.843   1.983
 4635TIP3    H113848   5.156   6.760   2.027
 4635TIP3    H213849   5.199   6.818   1.894
 4636TIP3   OH213850   8.090   3.494   4.654
 4636TIP3    H113851   8.165   3.434   4.650
 4636TIP3    H213852   8.129   3.578   4.679
 4637TIP3   OH213853   0.134   0.419   2.311
 4637TIP3    H113854   0.165   0.340   2.266
 4637TIP3    H213855   0.050   0.393   2.348
 4638TIP3   OH213856   2.487   7.431   1.342
 4638TIP3    H113857   2.512   7.520   1.366
 4638TIP3    H213858   2.568   7.381   1.346
 4639TIP3   OH213859   3.440   6.860   6.417
 4639TIP3    H113860   3.500   6.875   6.344
 4639TIP3    H213861   3.478   6.786   6.464
 4640TIP3   OH213862   7.659   3.555   6.046
 4640TIP3    H113863   7.623   3.597   6.124
 4640TIP3    H213864   7.586   3.556   5.983
 4641TIP3   OH213865   1.686   3.827   4.847
 4641TIP3    H113866   1.703   3.894   4.781
 4641TIP3    H213867   1.738   3.751   4.818
 4642TIP3   OH213868   5.777   3.587   6.702
 4642TIP3    H113869   5.723   3.516   6.668
 4642TIP3    H213870   5.858   3.584   6.650
 4643TIP3   OH213871   6.748   1.895   5.289
 4643TIP3    H113872   6.684   1.880   5.358
 4643TIP3    H213873   6.726   1.982   5.254
 4644TIP3   OH213874   6.037   3.079   4.967
 4644TIP3    H113875   6.090   3.020   4.913
 4644TIP3    H213876   6.095   3.152   4.988
 4645TIP3   OH213877   6.693   0.555   1.363
 4645TIP3    H113878   6.638   0.481   1.388
 4645TIP3    H213879   6.632   0.626   1.345
 4646TIP3   OH213880   1.525   3.153   5.912
 4646TIP3    H113881   1.508   3.062   5.889
 4646TIP3    H213882   1.560   3.149   6.001
 4647TIP3   OH213883   5.697   2.103   0.865
 4647TIP3    H113884   5.668   2.018   0.897
 4647TIP3    H213885   5.716   2.089   0.772
 4648TIP3   OH213886   1.381   2.849   4.350
 4648TIP3    H113887   1.469   2.812   4.353
 4648TIP3    H213888   1.372   2.893   4.435
 4649TIP3   OH213889   7.763   4.111   1.100
 4649TIP3    H113890   7.782   4.184   1.041
 4649TIP3    H213891   7.736   4.040   1.042
 4650TIP3   OH213892   0.390   4.399   2.513
 4650TIP3    H113893   0.407   4.449   2.593
 4650TIP3    H213894   0.295   4.396   2.506
 4651TIP3   OH213895   6.149   4.995   5.872
 4651TIP3    H113896   6.122   4.906   5.850
 4651TIP3    H213897   6.107   5.012   5.957
 4652TIP3   OH213898   4.560   1.140   0.824
 4652TIP3    H113899   4.546   1.234   0.811
 4652TIP3    H213900   4.634   1.134   0.884
 4653TIP3   OH213901   0.325   7.142   2.771
 4653TIP3    H113902   0.406   7.100   2.743
 4653TIP3    H213903   0.346   7.183   2.854
 4654TIP3   OH213904   7.700   5.672   5.127
 4654TIP3    H113905   7.746   5.739   5.178
 4654TIP3    H213906   7.699   5.595   5.183
 4655TIP3   OH213907   4.969   4.125   5.795
 4655TIP3    H113908   5.026   4.053   5.822
 4655TIP3    H213909   4.881   4.095   5.817
 4656TIP3   OH213910   8.151   7.459   1.104
 4656TIP3    H113911   8.130   7.545   1.068
 4656TIP3    H213912   8.222   7.476   1.166
 4657TIP3   OH213913   1.048   4.212   4.572
 4657TIP3    H113914   1.104   4.159   4.629
 4657TIP3    H213915   1.028   4.290   4.623
 4658TIP3   OH213916   5.619   5.236   0.100
 4658TIP3    H113917   5.579   5.153   0.074
 4658TIP3    H213918   5.545   5.293   0.120
 4659TIP3   OH213919   7.459   2.509   5.919
 4659TIP3    H113920   7.519   2.478   5.987
 4659TIP3    H213921   7.415   2.431   5.889
 4660TIP3   OH213922   7.129   6.679   6.715
 4660TIP3    H113923   7.212   6.632   6.709
 4660TIP3    H213924   7.109   6.705   6.625
 4661TIP3   OH213925   7.288   2.322   4.936
 4661TIP3    H113926   7.378   2.305   4.909
 4661TIP3    H213927   7.252   2.236   4.958
 4662TIP3   OH213928   0.985   4.545   0.765
 4662TIP3    H113929   1.059   4.598   0.737
 4662TIP3    H213930   1.004   4.458   0.731
 4663TIP3   OH213931   6.672   5.303   1.287
 4663TIP3    H113932   6.679   5.252   1.368
 4663TIP3    H213933   6.701   5.243   1.218
 4664TIP3   OH213934   3.708   2.705   2.582
 4664TIP3    H113935   3.801   2.688   2.572
 4664TIP3    H213936   3.683   2.749   2.500
 4665TIP3   OH213937   2.148   4.852   1.164
 4665TIP3    H113938   2.228   4.855   1.216
 4665TIP3    H213939   2.092   4.918   1.204
 4666TIP3   OH213940   6.696   4.136   0.623
 4666TIP3    H113941   6.730   4.222   0.649
 4666TIP3    H213942   6.661   4.149   0.535
 4667TIP3   OH213943   2.431   0.201   3.706
 4667TIP3    H113944   2.512   0.151   3.694
 4667TIP3    H213945   2.443   0.246   3.789
 4668TIP3   OH213946   4.304   5.282   4.133
 4668TIP3    H113947   4.308   5.312   4.042
 4668TIP3    H213948   4.243   5.208   4.131
 4669TIP3   OH213949   0.704   5.259   2.795
 4669TIP3    H113950   0.637   5.322   2.820
 4669TIP3    H213951   0.783   5.312   2.783
 4670TIP3   OH213952   2.042   4.490   0.857
 4670TIP3    H113953   2.069   4.521   0.943
 4670TIP3    H213954   2.000   4.565   0.816
 4671TIP3   OH213955   3.358   2.844   4.750
 4671TIP3    H113956   3.447   2.829   4.717
 4671TIP3    H213957   3.368   2.913   4.815
 4672TIP3   OH213958   6.310   5.115   0.098
 4672TIP3    H113959   6.279   5.042   0.045
 4672TIP3    H213960   6.248   5.120   0.171
 4673TIP3   OH213961   6.499   1.478   4.923
 4673TIP3    H113962   6.448   1.439   4.852
 4673TIP3    H213963   6.503   1.571   4.901
 4674TIP3   OH213964   6.923   1.776   2.342
 4674TIP3    H113965   6.896   1.696   2.388
 4674TIP3    H213966   7.002   1.749   2.294
 4675TIP3   OH213967   6.174   2.787   4.417
 4675TIP3    H113968   6.245   2.842   4.451
 4675TIP3    H213969   6.179   2.707   4.470
 4676TIP3   OH213970   5.627   7.262   1.688
 4676TIP3    H113971   5.716   7.246   1.717
 4676TIP3    H213972   5.636   7.292   1.597
 4677TIP3   OH213973   5.329   7.704   0.068
 4677TIP3    H113974   5.325   7.680  -0.025
 4677TIP3    H213975   5.334   7.799   0.068
 4678TIP3   OH213976   8.033   2.736   1.961
 4678TIP3    H113977   8.054   2.644   1.946
 4678TIP3    H213978   8.002   2.767   1.876
 4679TIP3   OH213979   0.688   5.585   6.704
 4679TIP3    H113980   0.772   5.546   6.678
 4679TIP3    H213981   0.688   5.581   6.800
 4680TIP3   OH213982   5.761   3.233   5.014
 4680TIP3    H113983   5.704   3.271   5.081
 4680TIP3    H213984   5.809   3.308   4.979
 4681TIP3   OH213985   5.848   3.438   5.361
 4681TIP3    H113986   5.833   3.530   5.384
 4681TIP3    H213987   5.936   3.437   5.323
 4682TIP3   OH213988   0.943   1.037   6.449
 4682TIP3    H113989   0.907   0.972   6.510
 4682TIP3    H213990   1.027   1.062   6.488
 4683TIP3   OH213991   5.726   5.548   0.972
 4683TIP3    H113992   5.807   5.529   0.925
 4683TIP3    H213993   5.747   5.624   1.026
 4684TIP3   OH213994   7.186   7.221   0.476
 4684TIP3    H113995   7.203   7.312   0.499
 4684TIP3    H213996   7.111   7.225   0.417
 4685TIP3   OH213997   1.713   7.533   4.736
 4685TIP3    H113998   1.636   7.493   4.776
 4685TIP3    H213999   1.787   7.491   4.779
 4686TIP3   OH214000   2.182   7.277   1.904
 4686TIP3    H114001   2.206   7.185   1.898
 4686TIP3    H214002   2.264   7.324   1.889
 4687TIP3   OH214003   5.839   4.072   4.799
 4687TIP3    H114004   5.865   4.016   4.872
 4687TIP3    H214005   5.893   4.150   4.808
 4688TIP3   OH214006   2.435   3.752   1.364
 4688TIP3    H114007   2.390   3.714   1.289
 4688TIP3    H214008   2.520   3.708   1.365
 4689TIP3   OH214009   2.133   1.990   0.755
 4689TIP3    H114010   2.174   2.022   0.675
 4689TIP3    H214011   2.105   1.901   0.733
 4690TIP3   OH214012   0.244   7.197   6.620
 4690TIP3    H114013   0.168   7.140   6.612
 4690TIP3    H214014   0.267   7.194   6.713
 4691TIP3   OH214015   4.101   1.552   2.169
 4691TIP3    H114016   4.099   1.558   2.074
 4691TIP3    H214017   4.182   1.505   2.189
 4692TIP3   OH214018   4.077   0.477   2.102
 4692TIP3    H114019   4.027   0.504   2.179
 4692TIP3    H214020   4.024   0.406   2.063
 4693TIP3   OH214021   6.388   4.251   0.522
 4693TIP3    H114022   6.391   4.158   0.542
 4693TIP3    H214023   6.355   4.255   0.432
 4694TIP3   OH214024   4.873   0.721   5.628
 4694TIP3    H114025   4.818   0.703   5.705
 4694TIP3    H214026   4.947   0.661   5.637
 4695TIP3   OH214027   4.768   6.318   5.350
 4695TIP3    H114028   4.850   6.364   5.369
 4695TIP3    H214029   4.715   6.382   5.302
 4696TIP3   OH214030   6.800   4.981   1.454
 4696TIP3    H114031   6.718   5.030   1.450
 4696TIP3    H214032   6.774   4.890   1.444
 4697TIP3   OH214033   0.291   4.662   2.219
 4697TIP3    H114034   0.381   4.628   2.222
 4697TIP3    H214035   0.255   4.625   2.138
 4698TIP3   OH214036   6.984   5.656   4.846
 4698TIP3    H114037   6.969   5.740   4.803
 4698TIP3    H214038   6.919   5.655   4.917
 4699TIP3   OH214039   5.804   0.875   0.419
 4699TIP3    H114040   5.815   0.797   0.473
 4699TIP3    H214041   5.830   0.849   0.331
 4700TIP3   OH214042   7.042   5.779   2.696
 4700TIP3    H114043   7.120   5.778   2.752
 4700TIP3    H214044   7.074   5.809   2.611
 4701TIP3   OH214045   2.894   5.899   6.242
 4701TIP3    H114046   2.984   5.916   6.214
 4701TIP3    H214047   2.903   5.859   6.328
 4702TIP3   OH214048   6.092   7.059   1.727
 4702TIP3    H114049   6.102   6.979   1.675
 4702TIP3    H214050   6.125   7.129   1.670
 4703TIP3   OH214051   6.073   6.210   1.095
 4703TIP3    H114052   6.082   6.118   1.122
 4703TIP3    H214053   6.065   6.258   1.177
 4704TIP3   OH214054   3.622   3.375   0.861
 4704TIP3    H114055   3.635   3.415   0.775
 4704TIP3    H214056   3.549   3.422   0.900
 4705TIP3   OH214057   6.235   4.302   2.793
 4705TIP3    H114058   6.241   4.365   2.866
 4705TIP3    H214059   6.315   4.315   2.743
 4706TIP3   OH214060   4.439   6.110   4.456
 4706TIP3    H114061   4.409   6.064   4.378
 4706TIP3    H214062   4.381   6.186   4.463
 4707TIP3   OH214063   5.871   2.651   5.938
 4707TIP3    H114064   5.824   2.682   5.861
 4707TIP3    H214065   5.805   2.604   5.989
 4708TIP3   OH214066   1.183   6.763   6.553
 4708TIP3    H114067   1.125   6.834   6.581
 4708TIP3    H214068   1.184   6.702   6.627
 4709TIP3   OH214069   4.385   3.254   4.014
 4709TIP3    H114070   4.304   3.217   3.980
 4709TIP3    H214071   4.427   3.295   3.938
 4710TIP3   OH214072   4.505   7.576   4.861
 4710TIP3    H114073   4.583   7.631   4.859
 4710TIP3    H214074   4.528   7.498   4.810
 4711TIP3   OH214075   6.125   0.497   1.568
 4711TIP3    H114076   6.094   0.406   1.572
 4711TIP3    H214077   6.063   0.541   1.509
 4712TIP3   OH214078   5.159   7.646   1.085
 4712TIP3    H114079   5.160   7.638   1.181
 4712TIP3    H214080   5.098   7.578   1.056
 4713TIP3   OH214081   5.571   0.508   1.700
 4713TIP3    H114082   5.627   0.473   1.632
 4713TIP3    H214083   5.622   0.500   1.781
 4714TIP3   OH214084   3.457   7.384   3.746
 4714TIP3    H114085   3.412   7.333   3.679
 4714TIP3    H214086   3.415   7.470   3.743
 4715TIP3   OH214087   3.299   6.613   5.271
 4715TIP3    H114088   3.349   6.581   5.346
 4715TIP3    H214089   3.353   6.684   5.236
 4716TIP3   OH214090   5.015   2.485   3.325
 4716TIP3    H114091   4.921   2.505   3.321
 4716TIP3    H214092   5.036   2.458   3.235
 4717TIP3   OH214093   7.106   6.743   1.052
 4717TIP3    H114094   7.107   6.834   1.022
 4717TIP3    H214095   7.075   6.748   1.142
 4718TIP3   OH214096   5.151   2.274   2.331
 4718TIP3    H114097   5.080   2.309   2.276
 4718TIP3    H214098   5.142   2.179   2.323
 4719TIP3   OH214099   3.553   6.316   2.436
 4719TIP3    H114100   3.576   6.228   2.408
 4719TIP3    H214101   3.594   6.326   2.522
 4720TIP3   OH214102   2.902   0.615   4.101
 4720TIP3    H114103   2.982   0.619   4.153
 4720TIP3    H214104   2.862   0.701   4.112
 4721TIP3   OH214105   7.635   1.468   6.650
 4721TIP3    H114106   7.583   1.418   6.588
 4721TIP3    H214107   7.627   1.421   6.732
 4722TIP3   OH214108   4.746   6.611   1.888
 4722TIP3    H114109   4.796   6.575   1.815
 4722TIP3    H214110   4.715   6.535   1.937
 4723TIP3   OH214111   3.737   5.406   5.369
 4723TIP3    H114112   3.827   5.426   5.342
 4723TIP3    H214113   3.725   5.314   5.345
 4724TIP3   OH214114   3.963   5.281   2.886
 4724TIP3    H114115   3.917   5.244   2.811
 4724TIP3    H214116   3.978   5.206   2.944
 4725TIP3   OH214117   0.831   5.769   1.923
 4725TIP3    H114118   0.897   5.757   1.992
 4725TIP3    H214119   0.817   5.682   1.887
 4726TIP3   OH214120   4.080   6.999   0.409
 4726TIP3    H114121   4.117   7.081   0.376
 4726TIP3    H214122   4.076   6.942   0.333
 4727TIP3   OH214123   1.274   3.107   3.000
 4727TIP3    H114124   1.253   3.200   2.994
 4727TIP3    H214125   1.239   3.079   3.085
 4728TIP3   OH214126   3.170   5.444   2.867
 4728TIP3    H114127   3.074   5.442   2.872
 4728TIP3    H214128   3.199   5.446   2.958
 4729TIP3   OH214129   4.331   5.808   0.533
 4729TIP3    H114130   4.316   5.799   0.439
 4729TIP3    H214131   4.327   5.719   0.567
 4730TIP3   OH214132   1.768   6.528   2.991
 4730TIP3    H114133   1.837   6.570   3.043
 4730TIP3    H214134   1.705   6.598   2.974
 4731TIP3   OH214135   5.032   6.860   3.488
 4731TIP3    H114136   5.093   6.921   3.446
 4731TIP3    H214137   5.060   6.857   3.580
 4732TIP3   OH214138   7.407   7.802   5.085
 4732TIP3    H114139   7.399   7.776   5.177
 4732TIP3    H214140   7.345   7.745   5.039
 4733TIP3   OH214141   0.577   7.530   6.184
 4733TIP3    H114142   0.555   7.468   6.253
 4733TIP3    H214143   0.658   7.498   6.147
 4734TIP3   OH214144   6.031   6.613   6.011
 4734TIP3    H114145   5.961   6.597   5.947
 4734TIP3    H214146   6.091   6.671   5.965
 4735TIP3   OH214147   8.122   3.891   0.662
 4735TIP3    H114148   8.104   3.843   0.581
 4735TIP3    H214149   8.121   3.983   0.636
 4736TIP3   OH214150   1.315   7.146   4.657
 4736TIP3    H114151   1.360   7.106   4.583
 4736TIP3    H214152   1.289   7.232   4.626
 4737TIP3   OH214153   6.788   1.707   1.455
 4737TIP3    H114154   6.797   1.656   1.375
 4737TIP3    H214155   6.747   1.788   1.428
 4738TIP3   OH214156   1.823   1.412   2.043
 4738TIP3    H114157   1.889   1.471   2.079
 4738TIP3    H214158   1.807   1.349   2.113
 4739TIP3   OH214159   3.712   3.366   4.151
 4739TIP3    H114160   3.799   3.405   4.160
 4739TIP3    H214161   3.711   3.332   4.062
 4740TIP3   OH214162   6.959   4.260   5.731
 4740TIP3    H114163   6.870   4.258   5.766
 4740TIP3    H214164   6.995   4.343   5.761
 4741TIP3   OH214165   7.904   5.498   4.041
 4741TIP3    H114166   7.991   5.492   4.081
 4741TIP3    H214167   7.918   5.471   3.950
 4742TIP3   OH214168   3.053   2.662   0.059
 4742TIP3    H114169   2.959   2.669   0.074
 4742TIP3    H214170   3.077   2.576   0.096
 4743TIP3   OH214171   3.874   1.151   6.237
 4743TIP3    H114172   3.808   1.141   6.305
 4743TIP3    H214173   3.906   1.062   6.221
 4744TIP3   OH214174   4.327   5.083   1.715
 4744TIP3    H114175   4.252   5.099   1.772
 4744TIP3    H214176   4.390   5.036   1.771
 4745TIP3   OH214177   3.654   6.232   6.050
 4745TIP3    H114178   3.716   6.304   6.058
 4745TIP3    H214179   3.581   6.269   6.000
 4746TIP3   OH214180   7.992   7.658   1.481
 4746TIP3    H114181   7.934   7.707   1.539
 4746TIP3    H214182   7.992   7.569   1.518
 4747TIP3   OH214183   4.631   2.138   3.246
 4747TIP3    H114184   4.541   2.137   3.213
 4747TIP3    H214185   4.626   2.184   3.329
 4748TIP3   OH214186   6.241   3.984   1.166
 4748TIP3    H114187   6.231   4.072   1.129
 4748TIP3    H214188   6.328   3.956   1.139
 4749TIP3   OH214189   0.768   7.164   6.331
 4749TIP3    H114190   0.805   7.252   6.341
 4749TIP3    H214191   0.691   7.177   6.276
 4750TIP3   OH214192   6.383   4.335   4.576
 4750TIP3    H114193   6.330   4.345   4.497
 4750TIP3    H214194   6.461   4.287   4.547
 4751TIP3   OH214195   4.694   7.573   0.637
 4751TIP3    H114196   4.716   7.481   0.616
 4751TIP3    H214197   4.713   7.581   0.730
 4752TIP3   OH214198   0.588   7.068   2.690
 4752TIP3    H114199   0.640   7.061   2.770
 4752TIP3    H214200   0.610   6.988   2.641
 4753TIP3   OH214201   3.495   1.772   4.355
 4753TIP3    H114202   3.441   1.769   4.276
 4753TIP3    H214203   3.557   1.844   4.339
 4754TIP3   OH214204   6.192   3.714   2.775
 4754TIP3    H114205   6.107   3.758   2.784
 4754TIP3    H214206   6.199   3.659   2.853
 4755TIP3   OH214207   7.768   0.226   1.101
 4755TIP3    H114208   7.824   0.216   1.025
 4755TIP3    H214209   7.778   0.144   1.150
 4756TIP3   OH214210   1.148   5.620   1.837
 4756TIP3    H114211   1.167   5.537   1.792
 4756TIP3    H214212   1.070   5.601   1.889
 4757TIP3   OH214213   1.927   4.178   2.839
 4757TIP3    H114214   2.004   4.224   2.806
 4757TIP3    H214215   1.948   4.085   2.830
 4758TIP3   OH214216   2.832   2.830   5.248
 4758TIP3    H114217   2.826   2.889   5.323
 4758TIP3    H214218   2.780   2.872   5.180
 4759TIP3   OH214219   1.565   0.661   3.391
 4759TIP3    H114220   1.519   0.595   3.442
 4759TIP3    H214221   1.524   0.744   3.417
 4760TIP3   OH214222   7.402   6.097   3.349
 4760TIP3    H114223   7.325   6.072   3.398
 4760TIP3    H214224   7.466   6.028   3.367
 4761TIP3   OH214225   6.906   6.615   4.610
 4761TIP3    H114226   6.895   6.542   4.549
 4761TIP3    H214227   6.822   6.621   4.655
 4762TIP3   OH214228   0.155   6.067   4.970
 4762TIP3    H114229   0.094   6.008   4.927
 4762TIP3    H214230   0.124   6.155   4.945
 4763TIP3   OH214231   6.055   5.974   1.878
 4763TIP3    H114232   6.068   6.001   1.787
 4763TIP3    H214233   6.104   6.039   1.930
 4764TIP3   OH214234   1.197   5.782   2.295
 4764TIP3    H114235   1.245   5.833   2.229
 4764TIP3    H214236   1.261   5.722   2.330
 4765TIP3   OH214237   7.396   3.054   6.490
 4765TIP3    H114238   7.370   2.964   6.510
 4765TIP3    H214239   7.480   3.046   6.446
 4766TIP3   OH214240   2.728   2.405   3.023
 4766TIP3    H114241   2.696   2.364   2.943
 4766TIP3    H214242   2.721   2.337   3.089
 4767TIP3   OH214243   4.918   2.881   5.373
 4767TIP3    H114244   4.847   2.885   5.437
 4767TIP3    H214245   4.883   2.923   5.295
 4768TIP3   OH214246   5.207   5.185   1.868
 4768TIP3    H114247   5.297   5.153   1.859
 4768TIP3    H214248   5.205   5.265   1.814
 4769TIP3   OH214249   0.961   6.867   2.929
 4769TIP3    H114250   1.039   6.921   2.915
 4769TIP3    H214251   0.888   6.929   2.921
 4770TIP3   OH214252   1.104   0.953   5.966
 4770TIP3    H114253   1.132   0.951   6.058
 4770TIP3    H214254   1.009   0.948   5.971
 4771TIP3   OH214255   5.858   2.788   4.940
 4771TIP3    H114256   5.863   2.760   4.849
 4771TIP3    H214257   5.871   2.709   4.991
 4772TIP3   OH214258   8.245   1.256   4.637
 4772TIP3    H114259   8.263   1.230   4.727
 4772TIP3    H214260   8.156   1.291   4.639
 4773TIP3   OH214261   2.550   3.603   2.494
 4773TIP3    H114262   2.572   3.626   2.584
 4773TIP3    H214263   2.488   3.530   2.502
 4774TIP3   OH214264   3.033   3.188   2.585
 4774TIP3    H114265   3.128   3.175   2.590
 4774TIP3    H214266   3.016   3.256   2.650
 4775TIP3   OH214267   1.895   2.811   0.243
 4775TIP3    H114268   1.886   2.799   0.338
 4775TIP3    H214269   1.981   2.850   0.231
 4776TIP3   OH214270   1.539   2.441   6.223
 4776TIP3    H114271   1.537   2.415   6.315
 4776TIP3    H214272   1.625   2.412   6.192
 4777TIP3   OH214273   4.573   6.103   0.097
 4777TIP3    H114274   4.657   6.065   0.070
 4777TIP3    H214275   4.583   6.197   0.079
 4778TIP3   OH214276   1.958   6.960   0.880
 4778TIP3    H114277   1.910   7.001   0.952
 4778TIP3    H214278   1.981   7.032   0.822
 4779TIP3   OH214279   5.716   3.282   3.368
 4779TIP3    H114280   5.675   3.266   3.453
 4779TIP3    H214281   5.672   3.222   3.309
 4780TIP3   OH214282   8.249   3.027   4.493
 4780TIP3    H114283   8.177   3.074   4.536
 4780TIP3    H214284   8.260   2.947   4.544
 4781TIP3   OH214285   4.868   6.115   5.527
 4781TIP3    H114286   4.838   6.195   5.485
 4781TIP3    H214287   4.919   6.145   5.603
 4782TIP3   OH214288   6.650   7.414   2.432
 4782TIP3    H114289   6.733   7.373   2.453
 4782TIP3    H214290   6.635   7.394   2.340
 4783TIP3   OH214291   7.267   0.941   1.963
 4783TIP3    H114292   7.227   0.857   1.987
 4783TIP3    H214293   7.307   0.924   1.877
 4784TIP3   OH214294   3.267   7.343   4.654
 4784TIP3    H114295   3.243   7.432   4.679
 4784TIP3    H214296   3.320   7.354   4.575
 4785TIP3   OH214297   8.052   2.338   1.324
 4785TIP3    H114298   8.050   2.382   1.238
 4785TIP3    H214299   8.144   2.312   1.335
 4786TIP3   OH214300   7.697   6.412   0.811
 4786TIP3    H114301   7.730   6.501   0.795
 4786TIP3    H214302   7.606   6.425   0.837
 4787TIP3   OH214303   1.702   3.297   5.274
 4787TIP3    H114304   1.631   3.261   5.221
 4787TIP3    H214305   1.772   3.232   5.267
 4788TIP3   OH214306   5.901   4.178   6.603
 4788TIP3    H114307   5.947   4.237   6.664
 4788TIP3    H214308   5.813   4.172   6.639
 4789TIP3   OH214309   3.679   6.358   3.788
 4789TIP3    H114310   3.704   6.415   3.715
 4789TIP3    H214311   3.652   6.419   3.857
 4790TIP3   OH214312   5.805   1.292   1.397
 4790TIP3    H114313   5.760   1.310   1.480
 4790TIP3    H214314   5.803   1.197   1.389
 4791TIP3   OH214315   3.906   5.466   4.592
 4791TIP3    H114316   3.897   5.410   4.668
 4791TIP3    H214317   3.908   5.406   4.517
 4792TIP3   OH214318   7.457   0.496   5.506
 4792TIP3    H114319   7.541   0.495   5.460
 4792TIP3    H214320   7.400   0.441   5.453
 4793TIP3   OH214321   0.527   1.477   4.494
 4793TIP3    H114322   0.526   1.543   4.564
 4793TIP3    H214323   0.619   1.461   4.477
 4794TIP3   OH214324   4.838   3.806   2.277
 4794TIP3    H114325   4.847   3.899   2.256
 4794TIP3    H214326   4.744   3.790   2.274
 4795TIP3   OH214327   6.465   5.492   5.756
 4795TIP3    H114328   6.494   5.469   5.844
 4795TIP3    H214329   6.369   5.487   5.760
 4796TIP3   OH214330   7.901   2.777   5.662
 4796TIP3    H114331   7.838   2.777   5.590
 4796TIP3    H214332   7.987   2.782   5.620
 4797TIP3   OH214333   1.248   3.193   4.484
 4797TIP3    H114334   1.281   3.192   4.394
 4797TIP3    H214335   1.324   3.217   4.537
 4798TIP3   OH214336   4.248   6.788   1.006
 4798TIP3    H114337   4.284   6.876   1.002
 4798TIP3    H214338   4.287   6.742   0.932
 4799TIP3   OH214339   1.818   5.992   0.696
 4799TIP3    H114340   1.739   5.956   0.657
 4799TIP3    H214341   1.788   6.034   0.777
 4800TIP3   OH214342   7.505   4.635   5.894
 4800TIP3    H114343   7.492   4.610   5.985
 4800TIP3    H214344   7.513   4.552   5.847
 4801TIP3   OH214345   3.138   7.064   3.002
 4801TIP3    H114346   3.053   7.046   3.042
 4801TIP3    H214347   3.181   6.979   2.997
 4802TIP3   OH214348   7.164   5.318   0.745
 4802TIP3    H114349   7.194   5.228   0.727
 4802TIP3    H214350   7.112   5.341   0.668
 4803TIP3   OH214351   1.054   2.753   0.207
 4803TIP3    H114352   1.073   2.816   0.276
 4803TIP3    H214353   1.062   2.802   0.125
 4804TIP3   OH214354   8.233   6.142   2.639
 4804TIP3    H114355   8.231   6.049   2.659
 4804TIP3    H214356   8.233   6.185   2.725
 4805TIP3   OH214357   7.421   2.639   2.253
 4805TIP3    H114358   7.333   2.640   2.217
 4805TIP3    H214359   7.469   2.577   2.199
 4806TIP3   OH214360   1.207   4.219   5.165
 4806TIP3    H114361   1.242   4.293   5.215
 4806TIP3    H214362   1.164   4.259   5.089
 4807TIP3   OH214363   4.439   5.919   3.934
 4807TIP3    H114364   4.501   5.976   3.889
 4807TIP3    H214365   4.456   5.934   4.027
 4808TIP3   OH214366   6.740   1.370   2.877
 4808TIP3    H114367   6.678   1.301   2.852
 4808TIP3    H214368   6.823   1.344   2.837
 4809TIP3   OH214369   7.536   2.477   0.123
 4809TIP3    H114370   7.549   2.403   0.182
 4809TIP3    H214371   7.521   2.438   0.038
 4810TIP3   OH214372   1.279   2.930   5.629
 4810TIP3    H114373   1.309   2.978   5.706
 4810TIP3    H214374   1.358   2.916   5.577
 4811TIP3   OH214375   2.814   5.227   2.997
 4811TIP3    H114376   2.892   5.175   3.016
 4811TIP3    H214377   2.748   5.193   3.057
 4812TIP3   OH214378   2.673   0.423   3.594
 4812TIP3    H114379   2.671   0.461   3.682
 4812TIP3    H214380   2.711   0.336   3.607
 4813TIP3   OH214381   4.224   4.968   3.965
 4813TIP3    H114382   4.231   4.881   3.926
 4813TIP3    H214383   4.140   5.002   3.933
 4814TIP3   OH214384   4.121   0.969   2.659
 4814TIP3    H114385   4.097   0.947   2.569
 4814TIP3    H214386   4.118   1.065   2.662
 4815TIP3   OH214387   1.661   4.358   0.599
 4815TIP3    H114388   1.637   4.277   0.556
 4815TIP3    H214389   1.712   4.330   0.676
 4816TIP3   OH214390   2.572   5.854   5.129
 4816TIP3    H114391   2.667   5.844   5.122
 4816TIP3    H214392   2.543   5.779   5.181
 4817TIP3   OH214393   6.144   6.825   1.550
 4817TIP3    H114394   6.239   6.822   1.564
 4817TIP3    H214395   6.110   6.751   1.601
 4818TIP3   OH214396   5.871   4.430   3.052
 4818TIP3    H114397   5.804   4.403   3.115
 4818TIP3    H214398   5.914   4.505   3.094
 4819TIP3   OH214399   7.941   5.236   5.846
 4819TIP3    H114400   7.961   5.265   5.757
 4819TIP3    H214401   7.905   5.314   5.889
 4820TIP3   OH214402   1.838   6.667   4.486
 4820TIP3    H114403   1.866   6.741   4.433
 4820TIP3    H214404   1.897   6.667   4.561
 4821TIP3   OH214405   0.500   1.072   0.658
 4821TIP3    H114406   0.502   0.978   0.679
 4821TIP3    H214407   0.580   1.107   0.698
 4822TIP3   OH214408   1.236   0.950   1.359
 4822TIP3    H114409   1.221   0.986   1.272
 4822TIP3    H214410   1.327   0.971   1.379
 4823TIP3   OH214411   6.602   7.289   2.182
 4823TIP3    H114412   6.616   7.343   2.104
 4823TIP3    H214413   6.513   7.256   2.173
 4824TIP3   OH214414   4.251   0.392   4.407
 4824TIP3    H114415   4.280   0.312   4.364
 4824TIP3    H214416   4.157   0.397   4.389
 4825TIP3   OH214417   6.935   3.979   0.321
 4825TIP3    H114418   6.975   3.898   0.353
 4825TIP3    H214419   6.976   4.048   0.373
 4826TIP3   OH214420   7.439   0.663   6.044
 4826TIP3    H114421   7.390   0.592   6.003
 4826TIP3    H214422   7.531   0.640   6.030
 4827TIP3   OH214423   1.131   7.616   3.602
 4827TIP3    H114424   1.156   7.637   3.512
 4827TIP3    H214425   1.052   7.564   3.593
 4828TIP3   OH214426   0.898   1.510   4.132
 4828TIP3    H114427   0.824   1.526   4.074
 4828TIP3    H214428   0.925   1.420   4.112
 4829TIP3   OH214429   4.176   6.996   1.339
 4829TIP3    H114430   4.112   6.950   1.285
 4829TIP3    H214431   4.252   6.937   1.341
 4830TIP3   OH214432   0.649   1.969   2.706
 4830TIP3    H114433   0.592   1.922   2.767
 4830TIP3    H214434   0.718   1.907   2.685
 4831TIP3   OH214435   2.413   0.600   5.863
 4831TIP3    H114436   2.486   0.538   5.870
 4831TIP3    H214437   2.429   0.647   5.781
 4832TIP3   OH214438   6.668   4.653   3.518
 4832TIP3    H114439   6.741   4.696   3.473
 4832TIP3    H214440   6.689   4.663   3.611
 4833TIP3   OH214441   5.439   1.744   0.954
 4833TIP3    H114442   5.524   1.766   0.916
 4833TIP3    H214443   5.437   1.793   1.037
 4834TIP3   OH214444   3.161   2.028   5.927
 4834TIP3    H114445   3.136   2.120   5.932
 4834TIP3    H214446   3.107   1.985   5.995
 4835TIP3   OH214447   3.755   1.842   3.611
 4835TIP3    H114448   3.755   1.764   3.667
 4835TIP3    H214449   3.770   1.809   3.523
 4836TIP3   OH214450   5.249   5.147   5.389
 4836TIP3    H114451   5.256   5.189   5.475
 4836TIP3    H214452   5.182   5.198   5.343
 4837TIP3   OH214453   2.811   5.754   3.989
 4837TIP3    H114454   2.793   5.780   4.079
 4837TIP3    H214455   2.801   5.658   3.989
 4838TIP3   OH214456   0.575   7.141   0.344
 4838TIP3    H114457   0.657   7.140   0.392
 4838TIP3    H214458   0.512   7.101   0.404
 4839TIP3   OH214459   1.362   3.047   6.681
 4839TIP3    H114460   1.289   3.022   6.738
 4839TIP3    H214461   1.320   3.075   6.599
 4840TIP3   OH214462   4.848   7.203   2.150
 4840TIP3    H114463   4.935   7.163   2.153
 4840TIP3    H214464   4.804   7.160   2.077
 4841TIP3   OH214465   0.076   2.738   3.855
 4841TIP3    H114466   0.164   2.728   3.818
 4841TIP3    H214467   0.039   2.650   3.852
 4842TIP3   OH214468   5.439   6.322   6.458
 4842TIP3    H114469   5.362   6.379   6.450
 4842TIP3    H214470   5.488   6.358   6.532
 4843TIP3   OH214471   2.801   5.883   2.611
 4843TIP3    H114472   2.841   5.941   2.546
 4843TIP3    H214473   2.857   5.806   2.613
 4844TIP3   OH214474   4.889   2.185   3.135
 4844TIP3    H114475   4.920   2.262   3.089
 4844TIP3    H214476   4.805   2.211   3.173
 4845TIP3   OH214477   2.695   4.228   3.309
 4845TIP3    H114478   2.761   4.195   3.370
 4845TIP3    H214479   2.731   4.310   3.276
 4846TIP3   OH214480   1.142   3.405   2.260
 4846TIP3    H114481   1.145   3.345   2.185
 4846TIP3    H214482   1.160   3.491   2.223
 4847TIP3   OH214483   6.374   3.140   0.173
 4847TIP3    H114484   6.366   3.099   0.087
 4847TIP3    H214485   6.459   3.183   0.171
 4848TIP3   OH214486   1.381   6.587   3.577
 4848TIP3    H114487   1.428   6.660   3.617
 4848TIP3    H214488   1.406   6.589   3.485
 4849TIP3   OH214489   0.469   4.449   4.180
 4849TIP3    H114490   0.489   4.543   4.181
 4849TIP3    H214491   0.376   4.444   4.205
 4850TIP3   OH214492   7.615   7.213   5.973
 4850TIP3    H114493   7.569   7.188   5.892
 4850TIP3    H214494   7.705   7.186   5.959
 4851TIP3   OH214495   2.103   0.407   5.782
 4851TIP3    H114496   2.138   0.365   5.860
 4851TIP3    H214497   2.088   0.498   5.808
 4852TIP3   OH214498   5.321   3.095   2.855
 4852TIP3    H114499   5.286   3.137   2.933
 4852TIP3    H214500   5.358   3.012   2.886
 4853TIP3   OH214501   6.260   7.212   2.504
 4853TIP3    H114502   6.204   7.205   2.581
 4853TIP3    H214503   6.247   7.302   2.473
 4854TIP3   OH214504   7.300   4.256   6.648
 4854TIP3    H114505   7.396   4.255   6.643
 4854TIP3    H214506   7.272   4.283   6.560
 4855TIP3   OH214507   3.333   3.331   6.539
 4855TIP3    H114508   3.376   3.328   6.454
 4855TIP3    H214509   3.316   3.239   6.561
 4856TIP3   OH214510   0.830   3.228   4.789
 4856TIP3    H114511   0.839   3.135   4.771
 4856TIP3    H214512   0.849   3.270   4.705
 4857TIP3   OH214513   6.577   2.781   3.412
 4857TIP3    H114514   6.563   2.724   3.336
 4857TIP3    H214515   6.633   2.852   3.378
 4858TIP3   OH214516   7.709   1.328   1.097
 4858TIP3    H114517   7.645   1.279   1.045
 4858TIP3    H214518   7.670   1.332   1.185
 4859TIP3   OH214519   6.341   6.944   5.482
 4859TIP3    H114520   6.362   6.939   5.389
 4859TIP3    H214521   6.394   7.016   5.515
 4860TIP3   OH214522   1.909   4.762   5.441
 4860TIP3    H114523   1.926   4.850   5.476
 4860TIP3    H214524   1.985   4.711   5.468
 4861TIP3   OH214525   7.770   3.329   0.087
 4861TIP3    H114526   7.708   3.401   0.097
 4861TIP3    H214527   7.741   3.283   0.008
 4862TIP3   OH214528   1.850   4.061   4.002
 4862TIP3    H114529   1.905   4.100   4.069
 4862TIP3    H214530   1.867   3.967   4.009
 4863TIP3   OH214531   7.052   6.166   6.665
 4863TIP3    H114532   7.031   6.183   6.573
 4863TIP3    H214533   7.065   6.253   6.703
 4864TIP3   OH214534   6.824   0.816   2.745
 4864TIP3    H114535   6.868   0.744   2.700
 4864TIP3    H214536   6.860   0.895   2.705
 4865TIP3   OH214537   3.876   6.061   0.378
 4865TIP3    H114538   3.804   6.122   0.392
 4865TIP3    H214539   3.912   6.085   0.293
 4866TIP3   OH214540   1.530   1.030   4.164
 4866TIP3    H114541   1.583   1.110   4.160
 4866TIP3    H214542   1.530   0.996   4.075
 4867TIP3   OH214543   3.421   4.772   3.659
 4867TIP3    H114544   3.395   4.681   3.642
 4867TIP3    H214545   3.515   4.769   3.673
 4868TIP3   OH214546   5.851   1.207   1.092
 4868TIP3    H114547   5.825   1.142   1.157
 4868TIP3    H214548   5.804   1.182   1.012
 4869TIP3   OH214549   1.178   0.598   4.412
 4869TIP3    H114550   1.124   0.638   4.479
 4869TIP3    H214551   1.266   0.594   4.450
 4870TIP3   OH214552   1.883   1.183   2.796
 4870TIP3    H114553   1.947   1.187   2.725
 4870TIP3    H214554   1.799   1.199   2.753
 4871TIP3   OH214555   4.648   4.143   3.814
 4871TIP3    H114556   4.674   4.235   3.824
 4871TIP3    H214557   4.709   4.095   3.869
 4872TIP3   OH214558   3.401   4.884   6.671
 4872TIP3    H114559   3.445   4.921   6.748
 4872TIP3    H214560   3.363   4.960   6.627
 4873TIP3   OH214561   4.246   5.890   6.363
 4873TIP3    H114562   4.232   5.943   6.285
 4873TIP3    H214563   4.338   5.904   6.385
 4874TIP3   OH214564   7.601   0.993   6.286
 4874TIP3    H114565   7.531   1.015   6.347
 4874TIP3    H214566   7.643   1.077   6.267
 4875TIP3   OH214567   0.244   3.606   6.459
 4875TIP3    H114568   0.150   3.622   6.463
 4875TIP3    H214569   0.262   3.590   6.366
 4876TIP3   OH214570   0.647   1.689   6.318
 4876TIP3    H114571   0.604   1.774   6.331
 4876TIP3    H214572   0.604   1.630   6.380
 4877TIP3   OH214573   7.737   1.251   6.351
 4877TIP3    H114574   7.759   1.198   6.427
 4877TIP3    H214575   7.649   1.285   6.370
 4878TIP3   OH214576   6.179   6.563   1.662
 4878TIP3    H114577   6.236   6.506   1.611
 4878TIP3    H214578   6.233   6.591   1.736
 4879TIP3   OH214579   6.779   5.004   2.688
 4879TIP3    H114580   6.864   5.005   2.732
 4879TIP3    H214581   6.716   5.008   2.760
 4880TIP3   OH214582   3.637   7.555   5.317
 4880TIP3    H114583   3.604   7.643   5.296
 4880TIP3    H214584   3.592   7.497   5.257
 4881TIP3   OH214585   3.775   1.334   4.294
 4881TIP3    H114586   3.692   1.335   4.247
 4881TIP3    H214587   3.766   1.405   4.358
 4882TIP3   OH214588   8.229   2.982   1.186
 4882TIP3    H114589   8.212   2.892   1.213
 4882TIP3    H214590   8.278   3.020   1.258
 4883TIP3   OH214591   6.161   3.503   6.718
 4883TIP3    H114592   6.175   3.522   6.811
 4883TIP3    H214593   6.068   3.485   6.711
 4884TIP3   OH214594   7.296   3.590   0.103
 4884TIP3    H114595   7.247   3.591   0.185
 4884TIP3    H214596   7.276   3.674   0.062
 4885TIP3   OH214597   2.946   3.190   5.898
 4885TIP3    H114598   2.889   3.197   5.822
 4885TIP3    H214599   3.003   3.115   5.879
 4886TIP3   OH214600   0.516   4.489   2.247
 4886TIP3    H114601   0.510   4.484   2.342
 4886TIP3    H214602   0.599   4.446   2.226
 4887TIP3   OH214603   3.818   6.588   2.175
 4887TIP3    H114604   3.758   6.657   2.203
 4887TIP3    H214605   3.779   6.507   2.207
 4888TIP3   OH214606   4.891   0.795   1.594
 4888TIP3    H114607   4.937   0.864   1.642
 4888TIP3    H214608   4.939   0.787   1.512
 4889TIP3   OH214609   0.284   4.917   4.915
 4889TIP3    H114610   0.302   4.928   4.821
 4889TIP3    H214611   0.208   4.973   4.931
 4890TIP3   OH214612   5.007   5.497   4.499
 4890TIP3    H114613   4.968   5.466   4.417
 4890TIP3    H214614   5.077   5.434   4.517
 4891TIP3   OH214615   7.762   3.816   1.191
 4891TIP3    H114616   7.768   3.763   1.271
 4891TIP3    H214617   7.677   3.859   1.197
 4892TIP3   OH214618   5.910   2.046   2.512
 4892TIP3    H114619   5.934   2.041   2.419
 4892TIP3    H214620   5.960   2.121   2.545
 4893TIP3   OH214621   6.829   7.360   6.221
 4893TIP3    H114622   6.889   7.425   6.257
 4893TIP3    H214623   6.794   7.401   6.142
 4894TIP3   OH214624   3.471   3.989   6.519
 4894TIP3    H114625   3.495   3.902   6.551
 4894TIP3    H214626   3.443   3.975   6.429
 4895TIP3   OH214627   8.230   6.126   3.891
 4895TIP3    H114628   8.140   6.121   3.925
 4895TIP3    H214629   8.222   6.110   3.797
 4896TIP3   OH214630   6.786   0.502   2.883
 4896TIP3    H114631   6.855   0.529   2.823
 4896TIP3    H214632   6.826   0.435   2.938
 4897TIP3   OH214633   3.135   2.705   4.715
 4897TIP3    H114634   3.093   2.758   4.784
 4897TIP3    H214635   3.225   2.738   4.712
 4898TIP3   OH214636   5.959   0.906   4.202
 4898TIP3    H114637   5.901   0.981   4.212
 4898TIP3    H214638   5.911   0.847   4.143
 4899TIP3   OH214639   7.773   6.796   1.426
 4899TIP3    H114640   7.833   6.818   1.355
 4899TIP3    H214641   7.800   6.709   1.455
 4900TIP3   OH214642   1.040   5.960   1.341
 4900TIP3    H114643   0.948   5.933   1.333
 4900TIP3    H214644   1.072   5.913   1.418
 4901TIP3   OH214645   7.426   2.524   5.544
 4901TIP3    H114646   7.460   2.572   5.620
 4901TIP3    H214647   7.391   2.443   5.581
 4902TIP3   OH214648   5.307   5.001   2.650
 4902TIP3    H114649   5.275   5.090   2.665
 4902TIP3    H214650   5.306   4.991   2.555
 4903TIP3   OH214651   0.895   6.262   1.536
 4903TIP3    H114652   0.830   6.209   1.489
 4903TIP3    H214653   0.938   6.200   1.595
 4904TIP3   OH214654   2.604   0.026   6.145
 4904TIP3    H114655   2.643   0.016   6.231
 4904TIP3    H214656   2.547   0.103   6.153
 4905TIP3   OH214657   6.635   5.689   3.099
 4905TIP3    H114658   6.547   5.688   3.062
 4905TIP3    H214659   6.691   5.652   3.031
 4906TIP3   OH214660   7.023   0.737   3.717
 4906TIP3    H114661   6.965   0.663   3.696
 4906TIP3    H214662   7.099   0.698   3.759
 4907TIP3   OH214663   2.550   0.816   2.279
 4907TIP3    H114664   2.600   0.788   2.355
 4907TIP3    H214665   2.461   0.786   2.296
 4908TIP3   OH214666   7.529   7.207   6.345
 4908TIP3    H114667   7.443   7.212   6.302
 4908TIP3    H214668   7.567   7.125   6.313
 4909TIP3   OH214669   3.056   1.623   6.105
 4909TIP3    H114670   3.103   1.576   6.037
 4909TIP3    H214671   3.086   1.584   6.187
 4910TIP3   OH214672   5.462   2.966   4.755
 4910TIP3    H114673   5.412   2.994   4.832
 4910TIP3    H214674   5.399   2.971   4.683
 4911TIP3   OH214675   2.915   7.337   3.259
 4911TIP3    H114676   2.972   7.267   3.290
 4911TIP3    H214677   2.837   7.331   3.314
 4912TIP3   OH214678   2.230   6.081   1.838
 4912TIP3    H114679   2.269   6.025   1.771
 4912TIP3    H214680   2.135   6.066   1.829
 4913TIP3   OH214681   4.251   2.836   0.576
 4913TIP3    H114682   4.277   2.883   0.655
 4913TIP3    H214683   4.328   2.786   0.550
 4914TIP3   OH214684   6.792   4.725   6.380
 4914TIP3    H114685   6.820   4.698   6.293
 4914TIP3    H214686   6.699   4.702   6.385
 4915TIP3   OH214687   7.233   0.857   3.136
 4915TIP3    H114688   7.218   0.762   3.143
 4915TIP3    H214689   7.296   0.866   3.065
 4916TIP3   OH214690   0.933   4.611   3.106
 4916TIP3    H114691   0.843   4.640   3.122
 4916TIP3    H214692   0.986   4.666   3.164
 4917TIP3   OH214693   3.153   3.586   1.545
 4917TIP3    H114694   3.138   3.616   1.635
 4917TIP3    H214695   3.139   3.663   1.491
 4918TIP3   OH214696   1.429   4.243   4.608
 4918TIP3    H114697   1.421   4.338   4.606
 4918TIP3    H214698   1.398   4.218   4.695
 4919TIP3   OH214699   4.808   2.750   3.762
 4919TIP3    H114700   4.733   2.767   3.819
 4919TIP3    H214701   4.799   2.813   3.691
 4920TIP3   OH214702   3.784   0.538   6.323
 4920TIP3    H114703   3.809   0.446   6.330
 4920TIP3    H214704   3.799   0.560   6.231
 4921TIP3   OH214705   4.036   3.552   4.547
 4921TIP3    H114706   4.108   3.573   4.487
 4921TIP3    H214707   3.963   3.606   4.515
 4922TIP3   OH214708   6.179   3.801   5.860
 4922TIP3    H114709   6.144   3.733   5.802
 4922TIP3    H214710   6.265   3.768   5.886
 4923TIP3   OH214711   0.971   6.806   1.149
 4923TIP3    H114712   0.960   6.721   1.191
 4923TIP3    H214713   0.911   6.864   1.195
 4924TIP3   OH214714   3.242   1.214   2.831
 4924TIP3    H114715   3.238   1.124   2.800
 4924TIP3    H214716   3.194   1.264   2.765
 4925TIP3   OH214717   7.220   1.634   5.164
 4925TIP3    H114718   7.254   1.648   5.076
 4925TIP3    H214719   7.129   1.663   5.160
 4926TIP3   OH214720   8.126   0.792   4.569
 4926TIP3    H114721   8.208   0.841   4.574
 4926TIP3    H214722   8.059   0.859   4.550
 4927TIP3   OH214723   2.733   1.089   6.171
 4927TIP3    H114724   2.756   1.155   6.236
 4927TIP3    H214725   2.738   1.136   6.087
 4928TIP3   OH214726   4.757   4.807   1.378
 4928TIP3    H114727   4.812   4.830   1.303
 4928TIP3    H214728   4.763   4.711   1.382
 4929TIP3   OH214729   3.391   1.484   3.768
 4929TIP3    H114730   3.387   1.486   3.864
 4929TIP3    H214731   3.481   1.459   3.748
 4930TIP3   OH214732   6.756   0.825   5.300
 4930TIP3    H114733   6.707   0.907   5.288
 4930TIP3    H214734   6.814   0.821   5.224
 4931TIP3   OH214735   6.319   6.114   2.986
 4931TIP3    H114736   6.237   6.141   2.945
 4931TIP3    H214737   6.377   6.189   2.976
 4932TIP3   OH214738   0.306   6.970   1.940
 4932TIP3    H114739   0.237   6.916   1.980
 4932TIP3    H214740   0.310   7.047   1.996
 4933TIP3   OH214741  -0.007   1.864   4.959
 4933TIP3    H114742   0.079   1.854   4.919
 4933TIP3    H214743  -0.022   1.959   4.961
 4934TIP3   OH214744   0.137   2.668   1.769
 4934TIP3    H114745   0.221   2.624   1.784
 4934TIP3    H214746   0.075   2.596   1.759
 4935TIP3   OH214747   3.731   5.935   0.841
 4935TIP3    H114748   3.686   5.858   0.807
 4935TIP3    H214749   3.823   5.910   0.843
 4936TIP3   OH214750   7.412   1.772   4.260
 4936TIP3    H114751   7.463   1.735   4.188
 4936TIP3    H214752   7.339   1.711   4.272
 4937TIP3   OH214753   5.472   4.520   5.301
 4937TIP3    H114754   5.562   4.526   5.333
 4937TIP3    H214755   5.426   4.468   5.366
 4938TIP3   OH214756   7.346   5.503   6.079
 4938TIP3    H114757   7.386   5.556   6.009
 4938TIP3    H214758   7.403   5.517   6.155
 4939TIP3   OH214759   0.910   4.731   4.730
 4939TIP3    H114760   0.962   4.745   4.809
 4939TIP3    H214761   0.838   4.794   4.738
 4940TIP3   OH214762   7.924   1.484   3.790
 4940TIP3    H114763   8.012   1.452   3.767
 4940TIP3    H214764   7.886   1.412   3.840
 4941TIP3   OH214765   7.078   5.627   0.907
 4941TIP3    H114766   7.066   5.717   0.878
 4941TIP3    H214767   7.121   5.583   0.833
 4942TIP3   OH214768   2.716   5.446   0.814
 4942TIP3    H114769   2.794   5.402   0.848
 4942TIP3    H214770   2.745   5.534   0.793
 4943TIP3   OH214771   4.462   4.973   1.935
 4943TIP3    H114772   4.554   4.986   1.957
 4943TIP3    H214773   4.414   5.006   2.011
 4944TIP3   OH214774   0.737   4.005   0.733
 4944TIP3    H114775   0.710   3.964   0.815
 4944TIP3    H214776   0.676   3.971   0.668
 4945TIP3   OH214777   4.563   0.226   4.649
 4945TIP3    H114778   4.619   0.167   4.700
 4945TIP3    H214779   4.482   0.176   4.637
 4946TIP3   OH214780   0.325   1.034   4.551
 4946TIP3    H114781   0.336   1.007   4.460
 4946TIP3    H214782   0.272   1.114   4.546
 4947TIP3   OH214783   0.473   5.821   4.149
 4947TIP3    H114784   0.457   5.871   4.068
 4947TIP3    H214785   0.559   5.781   4.135
 4948TIP3   OH214786   6.332   6.457   5.759
 4948TIP3    H114787   6.368   6.537   5.722
 4948TIP3    H214788   6.269   6.426   5.694
 4949TIP3   OH214789   1.189   5.232   0.072
 4949TIP3    H114790   1.161   5.309   0.024
 4949TIP3    H214791   1.124   5.165   0.051
 4950TIP3   OH214792   6.456   0.319   4.528
 4950TIP3    H114793   6.364   0.334   4.507
 4950TIP3    H214794   6.504   0.357   4.454
 4951TIP3   OH214795   3.540   1.303   4.878
 4951TIP3    H114796   3.619   1.298   4.932
 4951TIP3    H214797   3.565   1.261   4.796
 4952TIP3   OH214798   3.938   2.915   2.518
 4952TIP3    H114799   4.020   2.869   2.536
 4952TIP3    H214800   3.965   3.004   2.497
 4953TIP3   OH214801   8.223   2.987   3.303
 4953TIP3    H114802   8.222   2.999   3.398
 4953TIP3    H214803   8.161   2.916   3.287
 4954TIP3   OH214804   6.678   5.677   5.741
 4954TIP3    H114805   6.604   5.619   5.760
 4954TIP3    H214806   6.651   5.724   5.662
 4955TIP3   OH214807   0.987   0.756   4.508
 4955TIP3    H114808   0.994   0.796   4.595
 4955TIP3    H214809   0.925   0.684   4.520
 4956TIP3   OH214810   4.009   0.205   5.535
 4956TIP3    H114811   3.947   0.179   5.467
 4956TIP3    H214812   4.047   0.123   5.566
 4957TIP3   OH214813   6.760   5.211   1.716
 4957TIP3    H114814   6.754   5.188   1.809
 4957TIP3    H214815   6.717   5.138   1.671
 4958TIP3   OH214816   0.602   6.151   4.389
 4958TIP3    H114817   0.509   6.157   4.409
 4958TIP3    H214818   0.630   6.067   4.425
 4959TIP3   OH214819   4.424   0.280   2.780
 4959TIP3    H114820   4.461   0.207   2.830
 4959TIP3    H214821   4.329   0.266   2.784
 4960TIP3   OH214822   4.115   4.625   1.131
 4960TIP3    H114823   4.111   4.716   1.162
 4960TIP3    H214824   4.117   4.632   1.036
 4961TIP3   OH214825   3.348   7.103   2.786
 4961TIP3    H114826   3.348   7.060   2.700
 4961TIP3    H214827   3.264   7.080   2.825
 4962TIP3   OH214828   4.554   6.449   1.464
 4962TIP3    H114829   4.570   6.484   1.376
 4962TIP3    H214830   4.511   6.365   1.449
 4963TIP3   OH214831   3.264   5.894   2.870
 4963TIP3    H114832   3.248   5.968   2.810
 4963TIP3    H214833   3.201   5.907   2.941
 4964TIP3   OH214834   6.633   1.348   3.889
 4964TIP3    H114835   6.726   1.366   3.902
 4964TIP3    H214836   6.592   1.365   3.973
 4965TIP3   OH214837   5.527   3.591   5.019
 4965TIP3    H114838   5.566   3.651   5.083
 4965TIP3    H214839   5.551   3.504   5.051
 4966TIP3   OH214840   5.497   2.598   0.402
 4966TIP3    H114841   5.567   2.548   0.360
 4966TIP3    H214842   5.532   2.619   0.489
 4967TIP3   OH214843   2.095   1.446   0.112
 4967TIP3    H114844   2.043   1.443   0.032
 4967TIP3    H214845   2.154   1.371   0.105
 4968TIP3   OH214846   2.202   6.815   0.756
 4968TIP3    H114847   2.166   6.731   0.787
 4968TIP3    H214848   2.124   6.868   0.737
 4969TIP3   OH214849   2.041   3.696   0.473
 4969TIP3    H114850   2.014   3.787   0.461
 4969TIP3    H214851   2.077   3.693   0.561
 4970TIP3   OH214852   0.569   5.371   1.681
 4970TIP3    H114853   0.482   5.376   1.641
 4970TIP3    H214854   0.570   5.286   1.726
 4971TIP3   OH214855   4.742   5.783   2.093
 4971TIP3    H114856   4.755   5.857   2.033
 4971TIP3    H214857   4.760   5.706   2.039
 4972TIP3   OH214858   3.724   0.788   0.952
 4972TIP3    H114859   3.762   0.876   0.949
 4972TIP3    H214860   3.690   0.779   1.041
 4973TIP3   OH214861   3.587   4.620   6.274
 4973TIP3    H114862   3.574   4.638   6.367
 4973TIP3    H214863   3.507   4.651   6.232
 4974TIP3   OH214864   0.762   3.467   2.119
 4974TIP3    H114865   0.808   3.458   2.202
 4974TIP3    H214866   0.675   3.497   2.142
 4975TIP3   OH214867   2.676   2.742   4.887
 4975TIP3    H114868   2.640   2.744   4.976
 4975TIP3    H214869   2.666   2.832   4.855
 4976TIP3   OH214870   1.536   0.903   0.166
 4976TIP3    H114871   1.482   0.979   0.184
 4976TIP3    H214872   1.617   0.918   0.216
 4977TIP3   OH214873   5.055   5.875   2.821
 4977TIP3    H114874   5.094   5.812   2.761
 4977TIP3    H214875   5.123   5.893   2.885
 4978TIP3   OH214876   8.019   7.260   2.523
 4978TIP3    H114877   8.065   7.339   2.552
 4978TIP3    H214878   8.049   7.192   2.583
 4979TIP3   OH214879   1.452   6.735   0.537
 4979TIP3    H114880   1.523   6.673   0.524
 4979TIP3    H214881   1.372   6.686   0.517
 4980TIP3   OH214882   1.255   6.545   4.140
 4980TIP3    H114883   1.314   6.616   4.168
 4980TIP3    H214884   1.199   6.529   4.216
 4981TIP3   OH214885   0.355   6.744   4.495
 4981TIP3    H114886   0.366   6.838   4.477
 4981TIP3    H214887   0.292   6.741   4.566
 4982TIP3   OH214888   5.397   6.746   5.548
 4982TIP3    H114889   5.373   6.725   5.639
 4982TIP3    H214890   5.330   6.810   5.521
 4983TIP3   OH214891   2.266   3.740   5.035
 4983TIP3    H114892   2.193   3.693   5.075
 4983TIP3    H214893   2.330   3.673   5.014
 4984TIP3   OH214894   4.808   1.038   5.688
 4984TIP3    H114895   4.822   0.949   5.656
 4984TIP3    H214896   4.890   1.084   5.666
 4985TIP3   OH214897   5.630   2.263   4.538
 4985TIP3    H114898   5.644   2.190   4.598
 4985TIP3    H214899   5.633   2.224   4.451
 4986TIP3   OH214900   8.075   1.657   6.500
 4986TIP3    H114901   8.087   1.747   6.532
 4986TIP3    H214902   8.156   1.638   6.452
 4987TIP3   OH214903   6.431   7.272   6.139
 4987TIP3    H114904   6.347   7.239   6.106
 4987TIP3    H214905   6.451   7.215   6.213
 4988TIP3   OH214906   7.775   5.944   1.011
 4988TIP3    H114907   7.738   6.031   1.000
 4988TIP3    H214908   7.718   5.902   1.076
 4989TIP3   OH214909   5.165   5.445   2.894
 4989TIP3    H114910   5.225   5.383   2.935
 4989TIP3    H214911   5.099   5.391   2.851
 4990TIP3   OH214912   3.191   1.546   2.961
 4990TIP3    H114913   3.136   1.609   2.913
 4990TIP3    H214914   3.202   1.585   3.048
 4991TIP3   OH214915   3.151   6.615   1.998
 4991TIP3    H114916   3.188   6.640   1.913
 4991TIP3    H214917   3.097   6.690   2.024
 4992TIP3   OH214918   1.758   0.561   5.063
 4992TIP3    H114919   1.759   0.654   5.041
 4992TIP3    H214920   1.681   0.526   5.019
 4993TIP3   OH214921   5.777   5.888   6.099
 4993TIP3    H114922   5.711   5.945   6.138
 4993TIP3    H214923   5.750   5.800   6.123
 4994TIP3   OH214924   2.583   7.356   4.289
 4994TIP3    H114925   2.567   7.359   4.383
 4994TIP3    H214926   2.537   7.277   4.259
 4995TIP3   OH214927   6.671   6.969   0.341
 4995TIP3    H114928   6.753   7.003   0.379
 4995TIP3    H214929   6.671   7.003   0.252
 4996TIP3   OH214930   2.195   1.423   5.726
 4996TIP3    H114931   2.210   1.386   5.813
 4996TIP3    H214932   2.191   1.518   5.741
 4997TIP3   OH214933   4.663   5.448   0.470
 4997TIP3    H114934   4.653   5.543   0.464
 4997TIP3    H214935   4.592   5.413   0.417
 4998TIP3   OH214936   8.004   3.062   2.623
 4998TIP3    H114937   8.090   3.101   2.609
 4998TIP3    H214938   7.959   3.072   2.539
 4999TIP3   OH214939   7.384   4.043   2.199
 4999TIP3    H114940   7.342   3.974   2.251
 4999TIP3    H214941   7.440   4.089   2.261
 5000TIP3   OH214942   4.139   5.271   3.303
 5000TIP3    H114943   4.141   5.353   3.253
 5000TIP3    H214944   4.056   5.229   3.277
 5001TIP3   OH214945   3.156   4.749   0.246
 5001TIP3    H114946   3.245   4.756   0.279
 5001TIP3    H214947   3.156   4.800   0.165
 5002TIP3   OH214948   2.068   6.433   3.596
 5002TIP3    H114949   2.097   6.478   3.517
 5002TIP3    H214950   2.069   6.500   3.664
 5003TIP3   OH214951   5.757   6.289   5.306
 5003TIP3    H114952   5.746   6.242   5.389
 5003TIP3    H214953   5.849   6.276   5.284
 5004TIP3   OH214954   6.937   1.374   3.849
 5004TIP3    H114955   7.006   1.427   3.810
 5004TIP3    H214956   6.880   1.351   3.776
 5005TIP3   OH214957   3.806   0.210   1.230
 5005TIP3    H114958   3.737   0.145   1.221
 5005TIP3    H214959   3.777   0.267   1.301
 5006TIP3   OH214960   6.230   6.776   5.902
 5006TIP3    H114961   6.268   6.771   5.814
 5006TIP3    H214962   6.283   6.842   5.947
 5007TIP3   OH214963   1.816   5.674   3.507
 5007TIP3    H114964   1.804   5.692   3.600
 5007TIP3    H214965   1.814   5.578   3.502
 5008TIP3   OH214966   5.836   7.731   5.894
 5008TIP3    H114967   5.783   7.694   5.823
 5008TIP3    H214968   5.904   7.782   5.849
 5009TIP3   OH214969   6.791   5.377   3.027
 5009TIP3    H114970   6.705   5.400   3.062
 5009TIP3    H214971   6.846   5.363   3.105
 5010TIP3   OH214972   4.468   7.120   4.599
 5010TIP3    H114973   4.482   7.163   4.514
 5010TIP3    H214974   4.556   7.115   4.637
 5011TIP3   OH214975   3.083   5.309   1.604
 5011TIP3    H114976   3.001   5.259   1.605
 5011TIP3    H214977   3.068   5.381   1.665
 5012TIP3   OH214978   3.120   4.047   6.507
 5012TIP3    H114979   3.055   4.049   6.578
 5012TIP3    H214980   3.172   3.969   6.525
 5013TIP3   OH214981   2.357   6.165   4.935
 5013TIP3    H114982   2.305   6.230   4.889
 5013TIP3    H214983   2.387   6.105   4.867
 5014TIP3   OH214984   1.327   0.333   5.378
 5014TIP3    H114985   1.414   0.362   5.350
 5014TIP3    H214986   1.268   0.365   5.309
 5015TIP3   OH214987   6.282   3.153   4.201
 5015TIP3    H114988   6.341   3.212   4.154
 5015TIP3    H214989   6.305   3.162   4.293
 5016TIP3   OH214990   6.276   5.341   6.217
 5016TIP3    H114991   6.188   5.318   6.246
 5016TIP3    H214992   6.282   5.306   6.128
 5017TIP3   OH214993   0.558   6.671   3.811
 5017TIP3    H114994   0.594   6.605   3.751
 5017TIP3    H214995   0.531   6.621   3.888
 5018TIP3   OH214996   4.033   3.792   0.356
 5018TIP3    H114997   3.958   3.733   0.360
 5018TIP3    H214998   4.002   3.867   0.305
 5019TIP3   OH214999   8.150   3.370   6.379
 5019TIP3    H115000   8.071   3.406   6.419
 5019TIP3    H215001   8.157   3.281   6.414
 5020TIP3   OH215002   3.109   5.788   5.898
 5020TIP3    H115003   3.112   5.817   5.807
 5020TIP3    H215004   3.059   5.855   5.944
 5021TIP3   OH215005   5.605   0.241   4.455
 5021TIP3    H115006   5.593   0.215   4.364
 5021TIP3    H215007   5.522   0.222   4.497
 5022TIP3   OH215008   2.143   6.875   2.194
 5022TIP3    H115009   2.237   6.878   2.214
 5022TIP3    H215010   2.102   6.909   2.273
 5023TIP3   OH215011   3.682   7.415   3.916
 5023TIP3    H115012   3.620   7.393   3.847
 5023TIP3    H215013   3.642   7.382   3.996
 5024TIP3   OH215014   1.090   4.317   6.301
 5024TIP3    H115015   1.118   4.232   6.337
 5024TIP3    H215016   1.027   4.350   6.364
 5025TIP3   OH215017   7.382   4.787   3.917
 5025TIP3    H115018   7.380   4.767   3.823
 5025TIP3    H215019   7.421   4.875   3.922
 5026TIP3   OH215020   1.848   7.081   2.531
 5026TIP3    H115021   1.778   7.055   2.591
 5026TIP3    H215022   1.869   7.171   2.556
 5027TIP3   OH215023   8.201   5.633   5.185
 5027TIP3    H115024   8.176   5.604   5.272
 5027TIP3    H215025   8.205   5.729   5.192
 5028TIP3   OH215026   7.877   5.182   4.959
 5028TIP3    H115027   7.915   5.105   5.002
 5028TIP3    H215028   7.925   5.256   4.996
 5029TIP3   OH215029   6.544   3.285   2.781
 5029TIP3    H115030   6.479   3.298   2.712
 5029TIP3    H215031   6.626   3.270   2.735
 5030TIP3   OH215032   7.019   3.318   5.132
 5030TIP3    H115033   7.014   3.405   5.173
 5030TIP3    H215034   6.987   3.258   5.199
 5031TIP3   OH215035   3.032   3.486   4.701
 5031TIP3    H115036   3.074   3.401   4.697
 5031TIP3    H215037   2.938   3.468   4.689
 5032TIP3   OH215038   2.819   1.301   2.495
 5032TIP3    H115039   2.858   1.227   2.449
 5032TIP3    H215040   2.826   1.374   2.434
 5033TIP3   OH215041   6.009   3.271   3.709
 5033TIP3    H115042   6.085   3.227   3.746
 5033TIP3    H215043   5.958   3.300   3.785
 5034TIP3   OH215044   1.346   7.436   3.697
 5034TIP3    H115045   1.413   7.504   3.705
 5034TIP3    H215046   1.278   7.475   3.642
 5035TIP3   OH215047   0.556   7.134   3.392
 5035TIP3    H115048   0.537   7.040   3.384
 5035TIP3    H215049   0.534   7.155   3.483
 5036TIP3   OH215050   7.786   5.061   2.551
 5036TIP3    H115051   7.862   5.068   2.494
 5036TIP3    H215052   7.785   5.143   2.601
 5037TIP3   OH215053   5.454   3.464   4.170
 5037TIP3    H115054   5.500   3.546   4.150
 5037TIP3    H215055   5.444   3.421   4.085
 5038TIP3   OH215056   2.506   2.761   5.741
 5038TIP3    H115057   2.539   2.849   5.724
 5038TIP3    H215058   2.566   2.725   5.807
 5039TIP3   OH215059   7.908   3.660   6.244
 5039TIP3    H115060   7.863   3.578   6.268
 5039TIP3    H215061   7.923   3.652   6.150
 5040TIP3   OH215062   3.651   7.695   1.640
 5040TIP3    H115063   3.641   7.606   1.671
 5040TIP3    H215064   3.683   7.744   1.715
 5041TIP3   OH215065   3.031   4.398   4.285
 5041TIP3    H115066   3.061   4.468   4.343
 5041TIP3    H215067   2.936   4.408   4.283
 5042TIP3   OH215068   5.322   6.746   5.194
 5042TIP3    H115069   5.328   6.834   5.233
 5042TIP3    H215070   5.228   6.730   5.186
 5043TIP3   OH215071   6.662   1.605   4.625
 5043TIP3    H115072   6.720   1.667   4.668
 5043TIP3    H215073   6.580   1.611   4.672
 5044TIP3   OH215074   2.390   5.123   4.599
 5044TIP3    H115075   2.439   5.143   4.519
 5044TIP3    H215076   2.316   5.070   4.569
 5045TIP3   OH215077   6.605   3.761   5.103
 5045TIP3    H115078   6.623   3.799   5.017
 5045TIP3    H215079   6.562   3.678   5.084
 5046TIP3   OH215080   2.588   3.526   5.389
 5046TIP3    H115081   2.507   3.522   5.339
 5046TIP3    H215082   2.565   3.572   5.470
 5047TIP3   OH215083   2.881   6.645   5.722
 5047TIP3    H115084   2.883   6.685   5.635
 5047TIP3    H215085   2.850   6.556   5.707
 5048TIP3   OH215086   4.356   5.914   1.654
 5048TIP3    H115087   4.369   5.823   1.681
 5048TIP3    H215088   4.396   5.965   1.724
 5049TIP3   OH215089   3.986   7.225   0.987
 5049TIP3    H115090   4.001   7.211   0.893
 5049TIP3    H215091   4.073   7.246   1.022
 5050TIP3   OH215092   3.732   5.470   1.270
 5050TIP3    H115093   3.826   5.462   1.253
 5050TIP3    H215094   3.691   5.439   1.189
 5051TIP3   OH215095   5.591   2.346   1.415
 5051TIP3    H115096   5.555   2.423   1.370
 5051TIP3    H215097   5.628   2.292   1.345
 5052TIP3   OH215098   1.784   4.271   1.477
 5052TIP3    H115099   1.837   4.305   1.549
 5052TIP3    H215100   1.840   4.207   1.433
 5053TIP3   OH215101   7.456   3.339   1.020
 5053TIP3    H115102   7.392   3.277   0.985
 5053TIP3    H215103   7.515   3.356   0.946
 5054TIP3   OH215104   6.632   6.638   1.202
 5054TIP3    H115105   6.716   6.610   1.238
 5054TIP3    H215106   6.568   6.606   1.265
 5055TIP3   OH215107   1.598   5.487   3.814
 5055TIP3    H115108   1.544   5.433   3.870
 5055TIP3    H215109   1.686   5.480   3.850
 5056TIP3   OH215110   3.568   1.515   4.245
 5056TIP3    H115111   3.475   1.536   4.234
 5056TIP3    H215112   3.614   1.590   4.207
 5057TIP3   OH215113   2.235   6.119   5.462
 5057TIP3    H115114   2.162   6.130   5.401
 5057TIP3    H215115   2.285   6.200   5.455
 5058TIP3   OH215116   3.985   0.204   1.031
 5058TIP3    H115117   3.928   0.264   0.983
 5058TIP3    H215118   3.944   0.196   1.117
 5059TIP3   OH215119   1.595   6.708   0.831
 5059TIP3    H115120   1.585   6.695   0.925
 5059TIP3    H215121   1.511   6.745   0.803
 5060TIP3   OH215122   3.143   3.233   1.180
 5060TIP3    H115123   3.180   3.155   1.222
 5060TIP3    H215124   3.156   3.218   1.087
 5061TIP3   OH215125   5.339   6.999   0.169
 5061TIP3    H115126   5.348   7.023   0.261
 5061TIP3    H215127   5.420   6.954   0.147
 5062TIP3   OH215128   7.537   6.981   3.030
 5062TIP3    H115129   7.501   7.012   2.947
 5062TIP3    H215130   7.508   6.890   3.036
 5063TIP3   OH215131   5.871   1.922   4.905
 5063TIP3    H115132   5.823   1.985   4.959
 5063TIP3    H215133   5.849   1.947   4.815
 5064TIP3   OH215134   1.257   6.636   3.873
 5064TIP3    H115135   1.340   6.605   3.836
 5064TIP3    H215136   1.262   6.611   3.966
 5065TIP3   OH215137   4.335   6.319   1.050
 5065TIP3    H115138   4.281   6.302   0.973
 5065TIP3    H215139   4.365   6.232   1.077
 5066TIP3   OH215140   6.222   6.588   1.309
 5066TIP3    H115141   6.291   6.573   1.373
 5066TIP3    H215142   6.261   6.648   1.245
 5067TIP3   OH215143   1.373   4.471   3.468
 5067TIP3    H115144   1.302   4.415   3.439
 5067TIP3    H215145   1.388   4.445   3.559
 5068TIP3   OH215146   2.089   2.136   4.077
 5068TIP3    H115147   2.182   2.159   4.071
 5068TIP3    H215148   2.044   2.202   4.025
 5069TIP3   OH215149   5.111   7.061   1.546
 5069TIP3    H115150   5.137   7.101   1.629
 5069TIP3    H215151   5.108   7.134   1.484
 5070TIP3   OH215152   5.702   6.848   2.913
 5070TIP3    H115153   5.636   6.786   2.945
 5070TIP3    H215154   5.657   6.933   2.912
 5071TIP3   OH215155   3.613   4.669   3.316
 5071TIP3    H115156   3.589   4.596   3.372
 5071TIP3    H215157   3.661   4.629   3.243
 5072TIP3   OH215158   2.745   7.325   1.761
 5072TIP3    H115159   2.765   7.285   1.676
 5072TIP3    H215160   2.829   7.327   1.807
 5073TIP3   OH215161   5.990   4.568   4.124
 5073TIP3    H115162   6.011   4.634   4.057
 5073TIP3    H215163   5.900   4.589   4.149
 5074TIP3   OH215164   4.863   4.325   0.884
 5074TIP3    H115165   4.804   4.398   0.866
 5074TIP3    H215166   4.806   4.254   0.915
 5075TIP3   OH215167   0.519   1.931   6.104
 5075TIP3    H115168   0.507   1.841   6.074
 5075TIP3    H215169   0.497   1.928   6.197
 5076TIP3   OH215170   3.249   4.016   5.754
 5076TIP3    H115171   3.252   3.926   5.788
 5076TIP3    H215172   3.302   4.066   5.816
 5077TIP3   OH215173   2.291   1.903   1.500
 5077TIP3    H115174   2.287   1.818   1.544
 5077TIP3    H215175   2.315   1.965   1.569
 5078TIP3   OH215176   3.501   6.962   1.259
 5078TIP3    H115177   3.510   6.986   1.167
 5078TIP3    H215178   3.530   6.871   1.262
 5079TIP3   OH215179   0.570   7.042   4.581
 5079TIP3    H115180   0.642   7.078   4.632
 5079TIP3    H215181   0.571   6.948   4.600
 5080TIP3   OH215182   1.544   1.541   2.325
 5080TIP3    H115183   1.594   1.471   2.367
 5080TIP3    H215184   1.462   1.546   2.375
 5081TIP3   OH215185   1.038   1.370   6.741
 5081TIP3    H115186   1.037   1.463   6.715
 5081TIP3    H215187   1.108   1.365   6.807
 5082TIP3   OH215188   4.474   1.865   0.786
 5082TIP3    H115189   4.511   1.833   0.704
 5082TIP3    H215190   4.440   1.787   0.830
 5083TIP3   OH215191   1.468   3.038   1.547
 5083TIP3    H115192   1.464   2.999   1.634
 5083TIP3    H215193   1.478   3.132   1.563
 5084TIP3   OH215194   0.733   3.702   4.964
 5084TIP3    H115195   0.821   3.740   4.958
 5084TIP3    H215196   0.674   3.777   4.965
 5085TIP3   OH215197   6.805   5.240   2.556
 5085TIP3    H115198   6.748   5.206   2.625
 5085TIP3    H215199   6.891   5.204   2.577
 5086TIP3   OH215200   8.006   7.517   6.539
 5086TIP3    H115201   8.068   7.532   6.610
 5086TIP3    H215202   7.992   7.423   6.538
 5087TIP3   OH215203   4.444   0.049   4.350
 5087TIP3    H115204   4.393   0.091   4.420
 5087TIP3    H215205   4.465  -0.038   4.385
 5088TIP3   OH215206   6.248   0.772   3.392
 5088TIP3    H115207   6.192   0.707   3.349
 5088TIP3    H215208   6.332   0.766   3.346
 5089TIP3   OH215209   5.192   1.541   2.077
 5089TIP3    H115210   5.207   1.479   2.148
 5089TIP3    H215211   5.159   1.487   2.005
 5090TIP3   OH215212   2.568   4.674   5.474
 5090TIP3    H115213   2.586   4.704   5.385
 5090TIP3    H215214   2.507   4.601   5.462
 5091TIP3   OH215215   3.499   3.980   0.521
 5091TIP3    H115216   3.464   4.050   0.466
 5091TIP3    H215217   3.586   3.962   0.484
 5092TIP3   OH215218   1.769   2.005   6.109
 5092TIP3    H115219   1.794   1.942   6.176
 5092TIP3    H215220   1.759   1.953   6.029
 5093TIP3   OH215221   5.608   5.849   6.458
 5093TIP3    H115222   5.592   5.828   6.550
 5093TIP3    H215223   5.540   5.913   6.437
 5094TIP3   OH215224   1.084   1.319   3.385
 5094TIP3    H115225   1.099   1.353   3.473
 5094TIP3    H215226   1.171   1.297   3.353
 5095TIP3   OH215227   1.668   5.611   0.197
 5095TIP3    H115228   1.755   5.572   0.191
 5095TIP3    H215229   1.659   5.663   0.117
 5096TIP3   OH215230   7.542   5.459   2.888
 5096TIP3    H115231   7.474   5.519   2.857
 5096TIP3    H215232   7.617   5.516   2.906
 5097TIP3   OH215233   7.642   1.958   6.437
 5097TIP3    H115234   7.675   2.048   6.435
 5097TIP3    H215235   7.633   1.938   6.530
 5098TIP3   OH215236   3.261   0.633   0.243
 5098TIP3    H115237   3.208   0.694   0.191
 5098TIP3    H215238   3.254   0.664   0.333
 5099TIP3   OH215239   1.447   5.169   4.988
 5099TIP3    H115240   1.525   5.208   4.950
 5099TIP3    H215241   1.378   5.187   4.923
 5100TIP3   OH215242   2.727   7.519   0.816
 5100TIP3    H115243   2.806   7.507   0.868
 5100TIP3    H215244   2.704   7.431   0.786
 5101TIP3   OH215245   1.181   6.722   0.635
 5101TIP3    H115246   1.195   6.682   0.721
 5101TIP3    H215247   1.230   6.804   0.639
 5102TIP3   OH215248   1.731   0.416   6.729
 5102TIP3    H115249   1.778   0.450   6.653
 5102TIP3    H215250   1.800   0.383   6.787
 5103TIP3   OH215251   1.600   4.608   0.765
 5103TIP3    H115252   1.665   4.613   0.834
 5103TIP3    H215253   1.628   4.535   0.710
 5104TIP3   OH215254   7.392   6.164   5.880
 5104TIP3    H115255   7.304   6.171   5.843
 5104TIP3    H215256   7.379   6.125   5.966
 5105TIP3   OH215257   2.218   4.162   5.705
 5105TIP3    H115258   2.262   4.208   5.633
 5105TIP3    H215259   2.152   4.108   5.661
 5106TIP3   OH215260   0.332   5.141   0.950
 5106TIP3    H115261   0.386   5.071   0.986
 5106TIP3    H215262   0.282   5.174   1.025
 5107TIP3   OH215263   2.115   3.187   3.102
 5107TIP3    H115264   2.082   3.270   3.068
 5107TIP3    H215265   2.076   3.121   3.045
 5108TIP3   OH215266   7.145   6.988   6.172
 5108TIP3    H115267   7.073   7.022   6.225
 5108TIP3    H215268   7.205   7.062   6.163
 5109TIP3   OH215269   0.192   6.928   0.778
 5109TIP3    H115270   0.283   6.913   0.802
 5109TIP3    H215271   0.141   6.882   0.845
 5110TIP3   OH215272   4.387   5.573   3.349
 5110TIP3    H115273   4.428   5.494   3.313
 5110TIP3    H215274   4.428   5.585   3.435
 5111TIP3   OH215275   7.806   5.669   1.317
 5111TIP3    H115276   7.736   5.720   1.276
 5111TIP3    H215277   7.873   5.660   1.249
 5112TIP3   OH215278   3.985   2.587   2.589
 5112TIP3    H115279   4.060   2.615   2.537
 5112TIP3    H215280   3.959   2.502   2.551
 5113TIP3   OH215281   7.893   4.882   1.688
 5113TIP3    H115282   7.861   4.832   1.763
 5113TIP3    H215283   7.907   4.971   1.722
 5114TIP3   OH215284   4.739   4.507   1.489
 5114TIP3    H115285   4.654   4.469   1.510
 5114TIP3    H215286   4.789   4.435   1.450
 5115TIP3   OH215287   4.376   7.036   0.999
 5115TIP3    H115288   4.333   7.101   1.055
 5115TIP3    H215289   4.468   7.038   1.025
 5116TIP3   OH215290   8.091   0.070   1.378
 5116TIP3    H115291   8.078   0.144   1.438
 5116TIP3    H215292   8.144   0.106   1.307
 5117TIP3   OH215293   6.584   3.713   3.098
 5117TIP3    H115294   6.643   3.764   3.155
 5117TIP3    H215295   6.506   3.768   3.089
 5118TIP3   OH215296   4.901   7.182   5.689
 5118TIP3    H115297   4.899   7.275   5.715
 5118TIP3    H215298   4.903   7.184   5.594
 5119TIP3   OH215299   3.317   7.199   1.598
 5119TIP3    H115300   3.345   7.227   1.685
 5119TIP3    H215301   3.359   7.261   1.538
 5120TIP3   OH215302   5.103   7.295   0.726
 5120TIP3    H115303   5.160   7.293   0.803
 5120TIP3    H215304   5.114   7.383   0.690
 5121TIP3   OH215305   0.518   2.325   5.101
 5121TIP3    H115306   0.484   2.330   5.012
 5121TIP3    H215307   0.441   2.339   5.157
 5122TIP3   OH215308   2.216   3.124   5.717
 5122TIP3    H115309   2.302   3.092   5.745
 5122TIP3    H215310   2.191   3.187   5.785
 5123TIP3   OH215311   5.808   1.020   1.293
 5123TIP3    H115312   5.895   1.003   1.330
 5123TIP3    H215313   5.778   0.934   1.263
 5124TIP3   OH215314   3.841   4.875   3.257
 5124TIP3    H115315   3.801   4.797   3.219
 5124TIP3    H215316   3.767   4.924   3.293
 5125TIP3   OH215317   2.250   4.309   5.453
 5125TIP3    H115318   2.155   4.305   5.459
 5125TIP3    H215319   2.276   4.222   5.422
 5126TIP3   OH215320   6.475   5.770   0.210
 5126TIP3    H115321   6.525   5.736   0.284
 5126TIP3    H215322   6.482   5.866   0.219
 5127TIP3   OH215323   2.062   4.151   2.205
 5127TIP3    H115324   1.972   4.157   2.235
 5127TIP3    H215325   2.057   4.107   2.120
 5128TIP3   OH215326   0.196   1.107   1.277
 5128TIP3    H115327   0.101   1.117   1.286
 5128TIP3    H215328   0.210   1.012   1.272
 5129TIP3   OH215329   1.439   2.600   1.516
 5129TIP3    H115330   1.441   2.541   1.591
 5129TIP3    H215331   1.483   2.553   1.446
 5130TIP3   OH215332   1.009   0.226   3.363
 5130TIP3    H115333   0.935   0.269   3.405
 5130TIP3    H215334   1.074   0.216   3.434
 5131TIP3   OH215335   6.732   3.615   2.898
 5131TIP3    H115336   6.696   3.646   2.982
 5131TIP3    H215337   6.670   3.648   2.832
 5132TIP3   OH215338   4.631   4.935   4.935
 5132TIP3    H115339   4.619   5.027   4.958
 5132TIP3    H215340   4.545   4.907   4.904
 5133TIP3   OH215341   3.530   1.518   1.539
 5133TIP3    H115342   3.442   1.500   1.573
 5133TIP3    H215343   3.514   1.555   1.452
 5134TIP3   OH215344   3.574   1.110   1.471
 5134TIP3    H115345   3.657   1.093   1.427
 5134TIP3    H215346   3.541   1.190   1.429
 5135TIP3   OH215347   2.939   0.786   4.646
 5135TIP3    H115348   3.030   0.815   4.648
 5135TIP3    H215349   2.888   0.865   4.626
 5136TIP3   OH215350   1.354   0.097   0.923
 5136TIP3    H115351   1.331   0.101   1.016
 5136TIP3    H215352   1.272   0.078   0.878
 5137TIP3   OH215353   6.972   4.045   5.326
 5137TIP3    H115354   6.937   3.957   5.335
 5137TIP3    H215355   7.015   4.063   5.410
 5138TIP3   OH215356   4.451   6.372   5.024
 5138TIP3    H115357   4.486   6.378   4.935
 5138TIP3    H215358   4.524   6.400   5.080
 5139TIP3   OH215359   3.623   1.067   1.170
 5139TIP3    H115360   3.650   1.122   1.097
 5139TIP3    H215361   3.566   1.001   1.130
 5140TIP3   OH215362   2.082   5.796   4.195
 5140TIP3    H115363   2.140   5.865   4.230
 5140TIP3    H215364   2.096   5.799   4.101
 5141TIP3   OH215365   4.026   2.156   0.038
 5141TIP3    H115366   3.949   2.111   0.006
 5141TIP3    H215367   4.062   2.200  -0.038
 5142TIP3   OH215368   3.507   3.705   6.546
 5142TIP3    H115369   3.453   3.675   6.472
 5142TIP3    H215370   3.595   3.713   6.509
 5143TIP3   OH215371   0.687   4.960   4.694
 5143TIP3    H115372   0.703   5.045   4.652
 5143TIP3    H215373   0.684   4.980   4.787
 5144TIP3   OH215374   2.549   1.128   4.076
 5144TIP3    H115375   2.542   1.064   4.005
 5144TIP3    H215376   2.617   1.093   4.133
 5145TIP3   OH215377   6.456   2.760   5.803
 5145TIP3    H115378   6.473   2.847   5.768
 5145TIP3    H215379   6.536   2.710   5.783
 5146TIP3   OH215380   5.911   2.407   4.607
 5146TIP3    H115381   5.838   2.373   4.554
 5146TIP3    H215382   5.917   2.347   4.681
 5147TIP3   OH215383   2.175   2.142   6.562
 5147TIP3    H115384   2.254   2.144   6.616
 5147TIP3    H215385   2.146   2.233   6.559
 5148TIP3   OH215386   0.207   0.979   5.889
 5148TIP3    H115387   0.213   0.884   5.900
 5148TIP3    H215388   0.230   0.994   5.798
 5149TIP3   OH215389   3.901   6.374   0.289
 5149TIP3    H115390   3.894   6.451   0.345
 5149TIP3    H215391   3.839   6.389   0.218
 5150TIP3   OH215392   3.160   6.164   5.049
 5150TIP3    H115393   3.068   6.178   5.072
 5150TIP3    H215394   3.208   6.215   5.114
 5151TIP3   OH215395   3.975   6.277   1.046
 5151TIP3    H115396   4.014   6.352   1.091
 5151TIP3    H215397   4.024   6.202   1.078
 5152TIP3   OH215398   8.244   1.859   1.529
 5152TIP3    H115399   8.212   1.796   1.465
 5152TIP3    H215400   8.240   1.812   1.613
 5153TIP3   OH215401   5.629   7.272   3.868
 5153TIP3    H115402   5.556   7.236   3.817
 5153TIP3    H215403   5.657   7.349   3.818
 5154TIP3   OH215404   0.736   6.782   4.928
 5154TIP3    H115405   0.667   6.821   4.875
 5154TIP3    H215406   0.813   6.783   4.871
 5155TIP3   OH215407   2.679   4.500   2.129
 5155TIP3    H115408   2.601   4.509   2.074
 5155TIP3    H215409   2.676   4.576   2.187
 5156TIP3   OH215410   4.565   1.914   1.258
 5156TIP3    H115411   4.547   1.993   1.308
 5156TIP3    H215412   4.597   1.945   1.174
 5157TIP3   OH215413   7.306   6.621   2.433
 5157TIP3    H115414   7.232   6.594   2.487
 5157TIP3    H215415   7.276   6.606   2.343
 5158TIP3   OH215416   6.773   7.271   5.771
 5158TIP3    H115417   6.796   7.229   5.854
 5158TIP3    H215418   6.700   7.329   5.793
 5159TIP3   OH215419   6.733   1.224   3.415
 5159TIP3    H115420   6.707   1.142   3.374
 5159TIP3    H215421   6.683   1.227   3.497
 5160TIP3   OH215422   2.592   4.973   0.700
 5160TIP3    H115423   2.662   4.945   0.759
 5160TIP3    H215424   2.636   4.983   0.615
 5161TIP3   OH215425   2.251   0.261   3.507
 5161TIP3    H115426   2.321   0.248   3.572
 5161TIP3    H215427   2.259   0.352   3.481
 5162TIP3   OH215428   3.274   1.443   5.188
 5162TIP3    H115429   3.306   1.484   5.108
 5162TIP3    H215430   3.325   1.485   5.258
 5163TIP3   OH215431   4.449   2.456   5.383
 5163TIP3    H115432   4.490   2.385   5.433
 5163TIP3    H215433   4.480   2.536   5.425
 5164TIP3   OH215434   0.806   3.375   2.908
 5164TIP3    H115435   0.733   3.314   2.926
 5164TIP3    H215436   0.844   3.343   2.827
 5165TIP3   OH215437   4.651   7.184   4.091
 5165TIP3    H115438   4.650   7.225   4.005
 5165TIP3    H215439   4.558   7.168   4.111
 5166TIP3   OH215440   1.535   4.669   4.906
 5166TIP3    H115441   1.580   4.693   4.987
 5166TIP3    H215442   1.605   4.646   4.846
 5167TIP3   OH215443   5.210   6.389   6.723
 5167TIP3    H115444   5.127   6.364   6.763
 5167TIP3    H215445   5.189   6.402   6.631
 5168TIP3   OH215446   2.006   1.920   1.657
 5168TIP3    H115447   2.017   1.850   1.593
 5168TIP3    H215448   1.913   1.941   1.653
 5169TIP3   OH215449   3.908   1.817   2.091
 5169TIP3    H115450   3.976   1.799   2.026
 5169TIP3    H215451   3.826   1.807   2.043
 5170TIP3   OH215452   6.182   5.630   2.815
 5170TIP3    H115453   6.184   5.700   2.881
 5170TIP3    H215454   6.099   5.585   2.830
 5171TIP3   OH215455   1.366   2.489   2.828
 5171TIP3    H115456   1.424   2.448   2.764
 5171TIP3    H215457   1.350   2.577   2.793
 5172TIP3   OH215458   1.991   1.498   6.063
 5172TIP3    H115459   1.968   1.405   6.065
 5172TIP3    H215460   2.074   1.503   6.110
 5173TIP3   OH215461   6.881   5.980   2.754
 5173TIP3    H115462   6.820   6.017   2.690
 5173TIP3    H215463   6.918   5.904   2.710
 5174TIP3   OH215464   1.486   2.339   3.766
 5174TIP3    H115465   1.428   2.273   3.803
 5174TIP3    H215466   1.452   2.423   3.799
 5175TIP3   OH215467   1.911   6.328   6.074
 5175TIP3    H115468   1.875   6.415   6.059
 5175TIP3    H215469   2.005   6.338   6.065
 5176TIP3   OH215470   8.082   4.891   5.895
 5176TIP3    H115471   8.048   4.803   5.915
 5176TIP3    H215472   8.035   4.917   5.816
 5177TIP3   OH215473   4.863   7.067   4.589
 5177TIP3    H115474   4.794   7.065   4.656
 5177TIP3    H215475   4.914   7.145   4.611
 5178TIP3   OH215476   1.197   5.364   0.713
 5178TIP3    H115477   1.103   5.348   0.702
 5178TIP3    H215478   1.225   5.398   0.628
 5179TIP3   OH215479   5.321   5.628   1.082
 5179TIP3    H115480   5.237   5.660   1.050
 5179TIP3    H215481   5.301   5.588   1.166
 5180TIP3   OH215482   3.558   0.257   3.347
 5180TIP3    H115483   3.568   0.256   3.251
 5180TIP3    H215484   3.573   0.166   3.372
 5181TIP3   OH215485   4.746   5.541   4.903
 5181TIP3    H115486   4.771   5.594   4.827
 5181TIP3    H215487   4.804   5.465   4.899
 5182TIP3   OH215488   0.763   6.056   5.080
 5182TIP3    H115489   0.702   6.126   5.057
 5182TIP3    H215490   0.820   6.094   5.147
 5183TIP3   OH215491   2.717   0.243   0.299
 5183TIP3    H115492   2.655   0.172   0.285
 5183TIP3    H215493   2.673   0.320   0.261
 5184TIP3   OH215494   7.660   6.114   5.854
 5184TIP3    H115495   7.679   6.024   5.829
 5184TIP3    H215496   7.565   6.121   5.845
 5185TIP3   OH215497   3.213   0.403   0.072
 5185TIP3    H115498   3.208   0.487   0.117
 5185TIP3    H215499   3.180   0.339   0.136
 5186TIP3   OH215500   2.955   4.534   3.470
 5186TIP3    H115501   3.007   4.453   3.475
 5186TIP3    H215502   2.892   4.527   3.542
 5187TIP3   OH215503   3.160   4.485   1.332
 5187TIP3    H115504   3.105   4.530   1.397
 5187TIP3    H215505   3.220   4.553   1.301
 5188TIP3   OH215506   1.145   2.353   2.558
 5188TIP3    H115507   1.174   2.349   2.467
 5188TIP3    H215508   1.153   2.263   2.590
 5189TIP3   OH215509   4.432   0.680   5.084
 5189TIP3    H115510   4.512   0.640   5.051
 5189TIP3    H215511   4.361   0.625   5.051
 5190TIP3   OH215512   7.411   4.885   1.880
 5190TIP3    H115513   7.484   4.865   1.939
 5190TIP3    H215514   7.333   4.878   1.935
 5191TIP3   OH215515   4.609   5.034   0.511
 5191TIP3    H115516   4.689   4.987   0.488
 5191TIP3    H215517   4.593   5.092   0.437
 5192TIP3   OH215518   3.769   4.763   2.152
 5192TIP3    H115519   3.863   4.747   2.146
 5192TIP3    H215520   3.762   4.856   2.172
 5193TIP3   OH215521   3.582   3.493   0.217
 5193TIP3    H115522   3.567   3.428   0.286
 5193TIP3    H215523   3.499   3.540   0.211
 5194TIP3   OH215524   8.042   1.114   2.041
 5194TIP3    H115525   8.073   1.202   2.021
 5194TIP3    H215526   7.951   1.126   2.068
 5195TIP3   OH215527   7.410   1.322   2.738
 5195TIP3    H115528   7.383   1.284   2.822
 5195TIP3    H215529   7.339   1.380   2.714
 5196TIP3   OH215530   6.142   2.912   1.324
 5196TIP3    H115531   6.086   2.982   1.357
 5196TIP3    H215532   6.218   2.912   1.383
 5197TIP3   OH215533   3.190   0.050   1.343
 5197TIP3    H115534   3.144   0.041   1.427
 5197TIP3    H215535   3.256  -0.019   1.345
 5198TIP3   OH215536   5.227   5.420   0.595
 5198TIP3    H115537   5.252   5.501   0.639
 5198TIP3    H215538   5.149   5.442   0.545
 5199TIP3   OH215539   6.871   6.750   6.143
 5199TIP3    H115540   6.808   6.681   6.162
 5199TIP3    H215541   6.928   6.712   6.076
 5200TIP3   OH215542   2.784   6.616   3.903
 5200TIP3    H115543   2.796   6.543   3.963
 5200TIP3    H215544   2.704   6.659   3.932
 5201TIP3   OH215545   7.477   4.159   0.280
 5201TIP3    H115546   7.569   4.153   0.306
 5201TIP3    H215547   7.469   4.100   0.206
 5202TIP3   OH215548   6.207   7.186   2.958
 5202TIP3    H115549   6.195   7.209   2.866
 5202TIP3    H215550   6.234   7.094   2.956
 5203TIP3   OH215551   3.605   0.829   5.127
 5203TIP3    H115552   3.531   0.863   5.077
 5203TIP3    H215553   3.677   0.888   5.106
 5204TIP3   OH215554   0.786   0.077   1.443
 5204TIP3    H115555   0.742   0.092   1.526
 5204TIP3    H215556   0.873   0.047   1.467
 5205TIP3   OH215557   2.343   6.016   4.711
 5205TIP3    H115558   2.293   5.948   4.665
 5205TIP3    H215559   2.398   6.055   4.642
 5206TIP3   OH215560   4.477   2.980   5.866
 5206TIP3    H115561   4.433   2.914   5.919
 5206TIP3    H215562   4.408   3.044   5.845
 5207TIP3   OH215563   1.303   5.477   1.340
 5207TIP3    H115564   1.302   5.522   1.424
 5207TIP3    H215565   1.386   5.429   1.339
 5208TIP3   OH215566   2.774   5.255   5.095
 5208TIP3    H115567   2.833   5.300   5.155
 5208TIP3    H215568   2.762   5.316   5.022
 5209TIP3   OH215569   6.837   1.386   3.215
 5209TIP3    H115570   6.796   1.343   3.141
 5209TIP3    H215571   6.815   1.330   3.290
 5210TIP3   OH215572   3.325   5.547   0.261
 5210TIP3    H115573   3.367   5.630   0.237
 5210TIP3    H215574   3.317   5.499   0.179
 5211TIP3   OH215575   1.611   2.512   4.989
 5211TIP3    H115576   1.671   2.450   4.946
 5211TIP3    H215577   1.549   2.457   5.037
 5212TIP3   OH215578   7.041   6.383   5.223
 5212TIP3    H115579   7.058   6.294   5.254
 5212TIP3    H215580   7.115   6.404   5.167
 5213TIP3   OH215581   3.052   1.902   1.557
 5213TIP3    H115582   3.029   1.912   1.465
 5213TIP3    H215583   3.140   1.940   1.565
 5214TIP3   OH215584   1.856   1.524   3.222
 5214TIP3    H115585   1.794   1.483   3.283
 5214TIP3    H215586   1.855   1.467   3.145
 5215TIP3   OH215587   6.899   1.419   4.264
 5215TIP3    H115588   6.850   1.489   4.308
 5215TIP3    H215589   6.867   1.338   4.304
 5216TIP3   OH215590   5.528   2.423   4.159
 5216TIP3    H115591   5.545   2.511   4.127
 5216TIP3    H215592   5.524   2.432   4.254
 5217TIP3   OH215593   2.497   1.906   5.647
 5217TIP3    H115594   2.561   1.968   5.681
 5217TIP3    H215595   2.428   1.962   5.610
 5218TIP3   OH215596   3.354   5.140   3.256
 5218TIP3    H115597   3.337   5.049   3.229
 5218TIP3    H215598   3.342   5.139   3.351
 5219TIP3   OH215599   7.850   5.773   4.113
 5219TIP3    H115600   7.795   5.710   4.160
 5219TIP3    H215601   7.884   5.723   4.039
 5220TIP3   OH215602   5.292   1.495   3.432
 5220TIP3    H115603   5.323   1.408   3.408
 5220TIP3    H215604   5.227   1.517   3.366
 5221TIP3   OH215605   7.957   6.752   0.090
 5221TIP3    H115606   8.031   6.693   0.105
 5221TIP3    H215607   7.926   6.774   0.177
 5222TIP3   OH215608   7.492   4.010   2.706
 5222TIP3    H115609   7.489   4.104   2.689
 5222TIP3    H215610   7.401   3.987   2.728
 5223TIP3   OH215611   7.107   4.539   0.343
 5223TIP3    H115612   7.021   4.519   0.305
 5223TIP3    H215613   7.144   4.605   0.284
 5224TIP3   OH215614   3.455   2.295   0.415
 5224TIP3    H115615   3.400   2.327   0.343
 5224TIP3    H215616   3.499   2.374   0.447
 5225TIP3   OH215617   6.385   0.660   5.635
 5225TIP3    H115618   6.478   0.666   5.655
 5225TIP3    H215619   6.373   0.710   5.554
 5226TIP3   OH215620   7.803   1.617   3.351
 5226TIP3    H115621   7.723   1.565   3.356
 5226TIP3    H215622   7.868   1.558   3.312
 5227TIP3   OH215623   0.645   7.146   3.708
 5227TIP3    H115624   0.570   7.198   3.678
 5227TIP3    H215625   0.646   7.158   3.803
 5228TIP3   OH215626   3.273   1.558   1.860
 5228TIP3    H115627   3.232   1.631   1.815
 5228TIP3    H215628   3.312   1.506   1.790
 5229TIP3   OH215629   7.925   3.444   5.623
 5229TIP3    H115630   7.845   3.402   5.592
 5229TIP3    H215631   7.978   3.372   5.657
 5230TIP3   OH215632   5.336   4.762   6.054
 5230TIP3    H115633   5.337   4.752   5.959
 5230TIP3    H215634   5.249   4.798   6.074
 5231TIP3   OH215635   5.894   5.807   5.512
 5231TIP3    H115636   5.836   5.822   5.437
 5231TIP3    H215637   5.982   5.821   5.478
 5232TIP3   OH215638   2.879   4.402   5.503
 5232TIP3    H115639   2.848   4.476   5.555
 5232TIP3    H215640   2.807   4.383   5.443
 5233TIP3   OH215641   1.258   0.941   4.787
 5233TIP3    H115642   1.303   0.909   4.709
 5233TIP3    H215643   1.198   0.871   4.811
 5234TIP3   OH215644   7.041   3.979   1.840
 5234TIP3    H115645   7.057   4.007   1.930
 5234TIP3    H215646   6.949   4.000   1.824
 5235TIP3   OH215647   1.491   0.709   5.154
 5235TIP3    H115648   1.526   0.796   5.173
 5235TIP3    H215649   1.400   0.714   5.183
 5236TIP3   OH215650   4.175   6.235   4.673
 5236TIP3    H115651   4.234   6.167   4.704
 5236TIP3    H215652   4.230   6.313   4.667
 5237TIP3   OH215653   2.248   4.860   4.564
 5237TIP3    H115654   2.185   4.801   4.605
 5237TIP3    H215655   2.217   4.868   4.473
 5238TIP3   OH215656   2.126   0.634   6.106
 5238TIP3    H115657   2.084   0.655   6.022
 5238TIP3    H215658   2.161   0.717   6.137
 5239TIP3   OH215659   3.779   5.514   2.521
 5239TIP3    H115660   3.768   5.554   2.435
 5239TIP3    H215661   3.695   5.527   2.565
 5240TIP3   OH215662   7.565   4.973   5.290
 5240TIP3    H115663   7.584   4.881   5.304
 5240TIP3    H215664   7.534   4.978   5.200
 5241TIP3   OH215665   4.510   2.214   5.507
 5241TIP3    H115666   4.484   2.131   5.467
 5241TIP3    H215667   4.601   2.227   5.479
 5242TIP3   OH215668   4.423   7.738   5.134
 5242TIP3    H115669   4.384   7.726   5.047
 5242TIP3    H215670   4.496   7.798   5.120
 5243TIP3   OH215671   3.745   0.017   2.477
 5243TIP3    H115672   3.653   0.029   2.499
 5243TIP3    H215673   3.784  -0.021   2.555
 5244TIP3   OH215674   1.595   1.529   6.166
 5244TIP3    H115675   1.506   1.552   6.141
 5244TIP3    H215676   1.643   1.527   6.083
 5245TIP3   OH215677   3.926   4.577   1.882
 5245TIP3    H115678   3.982   4.514   1.926
 5245TIP3    H215679   3.866   4.524   1.830
 5246TIP3   OH215680   6.988   7.717   1.157
 5246TIP3    H115681   6.922   7.690   1.092
 5246TIP3    H215682   6.949   7.694   1.241
 5247TIP3   OH215683   2.758   4.256   6.103
 5247TIP3    H115684   2.848   4.221   6.109
 5247TIP3    H215685   2.766   4.348   6.127
 5248TIP3   OH215686   4.881   4.472   2.300
 5248TIP3    H115687   4.859   4.564   2.287
 5248TIP3    H215688   4.814   4.439   2.359
 5249TIP3   OH215689   0.237   2.171   2.059
 5249TIP3    H115690   0.225   2.265   2.047
 5249TIP3    H215691   0.207   2.155   2.148
 5250TIP3   OH215692   6.141   2.397   1.036
 5250TIP3    H115693   6.101   2.483   1.028
 5250TIP3    H215694   6.099   2.344   0.968
 5251TIP3   OH215695   7.956   5.921   4.709
 5251TIP3    H115696   8.024   5.977   4.746
 5251TIP3    H215697   7.897   5.903   4.782
 5252TIP3   OH215698   2.417   1.638   5.667
 5252TIP3    H115699   2.421   1.718   5.614
 5252TIP3    H215700   2.503   1.596   5.655
 5253TIP3   OH215701   2.243   6.021   4.238
 5253TIP3    H115702   2.295   6.046   4.315
 5253TIP3    H215703   2.299   6.043   4.164
 5254TIP3   OH215704   4.342   2.508   1.361
 5254TIP3    H115705   4.314   2.588   1.315
 5254TIP3    H215706   4.434   2.523   1.380
 5255TIP3   OH215707   6.932   4.711   2.173
 5255TIP3    H115708   6.916   4.624   2.208
 5255TIP3    H215709   6.896   4.708   2.084
 5256TIP3   OH215710   1.380   0.904   5.611
 5256TIP3    H115711   1.375   0.944   5.698
 5256TIP3    H215712   1.377   0.810   5.628
 5257TIP3   OH215713   5.166   4.765   5.041
 5257TIP3    H115714   5.131   4.757   4.953
 5257TIP3    H215715   5.097   4.810   5.090
 5258TIP3   OH215716   4.355   0.827   1.796
 5258TIP3    H115717   4.448   0.822   1.817
 5258TIP3    H215718   4.352   0.844   1.702
 5259TIP3   OH215719   1.029   2.236   4.367
 5259TIP3    H115720   1.037   2.298   4.439
 5259TIP3    H215721   1.082   2.161   4.394
 5260TIP3   OH215722   1.767   7.774   6.175
 5260TIP3    H115723   1.694   7.780   6.236
 5260TIP3    H215724   1.742   7.831   6.102
 5261TIP3   OH215725   6.380   5.180   5.965
 5261TIP3    H115726   6.411   5.139   5.884
 5261TIP3    H215727   6.383   5.110   6.030
 5262TIP3   OH215728   6.181   2.643   3.157
 5262TIP3    H115729   6.195   2.615   3.067
 5262TIP3    H215730   6.111   2.708   3.151
 5263TIP3   OH215731   4.292   2.116   3.699
 5263TIP3    H115732   4.326   2.205   3.705
 5263TIP3    H215733   4.198   2.127   3.687
 5264TIP3   OH215734   1.274   2.754   1.909
 5264TIP3    H115735   1.248   2.665   1.886
 5264TIP3    H215736   1.192   2.801   1.919
 5265TIP3   OH215737   6.399   6.821   3.810
 5265TIP3    H115738   6.458   6.826   3.885
 5265TIP3    H215739   6.314   6.847   3.845
 5266TIP3   OH215740   0.901   7.177   5.329
 5266TIP3    H115741   0.871   7.097   5.284
 5266TIP3    H215742   0.982   7.201   5.284
 5267TIP3   OH215743   2.160   1.650   0.862
 5267TIP3    H115744   2.152   1.683   0.952
 5267TIP3    H215745   2.238   1.595   0.863
 5268TIP3   OH215746   5.027   4.487   0.594
 5268TIP3    H115747   5.105   4.467   0.646
 5268TIP3    H215748   4.983   4.557   0.643
 5269TIP3   OH215749   7.189   0.996   6.592
 5269TIP3    H115750   7.222   1.078   6.557
 5269TIP3    H215751   7.252   0.972   6.660
 5270TIP3   OH215752   7.871   1.017   1.113
 5270TIP3    H115753   7.869   1.017   1.208
 5270TIP3    H215754   7.829   0.934   1.088
 5271TIP3   OH215755   3.383   1.708   4.618
 5271TIP3    H115756   3.414   1.747   4.536
 5271TIP3    H215757   3.449   1.731   4.683
 5272TIP3   OH215758   0.939   7.275   3.263
 5272TIP3    H115759   1.003   7.324   3.212
 5272TIP3    H215760   0.944   7.313   3.351
 5273TIP3   OH215761   3.949   2.602   5.131
 5273TIP3    H115762   3.980   2.691   5.149
 5273TIP3    H215763   4.021   2.561   5.083
 5274TIP3   OH215764   0.369   5.016   3.081
 5274TIP3    H115765   0.397   4.941   3.028
 5274TIP3    H215766   0.292   4.984   3.129
 5275TIP3   OH215767   6.417   7.493   2.090
 5275TIP3    H115768   6.406   7.588   2.093
 5275TIP3    H215769   6.382   7.462   2.173
 5276TIP3   OH215770   7.814   5.166   0.583
 5276TIP3    H115771   7.809   5.262   0.588
 5276TIP3    H215772   7.733   5.140   0.540
 5277TIP3   OH215773   2.215   2.111   5.189
 5277TIP3    H115774   2.258   2.109   5.274
 5277TIP3    H215775   2.138   2.055   5.199
 5278TIP3   OH215776   4.599   4.748   1.619
 5278TIP3    H115777   4.619   4.658   1.596
 5278TIP3    H215778   4.516   4.767   1.576
 5279TIP3   OH215779   0.458   3.554   1.454
 5279TIP3    H115780   0.405   3.587   1.526
 5279TIP3    H215781   0.545   3.592   1.468
 5280TIP3   OH215782   5.412   3.971   1.805
 5280TIP3    H115783   5.405   4.027   1.883
 5280TIP3    H215784   5.377   4.024   1.734
 5281TIP3   OH215785   2.301   6.478   5.795
 5281TIP3    H115786   2.297   6.565   5.756
 5281TIP3    H215787   2.280   6.492   5.887
 5282TIP3   OH215788   4.450   5.372   0.285
 5282TIP3    H115789   4.364   5.330   0.278
 5282TIP3    H215790   4.511   5.307   0.250
 5283TIP3   OH215791   2.370   1.077   2.049
 5283TIP3    H115792   2.372   0.984   2.071
 5283TIP3    H215793   2.365   1.079   1.953
 5284TIP3   OH215794   5.451   4.647   0.617
 5284TIP3    H115795   5.356   4.654   0.626
 5284TIP3    H215796   5.476   4.581   0.682
 5285TIP3   OH215797   2.713   3.907   2.728
 5285TIP3    H115798   2.691   3.995   2.697
 5285TIP3    H215799   2.749   3.863   2.651
 5286TIP3   OH215800   2.064   7.318   6.105
 5286TIP3    H115801   2.013   7.323   6.024
 5286TIP3    H215802   2.128   7.388   6.097
 5287TIP3   OH215803   3.733   1.571   1.248
 5287TIP3    H115804   3.793   1.521   1.302
 5287TIP3    H215805   3.774   1.658   1.242
 5288TIP3   OH215806   6.850   6.493   2.660
 5288TIP3    H115807   6.860   6.508   2.754
 5288TIP3    H215808   6.769   6.444   2.652
 5289TIP3   OH215809   6.330   0.960   0.845
 5289TIP3    H115810   6.382   0.988   0.770
 5289TIP3    H215811   6.351   0.867   0.855
 5290TIP3   OH215812   0.370   3.479   3.671
 5290TIP3    H115813   0.443   3.465   3.731
 5290TIP3    H215814   0.320   3.551   3.711
 5291TIP3   OH215815   2.258   2.305   3.899
 5291TIP3    H115816   2.282   2.358   3.975
 5291TIP3    H215817   2.333   2.249   3.883
 5292TIP3   OH215818   5.584   0.451   5.473
 5292TIP3    H115819   5.615   0.521   5.415
 5292TIP3    H215820   5.654   0.385   5.469
 5293TIP3   OH215821   2.437   6.984   4.894
 5293TIP3    H115822   2.439   6.986   4.990
 5293TIP3    H215823   2.345   6.997   4.871
 5294TIP3   OH215824   5.310   2.249   4.851
 5294TIP3    H115825   5.236   2.244   4.911
 5294TIP3    H215826   5.318   2.342   4.829
 5295TIP3   OH215827   1.332   0.384   5.635
 5295TIP3    H115828   1.336   0.358   5.543
 5295TIP3    H215829   1.413   0.351   5.674
 5296TIP3   OH215830   3.598   4.827   0.191
 5296TIP3    H115831   3.621   4.765   0.121
 5296TIP3    H215832   3.589   4.911   0.147
 5297TIP3   OH215833   1.498   2.929   1.158
 5297TIP3    H115834   1.494   2.940   1.063
 5297TIP3    H215835   1.448   2.850   1.176
 5298TIP3   OH215836   7.330   7.430   4.606
 5298TIP3    H115837   7.292   7.342   4.602
 5298TIP3    H215838   7.260   7.488   4.576
 5299TIP3   OH215839   1.386   5.756   4.052
 5299TIP3    H115840   1.328   5.831   4.034
 5299TIP3    H215841   1.370   5.735   4.144
 5300TIP3   OH215842   6.522   2.285   0.252
 5300TIP3    H115843   6.557   2.373   0.267
 5300TIP3    H215844   6.458   2.273   0.322
 5301TIP3   OH215845   1.596   0.888   0.502
 5301TIP3    H115846   1.608   0.794   0.489
 5301TIP3    H215847   1.646   0.929   0.431
 5302TIP3   OH215848   5.633   1.654   1.880
 5302TIP3    H115849   5.603   1.691   1.963
 5302TIP3    H215850   5.630   1.559   1.893
 5303TIP3   OH215851   6.115   0.063   3.893
 5303TIP3    H115852   6.192   0.117   3.913
 5303TIP3    H215853   6.127  -0.016   3.945
 5304TIP3   OH215854   2.434   4.458   5.334
 5304TIP3    H115855   2.419   4.470   5.241
 5304TIP3    H215856   2.354   4.413   5.365
 5305TIP3   OH215857   3.876   6.627   4.306
 5305TIP3    H115858   3.868   6.680   4.227
 5305TIP3    H215859   3.824   6.674   4.371
 5306TIP3   OH215860   7.045   6.031   5.936
 5306TIP3    H115861   7.030   5.937   5.930
 5306TIP3    H215862   7.080   6.055   5.850
 5307TIP3   OH215863   3.764   5.720   6.003
 5307TIP3    H115864   3.704   5.663   5.956
 5307TIP3    H215865   3.851   5.685   5.984
 5308TIP3   OH215866   6.073   1.945   1.725
 5308TIP3    H115867   6.008   1.876   1.737
 5308TIP3    H215868   6.031   2.007   1.665
 5309TIP3   OH215869   3.470   0.742   6.587
 5309TIP3    H115870   3.427   0.750   6.502
 5309TIP3    H215871   3.555   0.701   6.566
 5310TIP3   OH215872   5.487   2.465   4.423
 5310TIP3    H115873   5.403   2.420   4.427
 5310TIP3    H215874   5.544   2.414   4.481
 5311TIP3   OH215875   4.136   4.505   2.522
 5311TIP3    H115876   4.157   4.422   2.480
 5311TIP3    H215877   4.046   4.524   2.495
 5312TIP3   OH215878   4.181   5.373   2.768
 5312TIP3    H115879   4.178   5.379   2.673
 5312TIP3    H215880   4.096   5.338   2.793
 5313TIP3   OH215881   5.285   6.699   2.209
 5313TIP3    H115882   5.285   6.622   2.266
 5313TIP3    H215883   5.248   6.667   2.126
 5314TIP3   OH215884   4.795   4.809   0.380
 5314TIP3    H115885   4.861   4.855   0.329
 5314TIP3    H215886   4.842   4.772   0.454
 5315TIP3   OH215887   4.370   3.829   2.508
 5315TIP3    H115888   4.347   3.921   2.518
 5315TIP3    H215889   4.329   3.785   2.583
 5316TIP3   OH215890   6.513   7.331   2.667
 5316TIP3    H115891   6.478   7.398   2.727
 5316TIP3    H215892   6.539   7.379   2.589
 5317TIP3   OH215893   1.937   4.835   2.979
 5317TIP3    H115894   1.940   4.843   3.074
 5317TIP3    H215895   1.928   4.741   2.963
 5318TIP3   OH215896   1.059   7.117   0.832
 5318TIP3    H115897   0.978   7.153   0.870
 5318TIP3    H215898   1.082   7.044   0.889
 5319TIP3   OH215899   1.979   5.400   5.766
 5319TIP3    H115900   1.895   5.445   5.773
 5319TIP3    H215901   2.038   5.466   5.729
 5320TIP3   OH215902   0.046   3.277   0.779
 5320TIP3    H115903  -0.048   3.272   0.766
 5320TIP3    H215904   0.074   3.186   0.787
 5321TIP3   OH215905   0.270   0.980   6.529
 5321TIP3    H115906   0.259   0.900   6.580
 5321TIP3    H215907   0.229   1.048   6.583
 5322TIP3   OH215908   3.209   1.229   3.948
 5322TIP3    H115909   3.244   1.318   3.944
 5322TIP3    H215910   3.254   1.182   3.877
 5323TIP3   OH215911   1.132   1.156   2.793
 5323TIP3    H115912   1.100   1.070   2.764
 5323TIP3    H215913   1.057   1.214   2.782
 5324TIP3   OH215914   1.319   5.859   5.842
 5324TIP3    H115915   1.332   5.941   5.794
 5324TIP3    H215916   1.249   5.814   5.796
 5325TIP3   OH215917   4.139   1.256   3.864
 5325TIP3    H115918   4.180   1.323   3.809
 5325TIP3    H215919   4.045   1.267   3.849
 5326TIP3   OH215920   7.889   0.212   3.414
 5326TIP3    H115921   7.798   0.182   3.422
 5326TIP3    H215922   7.904   0.267   3.490
 5327TIP3   OH215923   5.112   1.007   2.269
 5327TIP3    H115924   5.018   1.022   2.280
 5327TIP3    H215925   5.118   0.931   2.212
 5328TIP3   OH215926   0.313   2.637   0.779
 5328TIP3    H115927   0.370   2.687   0.837
 5328TIP3    H215928   0.321   2.547   0.810
 5329TIP3   OH215929   1.239   6.311   3.735
 5329TIP3    H115930   1.281   6.364   3.803
 5329TIP3    H215931   1.165   6.363   3.706
 5330TIP3   OH215932   5.799   3.954   1.090
 5330TIP3    H115933   5.769   4.003   1.014
 5330TIP3    H215934   5.847   4.018   1.142
 5331TIP3   OH215935   4.637   3.767   4.048
 5331TIP3    H115936   4.706   3.715   4.088
 5331TIP3    H215937   4.683   3.836   4.001
 5332TIP3   OH215938   3.520   5.586   5.412
 5332TIP3    H115939   3.499   5.654   5.348
 5332TIP3    H215940   3.589   5.535   5.370
 5333TIP3   OH215941   4.772   3.176   5.516
 5333TIP3    H115942   4.784   3.270   5.531
 5333TIP3    H215943   4.713   3.149   5.587
 5334TIP3   OH215944   3.085   3.233   4.669
 5334TIP3    H115945   3.000   3.194   4.690
 5334TIP3    H215946   3.128   3.168   4.612
 5335TIP3   OH215947   7.139   4.738   6.090
 5335TIP3    H115948   7.225   4.762   6.124
 5335TIP3    H215949   7.156   4.661   6.036
 5336TIP3   OH215950   5.992   6.172   4.935
 5336TIP3    H115951   5.981   6.188   5.029
 5336TIP3    H215952   6.082   6.198   4.917
 5337TIP3   OH215953   0.443   6.893   3.382
 5337TIP3    H115954   0.492   6.822   3.423
 5337TIP3    H215955   0.371   6.849   3.337
 5338TIP3   OH215956   5.885   0.399   4.042
 5338TIP3    H115957   5.805   0.351   4.061
 5338TIP3    H215958   5.955   0.346   4.080
 5339TIP3   OH215959   0.358   1.926   1.274
 5339TIP3    H115960   0.450   1.933   1.252
 5339TIP3    H215961   0.356   1.877   1.356
 5340TIP3   OH215962   5.092   1.146   5.881
 5340TIP3    H115963   5.045   1.070   5.847
 5340TIP3    H215964   5.024   1.200   5.921
 5341TIP3   OH215965   1.816   0.858   3.805
 5341TIP3    H115966   1.788   0.770   3.782
 5341TIP3    H215967   1.911   0.858   3.792
 5342TIP3   OH215968   5.550   5.715   4.382
 5342TIP3    H115969   5.479   5.668   4.339
 5342TIP3    H215970   5.506   5.776   4.443
 5343TIP3   OH215971   1.539   6.364   4.329
 5343TIP3    H115972   1.615   6.310   4.350
 5343TIP3    H215973   1.525   6.350   4.235
 5344TIP3   OH215974   4.555   6.313   6.653
 5344TIP3    H115975   4.546   6.380   6.721
 5344TIP3    H215976   4.519   6.355   6.574
 5345TIP3   OH215977   3.260   6.945   6.215
 5345TIP3    H115978   3.287   6.964   6.305
 5345TIP3    H215979   3.340   6.914   6.171
 5346TIP3   OH215980   4.970   7.758   5.278
 5346TIP3    H115981   4.939   7.848   5.266
 5346TIP3    H215982   4.905   7.718   5.336
 5347TIP3   OH215983   5.262   2.618   3.135
 5347TIP3    H115984   5.176   2.576   3.140
 5347TIP3    H215985   5.274   2.636   3.041
 5348TIP3   OH215986   7.082   6.833   0.251
 5348TIP3    H115987   7.022   6.892   0.296
 5348TIP3    H215988   7.099   6.763   0.314
 5349TIP3   OH215989   5.699   1.808   0.870
 5349TIP3    H115990   5.783   1.853   0.867
 5349TIP3    H215991   5.663   1.818   0.782
 5350TIP3   OH215992   2.530   6.619   6.028
 5350TIP3    H115993   2.565   6.565   5.957
 5350TIP3    H215994   2.435   6.605   6.023
 5351TIP3   OH215995   4.085   7.191   6.506
 5351TIP3    H115996   4.174   7.214   6.482
 5351TIP3    H215997   4.033   7.268   6.480
 5352TIP3   OH215998   7.267   5.003   2.275
 5352TIP3    H115999   7.311   4.959   2.348
 5352TIP3    H216000   7.308   5.088   2.269
 5353TIP3   OH216001   3.783   3.108   2.966
 5353TIP3    H116002   3.833   3.186   2.942
 5353TIP3    H216003   3.843   3.036   2.951
 5354TIP3   OH216004   7.683   0.619   4.948
 5354TIP3    H116005   7.619   0.618   5.020
 5354TIP3    H216006   7.653   0.550   4.889
 5355TIP3   OH216007   7.208   6.458   0.152
 5355TIP3    H116008   7.132   6.437   0.207
 5355TIP3    H216009   7.242   6.539   0.188
 5356TIP3   OH216010   5.093   2.688   5.417
 5356TIP3    H116011   5.045   2.753   5.367
 5356TIP3    H216012   5.181   2.687   5.378
 5357TIP3   OH216013   4.469   7.023   5.002
 5357TIP3    H116014   4.402   7.065   5.056
 5357TIP3    H216015   4.438   6.934   4.990
 5358TIP3   OH216016   2.227   4.318   0.662
 5358TIP3    H116017   2.211   4.396   0.716
 5358TIP3    H216018   2.312   4.333   0.622
 5359TIP3   OH216019   6.824   1.144   4.480
 5359TIP3    H116020   6.740   1.136   4.525
 5359TIP3    H216021   6.805   1.121   4.389
 5360TIP3   OH216022   6.998   7.662   3.613
 5360TIP3    H116023   6.923   7.646   3.670
 5360TIP3    H216024   6.963   7.715   3.541
 5361TIP3   OH216025   5.290   3.347   0.474
 5361TIP3    H116026   5.338   3.305   0.545
 5361TIP3    H216027   5.234   3.411   0.518
 5362TIP3   OH216028   1.383   6.868   0.793
 5362TIP3    H116029   1.408   6.921   0.869
 5362TIP3    H216030   1.426   6.911   0.719
 5363TIP3   OH216031   5.680   1.807   4.079
 5363TIP3    H116032   5.724   1.842   4.002
 5363TIP3    H216033   5.634   1.729   4.047
 5364TIP3   OH216034   2.938   7.685   6.020
 5364TIP3    H116035   3.029   7.664   6.041
 5364TIP3    H216036   2.921   7.639   5.937
 5365TIP3   OH216037   3.528   4.974   6.248
 5365TIP3    H116038   3.473   4.910   6.293
 5365TIP3    H216039   3.611   4.928   6.233
 5366TIP3   OH216040   2.616   2.672   6.315
 5366TIP3    H116041   2.586   2.753   6.273
 5366TIP3    H216042   2.702   2.695   6.351
 5367TIP3   OH216043   2.311   6.656   1.477
 5367TIP3    H116044   2.258   6.658   1.557
 5367TIP3    H216045   2.247   6.650   1.406
 5368TIP3   OH216046   8.181   0.256   4.351
 5368TIP3    H116047   8.182   0.337   4.401
 5368TIP3    H216048   8.267   0.252   4.310
 5369TIP3   OH216049   1.048   7.283   6.166
 5369TIP3    H116050   1.108   7.209   6.157
 5369TIP3    H216051   1.103   7.355   6.196
 5370TIP3   OH216052   4.820   5.863   6.375
 5370TIP3    H116053   4.870   5.895   6.300
 5370TIP3    H216054   4.753   5.931   6.388
 5371TIP3   OH216055   4.096   4.238   2.259
 5371TIP3    H116056   4.141   4.222   2.177
 5371TIP3    H216057   4.165   4.270   2.318
 5372TIP3   OH216058   6.682   5.393   0.467
 5372TIP3    H116059   6.738   5.453   0.515
 5372TIP3    H216060   6.714   5.397   0.377
 5373TIP3   OH216061   4.210   4.995   4.599
 5373TIP3    H116062   4.144   4.951   4.545
 5373TIP3    H216063   4.185   4.973   4.689
 5374TIP3   OH216064   1.916   3.738   1.099
 5374TIP3    H116065   1.989   3.685   1.131
 5374TIP3    H216066   1.842   3.677   1.093
 5375TIP3   OH216067   1.214   7.113   3.593
 5375TIP3    H116068   1.219   7.185   3.530
 5375TIP3    H216069   1.154   7.051   3.553
 5376TIP3   OH216070   2.597   4.065   4.038
 5376TIP3    H116071   2.569   4.023   3.957
 5376TIP3    H216072   2.543   4.144   4.043
 5377TIP3   OH216073   7.919   4.525   5.501
 5377TIP3    H116074   7.912   4.507   5.594
 5377TIP3    H216075   7.867   4.457   5.459
 5378TIP3   OH216076   5.253   3.987   1.364
 5378TIP3    H116077   5.175   4.036   1.337
 5378TIP3    H216078   5.311   3.991   1.287
 5379TIP3   OH216079   3.263   4.959   2.157
 5379TIP3    H116080   3.198   5.020   2.190
 5379TIP3    H216081   3.239   4.874   2.195
 5380TIP3   OH216082   5.588   5.205   4.805
 5380TIP3    H116083   5.504   5.234   4.769
 5380TIP3    H216084   5.635   5.168   4.730
 5381TIP3   OH216085   3.891   3.251   0.184
 5381TIP3    H116086   3.885   3.346   0.188
 5381TIP3    H216087   3.971   3.234   0.133
 5382TIP3   OH216088   7.956   6.655   0.889
 5382TIP3    H116089   7.986   6.745   0.898
 5382TIP3    H216090   7.866   6.663   0.858
 5383TIP3   OH216091   5.202   6.247   0.537
 5383TIP3    H116092   5.216   6.170   0.483
 5383TIP3    H216093   5.134   6.297   0.491
 5384TIP3   OH216094   3.207   1.469   0.729
 5384TIP3    H116095   3.215   1.557   0.766
 5384TIP3    H216096   3.250   1.475   0.644
 5385TIP3   OH216097   5.890   1.868   3.913
 5385TIP3    H116098   5.844   1.841   3.833
 5385TIP3    H216099   5.953   1.798   3.930
 5386TIP3   OH216100   1.555   2.802   3.038
 5386TIP3    H116101   1.602   2.718   3.037
 5386TIP3    H216102   1.557   2.832   2.947
 5387TIP3   OH216103   3.864   0.299   2.046
 5387TIP3    H116104   3.774   0.280   2.020
 5387TIP3    H216105   3.899   0.215   2.077
 5388TIP3   OH216106   0.342   1.448   5.301
 5388TIP3    H116107   0.391   1.488   5.229
 5388TIP3    H216108   0.251   1.467   5.282
 5389TIP3   OH216109   7.364   2.118   2.878
 5389TIP3    H116110   7.278   2.084   2.853
 5389TIP3    H216111   7.345   2.196   2.930
 5390TIP3   OH216112   7.005   0.653   4.113
 5390TIP3    H116113   7.041   0.723   4.058
 5390TIP3    H216114   7.058   0.577   4.091
 5391TIP3   OH216115   7.213   5.728   3.655
 5391TIP3    H116116   7.278   5.779   3.703
 5391TIP3    H216117   7.250   5.639   3.651
 5392TIP3   OH216118   4.196   4.373   3.391
 5392TIP3    H116119   4.239   4.309   3.448
 5392TIP3    H216120   4.115   4.329   3.363
 5393TIP3   OH216121   4.310   0.233   1.198
 5393TIP3    H116122   4.236   0.289   1.224
 5393TIP3    H216123   4.358   0.219   1.280
 5394TIP3   OH216124   4.701   5.015   4.172
 5394TIP3    H116125   4.619   4.973   4.145
 5394TIP3    H216126   4.690   5.107   4.148
 5395TIP3   OH216127   6.333   0.281   5.967
 5395TIP3    H116128   6.311   0.340   5.895
 5395TIP3    H216129   6.340   0.338   6.044
 5396TIP3   OH216130   1.605   5.074   4.395
 5396TIP3    H116131   1.532   5.013   4.387
 5396TIP3    H216132   1.683   5.019   4.391
 5397TIP3   OH216133   0.783   1.435   4.415
 5397TIP3    H116134   0.821   1.351   4.442
 5397TIP3    H216135   0.828   1.456   4.333
 5398TIP3   OH216136   3.986   0.648   5.606
 5398TIP3    H116137   3.930   0.581   5.646
 5398TIP3    H216138   3.924   0.708   5.564
 5399TIP3   OH216139   7.101   4.059   5.093
 5399TIP3    H116140   7.060   4.064   5.179
 5399TIP3    H216141   7.029   4.061   5.031
 5400TIP3   OH216142   6.068   6.544   2.977
 5400TIP3    H116143   6.037   6.631   3.001
 5400TIP3    H216144   6.122   6.516   3.051
 5401TIP3   OH216145   4.683   6.133   0.451
 5401TIP3    H116146   4.688   6.225   0.426
 5401TIP3    H216147   4.604   6.101   0.406
 5402TIP3   OH216148   1.633   6.327   5.754
 5402TIP3    H116149   1.718   6.354   5.720
 5402TIP3    H216150   1.621   6.238   5.720
 5403TIP3   OH216151   7.869   4.604   3.613
 5403TIP3    H116152   7.890   4.696   3.628
 5403TIP3    H216153   7.954   4.561   3.607
 5404TIP3   OH216154   5.271   4.555   4.345
 5404TIP3    H116155   5.219   4.547   4.424
 5404TIP3    H216156   5.281   4.465   4.314
 5405TIP3   OH216157   2.051   1.106   2.352
 5405TIP3    H116158   2.129   1.127   2.301
 5405TIP3    H216159   2.054   1.165   2.427
 5406TIP3   OH216160   2.683   4.289   1.672
 5406TIP3    H116161   2.608   4.307   1.728
 5406TIP3    H216162   2.645   4.262   1.588
 5407TIP3   OH216163   5.704   1.938   1.624
 5407TIP3    H116164   5.788   1.975   1.599
 5407TIP3    H216165   5.639   1.998   1.588
 5408TIP3   OH216166   6.440   4.251   5.442
 5408TIP3    H116167   6.495   4.218   5.371
 5408TIP3    H216168   6.391   4.175   5.473
 5409TIP3   OH216169   5.360   1.058   0.412
 5409TIP3    H116170   5.355   1.064   0.317
 5409TIP3    H216171   5.300   1.126   0.444
 5410TIP3   OH216172   3.357   3.819   4.052
 5410TIP3    H116173   3.442   3.778   4.068
 5410TIP3    H216174   3.297   3.773   4.112
 5411TIP3   OH216175   7.863   4.621   4.402
 5411TIP3    H116176   7.867   4.701   4.351
 5411TIP3    H216177   7.832   4.649   4.489
 5412TIP3   OH216178   1.945   4.318   5.461
 5412TIP3    H116179   1.890   4.394   5.442
 5412TIP3    H216180   1.956   4.275   5.376
 5413TIP3   OH216181   0.085   0.459   0.136
 5413TIP3    H116182   0.025   0.431   0.067
 5413TIP3    H216183   0.049   0.542   0.168
 5414TIP3   OH216184   4.172   5.284   4.647
 5414TIP3    H116185   4.191   5.193   4.626
 5414TIP3    H216186   4.155   5.324   4.562
 5415TIP3   OH216187   6.179   6.887   0.374
 5415TIP3    H116188   6.237   6.815   0.398
 5415TIP3    H216189   6.177   6.886   0.278
 5416TIP3   OH216190   3.998   7.680   1.366
 5416TIP3    H116191   3.971   7.764   1.332
 5416TIP3    H216192   4.079   7.698   1.415
 5417TIP3   OH216193   0.189   4.167   3.577
 5417TIP3    H116194   0.150   4.091   3.534
 5417TIP3    H216195   0.245   4.206   3.510
 5418TIP3   OH216196   6.428   6.204   6.585
 5418TIP3    H116197   6.422   6.182   6.492
 5418TIP3    H216198   6.416   6.299   6.587
 5419TIP3   OH216199   7.724   5.108   5.461
 5419TIP3    H116200   7.678   5.062   5.391
 5419TIP3    H216201   7.669   5.096   5.539
 5420TIP3   OH216202   0.402   2.152   0.923
 5420TIP3    H116203   0.347   2.085   0.963
 5420TIP3    H216204   0.394   2.137   0.829
 5421TIP3   OH216205   2.959   7.497   0.972
 5421TIP3    H116206   2.953   7.572   1.030
 5421TIP3    H216207   3.018   7.436   1.017
 5422TIP3   OH216208   6.987   1.039   2.654
 5422TIP3    H116209   6.967   0.999   2.569
 5422TIP3    H216210   7.082   1.038   2.659
 5423TIP3   OH216211   8.283   4.976   3.044
 5423TIP3    H116212   8.207   5.007   3.094
 5423TIP3    H216213   8.248   4.905   2.990
 5424TIP3   OH216214   7.080   5.344   0.103
 5424TIP3    H116215   7.141   5.329   0.031
 5424TIP3    H216216   7.072   5.440   0.108
 5425TIP3   OH216217   1.492   4.044   5.052
 5425TIP3    H116218   1.453   3.957   5.068
 5425TIP3    H216219   1.531   4.068   5.136
 5426TIP3   OH216220   1.293   3.277   6.256
 5426TIP3    H116221   1.381   3.297   6.288
 5426TIP3    H216222   1.279   3.185   6.279
 5427TIP3   OH216223   4.064   4.861   0.455
 5427TIP3    H116224   4.020   4.830   0.534
 5427TIP3    H216225   4.146   4.812   0.453
 5428TIP3   OH216226   5.158   4.814   0.551
 5428TIP3    H116227   5.169   4.909   0.553
 5428TIP3    H216228   5.064   4.800   0.565
 5429TIP3   OH216229   2.868   7.091   0.853
 5429TIP3    H116230   2.939   7.045   0.898
 5429TIP3    H216231   2.788   7.050   0.885
 5430TIP3   OH216232   0.147   3.917   1.714
 5430TIP3    H116233   0.161   3.930   1.620
 5430TIP3    H216234   0.056   3.890   1.722
 5431TIP3   OH216235   0.889   6.035   6.347
 5431TIP3    H116236   0.948   5.998   6.413
 5431TIP3    H216237   0.856   5.959   6.300
 5432TIP3   OH216238   8.247   6.308   0.414
 5432TIP3    H116239   8.279   6.246   0.480
 5432TIP3    H216240   8.326   6.353   0.384
 5433TIP3   OH216241   2.864   1.464   2.083
 5433TIP3    H116242   2.832   1.543   2.126
 5433TIP3    H216243   2.958   1.465   2.096
 5434TIP3   OH216244   4.877   6.949   3.804
 5434TIP3    H116245   4.829   6.899   3.739
 5434TIP3    H216246   4.969   6.931   3.785
 5435TIP3   OH216247   0.712   4.461   5.962
 5435TIP3    H116248   0.798   4.454   6.003
 5435TIP3    H216249   0.728   4.445   5.869
 5436TIP3   OH216250   2.615   1.638   2.833
 5436TIP3    H116251   2.595   1.591   2.752
 5436TIP3    H216252   2.530   1.650   2.875
 5437TIP3   OH216253   5.795   2.587   4.053
 5437TIP3    H116254   5.812   2.493   4.057
 5437TIP3    H216255   5.755   2.600   3.967
 5438TIP3   OH216256   2.847   1.512   1.476
 5438TIP3    H116257   2.897   1.516   1.557
 5438TIP3    H216258   2.873   1.430   1.434
 5439TIP3   OH216259   4.630   7.552   6.734
 5439TIP3    H116260   4.630   7.458   6.715
 5439TIP3    H216261   4.556   7.587   6.684
 5440TIP3   OH216262   2.005   6.312   4.992
 5440TIP3    H116263   2.063   6.331   4.918
 5440TIP3    H216264   2.055   6.340   5.069
 5441TIP3   OH216265   3.719   2.912   0.924
 5441TIP3    H116266   3.763   2.839   0.966
 5441TIP3    H216267   3.660   2.947   0.991
 5442TIP3   OH216268   4.028   3.233   4.380
 5442TIP3    H116269   4.097   3.171   4.355
 5442TIP3    H216270   4.073   3.316   4.390
 5443TIP3   OH216271   2.219   5.585   4.454
 5443TIP3    H116272   2.216   5.597   4.549
 5443TIP3    H216273   2.305   5.544   4.438
 5444TIP3   OH216274   7.202   0.049   4.419
 5444TIP3    H116275   7.272   0.103   4.383
 5444TIP3    H216276   7.138   0.112   4.451
 5445TIP3   OH216277   7.336   6.516   3.942
 5445TIP3    H116278   7.421   6.474   3.943
 5445TIP3    H216279   7.356   6.610   3.951
 5446TIP3   OH216280   5.654   0.271   5.129
 5446TIP3    H116281   5.735   0.291   5.081
 5446TIP3    H216282   5.605   0.353   5.125
 5447TIP3   OH216283   3.380   3.392   2.459
 5447TIP3    H116284   3.414   3.401   2.370
 5447TIP3    H216285   3.454   3.417   2.515
 5448TIP3   OH216286   1.208   0.597   2.745
 5448TIP3    H116287   1.289   0.553   2.772
 5448TIP3    H216288   1.159   0.609   2.826
 5449TIP3   OH216289   2.612   0.351   2.599
 5449TIP3    H116290   2.529   0.361   2.646
 5449TIP3    H216291   2.599   0.273   2.545
 5450TIP3   OH216292   0.170   1.584   1.307
 5450TIP3    H116293   0.116   1.581   1.228
 5450TIP3    H216294   0.156   1.500   1.349
 5451TIP3   OH216295   2.571   0.642   4.130
 5451TIP3    H116296   2.628   0.708   4.170
 5451TIP3    H216297   2.602   0.559   4.166
 5452TIP3   OH216298   7.396   0.285   1.930
 5452TIP3    H116299   7.387   0.378   1.911
 5452TIP3    H216300   7.486   0.264   1.905
 5453TIP3   OH216301   6.507   1.315   2.212
 5453TIP3    H116302   6.576   1.319   2.145
 5453TIP3    H216303   6.552   1.280   2.289
 5454TIP3   OH216304   2.004   6.618   2.504
 5454TIP3    H116305   1.947   6.550   2.467
 5454TIP3    H216306   1.975   6.628   2.594
 5455TIP3   OH216307   0.278   3.654   5.102
 5455TIP3    H116308   0.319   3.634   5.017
 5455TIP3    H216309   0.204   3.593   5.108
 5456TIP3   OH216310   0.707   6.958   4.172
 5456TIP3    H116311   0.774   6.894   4.195
 5456TIP3    H216312   0.624   6.915   4.194
 5457TIP3   OH216313   8.053   2.004   3.952
 5457TIP3    H116314   8.011   2.037   4.031
 5457TIP3    H216315   8.139   1.974   3.981
 5458TIP3   OH216316   1.304   0.767   1.093
 5458TIP3    H116317   1.276   0.858   1.083
 5458TIP3    H216318   1.393   0.773   1.129
 5459TIP3   OH216319   2.249   6.874   5.948
 5459TIP3    H116320   2.177   6.936   5.942
 5459TIP3    H216321   2.317   6.921   5.996
 5460TIP3   OH216322   4.123   1.110   4.773
 5460TIP3    H116323   4.156   1.125   4.862
 5460TIP3    H216324   4.179   1.163   4.717
 5461TIP3   OH216325   2.852   4.505   6.188
 5461TIP3    H116326   2.897   4.589   6.193
 5461TIP3    H216327   2.833   4.482   6.279
 5462TIP3   OH216328   0.387   4.925   6.128
 5462TIP3    H116329   0.406   5.009   6.086
 5462TIP3    H216330   0.466   4.903   6.176
 5463TIP3   OH216331   4.737   4.847   4.596
 5463TIP3    H116332   4.648   4.882   4.594
 5463TIP3    H216333   4.756   4.824   4.505
 5464TIP3   OH216334   4.399   4.635   6.735
 5464TIP3    H116335   4.360   4.708   6.686
 5464TIP3    H216336   4.393   4.661   6.826
 5465TIP3   OH216337   4.669   0.812   6.193
 5465TIP3    H116338   4.601   0.831   6.258
 5465TIP3    H216339   4.748   0.852   6.229
 5466TIP3   OH216340   2.553   7.080   4.241
 5466TIP3    H116341   2.645   7.051   4.235
 5466TIP3    H216342   2.502   7.000   4.228
 5467TIP3   OH216343   1.207   3.655   2.244
 5467TIP3    H116344   1.230   3.690   2.330
 5467TIP3    H216345   1.242   3.718   2.181
 5468TIP3   OH216346   4.435   6.513   5.830
 5468TIP3    H116347   4.445   6.563   5.748
 5468TIP3    H216348   4.524   6.494   5.857
 5469TIP3   OH216349   2.149   0.164   1.449
 5469TIP3    H116350   2.203   0.103   1.501
 5469TIP3    H216351   2.068   0.116   1.434
 5470TIP3   OH216352   1.170   7.316   0.651
 5470TIP3    H116353   1.262   7.293   0.644
 5470TIP3    H216354   1.141   7.275   0.732
 5471TIP3   OH216355   1.263   5.558   0.941
 5471TIP3    H116356   1.292   5.639   0.900
 5471TIP3    H216357   1.221   5.509   0.870
 5472TIP3   OH216358   8.154   4.184   0.610
 5472TIP3    H116359   8.077   4.224   0.649
 5472TIP3    H216360   8.156   4.218   0.520
 5473TIP3   OH216361   6.423   7.361   3.724
 5473TIP3    H116362   6.503   7.375   3.775
 5473TIP3    H216363   6.445   7.289   3.665
 5474TIP3   OH216364   3.542   0.207   1.236
 5474TIP3    H116365   3.503   0.291   1.212
 5474TIP3    H216366   3.546   0.209   1.332
 5475TIP3   OH216367   5.351   2.037   0.633
 5475TIP3    H116368   5.285   2.105   0.647
 5475TIP3    H216369   5.425   2.064   0.687
 5476TIP3   OH216370   0.134   2.845   3.501
 5476TIP3    H116371   0.076   2.769   3.500
 5476TIP3    H216372   0.159   2.857   3.409
 5477TIP3   OH216373   7.789   0.231   3.897
 5477TIP3    H116374   7.869   0.199   3.937
 5477TIP3    H216375   7.764   0.307   3.948
 5478TIP3   OH216376   1.920   4.120   3.705
 5478TIP3    H116377   1.934   4.211   3.731
 5478TIP3    H216378   1.857   4.086   3.770
 5479TIP3   OH216379   4.188   3.353   0.294
 5479TIP3    H116380   4.145   3.298   0.360
 5479TIP3    H216381   4.212   3.292   0.225
 5480TIP3   OH216382   7.284   7.125   3.561
 5480TIP3    H116383   7.194   7.156   3.564
 5480TIP3    H216384   7.336   7.201   3.537
 5481TIP3   OH216385   6.614   5.013   2.930
 5481TIP3    H116386   6.607   5.073   3.004
 5481TIP3    H216387   6.658   4.936   2.965
 5482TIP3   OH216388   3.167   2.263   0.079
 5482TIP3    H116389   3.221   2.311   0.142
 5482TIP3    H216390   3.165   2.173   0.112
 5483TIP3   OH216391   8.111   4.705   5.052
 5483TIP3    H116392   8.204   4.715   5.074
 5483TIP3    H216393   8.084   4.628   5.102
 5484TIP3   OH216394   5.229   6.861   3.213
 5484TIP3    H116395   5.150   6.916   3.208
 5484TIP3    H216396   5.195   6.772   3.208
 5485TIP3   OH216397   1.618   3.014   6.604
 5485TIP3    H116398   1.528   3.015   6.636
 5485TIP3    H216399   1.625   2.932   6.556
 5486TIP3   OH216400   5.042   4.139   1.285
 5486TIP3    H116401   5.079   4.220   1.249
 5486TIP3    H216402   4.990   4.103   1.214
 5487TIP3   OH216403   3.111   4.541   0.065
 5487TIP3    H116404   3.099   4.591   0.146
 5487TIP3    H216405   3.146   4.457   0.093
 5488TIP3   OH216406   5.922   1.092   6.422
 5488TIP3    H116407   5.897   1.035   6.495
 5488TIP3    H216408   5.853   1.082   6.358
 5489TIP3   OH216409   1.495   3.378   3.814
 5489TIP3    H116410   1.446   3.347   3.738
 5489TIP3    H216411   1.585   3.387   3.784
 5490TIP3   OH216412   4.348   5.139   2.484
 5490TIP3    H116413   4.425   5.139   2.427
 5490TIP3    H216414   4.279   5.098   2.432
 5491TIP3   OH216415   1.093   0.197   3.947
 5491TIP3    H116416   1.127   0.111   3.924
 5491TIP3    H216417   1.168   0.256   3.941
 5492TIP3   OH216418   1.903   0.414   3.722
 5492TIP3    H116419   1.994   0.427   3.748
 5492TIP3    H216420   1.853   0.430   3.802
 5493TIP3   OH216421   0.592   2.291   6.332
 5493TIP3    H116422   0.639   2.361   6.377
 5493TIP3    H216423   0.604   2.214   6.387
 5494TIP3   OH216424   0.134   2.032   1.416
 5494TIP3    H116425   0.084   1.962   1.458
 5494TIP3    H216426   0.198   1.986   1.361
 5495TIP3   OH216427   6.520   5.530   4.401
 5495TIP3    H116428   6.443   5.474   4.414
 5495TIP3    H216429   6.557   5.502   4.318
 5496TIP3   OH216430   0.880   4.183   5.709
 5496TIP3    H116431   0.948   4.250   5.721
 5496TIP3    H216432   0.869   4.178   5.614
 5497TIP3   OH216433   4.793   2.829   3.032
 5497TIP3    H116434   4.771   2.901   2.973
 5497TIP3    H216435   4.728   2.835   3.102
 5498TIP3   OH216436   7.061   2.517   1.702
 5498TIP3    H116437   7.007   2.497   1.625
 5498TIP3    H216438   7.134   2.455   1.695
 5499TIP3   OH216439   0.527   4.127   6.060
 5499TIP3    H116440   0.567   4.093   5.980
 5499TIP3    H216441   0.522   4.052   6.119
 5500TIP3   OH216442   5.331   6.095   4.680
 5500TIP3    H116443   5.400   6.130   4.623
 5500TIP3    H216444   5.369   6.098   4.768
 5501TIP3   OH216445   7.108   3.182   1.368
 5501TIP3    H116446   7.013   3.184   1.365
 5501TIP3    H216447   7.136   3.250   1.307
 5502TIP3   OH216448   5.124   7.727   4.358
 5502TIP3    H116449   5.066   7.801   4.375
 5502TIP3    H216450   5.205   7.749   4.404
 5503TIP3   OH216451   3.818   3.643   4.166
 5503TIP3    H116452   3.891   3.584   4.187
 5503TIP3    H216453   3.794   3.682   4.250
 5504TIP3   OH216454   7.603   7.114   3.267
 5504TIP3    H116455   7.582   7.091   3.176
 5504TIP3    H216456   7.693   7.148   3.262
 5505TIP3   OH216457   0.132   3.863   6.588
 5505TIP3    H116458   0.099   3.948   6.615
 5505TIP3    H216459   0.059   3.803   6.605
 5506TIP3   OH216460   4.933   3.328   2.787
 5506TIP3    H116461   4.918   3.397   2.852
 5506TIP3    H216462   5.000   3.364   2.729
 5507TIP3   OH216463   3.988   6.862   1.621
 5507TIP3    H116464   4.074   6.824   1.602
 5507TIP3    H216465   3.958   6.896   1.537
 5508TIP3   OH216466   3.367   6.321   1.736
 5508TIP3    H116467   3.400   6.233   1.753
 5508TIP3    H216468   3.278   6.320   1.773
 5509TIP3   OH216469   7.760   2.514   5.834
 5509TIP3    H116470   7.801   2.600   5.847
 5509TIP3    H216471   7.812   2.454   5.889
 5510TIP3   OH216472   8.021   2.591   2.330
 5510TIP3    H116473   8.068   2.665   2.367
 5510TIP3    H216474   7.988   2.622   2.245
 5511TIP3   OH216475   8.173   4.699   6.613
 5511TIP3    H116476   8.225   4.688   6.533
 5511TIP3    H216477   8.089   4.733   6.581
 5512TIP3   OH216478   7.909   7.102   4.017
 5512TIP3    H116479   7.848   7.041   3.977
 5512TIP3    H216480   7.958   7.138   3.944
 5513TIP3   OH216481   2.922   4.094   6.705
 5513TIP3    H116482   2.965   4.178   6.725
 5513TIP3    H216483   2.934   4.041   6.783
 5514TIP3   OH216484   6.690   6.979   5.820
 5514TIP3    H116485   6.718   7.016   5.736
 5514TIP3    H216486   6.715   6.887   5.814
 5515TIP3   OH216487   6.598   7.168   5.466
 5515TIP3    H116488   6.651   7.236   5.426
 5515TIP3    H216489   6.524   7.214   5.505
 5516TIP3   OH216490   8.027   3.557   0.575
 5516TIP3    H116491   8.064   3.474   0.544
 5516TIP3    H216492   8.069   3.624   0.521
 5517TIP3   OH216493   1.762   5.643   4.970
 5517TIP3    H116494   1.811   5.670   5.047
 5517TIP3    H216495   1.757   5.722   4.916
 5518TIP3   OH216496   0.707   4.603   4.556
 5518TIP3    H116497   0.782   4.636   4.605
 5518TIP3    H216498   0.741   4.584   4.469
 5519TIP3   OH216499   6.768   2.701   6.315
 5519TIP3    H116500   6.785   2.791   6.289
 5519TIP3    H216501   6.718   2.708   6.396
 5520TIP3   OH216502   2.982   2.814   3.219
 5520TIP3    H116503   2.920   2.755   3.176
 5520TIP3    H216504   2.951   2.821   3.309
 5521TIP3   OH216505   6.965   6.601   4.224
 5521TIP3    H116506   7.044   6.636   4.263
 5521TIP3    H216507   6.899   6.669   4.236
 5522TIP3   OH216508   4.868   5.786   0.307
 5522TIP3    H116509   4.813   5.790   0.386
 5522TIP3    H216510   4.807   5.762   0.237
 5523TIP3   OH216511   4.783   3.615   1.196
 5523TIP3    H116512   4.791   3.543   1.134
 5523TIP3    H216513   4.847   3.596   1.264
 5524TIP3   OH216514   3.744   0.780   4.179
 5524TIP3    H116515   3.698   0.843   4.235
 5524TIP3    H216516   3.759   0.826   4.097
 5525TIP3   OH216517   7.684   4.880   2.169
 5525TIP3    H116518   7.686   4.845   2.258
 5525TIP3    H216519   7.636   4.963   2.176
 5526TIP3   OH216520   3.226   2.157   4.352
 5526TIP3    H116521   3.158   2.223   4.334
 5526TIP3    H216522   3.184   2.074   4.329
 5527TIP3   OH216523   2.576   3.726   6.547
 5527TIP3    H116524   2.520   3.747   6.472
 5527TIP3    H216525   2.612   3.811   6.574
 5528TIP3   OH216526   4.623   4.070   5.622
 5528TIP3    H116527   4.560   4.080   5.693
 5528TIP3    H216528   4.650   3.978   5.626
 5529TIP3   OH216529   3.126   4.252   0.102
 5529TIP3    H116530   3.159   4.200   0.028
 5529TIP3    H216531   3.185   4.231   0.174
 5530TIP3   OH216532   2.766   1.628   1.823
 5530TIP3    H116533   2.703   1.558   1.839
 5530TIP3    H216534   2.743   1.696   1.886
 5531TIP3   OH216535   0.597   5.426   5.699
 5531TIP3    H116536   0.516   5.389   5.665
 5531TIP3    H216537   0.627   5.363   5.765
 5532TIP3   OH216538   7.918   2.881   4.402
 5532TIP3    H116539   7.825   2.885   4.380
 5532TIP3    H216540   7.926   2.934   4.481
 5533TIP3   OH216541   4.881   2.037   2.265
 5533TIP3    H116542   4.861   1.944   2.277
 5533TIP3    H216543   4.975   2.040   2.250
 5534TIP3   OH216544   6.803   1.727   0.242
 5534TIP3    H116545   6.729   1.768   0.287
 5534TIP3    H216546   6.848   1.800   0.198
 5535TIP3   OH216547   7.124   4.732   0.570
 5535TIP3    H116548   7.112   4.669   0.499
 5535TIP3    H216549   7.152   4.680   0.645
 5536TIP3   OH216550   7.712   3.653   0.650
 5536TIP3    H116551   7.701   3.606   0.734
 5536TIP3    H216552   7.804   3.678   0.648
 5537TIP3   OH216553   6.331   3.380   2.268
 5537TIP3    H116554   6.334   3.324   2.191
 5537TIP3    H216555   6.240   3.375   2.297
 5538TIP3   OH216556   5.644   7.328   0.062
 5538TIP3    H116557   5.609   7.395   0.120
 5538TIP3    H216558   5.716   7.288   0.112
 5539TIP3   OH216559   1.284   4.576   4.906
 5539TIP3    H116560   1.380   4.583   4.902
 5539TIP3    H216561   1.266   4.487   4.876
 5540TIP3   OH216562   5.065   2.474   6.506
 5540TIP3    H116563   5.086   2.564   6.479
 5540TIP3    H216564   4.976   2.459   6.475
 5541TIP3   OH216565   3.712   5.628   6.621
 5541TIP3    H116566   3.671   5.561   6.676
 5541TIP3    H216567   3.802   5.600   6.611
 5542TIP3   OH216568   3.110   2.546   3.104
 5542TIP3    H116569   3.040   2.596   3.147
 5542TIP3    H216570   3.085   2.544   3.012
 5543TIP3   OH216571   1.851   6.925   6.078
 5543TIP3    H116572   1.795   6.905   6.002
 5543TIP3    H216573   1.840   7.019   6.092
 5544TIP3   OH216574   7.455   3.035   1.201
 5544TIP3    H116575   7.434   3.101   1.267
 5544TIP3    H216576   7.546   3.010   1.220
 5545TIP3   OH216577   0.702   3.446   0.461
 5545TIP3    H116578   0.722   3.436   0.554
 5545TIP3    H216579   0.649   3.525   0.456
 5546TIP3   OH216580   6.924   2.541   2.634
 5546TIP3    H116581   6.853   2.505   2.580
 5546TIP3    H216582   6.883   2.615   2.680
 5547TIP3   OH216583   8.215   3.977   5.444
 5547TIP3    H116584   8.179   3.997   5.531
 5547TIP3    H216585   8.155   4.020   5.383
 5548TIP3   OH216586   6.068   1.859   1.431
 5548TIP3    H116587   6.060   1.765   1.418
 5548TIP3    H216588   6.118   1.868   1.512
 5549TIP3   OH216589   7.481   1.883   1.324
 5549TIP3    H116590   7.398   1.838   1.308
 5549TIP3    H216591   7.533   1.866   1.246
 5550TIP3   OH216592   1.034   3.249   6.449
 5550TIP3    H116593   0.960   3.308   6.434
 5550TIP3    H216594   1.106   3.307   6.477
 5551TIP3   OH216595   7.911   1.154   0.321
 5551TIP3    H116596   7.931   1.102   0.399
 5551TIP3    H216597   7.979   1.130   0.258
 5552TIP3   OH216598   1.149   0.535   6.432
 5552TIP3    H116599   1.125   0.530   6.525
 5552TIP3    H216600   1.165   0.444   6.406
 5553TIP3   OH216601   8.025   5.657   3.666
 5553TIP3    H116602   7.940   5.701   3.661
 5553TIP3    H216603   8.055   5.671   3.756
 5554TIP3   OH216604   1.962   7.361   5.858
 5554TIP3    H116605   1.995   7.300   5.793
 5554TIP3    H216606   1.990   7.448   5.827
 5555TIP3   OH216607   5.042   5.625   4.101
 5555TIP3    H116608   5.004   5.672   4.175
 5555TIP3    H216609   5.079   5.546   4.139
 5556TIP3   OH216610   6.018   1.255   0.595
 5556TIP3    H116611   6.085   1.253   0.663
 5556TIP3    H216612   6.065   1.278   0.515
 5557TIP3   OH216613   1.006   0.200   2.736
 5557TIP3    H116614   0.937   0.249   2.782
 5557TIP3    H216615   0.959   0.144   2.675
 5558TIP3   OH216616   0.389   6.475   3.913
 5558TIP3    H116617   0.325   6.409   3.942
 5558TIP3    H216618   0.346   6.521   3.842
 5559TIP3   OH216619   7.333   1.343   3.874
 5559TIP3    H116620   7.299   1.288   3.944
 5559TIP3    H216621   7.265   1.410   3.861
 5560TIP3   OH216622   6.244   6.677   4.058
 5560TIP3    H116623   6.177   6.731   4.099
 5560TIP3    H216624   6.201   6.638   3.981
 5561TIP3   OH216625   6.065   1.809   3.140
 5561TIP3    H116626   6.024   1.896   3.139
 5561TIP3    H216627   6.075   1.789   3.233
 5562TIP3   OH216628   3.065   6.341   3.188
 5562TIP3    H116629   3.052   6.332   3.093
 5562TIP3    H216630   2.988   6.389   3.218
 5563TIP3   OH216631   3.793   2.429   6.443
 5563TIP3    H116632   3.724   2.450   6.506
 5563TIP3    H216633   3.850   2.507   6.443
 5564TIP3   OH216634   4.131   4.408   1.617
 5564TIP3    H116635   4.112   4.315   1.604
 5564TIP3    H216636   4.114   4.447   1.531
 5565TIP3   OH216637   0.263   0.656   0.965
 5565TIP3    H116638   0.174   0.662   0.930
 5565TIP3    H216639   0.251   0.624   1.054
 5566TIP3   OH216640   2.685   3.661   4.113
 5566TIP3    H116641   2.634   3.606   4.053
 5566TIP3    H216642   2.682   3.614   4.196
 5567TIP3   OH216643   1.539   7.744   1.811
 5567TIP3    H116644   1.553   7.651   1.827
 5567TIP3    H216645   1.623   7.785   1.830
 5568TIP3   OH216646   4.580   2.009   0.995
 5568TIP3    H116647   4.552   1.944   0.931
 5568TIP3    H216648   4.663   2.043   0.960
 5569TIP3   OH216649   2.411   3.394   4.251
 5569TIP3    H116650   2.350   3.400   4.325
 5569TIP3    H216651   2.355   3.395   4.174
 5570TIP3   OH216652   0.236   5.501   5.528
 5570TIP3    H116653   0.299   5.430   5.536
 5570TIP3    H216654   0.222   5.531   5.618
 5571TIP3   OH216655   3.255   6.862   3.785
 5571TIP3    H116656   3.191   6.823   3.845
 5571TIP3    H216657   3.268   6.795   3.718
 5572TIP3   OH216658   8.201   1.655   4.442
 5572TIP3    H116659   8.223   1.582   4.384
 5572TIP3    H216660   8.224   1.623   4.529
 5573TIP3   OH216661   6.130   5.859   5.385
 5573TIP3    H116662   6.209   5.821   5.422
 5573TIP3    H216663   6.141   5.954   5.397
 5574TIP3   OH216664   2.891   6.532   3.290
 5574TIP3    H116665   2.891   6.563   3.380
 5574TIP3    H216666   2.805   6.555   3.256
 5575TIP3   OH216667   5.749   7.695   3.852
 5575TIP3    H116668   5.796   7.758   3.906
 5575TIP3    H216669   5.663   7.735   3.838
 5576TIP3   OH216670   3.426   2.287   5.843
 5576TIP3    H116671   3.375   2.340   5.783
 5576TIP3    H216672   3.506   2.265   5.795
 5577TIP3   OH216673   3.814   5.545   1.894
 5577TIP3    H116674   3.758   5.538   1.816
 5577TIP3    H216675   3.874   5.470   1.887
 5578TIP3   OH216676   4.812   2.760   2.569
 5578TIP3    H116677   4.719   2.759   2.551
 5578TIP3    H216678   4.839   2.668   2.563
 5579TIP3   OH216679   4.931   5.388   1.734
 5579TIP3    H116680   4.891   5.338   1.663
 5579TIP3    H216681   5.024   5.387   1.716
 5580TIP3   OH216682   2.448   1.664   1.727
 5580TIP3    H116683   2.529   1.701   1.691
 5580TIP3    H216684   2.407   1.737   1.773
 5581TIP3   OH216685   6.633   2.506   5.250
 5581TIP3    H116686   6.709   2.563   5.259
 5581TIP3    H216687   6.600   2.496   5.339
 5582TIP3   OH216688   7.115   2.654   2.497
 5582TIP3    H116689   7.106   2.619   2.408
 5582TIP3    H216690   7.047   2.609   2.547
 5583TIP3   OH216691   7.120   4.099   4.264
 5583TIP3    H116692   7.155   4.020   4.223
 5583TIP3    H216693   7.035   4.113   4.221
 5584TIP3   OH216694   2.088   0.081   4.546
 5584TIP3    H116695   2.037   0.002   4.563
 5584TIP3    H216696   2.145   0.057   4.473
 5585TIP3   OH216697   0.833   5.073   5.487
 5585TIP3    H116698   0.739   5.064   5.472
 5585TIP3    H216699   0.872   5.064   5.400
 5586TIP3   OH216700   7.020   5.409   3.234
 5586TIP3    H116701   7.065   5.458   3.165
 5586TIP3    H216702   6.999   5.474   3.300
 5587TIP3   OH216703   4.812   4.562   3.455
 5587TIP3    H116704   4.770   4.606   3.382
 5587TIP3    H216705   4.901   4.597   3.456
 5588TIP3   OH216706   3.643   3.155   3.203
 5588TIP3    H116707   3.707   3.102   3.155
 5588TIP3    H216708   3.688   3.238   3.219
 5589TIP3   OH216709   3.906   0.644   3.842
 5589TIP3    H116710   3.907   0.667   3.749
 5589TIP3    H216711   3.949   0.718   3.886
 5590TIP3   OH216712   6.557   2.367   1.813
 5590TIP3    H116713   6.510   2.450   1.825
 5590TIP3    H216714   6.646   2.393   1.789
 5591TIP3   OH216715   0.290   3.761   3.294
 5591TIP3    H116716   0.232   3.707   3.241
 5591TIP3    H216717   0.371   3.767   3.242
 5592TIP3   OH216718   4.041   1.482   2.755
 5592TIP3    H116719   3.985   1.499   2.680
 5592TIP3    H216720   4.065   1.569   2.788
 5593TIP3   OH216721   7.656   1.655   5.762
 5593TIP3    H116722   7.623   1.730   5.811
 5593TIP3    H216723   7.586   1.590   5.768
 5594TIP3   OH216724   0.424   0.305   1.132
 5594TIP3    H116725   0.504   0.301   1.185
 5594TIP3    H216726   0.379   0.384   1.163
 5595TIP3   OH216727   1.603   1.914   3.885
 5595TIP3    H116728   1.663   1.985   3.861
 5595TIP3    H216729   1.565   1.886   3.802
 5596TIP3   OH216730   7.303   6.954   3.760
 5596TIP3    H116731   7.298   7.037   3.712
 5596TIP3    H216732   7.212   6.925   3.767
 5597TIP3   OH216733   6.446   0.019   2.329
 5597TIP3    H116734   6.500   0.078   2.382
 5597TIP3    H216735   6.392  -0.028   2.393
 5598TIP3   OH216736   3.386   5.320   2.442
 5598TIP3    H116737   3.441   5.252   2.481
 5598TIP3    H216738   3.399   5.397   2.498
 5599TIP3   OH216739   7.912   0.533   0.800
 5599TIP3    H116740   7.842   0.504   0.741
 5599TIP3    H216741   7.939   0.454   0.847
 5600TIP3   OH216742   4.388   1.329   5.359
 5600TIP3    H116743   4.459   1.266   5.367
 5600TIP3    H216744   4.431   1.409   5.328
 5601TIP3   OH216745   3.931   7.689   6.721
 5601TIP3    H116746   3.896   7.620   6.777
 5601TIP3    H216747   3.865   7.701   6.653
 5602TIP3   OH216748   7.537   3.619   4.803
 5602TIP3    H116749   7.498   3.593   4.887
 5602TIP3    H216750   7.625   3.647   4.825
 5603TIP3   OH216751   4.526   1.280   5.972
 5603TIP3    H116752   4.451   1.272   6.031
 5603TIP3    H216753   4.487   1.299   5.886
 5604TIP3   OH216754   4.446   5.551   1.775
 5604TIP3    H116755   4.419   5.484   1.837
 5604TIP3    H216756   4.402   5.527   1.693
 5605TIP3   OH216757   4.571   5.271   2.998
 5605TIP3    H116758   4.596   5.183   3.025
 5605TIP3    H216759   4.534   5.260   2.911
 5606TIP3   OH216760   6.655   0.871   6.243
 5606TIP3    H116761   6.709   0.948   6.258
 5606TIP3    H216762   6.711   0.797   6.268
 5607TIP3   OH216763   3.691   4.395   1.983
 5607TIP3    H116764   3.738   4.430   2.059
 5607TIP3    H216765   3.598   4.413   2.002
 5608TIP3   OH216766   0.205   5.469   6.019
 5608TIP3    H116767   0.280   5.523   6.043
 5608TIP3    H216768   0.233   5.380   6.038
 5609TIP3   OH216769   7.746   4.684   4.670
 5609TIP3    H116770   7.748   4.777   4.650
 5609TIP3    H216771   7.817   4.670   4.732
 5610TIP3   OH216772   3.570   4.048   4.498
 5610TIP3    H116773   3.500   4.099   4.540
 5610TIP3    H216774   3.541   3.957   4.505
 5611TIP3   OH216775   6.630   7.828   0.818
 5611TIP3    H116776   6.610   7.777   0.740
 5611TIP3    H216777   6.581   7.785   0.889
 5612TIP3   OH216778   7.991   5.834   0.711
 5612TIP3    H116779   8.032   5.797   0.633
 5612TIP3    H216780   7.931   5.766   0.742
 5613TIP3   OH216781   5.098   0.583   6.629
 5613TIP3    H116782   5.106   0.679   6.626
 5613TIP3    H216783   5.007   0.567   6.655
 5614TIP3   OH216784   5.832   2.265   5.453
 5614TIP3    H116785   5.764   2.280   5.387
 5614TIP3    H216786   5.858   2.352   5.482
 5615TIP3   OH216787   4.519   3.127   3.095
 5615TIP3    H116788   4.582   3.187   3.135
 5615TIP3    H216789   4.448   3.121   3.160
 5616TIP3   OH216790   0.031   4.351   4.918
 5616TIP3    H116791   0.058   4.443   4.917
 5616TIP3    H216792  -0.056   4.350   4.878
 5617TIP3   OH216793   0.443   5.821   0.189
 5617TIP3    H116794   0.435   5.915   0.171
 5617TIP3    H216795   0.367   5.799   0.242
 5618TIP3   OH216796   4.288   5.835   4.314
 5618TIP3    H116797   4.222   5.767   4.299
 5618TIP3    H216798   4.253   5.886   4.388
 5619TIP3   OH216799   0.123   5.244   3.131
 5619TIP3    H116800   0.056   5.225   3.197
 5619TIP3    H216801   0.084   5.215   3.048
 5620TIP3   OH216802   4.375   1.490   1.946
 5620TIP3    H116803   4.281   1.506   1.953
 5620TIP3    H216804   4.405   1.480   2.036
 5621TIP3   OH216805   3.756   1.728   1.525
 5621TIP3    H116806   3.677   1.674   1.529
 5621TIP3    H216807   3.739   1.789   1.454
 5622TIP3   OH216808   5.937   2.557   0.414
 5622TIP3    H116809   5.979   2.554   0.499
 5622TIP3    H216810   5.922   2.651   0.398
 5623TIP3   OH216811   5.988   2.842   3.199
 5623TIP3    H116812   6.001   2.800   3.283
 5623TIP3    H216813   5.989   2.936   3.219
 5624TIP3   OH216814   5.531   4.629   3.918
 5624TIP3    H116815   5.475   4.558   3.950
 5624TIP3    H216816   5.510   4.637   3.825
 5625TIP3   OH216817   2.786   5.424   2.103
 5625TIP3    H116818   2.731   5.354   2.068
 5625TIP3    H216819   2.781   5.414   2.198
 5626TIP3   OH216820   8.193   0.731   3.424
 5626TIP3    H116821   8.193   0.724   3.520
 5626TIP3    H216822   8.143   0.811   3.406
 5627TIP3   OH216823   6.783   4.248   2.778
 5627TIP3    H116824   6.814   4.315   2.839
 5627TIP3    H216825   6.713   4.203   2.825
 5628TIP3   OH216826   1.439   0.500   2.876
 5628TIP3    H116827   1.418   0.513   2.969
 5628TIP3    H216828   1.462   0.408   2.869
 5629TIP3   OH216829   3.988   3.506   0.143
 5629TIP3    H116830   4.034   3.564   0.083
 5629TIP3    H216831   4.057   3.453   0.183
 5630TIP3   OH216832   0.565   2.344   4.658
 5630TIP3    H116833   0.652   2.330   4.621
 5630TIP3    H216834   0.518   2.392   4.590
 5631TIP3   OH216835   1.954   6.539   6.373
 5631TIP3    H116836   1.964   6.592   6.294
 5631TIP3    H216837   2.024   6.569   6.431
 5632TIP3   OH216838   0.570   7.354   4.210
 5632TIP3    H116839   0.608   7.441   4.194
 5632TIP3    H216840   0.624   7.317   4.280
 5633TIP3   OH216841   2.086   6.551   1.879
 5633TIP3    H116842   2.031   6.550   1.957
 5633TIP3    H216843   2.039   6.499   1.814
 5634TIP3   OH216844   3.249   1.687   2.549
 5634TIP3    H116845   3.302   1.631   2.607
 5634TIP3    H216846   3.277   1.776   2.569
 5635TIP3   OH216847   7.309   7.027   4.709
 5635TIP3    H116848   7.349   7.086   4.773
 5635TIP3    H216849   7.369   6.952   4.704
 5636TIP3   OH216850   3.521   7.462   4.406
 5636TIP3    H116851   3.533   7.427   4.318
 5636TIP3    H216852   3.609   7.486   4.435
 5637TIP3   OH216853   8.091   2.594   0.522
 5637TIP3    H116854   8.183   2.619   0.530
 5637TIP3    H216855   8.069   2.614   0.431
 5638TIP3   OH216856   0.405   7.550   0.934
 5638TIP3    H116857   0.405   7.622   0.996
 5638TIP3    H216858   0.497   7.540   0.908
 5639TIP3   OH216859   1.662   0.378   1.196
 5639TIP3    H116860   1.734   0.433   1.167
 5639TIP3    H216861   1.618   0.352   1.114
 5640TIP3   OH216862   7.527   4.171   2.388
 5640TIP3    H116863   7.603   4.117   2.409
 5640TIP3    H216864   7.523   4.236   2.457
 5641TIP3   OH216865   2.063   7.586   0.605
 5641TIP3    H116866   2.070   7.492   0.589
 5641TIP3    H216867   2.138   7.623   0.559
 5642TIP3   OH216868   8.185   7.667   3.822
 5642TIP3    H116869   8.212   7.758   3.827
 5642TIP3    H216870   8.228   7.625   3.896
 5643TIP3   OH216871   5.789   0.963   2.766
 5643TIP3    H116872   5.876   0.923   2.763
 5643TIP3    H216873   5.801   1.043   2.817
 5644TIP3   OH216874   2.730   5.122   2.758
 5644TIP3    H116875   2.710   5.030   2.777
 5644TIP3    H216876   2.773   5.153   2.838
 5645TIP3   OH216877   6.825   4.860   1.026
 5645TIP3    H116878   6.750   4.819   1.069
 5645TIP3    H216879   6.800   4.862   0.933
 5646TIP3   OH216880   6.806   0.659   5.739
 5646TIP3    H116881   6.900   0.676   5.743
 5646TIP3    H216882   6.786   0.618   5.823
 5647TIP3   OH216883   6.070   7.207   2.714
 5647TIP3    H116884   6.000   7.230   2.775
 5647TIP3    H216885   6.090   7.115   2.734
 5648TIP3   OH216886   5.942   4.193   1.518
 5648TIP3    H116887   5.887   4.117   1.539
 5648TIP3    H216888   6.018   4.156   1.474
 5649TIP3   OH216889   4.482   4.212   2.570
 5649TIP3    H116890   4.491   4.148   2.640
 5649TIP3    H216891   4.557   4.196   2.513
 5650TIP3   OH216892   0.562   1.821   0.876
 5650TIP3    H116893   0.497   1.752   0.865
 5650TIP3    H216894   0.566   1.865   0.791
 5651TIP3   OH216895   2.998   0.852   1.353
 5651TIP3    H116896   3.086   0.814   1.351
 5651TIP3    H216897   2.991   0.901   1.272
 5652TIP3   OH216898   1.784   1.991   5.511
 5652TIP3    H116899   1.743   1.980   5.425
 5652TIP3    H216900   1.717   2.031   5.566
 5653TIP3   OH216901   2.741   0.309   4.819
 5653TIP3    H116902   2.739   0.382   4.757
 5653TIP3    H216903   2.793   0.342   4.893
 5654TIP3   OH216904   5.418   6.275   1.194
 5654TIP3    H116905   5.415   6.342   1.126
 5654TIP3    H216906   5.349   6.213   1.169
 5655TIP3   OH216907   6.322   7.667   5.833
 5655TIP3    H116908   6.297   7.738   5.892
 5655TIP3    H216909   6.411   7.644   5.858
 5656TIP3   OH216910   7.130   1.447   2.387
 5656TIP3    H116911   7.211   1.462   2.435
 5656TIP3    H216912   7.065   1.430   2.456
 5657TIP3   OH216913   0.306   4.051   3.800
 5657TIP3    H116914   0.233   3.989   3.792
 5657TIP3    H216915   0.297   4.107   3.723
 5658TIP3   OH216916   3.803   3.142   5.683
 5658TIP3    H116917   3.842   3.055   5.689
 5658TIP3    H216918   3.736   3.143   5.752
 5659TIP3   OH216919   4.770   3.495   0.097
 5659TIP3    H116920   4.771   3.583   0.060
 5659TIP3    H216921   4.784   3.437   0.023
 5660TIP3   OH216922   5.002   7.450   2.716
 5660TIP3    H116923   4.927   7.462   2.775
 5660TIP3    H216924   5.008   7.533   2.668
 5661TIP3   OH216925   4.549   2.542   3.131
 5661TIP3    H116926   4.550   2.486   3.054
 5661TIP3    H216927   4.501   2.620   3.103
 5662TIP3   OH216928   5.982   7.760   2.284
 5662TIP3    H116929   5.923   7.779   2.210
 5662TIP3    H216930   5.974   7.836   2.341
 5663TIP3   OH216931   5.063   0.681   0.690
 5663TIP3    H116932   5.064   0.587   0.710
 5663TIP3    H216933   5.094   0.686   0.599
 5664TIP3   OH216934   8.246   2.055   1.171
 5664TIP3    H116935   8.154   2.030   1.177
 5664TIP3    H216936   8.269   2.081   1.260
 5665TIP3   OH216937   7.070   0.867   3.972
 5665TIP3    H116938   7.033   0.818   3.898
 5665TIP3    H216939   7.097   0.951   3.933
 5666TIP3   OH216940   4.310   6.734   5.593
 5666TIP3    H116941   4.335   6.665   5.532
 5666TIP3    H216942   4.232   6.700   5.638
 5667TIP3   OH216943   6.286   0.736   6.711
 5667TIP3    H116944   6.322   0.824   6.702
 5667TIP3    H216945   6.232   0.740   6.790
 5668TIP3   OH216946   6.469   0.541   4.001
 5668TIP3    H116947   6.444   0.627   3.967
 5668TIP3    H216948   6.385   0.498   4.019
 5669TIP3   OH216949   5.701   4.915   2.487
 5669TIP3    H116950   5.624   4.872   2.523
 5669TIP3    H216951   5.774   4.880   2.538
 5670TIP3   OH216952   1.362   5.204   0.292
 5670TIP3    H116953   1.314   5.230   0.214
 5670TIP3    H216954   1.297   5.208   0.363
 5671TIP3   OH216955   2.618   4.186   6.447
 5671TIP3    H116956   2.570   4.138   6.379
 5671TIP3    H216957   2.641   4.269   6.407
 5672TIP3   OH216958   0.922   2.350   6.730
 5672TIP3    H116959   1.014   2.338   6.707
 5672TIP3    H216960   0.920   2.432   6.780
 5673TIP3   OH216961   8.208   0.991   1.286
 5673TIP3    H116962   8.185   1.060   1.224
 5673TIP3    H216963   8.160   0.914   1.254
 5674TIP3   OH216964   6.477   2.832   1.409
 5674TIP3    H116965   6.519   2.756   1.449
 5674TIP3    H216966   6.426   2.871   1.480
 5675TIP3   OH216967   5.391   3.650   0.431
 5675TIP3    H116968   5.389   3.555   0.442
 5675TIP3    H216969   5.312   3.669   0.379
 5676TIP3   OH216970   0.493   2.783   1.010
 5676TIP3    H116971   0.518   2.735   1.089
 5676TIP3    H216972   0.576   2.806   0.969
 5677TIP3   OH216973   1.956   3.075   1.942
 5677TIP3    H116974   1.864   3.060   1.921
 5677TIP3    H216975   1.974   3.018   2.017
 5678TIP3   OH216976   8.262   5.169   2.104
 5678TIP3    H116977   8.211   5.109   2.050
 5678TIP3    H216978   8.204   5.192   2.177
 5679TIP3   OH216979   7.725   2.317   3.396
 5679TIP3    H116980   7.670   2.305   3.319
 5679TIP3    H216981   7.723   2.231   3.439
 5680TIP3   OH216982   7.623   5.162   3.894
 5680TIP3    H116983   7.594   5.107   3.967
 5680TIP3    H216984   7.624   5.251   3.929
 5681TIP3   OH216985   2.393   1.351   5.534
 5681TIP3    H116986   2.326   1.410   5.570
 5681TIP3    H216987   2.437   1.315   5.611
 5682TIP3   OH216988   4.271   1.452   0.310
 5682TIP3    H116989   4.250   1.542   0.287
 5682TIP3    H216990   4.274   1.406   0.226
 5683TIP3   OH216991   0.392   7.334   1.487
 5683TIP3    H116992   0.446   7.269   1.532
 5683TIP3    H216993   0.438   7.352   1.405
 5684TIP3   OH216994   6.784   4.000   3.750
 5684TIP3    H116995   6.743   4.081   3.780
 5684TIP3    H216996   6.759   3.994   3.657
 5685TIP3   OH216997   6.440   6.942   3.267
 5685TIP3    H116998   6.405   6.958   3.179
 5685TIP3    H216999   6.379   6.879   3.306
 5686TIP3   OH217000   7.107   6.791   5.848
 5686TIP3    H117001   7.154   6.718   5.888
 5686TIP3    H217002   7.113   6.861   5.913
 5687TIP3   OH217003   2.169   5.904   2.933
 5687TIP3    H117004   2.111   5.868   3.000
 5687TIP3    H217005   2.124   5.982   2.901
 5688TIP3   OH217006   0.441   7.350   3.287
 5688TIP3    H117007   0.492   7.281   3.329
 5688TIP3    H217008   0.505   7.418   3.266
 5689TIP3   OH217009   7.522   0.777   6.620
 5689TIP3    H117010   7.496   0.768   6.711
 5689TIP3    H217011   7.456   0.726   6.572
 5690TIP3   OH217012   3.424   4.458   0.788
 5690TIP3    H117013   3.459   4.387   0.843
 5690TIP3    H217014   3.461   4.538   0.825
 5691TIP3   OH217015   6.934   3.256   2.576
 5691TIP3    H117016   7.005   3.311   2.541
 5691TIP3    H217017   6.856   3.286   2.530
 5692TIP3   OH217018   5.255   1.841   2.499
 5692TIP3    H117019   5.331   1.899   2.497
 5692TIP3    H217020   5.292   1.755   2.523
 5693TIP3   OH217021   7.689   1.875   1.595
 5693TIP3    H117022   7.614   1.848   1.649
 5693TIP3    H217023   7.761   1.886   1.657
 5694TIP3   OH217024   0.352   5.809   5.570
 5694TIP3    H117025   0.323   5.783   5.483
 5694TIP3    H217026   0.428   5.754   5.588
 5695TIP3   OH217027   4.889   7.158   5.377
 5695TIP3    H117028   4.804   7.179   5.340
 5695TIP3    H217029   4.951   7.182   5.308
 5696TIP3   OH217030   4.855   5.669   5.273
 5696TIP3    H117031   4.848   5.583   5.234
 5696TIP3    H217032   4.861   5.729   5.199
 5697TIP3   OH217033   3.676   7.581   1.135
 5697TIP3    H117034   3.698   7.498   1.092
 5697TIP3    H217035   3.672   7.644   1.063
 5698TIP3   OH217036   1.088   0.586   3.014
 5698TIP3    H117037   1.085   0.637   3.095
 5698TIP3    H217038   1.000   0.550   3.004
 5699TIP3   OH217039   3.638   7.036   3.483
 5699TIP3    H117040   3.613   7.066   3.570
 5699TIP3    H217041   3.620   7.110   3.425
 5700TIP3   OH217042   5.691   3.147   3.123
 5700TIP3    H117043   5.698   3.189   3.037
 5700TIP3    H217044   5.622   3.081   3.112
 5701TIP3   OH217045   6.205   1.955   0.112
 5701TIP3    H117046   6.186   1.874   0.159
 5701TIP3    H217047   6.156   2.022   0.160
 5702TIP3   OH217048   0.156   6.263   5.694
 5702TIP3    H117049   0.174   6.208   5.618
 5702TIP3    H217050   0.125   6.203   5.761
 5703TIP3   OH217051   2.716   1.358   1.866
 5703TIP3    H117052   2.713   1.266   1.893
 5703TIP3    H217053   2.761   1.402   1.938
 5704TIP3   OH217054   6.931   3.511   2.736
 5704TIP3    H117055   6.889   3.437   2.691
 5704TIP3    H217056   6.859   3.554   2.782
 5705TIP3   OH217057   7.679   5.952   0.356
 5705TIP3    H117058   7.585   5.934   0.357
 5705TIP3    H217059   7.705   5.946   0.448
 5706TIP3   OH217060   0.504   5.105   3.342
 5706TIP3    H117061   0.599   5.094   3.334
 5706TIP3    H217062   0.470   5.081   3.256
 5707TIP3   OH217063   8.282   3.628   1.963
 5707TIP3    H117064   8.335   3.694   2.008
 5707TIP3    H217065   8.218   3.679   1.913
 5708TIP3   OH217066   3.743   0.901   0.205
 5708TIP3    H117067   3.668   0.843   0.197
 5708TIP3    H217068   3.799   0.878   0.131
 5709TIP3   OH217069   2.751   4.471   3.672
 5709TIP3    H117070   2.793   4.433   3.749
 5709TIP3    H217071   2.721   4.557   3.701
 5710TIP3   OH217072   5.300   2.639   2.297
 5710TIP3    H117073   5.322   2.550   2.271
 5710TIP3    H217074   5.381   2.688   2.288
 5711TIP3   OH217075   6.447   6.584   6.352
 5711TIP3    H117076   6.386   6.543   6.291
 5711TIP3    H217077   6.532   6.582   6.307
 5712TIP3   OH217078   5.216   4.410   2.802
 5712TIP3    H117079   5.259   4.473   2.858
 5712TIP3    H217080   5.275   4.399   2.727
 5713TIP3   OH217081   7.508   0.436   4.846
 5713TIP3    H117082   7.446   0.509   4.833
 5713TIP3    H217083   7.506   0.388   4.764
 5714TIP3   OH217084   5.892   3.978   6.254
 5714TIP3    H117085   5.979   3.983   6.294
 5714TIP3    H217086   5.831   3.971   6.328
 5715TIP3   OH217087   2.863   2.905   6.135
 5715TIP3    H117088   2.912   2.914   6.053
 5715TIP3    H217089   2.895   2.978   6.190
 5716TIP3   OH217090   0.253   3.045   4.501
 5716TIP3    H117091   0.162   3.046   4.471
 5716TIP3    H217092   0.295   2.979   4.446
 5717TIP3   OH217093   2.671   6.861   3.242
 5717TIP3    H117094   2.597   6.822   3.196
 5717TIP3    H217095   2.703   6.792   3.300
 5718TIP3   OH217096   4.758   5.344   2.021
 5718TIP3    H117097   4.789   5.357   1.931
 5718TIP3    H217098   4.763   5.431   2.060
 5719TIP3   OH217099   7.617   5.879   4.036
 5719TIP3    H117100   7.707   5.853   4.056
 5719TIP3    H217101   7.571   5.872   4.119
 5720TIP3   OH217102   1.601   2.249   2.370
 5720TIP3    H117103   1.617   2.248   2.276
 5720TIP3    H217104   1.587   2.342   2.391
 5721TIP3   OH217105   5.808   0.695   2.986
 5721TIP3    H117106   5.841   0.629   2.926
 5721TIP3    H217107   5.724   0.660   3.016
 5722TIP3   OH217108   1.339   6.088   5.701
 5722TIP3    H117109   1.349   6.170   5.750
 5722TIP3    H217110   1.366   6.110   5.612
 5723TIP3   OH217111   2.881   0.263   1.995
 5723TIP3    H117112   2.860   0.271   1.902
 5723TIP3    H217113   2.967   0.303   2.004
 5724TIP3   OH217114   2.824   1.471   5.201
 5724TIP3    H117115   2.786   1.545   5.154
 5724TIP3    H217116   2.772   1.464   5.281
 5725TIP3   OH217117   0.450   2.843  -0.012
 5725TIP3    H117118   0.521   2.897   0.023
 5725TIP3    H217119   0.477   2.753   0.007
 5726TIP3   OH217120   6.550   1.631   5.802
 5726TIP3    H117121   6.579   1.593   5.719
 5726TIP3    H217122   6.505   1.559   5.846
 5727TIP3   OH217123   4.829   1.077   3.344
 5727TIP3    H117124   4.862   1.037   3.425
 5727TIP3    H217125   4.781   1.154   3.374
 5728TIP3   OH217126   6.367   5.693   4.949
 5728TIP3    H117127   6.401   5.616   4.993
 5728TIP3    H217128   6.300   5.659   4.889
 5729TIP3   OH217129   4.228   1.591   3.970
 5729TIP3    H117130   4.214   1.634   4.054
 5729TIP3    H217131   4.142   1.591   3.929
 5730TIP3   OH217132   5.209   2.894   0.682
 5730TIP3    H117133   5.136   2.948   0.651
 5730TIP3    H217134   5.223   2.923   0.772
 5731TIP3   OH217135   4.446   3.211   0.336
 5731TIP3    H117136   4.395   3.221   0.417
 5731TIP3    H217137   4.445   3.298   0.296
 5732TIP3   OH217138   1.318   1.078   0.221
 5732TIP3    H117139   1.228   1.081   0.190
 5732TIP3    H217140   1.312   1.047   0.311
 5733TIP3   OH217141   0.005   3.974   5.102
 5733TIP3    H117142   0.037   3.961   5.013
 5733TIP3    H217143   0.036   4.061   5.127
 5734TIP3   OH217144   6.266   2.286   4.494
 5734TIP3    H117145   6.235   2.344   4.564
 5734TIP3    H217146   6.361   2.297   4.493
 5735TIP3   OH217147   0.967   2.029   3.270
 5735TIP3    H117148   1.049   1.993   3.304
 5735TIP3    H217149   0.908   1.953   3.268
 5736TIP3   OH217150   0.100   1.087   3.468
 5736TIP3    H117151   0.170   1.025   3.489
 5736TIP3    H217152   0.035   1.074   3.538
 5737TIP3   OH217153   3.972   0.536   3.122
 5737TIP3    H117154   4.061   0.506   3.136
 5737TIP3    H217155   3.972   0.626   3.155
 5738TIP3   OH217156   4.855   0.903   0.712
 5738TIP3    H117157   4.764   0.877   0.725
 5738TIP3    H217158   4.903   0.820   0.703
 5739TIP3   OH217159   0.569   3.325   3.526
 5739TIP3    H117160   0.580   3.361   3.438
 5739TIP3    H217161   0.483   3.355   3.554
 5740TIP3   OH217162   4.481   1.903   2.605
 5740TIP3    H117163   4.414   1.967   2.630
 5740TIP3    H217164   4.493   1.916   2.511
 5741TIP3   OH217165   8.048   5.667   1.725
 5741TIP3    H117166   8.056   5.579   1.762
 5741TIP3    H217167   7.975   5.661   1.663
 5742TIP3   OH217168   0.921   7.188   1.700
 5742TIP3    H117169   0.859   7.175   1.629
 5742TIP3    H217170   0.958   7.275   1.685
 5743TIP3   OH217171   0.190   0.668   2.242
 5743TIP3    H117172   0.172   0.579   2.272
 5743TIP3    H217173   0.274   0.662   2.197
 5744TIP3   OH217174   1.571   3.651   1.058
 5744TIP3    H117175   1.562   3.641   1.153
 5744TIP3    H217176   1.649   3.600   1.036
 5745TIP3   OH217177   1.160   5.027   3.148
 5745TIP3    H117178   1.225   5.083   3.192
 5745TIP3    H217179   1.195   5.014   3.060
 5746TIP3   OH217180   2.663   4.023   5.954
 5746TIP3    H117181   2.729   3.958   5.979
 5746TIP3    H217182   2.696   4.106   5.990
 5747TIP3   OH217183   4.312   6.237   5.474
 5747TIP3    H117184   4.366   6.173   5.427
 5747TIP3    H217185   4.301   6.200   5.561
 5748TIP3   OH217186   4.741   0.715   4.365
 5748TIP3    H117187   4.674   0.782   4.354
 5748TIP3    H217188   4.742   0.696   4.459
 5749TIP3   OH217189   6.881   2.888   1.332
 5749TIP3    H117190   6.859   2.795   1.325
 5749TIP3    H217191   6.898   2.901   1.426
 5750TIP3   OH217192   4.339   1.936   5.347
 5750TIP3    H117193   4.295   1.901   5.270
 5750TIP3    H217194   4.281   2.004   5.380
 5751TIP3   OH217195   7.368   1.627   5.756
 5751TIP3    H117196   7.291   1.651   5.704
 5751TIP3    H217197   7.376   1.696   5.821
 5752TIP3   OH217198   2.219   0.880   6.618
 5752TIP3    H117199   2.246   0.808   6.674
 5752TIP3    H217200   2.267   0.867   6.537
 5753TIP3   OH217201   4.022   5.975   1.965
 5753TIP3    H117202   4.008   6.069   1.980
 5753TIP3    H217203   4.066   5.944   2.044
 5754TIP3   OH217204   1.943   2.092   1.917
 5754TIP3    H117205   1.901   2.048   1.990
 5754TIP3    H217206   1.959   2.023   1.853
 5755TIP3   OH217207   6.219   1.011   2.608
 5755TIP3    H117208   6.185   1.099   2.592
 5755TIP3    H217209   6.161   0.975   2.675
 5756TIP3   OH217210   2.164   0.818   1.799
 5756TIP3    H117211   2.167   0.722   1.792
 5756TIP3    H217212   2.215   0.838   1.877
 5757TIP3   OH217213   7.292   5.660   2.364
 5757TIP3    H117214   7.367   5.619   2.408
 5757TIP3    H217215   7.220   5.598   2.378
 5758TIP3   OH217216   5.334   6.296   3.982
 5758TIP3    H117217   5.309   6.385   4.008
 5758TIP3    H217218   5.365   6.256   4.064
 5759TIP3   OH217219   0.159   2.061   3.744
 5759TIP3    H117220   0.244   2.027   3.774
 5759TIP3    H217221   0.096   1.992   3.767
 5760TIP3   OH217222   3.780   7.696   0.344
 5760TIP3    H117223   3.854   7.691   0.282
 5760TIP3    H217224   3.787   7.784   0.381
 5761TIP3   OH217225   6.128   5.495   1.648
 5761TIP3    H117226   6.220   5.488   1.622
 5761TIP3    H217227   6.127   5.566   1.712
 5762TIP3   OH217228   4.201   4.048   2.549
 5762TIP3    H117229   4.135   4.118   2.551
 5762TIP3    H217230   4.222   4.032   2.641
 5763TIP3   OH217231   3.402   4.283   4.531
 5763TIP3    H117232   3.353   4.287   4.449
 5763TIP3    H217233   3.337   4.254   4.596
 5764TIP3   OH217234   4.237   2.769   4.018
 5764TIP3    H117235   4.284   2.847   4.047
 5764TIP3    H217236   4.236   2.776   3.922
 5765TIP3   OH217237   3.243   6.251   2.408
 5765TIP3    H117238   3.337   6.258   2.427
 5765TIP3    H217239   3.237   6.178   2.346
 5766TIP3   OH217240   7.017   1.612   2.904
 5766TIP3    H117241   7.025   1.707   2.916
 5766TIP3    H217242   6.924   1.594   2.918
 5767TIP3   OH217243   7.805   7.143   5.169
 5767TIP3    H117244   7.803   7.050   5.193
 5767TIP3    H217245   7.726   7.155   5.117
 5768TIP3   OH217246   3.100   7.710   0.522
 5768TIP3    H117247   3.117   7.628   0.568
 5768TIP3    H217248   3.130   7.694   0.432
 5769TIP3   OH217249   5.287   1.006   6.652
 5769TIP3    H117250   5.230   0.988   6.727
 5769TIP3    H217251   5.372   0.971   6.678
 5770TIP3   OH217252   6.848   1.014   5.080
 5770TIP3    H117253   6.786   1.068   5.129
 5770TIP3    H217254   6.821   1.022   4.989
 5771TIP3   OH217255   0.478   3.796   3.092
 5771TIP3    H117256   0.413   3.820   3.027
 5771TIP3    H217257   0.555   3.849   3.071
 5772TIP3   OH217258   0.543   2.724   4.644
 5772TIP3    H117259   0.545   2.651   4.583
 5772TIP3    H217260   0.464   2.711   4.696
 5773TIP3   OH217261   0.758   6.859   5.774
 5773TIP3    H117262   0.849   6.885   5.767
 5773TIP3    H217263   0.757   6.766   5.751
 5774TIP3   OH217264   5.951   2.058   3.115
 5774TIP3    H117265   5.917   2.070   3.026
 5774TIP3    H217266   6.018   2.125   3.125
 5775TIP3   OH217267   4.034   6.883   6.509
 5775TIP3    H117268   4.077   6.947   6.566
 5775TIP3    H217269   4.003   6.815   6.568
 5776TIP3   OH217270   8.145   4.490   4.220
 5776TIP3    H117271   8.164   4.579   4.188
 5776TIP3    H217272   8.050   4.482   4.213
 5777TIP3   OH217273   4.233   6.695   1.874
 5777TIP3    H117274   4.275   6.634   1.814
 5777TIP3    H217275   4.149   6.655   1.896
 5778TIP3   OH217276   2.070   5.770   0.240
 5778TIP3    H117277   2.027   5.772   0.326
 5778TIP3    H217278   2.158   5.805   0.256
 5779TIP3   OH217279   5.821   0.979   2.217
 5779TIP3    H117280   5.886   0.910   2.209
 5779TIP3    H217281   5.817   0.998   2.311
 5780TIP3   OH217282   4.253   3.132   5.809
 5780TIP3    H117283   4.191   3.143   5.880
 5780TIP3    H217284   4.220   3.056   5.760
 5781TIP3   OH217285   6.712   2.314   3.035
 5781TIP3    H117286   6.742   2.292   2.947
 5781TIP3    H217287   6.753   2.249   3.092
 5782TIP3   OH217288   2.151   0.710   4.953
 5782TIP3    H117289   2.190   0.789   4.916
 5782TIP3    H217290   2.073   0.695   4.900
 5783TIP3   OH217291   1.554   2.301   5.545
 5783TIP3    H117292   1.630   2.304   5.603
 5783TIP3    H217293   1.513   2.216   5.564
 5784TIP3   OH217294   5.903   4.655   6.300
 5784TIP3    H117295   5.970   4.656   6.369
 5784TIP3    H217296   5.858   4.571   6.311
 5785TIP3   OH217297   1.315   1.655   0.222
 5785TIP3    H117298   1.259   1.620   0.291
 5785TIP3    H217299   1.400   1.615   0.237
 5786TIP3   OH217300   7.399   3.928   4.791
 5786TIP3    H117301   7.345   3.990   4.743
 5786TIP3    H217302   7.395   3.958   4.882
 5787TIP3   OH217303   8.055   4.206   1.550
 5787TIP3    H117304   8.019   4.155   1.477
 5787TIP3    H217305   8.140   4.236   1.517
 5788TIP3   OH217306   0.524   1.925   6.379
 5788TIP3    H117307   0.572   1.987   6.434
 5788TIP3    H217308   0.433   1.936   6.403
 5789TIP3   OH217309   7.275   0.561   5.293
 5789TIP3    H117310   7.253   0.595   5.380
 5789TIP3    H217311   7.198   0.582   5.239
 5790TIP3   OH217312   7.307   6.862   3.459
 5790TIP3    H117313   7.304   6.950   3.497
 5790TIP3    H217314   7.378   6.818   3.506
 5791TIP3   OH217315   1.411   4.742   5.217
 5791TIP3    H117316   1.378   4.737   5.307
 5791TIP3    H217317   1.387   4.830   5.187
 5792TIP3   OH217318   0.099   3.560   4.327
 5792TIP3    H117319   0.011   3.523   4.319
 5792TIP3    H217320   0.133   3.524   4.409
 5793TIP3   OH217321   4.112   2.490   0.816
 5793TIP3    H117322   4.080   2.530   0.735
 5793TIP3    H217323   4.061   2.410   0.825
 5794TIP3   OH217324   2.568   2.475   1.661
 5794TIP3    H117325   2.543   2.561   1.694
 5794TIP3    H217326   2.558   2.416   1.735
 5795TIP3   OH217327   3.873   3.127   0.838
 5795TIP3    H117328   3.815   3.193   0.878
 5795TIP3    H217329   3.819   3.049   0.833
 5796TIP3   OH217330   1.341   1.107   3.562
 5796TIP3    H117331   1.413   1.125   3.501
 5796TIP3    H217332   1.281   1.050   3.514
 5797TIP3   OH217333   0.407   4.267   4.816
 5797TIP3    H117334   0.367   4.320   4.748
 5797TIP3    H217335   0.380   4.178   4.797
 5798TIP3   OH217336   1.382   7.785   5.491
 5798TIP3    H117337   1.364   7.814   5.401
 5798TIP3    H217338   1.320   7.714   5.506
 5799TIP3   OH217339   5.927   5.078   5.658
 5799TIP3    H117340   5.977   5.153   5.688
 5799TIP3    H217341   5.931   5.016   5.731
 5800TIP3   OH217342   4.225   7.479   1.274
 5800TIP3    H117343   4.264   7.499   1.189
 5800TIP3    H217344   4.131   7.487   1.260
 5801TIP3   OH217345   2.452   0.584   1.798
 5801TIP3    H117346   2.364   0.553   1.781
 5801TIP3    H217347   2.505   0.547   1.728
 5802TIP3   OH217348   4.256   6.347   1.323
 5802TIP3    H117349   4.234   6.314   1.236
 5802TIP3    H217350   4.232   6.440   1.320
 5803TIP3   OH217351   6.857   6.277   5.631
 5803TIP3    H117352   6.825   6.321   5.552
 5803TIP3    H217353   6.952   6.268   5.616
 5804TIP3   OH217354   5.335   5.529   4.333
 5804TIP3    H117355   5.255   5.501   4.289
 5804TIP3    H217356   5.339   5.474   4.412
 5805TIP3   OH217357   1.063   1.012   2.451
 5805TIP3    H117358   0.975   0.997   2.417
 5805TIP3    H217359   1.110   1.055   2.379
 5806TIP3   OH217360   2.747   6.995   2.883
 5806TIP3    H117361   2.664   7.021   2.844
 5806TIP3    H217362   2.811   7.057   2.848
 5807TIP3   OH217363   2.667   5.829   1.242
 5807TIP3    H117364   2.762   5.818   1.237
 5807TIP3    H217365   2.643   5.869   1.159
 5808TIP3   OH217366   6.685   6.305   0.414
 5808TIP3    H117367   6.633   6.285   0.491
 5808TIP3    H217368   6.641   6.258   0.343
 5809TIP3   OH217369   6.240   5.151   5.559
 5809TIP3    H117370   6.210   5.173   5.648
 5809TIP3    H217371   6.160   5.124   5.513
 5810TIP3   OH217372   2.347   7.596   3.042
 5810TIP3    H117373   2.380   7.506   3.040
 5810TIP3    H217374   2.426   7.650   3.050
 5811TIP3   OH217375   6.728   3.707   6.209
 5811TIP3    H117376   6.687   3.624   6.233
 5811TIP3    H217377   6.698   3.768   6.277
 5812TIP3   OH217378   0.877   1.515   5.831
 5812TIP3    H117379   0.799   1.465   5.853
 5812TIP3    H217380   0.883   1.509   5.735
 5813TIP3   OH217381   2.849   2.607   1.118
 5813TIP3    H117382   2.881   2.549   1.187
 5813TIP3    H217383   2.820   2.548   1.049
 5814TIP3   OH217384   6.195   6.659   2.753
 5814TIP3    H117385   6.144   6.606   2.814
 5814TIP3    H217386   6.176   6.620   2.667
 5815TIP3   OH217387   8.210   6.609   6.176
 5815TIP3    H117388   8.290   6.656   6.151
 5815TIP3    H217389   8.240   6.543   6.238
 5816TIP3   OH217390   8.183   7.311   6.748
 5816TIP3    H117391   8.158   7.229   6.706
 5816TIP3    H217392   8.115   7.326   6.814
 5817TIP3   OH217393   5.944   3.747   5.363
 5817TIP3    H117394   5.973   3.740   5.454
 5817TIP3    H217395   6.025   3.741   5.312
 5818TIP3   OH217396   7.086   5.875   0.806
 5818TIP3    H117397   7.047   5.961   0.791
 5818TIP3    H217398   7.175   5.882   0.771
 5819TIP3   OH217399   3.418   5.278   4.027
 5819TIP3    H117400   3.417   5.354   3.969
 5819TIP3    H217401   3.331   5.240   4.020
 5820TIP3   OH217402   6.182   7.144   6.154
 5820TIP3    H117403   6.224   7.062   6.179
 5820TIP3    H217404   6.130   7.169   6.230
 5821TIP3   OH217405   6.679   1.171   5.771
 5821TIP3    H117406   6.654   1.107   5.838
 5821TIP3    H217407   6.595   1.207   5.741
 5822TIP3   OH217408   4.510   6.767   0.310
 5822TIP3    H117409   4.518   6.702   0.379
 5822TIP3    H217410   4.589   6.822   0.320
 5823TIP3   OH217411   3.712   6.174   1.064
 5823TIP3    H117412   3.680   6.142   0.979
 5823TIP3    H217413   3.796   6.215   1.043
 5824TIP3   OH217414   7.535   3.772   6.651
 5824TIP3    H117415   7.496   3.733   6.574
 5824TIP3    H217416   7.624   3.796   6.623
 5825TIP3   OH217417   4.339   3.334   2.772
 5825TIP3    H117418   4.354   3.428   2.788
 5825TIP3    H217419   4.279   3.307   2.841
 5826TIP3   OH217420   1.242   1.114   1.139
 5826TIP3    H117421   1.261   1.067   1.058
 5826TIP3    H217422   1.202   1.196   1.111
 5827TIP3   OH217423   4.750   1.576   2.662
 5827TIP3    H117424   4.683   1.644   2.662
 5827TIP3    H217425   4.821   1.611   2.715
 5828TIP3   OH217426   3.409   1.434   0.212
 5828TIP3    H117427   3.378   1.513   0.169
 5828TIP3    H217428   3.341   1.369   0.195
 5829TIP3   OH217429   2.189   4.242   3.944
 5829TIP3    H117430   2.221   4.312   3.887
 5829TIP3    H217431   2.236   4.164   3.914
 5830TIP3   OH217432   5.784   4.863   2.040
 5830TIP3    H117433   5.800   4.843   2.133
 5830TIP3    H217434   5.779   4.958   2.036
 5831TIP3   OH217435   7.171   7.328   5.655
 5831TIP3    H117436   7.089   7.344   5.609
 5831TIP3    H217437   7.160   7.243   5.697
 5832TIP3   OH217438   7.635   2.805   6.104
 5832TIP3    H117439   7.666   2.800   6.014
 5832TIP3    H217440   7.617   2.714   6.128
 5833TIP3   OH217441   6.033   5.913   4.737
 5833TIP3    H117442   6.067   5.941   4.822
 5833TIP3    H217443   6.051   5.819   4.734
 5834TIP3   OH217444   5.736   5.302   6.770
 5834TIP3    H117445   5.694   5.217   6.779
 5834TIP3    H217446   5.826   5.282   6.744
 5835TIP3   OH217447   5.618   4.928   3.831
 5835TIP3    H117448   5.541   4.979   3.859
 5835TIP3    H217449   5.587   4.877   3.756
 5836TIP3   OH217450   6.450   5.409   1.966
 5836TIP3    H117451   6.406   5.492   1.985
 5836TIP3    H217452   6.421   5.386   1.878
 5837TIP3   OH217453   2.733   1.002   3.189
 5837TIP3    H117454   2.793   1.074   3.168
 5837TIP3    H217455   2.717   0.960   3.104
 5838TIP3   OH217456   3.383   2.063   3.424
 5838TIP3    H117457   3.464   2.072   3.473
 5838TIP3    H217458   3.343   1.983   3.457
 5839TIP3   OH217459   3.534   6.073   1.382
 5839TIP3    H117460   3.498   6.022   1.454
 5839TIP3    H217461   3.595   6.134   1.424
 5840TIP3   OH217462   5.882   6.121   3.121
 5840TIP3    H117463   5.927   6.172   3.189
 5840TIP3    H217464   5.912   6.160   3.039
 5841TIP3   OH217465   1.338   0.347   4.285
 5841TIP3    H117466   1.327   0.366   4.378
 5841TIP3    H217467   1.432   0.334   4.274
 5842TIP3   OH217468   6.686   4.436   6.056
 5842TIP3    H117469   6.752   4.505   6.063
 5842TIP3    H217470   6.616   4.464   6.116
 5843TIP3   OH217471   1.922   5.373   2.021
 5843TIP3    H117472   1.991   5.336   2.075
 5843TIP3    H217473   1.912   5.463   2.053
 5844TIP3   OH217474   0.130   6.416   0.721
 5844TIP3    H117475   0.063   6.477   0.752
 5844TIP3    H217476   0.080   6.342   0.685
 5845TIP3   OH217477   5.089   6.555   0.839
 5845TIP3    H117478   5.165   6.519   0.793
 5845TIP3    H217479   5.014   6.525   0.787
 5846TIP3   OH217480   0.180   3.465   4.554
 5846TIP3    H117481   0.124   3.419   4.617
 5846TIP3    H217482   0.250   3.402   4.535
 5847TIP3   OH217483   3.344   0.859   3.589
 5847TIP3    H117484   3.293   0.832   3.512
 5847TIP3    H217485   3.352   0.780   3.642
 5848TIP3   OH217486   2.988   6.718   4.235
 5848TIP3    H117487   3.000   6.770   4.315
 5848TIP3    H217488   2.942   6.777   4.175
 5849TIP3   OH217489   3.122   3.645   1.803
 5849TIP3    H117490   3.172   3.640   1.884
 5849TIP3    H217491   3.071   3.564   1.801
 5850TIP3   OH217492   4.233   6.867   0.186
 5850TIP3    H117493   4.328   6.874   0.184
 5850TIP3    H217494   4.204   6.899   0.100
 5851TIP3   OH217495   6.533   3.279   1.837
 5851TIP3    H117496   6.550   3.241   1.923
 5851TIP3    H217497   6.486   3.361   1.855
 5852TIP3   OH217498   3.721   6.523   2.582
 5852TIP3    H117499   3.715   6.436   2.621
 5852TIP3    H217500   3.815   6.539   2.574
 5853TIP3   OH217501   0.719   7.350   2.933
 5853TIP3    H117502   0.719   7.272   2.988
 5853TIP3    H217503   0.628   7.378   2.930
 5854TIP3   OH217504   6.175   1.445   0.983
 5854TIP3    H117505   6.248   1.472   0.927
 5854TIP3    H217506   6.102   1.432   0.923
 5855TIP3   OH217507   5.525   1.870   2.114
 5855TIP3    H117508   5.577   1.891   2.037
 5855TIP3    H217509   5.561   1.925   2.183
 5856TIP3   OH217510   2.500   7.586   0.942
 5856TIP3    H117511   2.517   7.642   1.018
 5856TIP3    H217512   2.583   7.580   0.896
 5857TIP3   OH217513   6.622   1.271   6.109
 5857TIP3    H117514   6.528   1.255   6.096
 5857TIP3    H217515   6.635   1.361   6.080
 5858TIP3   OH217516   3.626   6.859   4.245
 5858TIP3    H117517   3.644   6.844   4.338
 5858TIP3    H217518   3.557   6.796   4.223
 5859TIP3   OH217519   3.635   3.093   0.642
 5859TIP3    H117520   3.664   3.155   0.576
 5859TIP3    H217521   3.683   3.012   0.622
 5860TIP3   OH217522   3.164   3.786   6.667
 5860TIP3    H117523   3.148   3.842   6.743
 5860TIP3    H217524   3.230   3.723   6.697
 5861TIP3   OH217525   5.804   6.314   4.175
 5861TIP3    H117526   5.872   6.345   4.234
 5861TIP3    H217527   5.750   6.391   4.159
 5862TIP3   OH217528   7.487   4.745   0.190
 5862TIP3    H117529   7.526   4.675   0.243
 5862TIP3    H217530   7.449   4.805   0.255
 5863TIP3   OH217531   4.964   6.647   2.751
 5863TIP3    H117532   4.892   6.628   2.811
 5863TIP3    H217533   4.938   6.730   2.709
 5864TIP3   OH217534   3.055   6.048   1.060
 5864TIP3    H117535   3.104   6.089   0.989
 5864TIP3    H217536   3.009   6.121   1.101
 5865TIP3   OH217537   1.252   5.469   2.069
 5865TIP3    H117538   1.160   5.492   2.059
 5865TIP3    H217539   1.251   5.384   2.112
 5866TIP3   OH217540   7.908   3.122   5.281
 5866TIP3    H117541   7.992   3.089   5.248
 5866TIP3    H217542   7.911   3.104   5.375
 5867TIP3   OH217543   6.874   7.396   1.182
 5867TIP3    H117544   6.876   7.443   1.265
 5867TIP3    H217545   6.841   7.459   1.119
 5868TIP3   OH217546   1.228   0.075   1.749
 5868TIP3    H117547   1.242   0.117   1.664
 5868TIP3    H217548   1.260   0.138   1.813
 5869TIP3   OH217549   7.988   0.740   6.488
 5869TIP3    H117550   8.002   0.777   6.401
 5869TIP3    H217551   7.896   0.715   6.489
 5870TIP3   OH217552   7.855   7.445   0.329
 5870TIP3    H117553   7.794   7.380   0.296
 5870TIP3    H217554   7.901   7.477   0.251
 5871TIP3   OH217555   4.971   4.289   3.417
 5871TIP3    H117556   4.922   4.365   3.384
 5871TIP3    H217557   4.984   4.234   3.340
 5872TIP3   OH217558   1.100   2.309   0.633
 5872TIP3    H117559   1.157   2.272   0.566
 5872TIP3    H217560   1.159   2.360   0.689
 5873TIP3   OH217561   5.592   6.181   0.963
 5873TIP3    H117562   5.564   6.270   0.983
 5873TIP3    H217563   5.541   6.157   0.885
 5874TIP3   OH217564   4.201   7.310   2.931
 5874TIP3    H117565   4.205   7.400   2.899
 5874TIP3    H217566   4.108   7.288   2.927
 5875TIP3   OH217567   1.952   2.865   1.011
 5875TIP3    H117568   1.969   2.786   0.959
 5875TIP3    H217569   2.015   2.929   0.978
 5876TIP3   OH217570   2.170   5.730   4.747
 5876TIP3    H117571   2.217   5.735   4.831
 5876TIP3    H217572   2.095   5.788   4.759
 5877TIP3   OH217573   6.994   5.157   0.513
 5877TIP3    H117574   7.042   5.074   0.513
 5877TIP3    H217575   6.921   5.142   0.453
 5878TIP3   OH217576   2.675   1.664   4.683
 5878TIP3    H117577   2.693   1.756   4.700
 5878TIP3    H217578   2.595   1.665   4.631
 5879TIP3   OH217579   1.066   4.667   5.337
 5879TIP3    H117580   1.006   4.626   5.401
 5879TIP3    H217581   1.009   4.692   5.264
 5880TIP3   OH217582   7.873   7.350   6.277
 5880TIP3    H117583   7.924   7.430   6.289
 5880TIP3    H217584   7.785   7.373   6.306
 5881TIP3   OH217585   3.473   6.374   5.890
 5881TIP3    H117586   3.377   6.373   5.887
 5881TIP3    H217587   3.497   6.464   5.866
 5882TIP3   OH217588   0.372   5.959   1.928
 5882TIP3    H117589   0.373   5.920   1.841
 5882TIP3    H217590   0.430   5.903   1.980
 5883TIP3   OH217591   1.301   2.661   3.504
 5883TIP3    H117592   1.331   2.694   3.419
 5883TIP3    H217593   1.306   2.566   3.495
 5884TIP3   OH217594   0.437   3.077   4.108
 5884TIP3    H117595   0.516   3.071   4.162
 5884TIP3    H217596   0.411   2.986   4.093
 5885TIP3   OH217597   4.596   4.133   1.892
 5885TIP3    H117598   4.523   4.077   1.863
 5885TIP3    H217599   4.628   4.092   1.972
 5886TIP3   OH217600   5.554   6.586   1.273
 5886TIP3    H117601   5.568   6.581   1.179
 5886TIP3    H217602   5.460   6.602   1.282
 5887TIP3   OH217603   5.095   6.595   0.360
 5887TIP3    H117604   5.166   6.533   0.378
 5887TIP3    H217605   5.140   6.674   0.329
 5888TIP3   OH217606   0.356   6.313   2.676
 5888TIP3    H117607   0.341   6.233   2.727
 5888TIP3    H217608   0.400   6.372   2.737
 5889TIP3   OH217609   6.351   7.158   2.237
 5889TIP3    H117610   6.262   7.179   2.207
 5889TIP3    H217611   6.354   7.191   2.327
 5890TIP3   OH217612   2.172   1.271   1.284
 5890TIP3    H117613   2.184   1.365   1.271
 5890TIP3    H217614   2.106   1.264   1.352
 5891TIP3   OH217615   0.794   5.527   1.773
 5891TIP3    H117616   0.792   5.584   1.696
 5891TIP3    H217617   0.715   5.474   1.765
 5892TIP3   OH217618   5.156   2.717   2.080
 5892TIP3    H117619   5.171   2.694   2.172
 5892TIP3    H217620   5.241   2.706   2.038
 5893TIP3   OH217621   1.704   6.904   0.267
 5893TIP3    H117622   1.760   6.829   0.283
 5893TIP3    H217623   1.701   6.951   0.351
 5894TIP3   OH217624   5.734   6.012   5.862
 5894TIP3    H117625   5.826   5.993   5.841
 5894TIP3    H217626   5.725   5.986   5.954
 5895TIP3   OH217627   8.207   6.230   4.555
 5895TIP3    H117628   8.250   6.300   4.506
 5895TIP3    H217629   8.227   6.150   4.506
 5896TIP3   OH217630   2.681   1.942   0.279
 5896TIP3    H117631   2.643   1.869   0.328
 5896TIP3    H217632   2.611   1.973   0.222
 5897TIP3   OH217633   6.554   2.229   0.918
 5897TIP3    H117634   6.465   2.266   0.920
 5897TIP3    H217635   6.547   2.153   0.861
 5898TIP3   OH217636   7.956   2.610   5.180
 5898TIP3    H117637   7.932   2.517   5.180
 5898TIP3    H217638   8.044   2.612   5.217
 5899TIP3   OH217639   0.432   4.612   1.108
 5899TIP3    H117640   0.428   4.672   1.182
 5899TIP3    H217641   0.359   4.551   1.122
 5900TIP3   OH217642   2.513   5.519   2.239
 5900TIP3    H117643   2.565   5.549   2.314
 5900TIP3    H217644   2.486   5.600   2.195
 5901TIP3   OH217645   0.254   5.325   4.029
 5901TIP3    H117646   0.208   5.374   4.098
 5901TIP3    H217647   0.335   5.374   4.015
 5902TIP3   OH217648   2.904   4.822   1.243
 5902TIP3    H117649   2.989   4.846   1.280
 5902TIP3    H217650   2.860   4.906   1.229
 5903TIP3   OH217651   0.481   6.058   5.590
 5903TIP3    H117652   0.446   5.972   5.567
 5903TIP3    H217653   0.561   6.066   5.538
 5904TIP3   OH217654   3.503   4.254   0.178
 5904TIP3    H117655   3.498   4.209   0.094
 5904TIP3    H217656   3.556   4.332   0.160
 5905TIP3   OH217657   3.756   6.100   1.887
 5905TIP3    H117658   3.744   6.142   1.972
 5905TIP3    H217659   3.835   6.142   1.850
 5906TIP3   OH217660   6.274   3.678   3.804
 5906TIP3    H117661   6.180   3.663   3.811
 5906TIP3    H217662   6.282   3.751   3.742
 5907TIP3   OH217663   8.072   4.490   3.921
 5907TIP3    H117664   8.026   4.570   3.895
 5907TIP3    H217665   8.164   4.510   3.906
 5908TIP3   OH217666   3.904   5.219   4.423
 5908TIP3    H117667   3.856   5.282   4.369
 5908TIP3    H217668   3.985   5.203   4.376
 5909TIP3   OH217669   7.449   0.166   3.775
 5909TIP3    H117670   7.423   0.127   3.859
 5909TIP3    H217671   7.529   0.120   3.751
 5910TIP3   OH217672   3.774   4.254   1.432
 5910TIP3    H117673   3.688   4.271   1.393
 5910TIP3    H217674   3.825   4.332   1.411
 5911TIP3   OH217675   3.258   1.257   3.120
 5911TIP3    H117676   3.335   1.207   3.093
 5911TIP3    H217677   3.227   1.297   3.038
 5912TIP3   OH217678   6.535   0.139   2.964
 5912TIP3    H117679   6.524   0.222   3.011
 5912TIP3    H217680   6.602   0.157   2.899
 5913TIP3   OH217681   3.440   1.783   6.379
 5913TIP3    H117682   3.528   1.791   6.342
 5913TIP3    H217683   3.395   1.722   6.320
 5914TIP3   OH217684   7.530   2.262   2.370
 5914TIP3    H117685   7.486   2.272   2.455
 5914TIP3    H217686   7.543   2.352   2.339
 5915TIP3   OH217687   6.829   4.404   6.604
 5915TIP3    H117688   6.759   4.415   6.669
 5915TIP3    H217689   6.884   4.335   6.639
 5916TIP3   OH217690   5.330   5.777   2.025
 5916TIP3    H117691   5.265   5.725   2.073
 5916TIP3    H217692   5.303   5.770   1.933
 5917TIP3   OH217693   2.871   1.511   4.876
 5917TIP3    H117694   2.863   1.576   4.945
 5917TIP3    H217695   2.958   1.473   4.888
 5918TIP3   OH217696   2.700   4.867   4.578
 5918TIP3    H117697   2.618   4.821   4.596
 5918TIP3    H217698   2.740   4.817   4.507
 5919TIP3   OH217699   4.770   6.211   6.174
 5919TIP3    H117700   4.736   6.122   6.163
 5919TIP3    H217701   4.785   6.219   6.269
 5920TIP3   OH217702   0.278   6.036   4.397
 5920TIP3    H117703   0.191   5.998   4.403
 5920TIP3    H217704   0.322   5.986   4.328
 5921TIP3   OH217705   7.393   1.004   2.783
 5921TIP3    H117706   7.476   0.957   2.796
 5921TIP3    H217707   7.363   0.976   2.696
 5922TIP3   OH217708   1.764   4.977   0.531
 5922TIP3    H117709   1.810   4.973   0.447
 5922TIP3    H217710   1.752   5.070   0.548
 5923TIP3   OH217711   6.226   1.671   0.234
 5923TIP3    H117712   6.241   1.682   0.328
 5923TIP3    H217713   6.237   1.577   0.219
 5924TIP3   OH217714   1.484   7.734   4.919
 5924TIP3    H117715   1.508   7.806   4.860
 5924TIP3    H217716   1.401   7.701   4.885
 5925TIP3   OH217717   7.566   6.134   4.238
 5925TIP3    H117718   7.658   6.157   4.252
 5925TIP3    H217719   7.560   6.042   4.263
 5926TIP3   OH217720   6.730   4.839   4.204
 5926TIP3    H117721   6.796   4.904   4.226
 5926TIP3    H217722   6.779   4.757   4.194
 5927TIP3   OH217723   4.011   5.857   1.211
 5927TIP3    H117724   3.928   5.874   1.257
 5927TIP3    H217725   3.984   5.817   1.129
 5928TIP3   OH217726   5.771   2.528   0.992
 5928TIP3    H117727   5.785   2.435   1.009
 5928TIP3    H217728   5.790   2.571   1.076
 5929TIP3   OH217729   3.412   7.705   4.413
 5929TIP3    H117730   3.425   7.618   4.451
 5929TIP3    H217731   3.479   7.760   4.454
 5930TIP3   OH217732   6.285   3.879   3.649
 5930TIP3    H117733   6.369   3.913   3.618
 5930TIP3    H217734   6.222   3.947   3.625
 5931TIP3   OH217735   0.458   0.369   4.944
 5931TIP3    H117736   0.536   0.321   4.917
 5931TIP3    H217737   0.487   0.460   4.951
 5932TIP3   OH217738   5.306   1.860   4.864
 5932TIP3    H117739   5.337   1.903   4.944
 5932TIP3    H217740   5.266   1.931   4.813
 5933TIP3   OH217741   8.011   7.591   6.285
 5933TIP3    H117742   7.951   7.663   6.268
 5933TIP3    H217743   8.004   7.577   6.380
 5934TIP3   OH217744   7.271   4.450   6.429
 5934TIP3    H117745   7.228   4.531   6.456
 5934TIP3    H217746   7.232   4.428   6.345
 5935TIP3   OH217747   1.143   7.730   3.106
 5935TIP3    H117748   1.179   7.650   3.069
 5935TIP3    H217749   1.049   7.710   3.117
 5936TIP3   OH217750   7.098   1.614   1.729
 5936TIP3    H117751   7.033   1.678   1.700
 5936TIP3    H217752   7.085   1.539   1.670
 5937TIP3   OH217753   1.867   6.266   5.290
 5937TIP3    H117754   1.913   6.346   5.267
 5937TIP3    H217755   1.818   6.244   5.211
 5938TIP3   OH217756   6.707   1.515   6.069
 5938TIP3    H117757   6.703   1.577   5.996
 5938TIP3    H217758   6.715   1.570   6.147
 5939TIP3   OH217759   0.402   4.118   2.747
 5939TIP3    H117760   0.335   4.084   2.687
 5939TIP3    H217761   0.466   4.047   2.754
 5940TIP3   OH217762   5.821   7.540   2.093
 5940TIP3    H117763   5.833   7.552   1.999
 5940TIP3    H217764   5.807   7.445   2.103
 5941TIP3   OH217765   2.472   6.982   2.109
 5941TIP3    H117766   2.429   7.066   2.095
 5941TIP3    H217767   2.565   7.001   2.105
 5942TIP3   OH217768   4.699   5.427   5.224
 5942TIP3    H117769   4.676   5.426   5.131
 5942TIP3    H217770   4.615   5.431   5.269
 5943TIP3   OH217771   0.057   0.108   5.704
 5943TIP3    H117772  -0.007   0.092   5.773
 5943TIP3    H217773   0.007   0.146   5.632
 5944TIP3   OH217774   0.864   3.035   3.467
 5944TIP3    H117775   0.952   2.996   3.471
 5944TIP3    H217776   0.879   3.128   3.449
 5945TIP3   OH217777   3.914   6.439   5.561
 5945TIP3    H117778   3.871   6.362   5.598
 5945TIP3    H217779   3.846   6.507   5.562
 5946TIP3   OH217780   1.646   0.714   2.230
 5946TIP3    H117781   1.637   0.649   2.161
 5946TIP3    H217782   1.589   0.682   2.301
 5947TIP3   OH217783   5.457   3.815   6.144
 5947TIP3    H117784   5.489   3.906   6.144
 5947TIP3    H217785   5.533   3.763   6.171
 5948TIP3   OH217786   0.346   4.010   4.727
 5948TIP3    H117787   0.430   3.965   4.717
 5948TIP3    H217788   0.332   4.055   4.644
 5949TIP3   OH217789   7.697   2.396   5.053
 5949TIP3    H117790   7.784   2.363   5.076
 5949TIP3    H217791   7.694   2.483   5.092
 5950TIP3   OH217792   7.609   5.851   2.227
 5950TIP3    H117793   7.567   5.850   2.313
 5950TIP3    H217794   7.662   5.772   2.225
 5951TIP3   OH217795   4.158   3.488   2.283
 5951TIP3    H117796   4.125   3.398   2.291
 5951TIP3    H217797   4.177   3.515   2.372
 5952TIP3   OH217798   4.566   1.401   0.330
 5952TIP3    H117799   4.573   1.312   0.365
 5952TIP3    H217800   4.473   1.413   0.314
 5953TIP3   OH217801   5.953   7.544   3.539
 5953TIP3    H117802   5.980   7.542   3.447
 5953TIP3    H217803   6.012   7.482   3.583
 5954TIP3   OH217804   0.058   3.348   5.909
 5954TIP3    H117805   0.114   3.404   5.854
 5954TIP3    H217806   0.017   3.287   5.848
 5955TIP3   OH217807   1.905   4.579   4.023
 5955TIP3    H117808   1.883   4.672   4.023
 5955TIP3    H217809   1.918   4.557   4.115
 5956TIP3   OH217810   1.280   6.914   0.087
 5956TIP3    H117811   1.205   6.971   0.074
 5956TIP3    H217812   1.310   6.934   0.176
 5957TIP3   OH217813   8.229   0.457   4.937
 5957TIP3    H117814   8.301   0.424   4.884
 5957TIP3    H217815   8.252   0.548   4.956
 5958TIP3   OH217816   7.718   2.658   3.016
 5958TIP3    H117817   7.637   2.621   3.050
 5958TIP3    H217818   7.691   2.738   2.971
 5959TIP3   OH217819   7.149   0.347   5.971
 5959TIP3    H117820   7.237   0.319   5.944
 5959TIP3    H217821   7.104   0.265   5.992
 5960TIP3   OH217822   3.148   4.869   1.374
 5960TIP3    H117823   3.110   4.816   1.444
 5960TIP3    H217824   3.171   4.952   1.416
 5961TIP3   OH217825   5.628   0.160   0.788
 5961TIP3    H117826   5.631   0.220   0.713
 5961TIP3    H217827   5.587   0.211   0.857
 5962TIP3   OH217828   6.712   6.966   5.007
 5962TIP3    H117829   6.662   7.017   4.943
 5962TIP3    H217830   6.756   7.033   5.061
 5963TIP3   OH217831   6.663   2.023   3.731
 5963TIP3    H117832   6.668   2.009   3.636
 5963TIP3    H217833   6.578   2.065   3.744
 5964TIP3   OH217834   0.639   6.261   3.295
 5964TIP3    H117835   0.579   6.195   3.260
 5964TIP3    H217836   0.663   6.229   3.381
 5965TIP3   OH217837   4.912   1.755   2.273
 5965TIP3    H117838   4.842   1.695   2.296
 5965TIP3    H217839   4.967   1.758   2.351
 5966TIP3   OH217840   0.455   5.533   3.994
 5966TIP3    H117841   0.453   5.536   3.899
 5966TIP3    H217842   0.503   5.612   4.020
 5967TIP3   OH217843   4.940   2.345   1.242
 5967TIP3    H117844   5.027   2.383   1.246
 5967TIP3    H217845   4.888   2.399   1.302
 5968TIP3   OH217846   0.387   3.404   4.176
 5968TIP3    H117847   0.358   3.396   4.267
 5968TIP3    H217848   0.413   3.315   4.152
 5969TIP3   OH217849   4.487   0.030   5.327
 5969TIP3    H117850   4.431   0.086   5.381
 5969TIP3    H217851   4.565   0.015   5.381
 5970TIP3   OH217852   8.011   3.661   1.972
 5970TIP3    H117853   8.055   3.601   2.032
 5970TIP3    H217854   8.033   3.748   2.003
 5971TIP3   OH217855   4.749   5.647   3.492
 5971TIP3    H117856   4.730   5.735   3.460
 5971TIP3    H217857   4.842   5.651   3.518
 5972TIP3   OH217858   3.960   2.949   3.270
 5972TIP3    H117859   3.865   2.951   3.261
 5972TIP3    H217860   3.983   2.857   3.253
 5973TIP3   OH217861   7.289   0.261   2.592
 5973TIP3    H117862   7.305   0.209   2.513
 5973TIP3    H217863   7.228   0.329   2.564
 5974TIP3   OH217864   0.948   2.135   0.238
 5974TIP3    H117865   0.890   2.087   0.178
 5974TIP3    H217866   0.931   2.096   0.324
 5975TIP3   OH217867   1.145   6.110   4.971
 5975TIP3    H117868   1.120   6.022   4.943
 5975TIP3    H217869   1.106   6.121   5.057
 5976TIP3   OH217870   2.463   7.079   2.452
 5976TIP3    H117871   2.375   7.103   2.421
 5976TIP3    H217872   2.517   7.079   2.374
 5977TIP3   OH217873   8.007   2.920   4.766
 5977TIP3    H117874   7.973   2.849   4.821
 5977TIP3    H217875   8.101   2.918   4.779
 5978TIP3   OH217876   5.473   5.810   4.879
 5978TIP3    H117877   5.548   5.830   4.824
 5978TIP3    H217878   5.423   5.746   4.829
 5979TIP3   OH217879   7.497   3.966   1.298
 5979TIP3    H117880   7.471   4.029   1.365
 5979TIP3    H217881   7.474   4.009   1.215
 5980TIP3   OH217882   1.077   5.456   0.454
 5980TIP3    H117883   1.005   5.423   0.401
 5980TIP3    H217884   1.108   5.533   0.406
 5981TIP3   OH217885   1.023   6.530   3.058
 5981TIP3    H117886   1.037   6.515   2.964
 5981TIP3    H217887   0.986   6.448   3.090
 5982TIP3   OH217888   4.873   7.648   1.394
 5982TIP3    H117889   4.817   7.725   1.401
 5982TIP3    H217890   4.858   7.600   1.476
 5983TIP3   OH217891   0.087   4.624   0.895
 5983TIP3    H117892   0.012   4.673   0.928
 5983TIP3    H217893   0.140   4.688   0.849
 5984TIP3   OH217894   0.710   5.804   5.518
 5984TIP3    H117895   0.720   5.850   5.602
 5984TIP3    H217896   0.750   5.718   5.533
 5985TIP3   OH217897   4.966   4.655   4.766
 5985TIP3    H117898   4.930   4.595   4.701
 5985TIP3    H217899   4.975   4.738   4.720
 5986TIP3   OH217900   1.499   5.940   6.063
 5986TIP3    H117901   1.433   5.901   6.005
 5986TIP3    H217902   1.524   6.022   6.019
 5987TIP3   OH217903   7.070   6.533   5.761
 5987TIP3    H117904   7.032   6.449   5.785
 5987TIP3    H217905   7.006   6.574   5.703
 5988TIP3   OH217906   4.391   2.364   0.821
 5988TIP3    H117907   4.375   2.275   0.852
 5988TIP3    H217908   4.304   2.403   0.813
 5989TIP3   OH217909   2.010   6.930   2.933
 5989TIP3    H117910   1.928   6.981   2.931
 5989TIP3    H217911   2.046   6.939   2.845
 5990TIP3   OH217912   6.585   4.040   2.867
 5990TIP3    H117913   6.499   4.055   2.830
 5990TIP3    H217914   6.569   4.023   2.960
 5991TIP3   OH217915   3.989   5.150   1.452
 5991TIP3    H117916   3.944   5.234   1.450
 5991TIP3    H217917   3.929   5.092   1.500
 5992TIP3   OH217918   1.015   1.187   0.424
 5992TIP3    H117919   0.967   1.105   0.414
 5992TIP3    H217920   1.013   1.205   0.517
 5993TIP3   OH217921   3.418   6.158   5.612
 5993TIP3    H117922   3.420   6.088   5.547
 5993TIP3    H217923   3.347   6.134   5.672
 5994TIP3   OH217924   8.081   3.918   2.123
 5994TIP3    H117925   7.987   3.913   2.137
 5994TIP3    H217926   8.104   4.009   2.145
 5995TIP3   OH217927   2.449   4.008   0.987
 5995TIP3    H117928   2.479   3.996   1.077
 5995TIP3    H217929   2.407   4.094   0.987
 5996TIP3   OH217930   1.277   2.249   5.225
 5996TIP3    H117931   1.222   2.176   5.199
 5996TIP3    H217932   1.340   2.211   5.285
 5997TIP3   OH217933   0.724   3.801   2.007
 5997TIP3    H117934   0.660   3.805   2.078
 5997TIP3    H217935   0.750   3.708   2.004
 5998TIP3   OH217936   3.669   5.976   0.078
 5998TIP3    H117937   3.729   5.938   0.014
 5998TIP3    H217938   3.684   6.070   0.072
 5999TIP3   OH217939   2.327   0.503   2.453
 5999TIP3    H117940   2.363   0.553   2.526
 5999TIP3    H217941   2.403   0.480   2.399
 6000TIP3   OH217942   1.341   0.273   6.565
 6000TIP3    H117943   1.250   0.254   6.542
 6000TIP3    H217944   1.368   0.198   6.618
 6001TIP3   OH217945   3.549   4.831   4.392
 6001TIP3    H117946   3.563   4.912   4.441
 6001TIP3    H217947   3.454   4.824   4.385
 6002TIP3   OH217948   4.122   6.103   1.192
 6002TIP3    H117949   4.115   6.008   1.179
 6002TIP3    H217950   4.154   6.113   1.281
 6003TIP3   OH217951   6.321   4.541   3.985
 6003TIP3    H117952   6.266   4.567   4.058
 6003TIP3    H217953   6.371   4.620   3.964
 6004TIP3   OH217954   5.277   1.639   6.402
 6004TIP3    H117955   5.188   1.659   6.430
 6004TIP3    H217956   5.278   1.660   6.309
 6005TIP3   OH217957   6.226   7.482   1.534
 6005TIP3    H117958   6.209   7.550   1.468
 6005TIP3    H217959   6.321   7.469   1.531
 6006TIP3   OH217960   0.413   7.688   0.113
 6006TIP3    H117961   0.449   7.599   0.115
 6006TIP3    H217962   0.326   7.679   0.153
 6007TIP3   OH217963   1.986   5.801  -0.009
 6007TIP3    H117964   1.905   5.847   0.010
 6007TIP3    H217965   2.021   5.778   0.077
 6008TIP3   OH217966   1.008   7.093   0.132
 6008TIP3    H117967   0.913   7.104   0.133
 6008TIP3    H217968   1.036   7.130   0.048
 6009TIP3   OH217969   2.357   0.334   5.390
 6009TIP3    H117970   2.344   0.344   5.484
 6009TIP3    H217971   2.271   0.307   5.357
 6010TIP3   OH217972   0.101   6.837   5.301
 6010TIP3    H117973   0.033   6.778   5.333
 6010TIP3    H217974   0.181   6.785   5.305
 6011TIP3   OH217975   0.279   4.684   6.092
 6011TIP3    H117976   0.317   4.772   6.095
 6011TIP3    H217977   0.269   4.665   5.999
 6012TIP3   OH217978   1.239   7.046   5.772
 6012TIP3    H117979   1.288   6.990   5.712
 6012TIP3    H217980   1.256   7.135   5.741
 6013TIP3   OH217981   6.688   4.713   1.493
 6013TIP3    H117982   6.619   4.673   1.441
 6013TIP3    H217983   6.668   4.688   1.583
 6014TIP3   OH217984   6.085   4.410   0.704
 6014TIP3    H117985   6.085   4.337   0.642
 6014TIP3    H217986   6.065   4.370   0.788
 6015TIP3   OH217987   2.519   0.061   5.542
 6015TIP3    H117988   2.559   0.043   5.457
 6015TIP3    H217989   2.509   0.156   5.545
 6016TIP3   OH217990   2.836   3.829   4.887
 6016TIP3    H117991   2.780   3.846   4.963
 6016TIP3    H217992   2.910   3.780   4.922
 6017TIP3   OH217993   7.914   6.203   0.976
 6017TIP3    H117994   8.009   6.216   0.979
 6017TIP3    H217995   7.900   6.142   0.904
 6018TIP3   OH217996   8.135   5.142   6.222
 6018TIP3    H117997   8.123   5.064   6.276
 6018TIP3    H217998   8.059   5.145   6.165
 6019TIP3   OH217999   2.253   0.067   0.787
 6019TIP3    H118000   2.194   0.086   0.714
 6019TIP3    H218001   2.282  -0.023   0.773
 6020TIP3   OH218002   6.453   1.290   5.645
 6020TIP3    H118003   6.361   1.311   5.658
 6020TIP3    H218004   6.453   1.208   5.595
 6021TIP3   OH218005   6.257   3.175   2.953
 6021TIP3    H118006   6.190   3.231   2.913
 6021TIP3    H218007   6.271   3.211   3.040
 6022TIP3   OH218008   6.985   7.549   2.453
 6022TIP3    H118009   6.945   7.542   2.366
 6022TIP3    H218010   7.078   7.537   2.438
 6023TIP3   OH218011   3.065   1.233   4.513
 6023TIP3    H118012   3.115   1.154   4.491
 6023TIP3    H218013   3.092   1.255   4.602
 6024TIP3   OH218014   0.176   5.907   0.635
 6024TIP3    H118015   0.141   5.976   0.579
 6024TIP3    H218016   0.098   5.860   0.665
 6025TIP3   OH218017   2.032   2.941   4.506
 6025TIP3    H118018   2.007   3.030   4.480
 6025TIP3    H218019   2.115   2.952   4.552
 6026TIP3   OH218020   2.114   7.191   6.599
 6026TIP3    H118021   2.031   7.183   6.646
 6026TIP3    H218022   2.093   7.245   6.522
 6027TIP3   OH218023   2.617   0.291   0.007
 6027TIP3    H118024   2.677   0.245   0.065
 6027TIP3    H218025   2.611   0.379   0.042
 6028TIP3   OH218026   6.885   4.713   3.351
 6028TIP3    H118027   6.869   4.708   3.257
 6028TIP3    H218028   6.979   4.696   3.360
 6029TIP3   OH218029   2.823   6.414   4.082
 6029TIP3    H118030   2.908   6.370   4.085
 6029TIP3    H218031   2.794   6.414   4.174
 6030TIP3   OH218032   6.213   1.125   4.741
 6030TIP3    H118033   6.145   1.189   4.759
 6030TIP3    H218034   6.168   1.054   4.696
 6031TIP3   OH218035   1.140   5.337   5.162
 6031TIP3    H118036   1.061   5.368   5.117
 6031TIP3    H218037   1.137   5.380   5.247
 6032TIP3   OH218038   7.832   6.721   3.600
 6032TIP3    H118039   7.849   6.634   3.564
 6032TIP3    H218040   7.739   6.719   3.624
 6033TIP3   OH218041   5.828   6.353   0.533
 6033TIP3    H118042   5.923   6.351   0.524
 6033TIP3    H218043   5.811   6.320   0.621
 6034TIP3   OH218044   2.442   2.927   2.651
 6034TIP3    H118045   2.369   2.966   2.699
 6034TIP3    H218046   2.403   2.854   2.603
 6035TIP3   OH218047   0.428   7.656   3.089
 6035TIP3    H118048   0.458   7.704   3.012
 6035TIP3    H218049   0.457   7.566   3.074
 6036TIP3   OH218050   3.321   2.907   0.657
 6036TIP3    H118051   3.270   2.826   0.663
 6036TIP3    H218052   3.344   2.914   0.564
 6037TIP3   OH218053   1.582   3.463   5.459
 6037TIP3    H118054   1.561   3.414   5.539
 6037TIP3    H218055   1.631   3.401   5.406
 6038TIP3   OH218056   2.281   6.847   6.695
 6038TIP3    H118057   2.293   6.902   6.772
 6038TIP3    H218058   2.192   6.866   6.665
 6039TIP3   OH218059   4.022   1.873   3.783
 6039TIP3    H118060   4.032   1.960   3.745
 6039TIP3    H218061   3.998   1.817   3.709
 6040TIP3   OH218062   7.582   5.430   0.718
 6040TIP3    H118063   7.652   5.467   0.664
 6040TIP3    H218064   7.628   5.386   0.790
 6041TIP3   OH218065   0.877   5.324   4.679
 6041TIP3    H118066   0.930   5.395   4.645
 6041TIP3    H218067   0.865   5.265   4.604
 6042TIP3   OH218068   7.530   5.235   5.966
 6042TIP3    H118069   7.483   5.172   6.020
 6042TIP3    H218070   7.465   5.264   5.901
 6043TIP3   OH218071   3.952   4.314   6.539
 6043TIP3    H118072   4.041   4.349   6.545
 6043TIP3    H218073   3.957   4.246   6.472
 6044TIP3   OH218074   8.094   3.383   4.936
 6044TIP3    H118075   8.185   3.387   4.965
 6044TIP3    H218076   8.096   3.421   4.847
 6045TIP3   OH218077   6.175   5.207   5.003
 6045TIP3    H118078   6.205   5.276   4.943
 6045TIP3    H218079   6.105   5.162   4.956
 6046TIP3   OH218080   2.081   2.759   6.722
 6046TIP3    H118081   2.121   2.801   6.647
 6046TIP3    H218082   1.996   2.803   6.732
 6047TIP3   OH218083   8.199   1.613   2.499
 6047TIP3    H118084   8.129   1.576   2.553
 6047TIP3    H218085   8.201   1.706   2.525
 6048TIP3   OH218086   1.660   7.074   2.726
 6048TIP3    H118087   1.614   7.144   2.680
 6048TIP3    H218088   1.623   7.074   2.814
 6049TIP3   OH218089   4.735   1.329   2.790
 6049TIP3    H118090   4.639   1.324   2.786
 6049TIP3    H218091   4.755   1.420   2.770
 6050TIP3   OH218092   7.469   7.693   3.753
 6050TIP3    H118093   7.487   7.695   3.847
 6050TIP3    H218094   7.421   7.774   3.736
 6051TIP3   OH218095   2.277   4.211   4.265
 6051TIP3    H118096   2.289   4.143   4.199
 6051TIP3    H218097   2.337   4.281   4.240
 6052TIP3   OH218098   0.400   0.722   1.873
 6052TIP3    H118099   0.438   0.758   1.793
 6052TIP3    H218100   0.351   0.794   1.911
 6053TIP3   OH218101   5.264   1.804   2.077
 6053TIP3    H118102   5.251   1.714   2.106
 6053TIP3    H218103   5.353   1.825   2.103
 6054TIP3   OH218104   3.656   3.064   0.249
 6054TIP3    H118105   3.722   3.132   0.260
 6054TIP3    H218106   3.702   2.983   0.272
 6055TIP3   OH218107   4.275   2.085   5.954
 6055TIP3    H118108   4.266   2.008   5.898
 6055TIP3    H218109   4.217   2.067   6.028
 6056TIP3   OH218110   1.136   2.566   3.946
 6056TIP3    H118111   1.093   2.509   3.882
 6056TIP3    H218112   1.220   2.587   3.905
 6057TIP3   OH218113   3.980   6.580   1.462
 6057TIP3    H118114   4.052   6.622   1.509
 6057TIP3    H218115   3.915   6.560   1.530
 6058TIP3   OH218116   2.514   7.160   3.617
 6058TIP3    H118117   2.420   7.175   3.629
 6058TIP3    H218118   2.527   7.165   3.522
 6059TIP3   OH218119   0.886   3.699   5.991
 6059TIP3    H118120   0.844   3.620   6.024
 6059TIP3    H218121   0.834   3.725   5.915
 6060TIP3   OH218122   3.307   3.385   3.453
 6060TIP3    H118123   3.302   3.364   3.360
 6060TIP3    H218124   3.308   3.300   3.497
 6061TIP3   OH218125   0.448   3.318   4.737
 6061TIP3    H118126   0.538   3.336   4.767
 6061TIP3    H218127   0.458   3.244   4.677
 6062TIP3   OH218128   6.699   0.406   6.407
 6062TIP3    H118129   6.741   0.416   6.492
 6062TIP3    H218130   6.605   0.414   6.425
 6063TIP3   OH218131   3.002   5.285   6.689
 6063TIP3    H118132   3.002   5.251   6.778
 6063TIP3    H218133   3.063   5.358   6.691
 6064TIP3   OH218134   1.454   4.605   2.439
 6064TIP3    H118135   1.535   4.609   2.490
 6064TIP3    H218136   1.386   4.595   2.505
 6065TIP3   OH218137   0.173   1.448   6.233
 6065TIP3    H118138   0.152   1.362   6.197
 6065TIP3    H218139   0.237   1.430   6.303
 6066TIP3   OH218140   7.742   5.697   3.764
 6066TIP3    H118141   7.745   5.790   3.786
 6066TIP3    H218142   7.680   5.692   3.691
 6067TIP3   OH218143   1.905   2.549   3.162
 6067TIP3    H118144   1.816   2.513   3.156
 6067TIP3    H218145   1.900   2.633   3.118
 6068TIP3   OH218146   7.418   6.443   0.865
 6068TIP3    H118147   7.337   6.398   0.886
 6068TIP3    H218148   7.401   6.535   0.888
 6069TIP3   OH218149   6.740   2.651   1.180
 6069TIP3    H118150   6.772   2.568   1.213
 6069TIP3    H218151   6.802   2.676   1.112
 6070TIP3   OH218152   6.994   4.915   5.157
 6070TIP3    H118153   6.966   4.951   5.241
 6070TIP3    H218154   7.058   4.978   5.124
 6071TIP3   OH218155   4.431   5.413   4.623
 6071TIP3    H118156   4.339   5.412   4.597
 6071TIP3    H218157   4.467   5.331   4.589
 6072TIP3   OH218158   7.767   3.960   0.685
 6072TIP3    H118159   7.787   3.932   0.596
 6072TIP3    H218160   7.786   3.884   0.739
 6073TIP3   OH218161   0.108   4.658   1.397
 6073TIP3    H118162   0.178   4.694   1.343
 6073TIP3    H218163   0.098   4.722   1.468
 6074TIP3   OH218164   8.196   4.573   5.764
 6074TIP3    H118165   8.144   4.586   5.843
 6074TIP3    H218166   8.216   4.480   5.762
 6075TIP3   OH218167   3.118   1.576   4.375
 6075TIP3    H118168   3.061   1.585   4.452
 6075TIP3    H218169   3.182   1.647   4.384
 6076TIP3   OH218170   1.699   3.679   0.189
 6076TIP3    H118171   1.744   3.666   0.106
 6076TIP3    H218172   1.723   3.603   0.242
 6077TIP3   OH218173   1.233   2.625   2.550
 6077TIP3    H118174   1.172   2.693   2.580
 6077TIP3    H218175   1.191   2.543   2.577
 6078TIP3   OH218176   4.868   7.503   4.996
 6078TIP3    H118177   4.917   7.555   4.933
 6078TIP3    H218178   4.899   7.535   5.082
 6079TIP3   OH218179   4.654   7.124   0.765
 6079TIP3    H118180   4.563   7.124   0.797
 6079TIP3    H218181   4.658   7.197   0.704
 6080TIP3   OH218182   4.073   6.088   2.341
 6080TIP3    H118183   4.118   6.010   2.310
 6080TIP3    H218184   4.079   6.150   2.268
 6081TIP3   OH218185   5.657   6.357   4.754
 6081TIP3    H118186   5.645   6.306   4.834
 6081TIP3    H218187   5.746   6.338   4.726
 6082TIP3   OH218188   7.035   0.923   5.665
 6082TIP3    H118189   7.068   0.842   5.627
 6082TIP3    H218190   7.023   0.981   5.589
 6083TIP3   OH218191   6.935   0.552   5.414
 6083TIP3    H118192   6.936   0.542   5.319
 6083TIP3    H218193   6.999   0.621   5.431
 6084TIP3   OH218194   5.257   6.001   5.695
 6084TIP3    H118195   5.278   5.932   5.633
 6084TIP3    H218196   5.340   6.046   5.711
 6085TIP3   OH218197   4.887   0.534   3.028
 6085TIP3    H118198   4.856   0.592   2.958
 6085TIP3    H218199   4.979   0.518   3.007
 6086TIP3   OH218200   4.885   2.071   1.184
 6086TIP3    H118201   4.928   2.153   1.207
 6086TIP3    H218202   4.838   2.045   1.263
 6087TIP3   OH218203   3.103   4.557   4.528
 6087TIP3    H118204   3.064   4.643   4.545
 6087TIP3    H218205   3.087   4.507   4.608
 6088TIP3   OH218206   5.846  -0.022   2.173
 6088TIP3    H118207   5.868   0.071   2.170
 6088TIP3    H218208   5.795  -0.037   2.094
 6089TIP3   OH218209   1.908   4.341   3.883
 6089TIP3    H118210   1.954   4.273   3.932
 6089TIP3    H218211   1.918   4.420   3.936
 6090TIP3   OH218212   1.132   1.818   6.149
 6090TIP3    H118213   1.075   1.749   6.114
 6090TIP3    H218214   1.107   1.897   6.101
 6091TIP3   OH218215   1.926   1.090   4.670
 6091TIP3    H118216   2.018   1.100   4.695
 6091TIP3    H218217   1.880   1.157   4.721
 6092TIP3   OH218218   4.599   1.765   5.101
 6092TIP3    H118219   4.608   1.808   5.016
 6092TIP3    H218220   4.658   1.813   5.158
 6093TIP3   OH218221   6.143   4.084   3.525
 6093TIP3    H118222   6.139   4.173   3.561
 6093TIP3    H218223   6.051   4.057   3.520
 6094TIP3   OH218224   4.295   4.180   3.563
 6094TIP3    H118225   4.326   4.167   3.652
 6094TIP3    H218226   4.367   4.148   3.508
 6095TIP3   OH218227   3.248   2.966   1.630
 6095TIP3    H118228   3.222   2.982   1.539
 6095TIP3    H218229   3.336   3.004   1.636
 6096TIP3   OH218230   7.924   0.464   6.046
 6096TIP3    H118231   8.001   0.501   6.003
 6096TIP3    H218232   7.879   0.416   5.976
 6097TIP3   OH218233   3.211   4.590   0.916
 6097TIP3    H118234   3.204   4.503   0.955
 6097TIP3    H218235   3.167   4.648   0.978
 6098TIP3   OH218236   4.046   2.741   1.955
 6098TIP3    H118237   3.982   2.723   1.886
 6098TIP3    H218238   4.076   2.654   1.983
 6099TIP3   OH218239   4.490   0.189   4.120
 6099TIP3    H118240   4.481   0.126   4.192
 6099TIP3    H218241   4.499   0.274   4.164
 6100TIP3   OH218242   7.043   4.851   1.233
 6100TIP3    H118243   6.996   4.814   1.159
 6100TIP3    H218244   7.022   4.945   1.230
 6101TIP3   OH218245   8.063   2.384   3.937
 6101TIP3    H118246   8.158   2.376   3.927
 6101TIP3    H218247   8.042   2.470   3.902
 6102TIP3   OH218248   4.962   0.964   6.194
 6102TIP3    H118249   5.026   0.896   6.218
 6102TIP3    H218250   4.945   0.948   6.101
 6103TIP3   OH218251   1.089   5.107   0.392
 6103TIP3    H118252   1.060   5.194   0.419
 6103TIP3    H218253   1.075   5.106   0.297
 6104TIP3   OH218254   0.577   2.613   0.491
 6104TIP3    H118255   0.508   2.615   0.424
 6104TIP3    H218256   0.582   2.521   0.517
 6105TIP3   OH218257   2.267   3.247   4.737
 6105TIP3    H118258   2.185   3.210   4.706
 6105TIP3    H218259   2.302   3.182   4.798
 6106TIP3   OH218260   7.193   3.608   1.499
 6106TIP3    H118261   7.161   3.677   1.441
 6106TIP3    H218262   7.215   3.654   1.580
 6107TIP3   OH218263   3.743   7.323   1.052
 6107TIP3    H118264   3.748   7.299   1.144
 6107TIP3    H218265   3.818   7.279   1.012
 6108TIP3   OH218266   4.887   2.577   4.520
 6108TIP3    H118267   4.884   2.615   4.608
 6108TIP3    H218268   4.853   2.645   4.463
 6109TIP3   OH218269   1.087   4.350   4.056
 6109TIP3    H118270   1.061   4.263   4.025
 6109TIP3    H218271   1.069   4.348   4.150
 6110TIP3   OH218272   4.679   1.506   4.938
 6110TIP3    H118273   4.594   1.488   4.899
 6110TIP3    H218274   4.701   1.594   4.908
 6111TIP3   OH218275   1.550   0.578   5.503
 6111TIP3    H118276   1.557   0.611   5.414
 6111TIP3    H218277   1.600   0.497   5.503
 6112TIP3   OH218278   1.661   6.861   4.771
 6112TIP3    H118279   1.693   6.938   4.725
 6112TIP3    H218280   1.574   6.886   4.802
 6113TIP3   OH218281   3.994   7.059   3.435
 6113TIP3    H118282   3.964   7.128   3.377
 6113TIP3    H218283   3.967   6.977   3.393
 6114TIP3   OH218284   0.069   6.279   4.803
 6114TIP3    H118285   0.010   6.347   4.837
 6114TIP3    H218286   0.062   6.287   4.708
 6115TIP3   OH218287   4.343   0.654   5.342
 6115TIP3    H118288   4.418   0.594   5.345
 6115TIP3    H218289   4.357   0.704   5.262
 6116TIP3   OH218290   8.152   1.991   3.536
 6116TIP3    H118291   8.149   2.000   3.631
 6116TIP3    H218292   8.075   1.939   3.514
 6117TIP3   OH218293   0.267   0.232   2.148
 6117TIP3    H118294   0.229   0.144   2.139
 6117TIP3    H218295   0.263   0.269   2.060
 6118TIP3   OH218296   7.192   3.360   1.197
 6118TIP3    H118297   7.278   3.399   1.209
 6118TIP3    H218298   7.137   3.432   1.166
 6119TIP3   OH218299   4.615   0.495   4.752
 6119TIP3    H118300   4.582   0.409   4.726
 6119TIP3    H218301   4.546   0.556   4.726
 6120TIP3   OH218302   0.669   5.832   0.013
 6120TIP3    H118303   0.644   5.766  -0.051
 6120TIP3    H218304   0.609   5.819   0.087
 6121TIP3   OH218305   6.977   1.277   2.796
 6121TIP3    H118306   6.967   1.211   2.728
 6121TIP3    H218307   7.053   1.249   2.846
 6122TIP3   OH218308   7.574   0.494   1.298
 6122TIP3    H118309   7.654   0.506   1.246
 6122TIP3    H218310   7.544   0.406   1.275
 6123TIP3   OH218311   5.219   0.403   0.657
 6123TIP3    H118312   5.274   0.337   0.616
 6123TIP3    H218313   5.130   0.369   0.650
 6124TIP3   OH218314   2.268   2.904   4.674
 6124TIP3    H118315   2.324   2.883   4.599
 6124TIP3    H218316   2.316   2.871   4.750
 6125TIP3   OH218317   5.007   6.897   2.619
 6125TIP3    H118318   5.046   6.892   2.531
 6125TIP3    H218319   5.080   6.921   2.676
 6126TIP3   OH218320   5.397   7.805   5.893
 6126TIP3    H118321   5.400   7.767   5.981
 6126TIP3    H218322   5.403   7.729   5.834
 6127TIP3   OH218323   0.301   2.327   5.512
 6127TIP3    H118324   0.381   2.351   5.559
 6127TIP3    H218325   0.318   2.354   5.421
 6128TIP3   OH218326   6.019   6.927   5.771
 6128TIP3    H118327   6.001   6.836   5.749
 6128TIP3    H218328   6.115   6.934   5.768
 6129TIP3   OH218329   7.701   0.869   4.131
 6129TIP3    H118330   7.685   0.800   4.066
 6129TIP3    H218331   7.616   0.911   4.143
 6130TIP3   OH218332   4.535   0.191   2.464
 6130TIP3    H118333   4.493   0.277   2.463
 6130TIP3    H218334   4.615   0.204   2.516
 6131TIP3   OH218335   5.324   7.310   6.159
 6131TIP3    H118336   5.277   7.362   6.093
 6131TIP3    H218337   5.311   7.358   6.241
 6132TIP3   OH218338   5.931   6.692   5.690
 6132TIP3    H118339   5.892   6.694   5.603
 6132TIP3    H218340   5.858   6.670   5.749
 6133TIP3   OH218341   3.835   1.524   2.228
 6133TIP3    H118342   3.798   1.453   2.176
 6133TIP3    H218343   3.922   1.538   2.192
 6134TIP3   OH218344   0.014   6.745   2.223
 6134TIP3    H118345  -0.014   6.801   2.296
 6134TIP3    H218346   0.002   6.656   2.256
 6135TIP3   OH218347   4.894   3.407   6.034
 6135TIP3    H118348   4.978   3.373   6.005
 6135TIP3    H218349   4.914   3.489   6.079
 6136TIP3   OH218350   0.814   5.572   5.575
 6136TIP3    H118351   0.780   5.507   5.636
 6136TIP3    H218352   0.907   5.578   5.595
 6137TIP3   OH218353   0.830   6.826   3.614
 6137TIP3    H118354   0.801   6.913   3.642
 6137TIP3    H218355   0.888   6.797   3.684
 6138TIP3   OH218356   4.969   2.637   1.074
 6138TIP3    H118357   4.902   2.569   1.073
 6138TIP3    H218358   4.963   2.677   1.161
 6139TIP3   OH218359   6.158   7.490   6.405
 6139TIP3    H118360   6.233   7.520   6.456
 6139TIP3    H218361   6.183   7.507   6.314
 6140TIP3   OH218362   0.920   0.170   4.149
 6140TIP3    H118363   0.980   0.216   4.090
 6140TIP3    H218364   0.874   0.108   4.092
 6141TIP3   OH218365   2.904   4.210   1.451
 6141TIP3    H118366   2.999   4.213   1.466
 6141TIP3    H218367   2.867   4.180   1.534
 6142TIP3   OH218368   1.403   5.432   6.051
 6142TIP3    H118369   1.369   5.521   6.061
 6142TIP3    H218370   1.385   5.409   5.960
 6143TIP3   OH218371   4.167   0.373   6.553
 6143TIP3    H118372   4.226   0.339   6.620
 6143TIP3    H218373   4.138   0.458   6.586
 6144TIP3   OH218374   5.198   5.419   6.288
 6144TIP3    H118375   5.195   5.324   6.278
 6144TIP3    H218376   5.202   5.452   6.198
 6145TIP3   OH218377   6.984   4.522   5.939
 6145TIP3    H118378   7.054   4.541   5.877
 6145TIP3    H218379   6.909   4.571   5.906
 6146TIP3   OH218380   7.642   5.406   1.215
 6146TIP3    H118381   7.580   5.345   1.256
 6146TIP3    H218382   7.696   5.437   1.288
 6147TIP3   OH218383   5.292   3.420   1.051
 6147TIP3    H118384   5.199   3.397   1.051
 6147TIP3    H218385   5.335   3.345   1.091
 6148TIP3   OH218386   4.620   7.288   6.625
 6148TIP3    H118387   4.547   7.227   6.624
 6148TIP3    H218388   4.637   7.307   6.533
 6149TIP3   OH218389   7.504   1.971   1.028
 6149TIP3    H118390   7.493   1.947   0.936
 6149TIP3    H218391   7.478   2.063   1.033
 6150TIP3   OH218392   4.520   5.801   1.152
 6150TIP3    H118393   4.547   5.720   1.195
 6150TIP3    H218394   4.492   5.774   1.064
 6151TIP3   OH218395   0.745   2.864   5.664
 6151TIP3    H118396   0.839   2.875   5.680
 6151TIP3    H218397   0.737   2.867   5.569
 6152TIP3   OH218398   4.653   6.633   6.111
 6152TIP3    H118399   4.614   6.721   6.110
 6152TIP3    H218400   4.678   6.618   6.020
 6153TIP3   OH218401   6.481   4.219   0.978
 6153TIP3    H118402   6.548   4.283   0.954
 6153TIP3    H218403   6.425   4.266   1.040
 6154TIP3   OH218404   5.252   3.227   3.091
 6154TIP3    H118405   5.164   3.264   3.104
 6154TIP3    H218406   5.285   3.211   3.179
 6155TIP3   OH218407   0.369   0.624   5.281
 6155TIP3    H118408   0.381   0.530   5.268
 6155TIP3    H218409   0.335   0.631   5.370
 6156TIP3   OH218410   6.614   4.043   6.643
 6156TIP3    H118411   6.562   4.023   6.721
 6156TIP3    H218412   6.561   4.106   6.595
 6157TIP3   OH218413   2.283   1.493   5.059
 6157TIP3    H118414   2.324   1.504   5.145
 6157TIP3    H218415   2.232   1.573   5.045
 6158TIP3   OH218416   1.786   0.693   2.624
 6158TIP3    H118417   1.723   0.695   2.697
 6158TIP3    H218418   1.757   0.764   2.567
 6159TIP3   OH218419   1.033   1.547   2.261
 6159TIP3    H118420   1.065   1.636   2.272
 6159TIP3    H218421   1.112   1.493   2.260
 6160TIP3   OH218422   3.287   3.168   5.462
 6160TIP3    H118423   3.370   3.130   5.490
 6160TIP3    H218424   3.311   3.230   5.392
 6161TIP3   OH218425   0.563   2.896   5.102
 6161TIP3    H118426   0.571   2.890   5.197
 6161TIP3    H218427   0.634   2.953   5.075
 6162TIP3   OH218428   6.294   4.707   5.054
 6162TIP3    H118429   6.264   4.782   5.105
 6162TIP3    H218430   6.390   4.714   5.056
 6163TIP3   OH218431   0.845   2.494   0.854
 6163TIP3    H118432   0.749   2.488   0.858
 6163TIP3    H218433   0.868   2.454   0.771
 6164TIP3   OH218434   7.408   0.163   3.031
 6164TIP3    H118435   7.427   0.205   2.947
 6164TIP3    H218436   7.493   0.143   3.068
 6165TIP3   OH218437   3.382   0.064   3.151
 6165TIP3    H118438   3.327  -0.004   3.187
 6165TIP3    H218439   3.321   0.133   3.125
 6166TIP3   OH218440   5.888   0.889   0.930
 6166TIP3    H118441   5.931   0.957   0.879
 6166TIP3    H218442   5.816   0.858   0.874
 6167TIP3   OH218443   3.352   0.199   6.758
 6167TIP3    H118444   3.275   0.256   6.762
 6167TIP3    H218445   3.392   0.219   6.674
 6168TIP3   OH218446   8.249   2.458   3.579
 6168TIP3    H118447   8.222   2.416   3.661
 6168TIP3    H218448   8.223   2.550   3.590
 6169TIP3   OH218449   4.011   2.085   3.618
 6169TIP3    H118450   3.948   2.157   3.615
 6169TIP3    H218451   3.995   2.036   3.538
 6170TIP3   OH218452   1.177   1.864   3.366
 6170TIP3    H118453   1.232   1.928   3.412
 6170TIP3    H218454   1.196   1.781   3.408
 6171TIP3   OH218455   5.962   4.641   5.984
 6171TIP3    H118456   5.920   4.656   6.069
 6171TIP3    H218457   6.052   4.615   6.006
 6172TIP3   OH218458   3.252   3.898   1.784
 6172TIP3    H118459   3.219   3.810   1.767
 6172TIP3    H218460   3.341   3.885   1.818
 6173TIP3   OH218461   7.932   0.894   3.725
 6173TIP3    H118462   7.963   0.810   3.693
 6173TIP3    H218463   7.836   0.888   3.721
 6174TIP3   OH218464   2.584   7.113   3.348
 6174TIP3    H118465   2.614   7.025   3.322
 6174TIP3    H218466   2.506   7.128   3.295
 6175TIP3   OH218467   1.557   2.048   5.674
 6175TIP3    H118468   1.564   2.065   5.768
 6175TIP3    H218469   1.509   1.965   5.669
 6176TIP3   OH218470   8.115   1.795   5.463
 6176TIP3    H118471   8.126   1.710   5.506
 6176TIP3    H218472   8.020   1.806   5.456
 6177TIP3   OH218473   5.776   7.247   1.423
 6177TIP3    H118474   5.799   7.337   1.402
 6177TIP3    H218475   5.828   7.193   1.363
 6178TIP3   OH218476   4.594   5.263   5.531
 6178TIP3    H118477   4.590   5.168   5.523
 6178TIP3    H218478   4.554   5.282   5.616
 6179TIP3   OH218479   6.753   1.609   1.991
 6179TIP3    H118480   6.755   1.514   1.993
 6179TIP3    H218481   6.695   1.634   2.063
 6180TIP3   OH218482   4.925   4.274   2.597
 6180TIP3    H118483   4.961   4.347   2.647
 6180TIP3    H218484   4.843   4.308   2.561
 6181TIP3   OH218485   5.295   5.273   4.778
 6181TIP3    H118486   5.294   5.338   4.848
 6181TIP3    H218487   5.231   5.207   4.805
 6182TIP3   OH218488   3.894   7.654   6.422
 6182TIP3    H118489   3.972   7.703   6.446
 6182TIP3    H218490   3.836   7.719   6.382
 6183TIP3   OH218491   2.873   2.416   1.708
 6183TIP3    H118492   2.833   2.482   1.765
 6183TIP3    H218493   2.801   2.386   1.652
 6184TIP3   OH218494   2.625   0.801   4.862
 6184TIP3    H118495   2.568   0.861   4.910
 6184TIP3    H218496   2.707   0.801   4.911
 6185TIP3   OH218497   7.818   2.037   5.744
 6185TIP3    H118498   7.878   2.043   5.670
 6185TIP3    H218499   7.784   2.127   5.755
 6186TIP3   OH218500   2.604   4.643   1.553
 6186TIP3    H118501   2.588   4.549   1.549
 6186TIP3    H218502   2.613   4.671   1.462
 6187TIP3   OH218503   5.841   1.033   6.012
 6187TIP3    H118504   5.753   0.997   6.006
 6187TIP3    H218505   5.892   0.984   5.947
 6188TIP3   OH218506   3.558   4.855   5.945
 6188TIP3    H118507   3.643   4.847   5.987
 6188TIP3    H218508   3.500   4.801   5.998
 6189TIP3   OH218509   4.695   4.246   4.390
 6189TIP3    H118510   4.635   4.172   4.383
 6189TIP3    H218511   4.639   4.323   4.398
 6190TIP3   OH218512   4.147   2.440   3.587
 6190TIP3    H118513   4.181   2.431   3.498
 6190TIP3    H218514   4.222   2.424   3.644
 6191TIP3   OH218515   1.407   6.385   0.345
 6191TIP3    H118516   1.434   6.330   0.418
 6191TIP3    H218517   1.320   6.416   0.368
 6192TIP3   OH218518   2.775   0.561   3.123
 6192TIP3    H118519   2.830   0.486   3.148
 6192TIP3    H218520   2.809   0.588   3.037
 6193TIP3   OH218521   6.735   2.114   5.500
 6193TIP3    H118522   6.682   2.102   5.421
 6193TIP3    H218523   6.671   2.119   5.571
 6194TIP3   OH218524   2.794   1.514   0.441
 6194TIP3    H118525   2.816   1.529   0.349
 6194TIP3    H218526   2.858   1.450   0.471
 6195TIP3   OH218527   7.738   3.656   5.131
 6195TIP3    H118528   7.757   3.719   5.061
 6195TIP3    H218529   7.763   3.571   5.093
 6196TIP3   OH218530   0.294   2.297   5.901
 6196TIP3    H118531   0.346   2.217   5.901
 6196TIP3    H218532   0.229   2.284   5.832
 6197TIP3   OH218533   2.349   5.581   3.681
 6197TIP3    H118534   2.342   5.500   3.732
 6197TIP3    H218535   2.286   5.641   3.721
 6198TIP3   OH218536   5.855   2.968   4.310
 6198TIP3    H118537   5.763   2.943   4.312
 6198TIP3    H218538   5.892   2.919   4.237
 6199TIP3   OH218539   7.757   7.509   4.494
 6199TIP3    H118540   7.680   7.453   4.484
 6199TIP3    H218541   7.752   7.541   4.584
 6200TIP3   OH218542   8.137   3.495   2.783
 6200TIP3    H118543   8.190   3.441   2.841
 6200TIP3    H218544   8.106   3.435   2.715
 6201TIP3   OH218545   6.353   0.861   4.190
 6201TIP3    H118546   6.306   0.835   4.269
 6201TIP3    H218547   6.286   0.901   4.135
 6202TIP3   OH218548   6.971   0.173   1.044
 6202TIP3    H118549   6.975   0.236   0.972
 6202TIP3    H218550   6.879   0.170   1.069
 6203TIP3   OH218551   6.187   5.912   6.034
 6203TIP3    H118552   6.103   5.884   5.997
 6203TIP3    H218553   6.249   5.845   6.004
 6204TIP3   OH218554   1.338   6.823   3.221
 6204TIP3    H118555   1.275   6.760   3.255
 6204TIP3    H218556   1.286   6.903   3.206
 6205TIP3   OH218557   3.499   7.340   4.148
 6205TIP3    H118558   3.460   7.261   4.185
 6205TIP3    H218559   3.445   7.361   4.072
 6206TIP3   OH218560   2.328   4.546   6.601
 6206TIP3    H118561   2.414   4.584   6.616
 6206TIP3    H218562   2.343   4.452   6.599
 6207TIP3   OH218563   2.008   0.612   5.176
 6207TIP3    H118564   2.068   0.636   5.105
 6207TIP3    H218565   1.921   0.622   5.138
 6208TIP3   OH218566   5.379   5.343   5.062
 6208TIP3    H118567   5.432   5.265   5.077
 6208TIP3    H218568   5.438   5.416   5.080
 6209TIP3   OH218569   6.328   4.141   4.198
 6209TIP3    H118570   6.234   4.152   4.181
 6209TIP3    H218571   6.352   4.063   4.148
 6210TIP3   OH218572   1.569   2.842   2.758
 6210TIP3    H118573   1.476   2.853   2.774
 6210TIP3    H218574   1.589   2.900   2.685
 6211TIP3   OH218575   3.614   5.325   4.717
 6211TIP3    H118576   3.685   5.262   4.731
 6211TIP3    H218577   3.576   5.339   4.803
 6212TIP3   OH218578   3.388   7.758   5.702
 6212TIP3    H118579   3.402   7.819   5.774
 6212TIP3    H218580   3.475   7.730   5.677
 6213TIP3   OH218581   0.257   5.635   1.288
 6213TIP3    H118582   0.254   5.696   1.361
 6213TIP3    H218583   0.317   5.676   1.225
 6214TIP3   OH218584   3.882   1.474   4.586
 6214TIP3    H118585   3.856   1.382   4.592
 6214TIP3    H218586   3.800   1.521   4.574
 6215TIP3   OH218587   2.317   1.324   0.624
 6215TIP3    H118588   2.287   1.327   0.534
 6215TIP3    H218589   2.340   1.232   0.639
 6216TIP3   OH218590   3.992   7.812   4.961
 6216TIP3    H118591   3.906   7.772   4.946
 6216TIP3    H218592   4.019   7.843   4.875
 6217TIP3   OH218593   0.527   3.485   5.260
 6217TIP3    H118594   0.447   3.516   5.218
 6217TIP3    H218595   0.569   3.565   5.292
 6218TIP3   OH218596   2.515   1.961   5.313
 6218TIP3    H118597   2.433   1.915   5.331
 6218TIP3    H218598   2.491   2.054   5.311
 6219TIP3   OH218599   0.755   1.674   2.327
 6219TIP3    H118600   0.836   1.624   2.315
 6219TIP3    H218601   0.731   1.660   2.418
 6220TIP3   OH218602   4.601   3.052   1.748
 6220TIP3    H118603   4.576   3.144   1.735
 6220TIP3    H218604   4.651   3.052   1.829
 6221TIP3   OH218605   0.035   4.991   2.616
 6221TIP3    H118606  -0.032   5.031   2.672
 6221TIP3    H218607   0.005   5.010   2.527
 6222TIP3   OH218608   5.914   2.050   5.990
 6222TIP3    H118609   5.996   2.099   5.999
 6222TIP3    H218610   5.865   2.096   5.922
 6223TIP3   OH218611   3.984   2.355   0.255
 6223TIP3    H118612   3.906   2.381   0.206
 6223TIP3    H218613   4.007   2.269   0.220
 6224TIP3   OH218614   3.299   7.745   0.935
 6224TIP3    H118615   3.365   7.687   0.897
 6224TIP3    H218616   3.242   7.767   0.861
 6225TIP3   OH218617   6.886   3.964   6.734
 6225TIP3    H118618   6.815   4.001   6.681
 6225TIP3    H218619   6.842   3.913   6.801
 6226TIP3   OH218620   3.731   2.789   0.020
 6226TIP3    H118621   3.798   2.853   0.041
 6226TIP3    H218622   3.735   2.726   0.092
 6227TIP3   OH218623   4.806   2.366   1.880
 6227TIP3    H118624   4.834   2.322   1.800
 6227TIP3    H218625   4.736   2.425   1.853
 6228TIP3   OH218626   1.047   4.372   5.466
 6228TIP3    H118627   1.046   4.392   5.559
 6228TIP3    H218628   0.984   4.300   5.456
 6229TIP3   OH218629   5.554   0.497   3.230
 6229TIP3    H118630   5.552   0.411   3.270
 6229TIP3    H218631   5.514   0.555   3.294
 6230TIP3   OH218632   3.286   6.940   1.074
 6230TIP3    H118633   3.362   6.952   1.018
 6230TIP3    H218634   3.309   6.865   1.130
 6231TIP3   OH218635   1.889   4.852   0.994
 6231TIP3    H118636   1.906   4.897   0.912
 6231TIP3    H218637   1.975   4.840   1.034
 6232TIP3   OH218638   5.564   2.583   0.834
 6232TIP3    H118639   5.639   2.576   0.893
 6232TIP3    H218640   5.594   2.644   0.766
 6233TIP3   OH218641   3.005   2.094   5.607
 6233TIP3    H118642   3.070   2.127   5.669
 6233TIP3    H218643   2.990   2.167   5.547
 6234TIP3   OH218644   0.337   0.117   1.859
 6234TIP3    H118645   0.358   0.201   1.899
 6234TIP3    H218646   0.248   0.127   1.826
 6235TIP3   OH218647   5.599   7.746   0.327
 6235TIP3    H118648   5.651   7.803   0.384
 6235TIP3    H218649   5.518   7.795   0.312
 6236TIP3   OH218650   2.049   4.359   0.447
 6236TIP3    H118651   2.067   4.284   0.390
 6236TIP3    H218652   2.104   4.345   0.524
 6237TIP3   OH218653   7.253   4.178   0.932
 6237TIP3    H118654   7.218   4.117   0.998
 6237TIP3    H218655   7.295   4.247   0.984
 6238TIP3   OH218656   3.312   0.682   6.075
 6238TIP3    H118657   3.380   0.650   6.016
 6238TIP3    H218658   3.352   0.682   6.162
 6239TIP3   OH218659   5.634   1.124   0.897
 6239TIP3    H118660   5.644   1.029   0.887
 6239TIP3    H218661   5.559   1.145   0.841
 6240TIP3   OH218662   1.347   1.561   5.929
 6240TIP3    H118663   1.262   1.553   5.973
 6240TIP3    H218664   1.373   1.652   5.942
 6241TIP3   OH218665   8.195   0.236   6.154
 6241TIP3    H118666   8.147   0.153   6.146
 6241TIP3    H218667   8.168   0.270   6.239
 6242TIP3   OH218668   0.134   6.878   5.031
 6242TIP3    H118669   0.105   6.842   5.114
 6242TIP3    H218670   0.065   6.940   5.006
 6243TIP3   OH218671   2.232   1.169   6.608
 6243TIP3    H118672   2.216   1.074   6.604
 6243TIP3    H218673   2.144   1.207   6.614
 6244TIP3   OH218674   1.085   3.952   1.606
 6244TIP3    H118675   0.998   3.992   1.617
 6244TIP3    H218676   1.146   4.019   1.636
 6245TIP3   OH218677   6.129   2.928   0.795
 6245TIP3    H118678   6.079   3.009   0.806
 6245TIP3    H218679   6.124   2.886   0.881
 6246TIP3   OH218680   4.647   5.446   4.276
 6246TIP3    H118681   4.672   5.482   4.362
 6246TIP3    H218682   4.625   5.355   4.294
 6247TIP3   OH218683   3.714   0.332   2.742
 6247TIP3    H118684   3.625   0.299   2.753
 6247TIP3    H218685   3.728   0.390   2.817
 6248TIP3   OH218686   0.050   7.737   2.615
 6248TIP3    H118687   0.077   7.675   2.683
 6248TIP3    H218688  -0.023   7.695   2.571
 6249TIP3   OH218689   7.236   4.080   6.252
 6249TIP3    H118690   7.178   4.068   6.328
 6249TIP3    H218691   7.324   4.085   6.290
 6250TIP3   OH218692   4.065   0.045   1.740
 6250TIP3    H118693   4.155   0.029   1.769
 6250TIP3    H218694   4.022  -0.040   1.752
 6251TIP3   OH218695   0.570   6.196   2.491
 6251TIP3    H118696   0.501   6.225   2.551
 6251TIP3    H218697   0.560   6.100   2.489
 6252TIP3   OH218698   1.968   4.331   1.203
 6252TIP3    H118699   1.914   4.404   1.173
 6252TIP3    H218700   1.906   4.272   1.246
 6253TIP3   OH218701   6.776   0.407   6.652
 6253TIP3    H118702   6.804   0.496   6.671
 6253TIP3    H218703   6.762   0.367   6.738
 6254TIP3   OH218704   0.055   3.685   3.506
 6254TIP3    H118705   0.058   3.604   3.557
 6254TIP3    H218706  -0.019   3.674   3.447
 6255TIP3   OH218707   5.944   4.201   6.015
 6255TIP3    H118708   5.946   4.179   6.109
 6255TIP3    H218709   5.878   4.142   5.979
 6256TIP3   OH218710   1.052   2.834   6.633
 6256TIP3    H118711   1.001   2.911   6.611
 6256TIP3    H218712   1.090   2.854   6.719
 6257TIP3   OH218713   2.286   2.569   3.461
 6257TIP3    H118714   2.345   2.565   3.536
 6257TIP3    H218715   2.228   2.642   3.479
 6258TIP3   OH218716   1.378   3.889   2.780
 6258TIP3    H118717   1.402   3.800   2.753
 6258TIP3    H218718   1.282   3.890   2.775
 6259TIP3   OH218719   7.207   0.526   2.525
 6259TIP3    H118720   7.133   0.568   2.483
 6259TIP3    H218721   7.266   0.598   2.549
 6260TIP3   OH218722   6.155   0.185   6.637
 6260TIP3    H118723   6.100   0.262   6.648
 6260TIP3    H218724   6.098   0.119   6.597
 6261TIP3   OH218725   6.723   4.817   5.334
 6261TIP3    H118726   6.637   4.775   5.343
 6261TIP3    H218727   6.703   4.910   5.327
 6262TIP3   OH218728   6.730   4.853   1.782
 6262TIP3    H118729   6.657   4.889   1.731
 6262TIP3    H218730   6.705   4.763   1.799
 6263TIP3   OH218731   1.506   7.480   3.459
 6263TIP3    H118732   1.511   7.511   3.549
 6263TIP3    H218733   1.434   7.417   3.459
 6264TIP3   OH218734   2.512   4.074   2.295
 6264TIP3    H118735   2.450   4.079   2.223
 6264TIP3    H218736   2.596   4.099   2.256
 6265TIP3   OH218737   3.378   7.517   1.104
 6265TIP3    H118738   3.454   7.548   1.154
 6265TIP3    H218739   3.342   7.595   1.063
 6266TIP3   OH218740   3.466   1.968   0.610
 6266TIP3    H118741   3.422   2.048   0.580
 6266TIP3    H218742   3.550   1.999   0.644
 6267TIP3   OH218743   5.186   5.186   4.321
 6267TIP3    H118744   5.181   5.096   4.289
 6267TIP3    H218745   5.199   5.239   4.243
 6268TIP3   OH218746   5.465   5.520   4.052
 6268TIP3    H118747   5.483   5.591   3.990
 6268TIP3    H218748   5.428   5.564   4.129
 6269TIP3   OH218749   2.065   3.878   5.427
 6269TIP3    H118750   2.066   3.908   5.518
 6269TIP3    H218751   1.979   3.906   5.394
 6270TIP3   OH218752   2.924   6.725   5.478
 6270TIP3    H118753   2.914   6.643   5.429
 6270TIP3    H218754   2.877   6.789   5.425
 6271TIP3   OH218755   0.454   7.525   2.132
 6271TIP3    H118756   0.522   7.592   2.135
 6271TIP3    H218757   0.503   7.442   2.132
 6272TIP3   OH218758   7.375   1.977   5.183
 6272TIP3    H118759   7.313   2.013   5.120
 6272TIP3    H218760   7.404   1.894   5.144
 6273TIP3   OH218761   8.149   4.040   4.656
 6273TIP3    H118762   8.102   4.123   4.657
 6273TIP3    H218763   8.204   4.045   4.577
 6274TIP3   OH218764   0.298   1.113   3.874
 6274TIP3    H118765   0.349   1.126   3.794
 6274TIP3    H218766   0.222   1.063   3.847
 6275TIP3   OH218767   2.330   6.454   6.296
 6275TIP3    H118768   2.416   6.493   6.313
 6275TIP3    H218769   2.347   6.387   6.230
 6276TIP3   OH218770   7.025   1.451   0.116
 6276TIP3    H118771   6.995   1.361   0.130
 6276TIP3    H218772   6.971   1.483   0.044
 6277TIP3   OH218773   8.014   7.448   3.335
 6277TIP3    H118774   8.031   7.522   3.393
 6277TIP3    H218775   7.966   7.485   3.262
 6278TIP3   OH218776   1.736   6.456   1.738
 6278TIP3    H118777   1.743   6.458   1.833
 6278TIP3    H218778   1.718   6.547   1.714
 6279TIP3   OH218779   1.657   4.615   3.436
 6279TIP3    H118780   1.645   4.624   3.531
 6279TIP3    H218781   1.570   4.632   3.399
 6280TIP3   OH218782   4.665   3.802   4.801
 6280TIP3    H118783   4.672   3.896   4.818
 6280TIP3    H218784   4.623   3.797   4.715
 6281TIP3   OH218785   0.600   3.763   5.309
 6281TIP3    H118786   0.545   3.810   5.372
 6281TIP3    H218787   0.567   3.792   5.224
 6282TIP3   OH218788   6.642   6.667   4.690
 6282TIP3    H118789   6.637   6.690   4.598
 6282TIP3    H218790   6.579   6.724   4.733
 6283TIP3   OH218791   2.691   6.458   5.062
 6283TIP3    H118792   2.603   6.497   5.065
 6283TIP3    H218793   2.676   6.368   5.036
 6284TIP3   OH218794   4.715   2.930   2.148
 6284TIP3    H118795   4.752   2.993   2.210
 6284TIP3    H218796   4.755   2.846   2.171
 6285TIP3   OH218797   0.270   6.876   6.568
 6285TIP3    H118798   0.312   6.803   6.613
 6285TIP3    H218799   0.341   6.920   6.522
 6286TIP3   OH218800   4.673   4.522   0.664
 6286TIP3    H118801   4.748   4.580   0.676
 6286TIP3    H218802   4.645   4.501   0.753
 6287TIP3   OH218803   8.160   1.644   3.227
 6287TIP3    H118804   8.112   1.605   3.300
 6287TIP3    H218805   8.205   1.720   3.266
 6288TIP3   OH218806   0.486   4.128   1.475
 6288TIP3    H118807   0.426   4.071   1.523
 6288TIP3    H218808   0.550   4.069   1.436
 6289TIP3   OH218809   4.010   5.280   2.542
 6289TIP3    H118810   3.928   5.326   2.522
 6289TIP3    H218811   3.983   5.189   2.553
 6290TIP3   OH218812   0.980   1.263   5.738
 6290TIP3    H118813   0.918   1.297   5.673
 6290TIP3    H218814   0.967   1.168   5.737
 6291TIP3   OH218815   2.926   0.458   3.887
 6291TIP3    H118816   3.001   0.401   3.902
 6291TIP3    H218817   2.927   0.520   3.961
 6292TIP3   OH218818   3.880   2.465   3.173
 6292TIP3    H118819   3.824   2.422   3.108
 6292TIP3    H218820   3.962   2.416   3.169
 6293TIP3   OH218821   3.386   2.499   3.677
 6293TIP3    H118822   3.432   2.446   3.742
 6293TIP3    H218823   3.453   2.519   3.611
 6294TIP3   OH218824   8.219   4.543   0.586
 6294TIP3    H118825   8.133   4.511   0.559
 6294TIP3    H218826   8.203   4.631   0.620
 6295TIP3   OH218827   1.777   3.411   3.710
 6295TIP3    H118828   1.812   3.323   3.721
 6295TIP3    H218829   1.805   3.437   3.622
 6296TIP3   OH218830   0.272   5.532   3.197
 6296TIP3    H118831   0.310   5.563   3.115
 6296TIP3    H218832   0.227   5.451   3.173
 6297TIP3   OH218833   1.028   6.888   4.596
 6297TIP3    H118834   1.104   6.830   4.598
 6297TIP3    H218835   1.051   6.955   4.532
 6298TIP3   OH218836   1.988   1.769   1.433
 6298TIP3    H118837   1.942   1.747   1.352
 6298TIP3    H218838   1.970   1.695   1.492
 6299TIP3   OH218839   2.157   5.641   5.714
 6299TIP3    H118840   2.130   5.688   5.793
 6299TIP3    H218841   2.164   5.709   5.647
 6300TIP3   OH218842   7.064   1.695   6.161
 6300TIP3    H118843   7.133   1.748   6.122
 6300TIP3    H218844   7.070   1.714   6.255
 6301TIP3   OH218845   0.373   2.343   4.838
 6301TIP3    H118846   0.446   2.331   4.777
 6301TIP3    H218847   0.361   2.438   4.844
 6302TIP3   OH218848   4.298   5.580   1.534
 6302TIP3    H118849   4.279   5.632   1.455
 6302TIP3    H218850   4.214   5.574   1.579
 6303TIP3   OH218851   3.118   6.347   1.887
 6303TIP3    H118852   3.148   6.437   1.891
 6303TIP3    H218853   3.026   6.351   1.915
 6304TIP3   OH218854   5.803   4.425   4.422
 6304TIP3    H118855   5.896   4.405   4.423
 6304TIP3    H218856   5.777   4.410   4.331
 6305TIP3   OH218857   1.144   7.439   5.177
 6305TIP3    H118858   1.109   7.486   5.252
 6305TIP3    H218859   1.237   7.464   5.174
 6306TIP3   OH218860   0.279   3.567   2.544
 6306TIP3    H118861   0.236   3.481   2.540
 6306TIP3    H218862   0.373   3.547   2.546
 6307TIP3   OH218863   3.773   2.198   3.369
 6307TIP3    H118864   3.749   2.271   3.312
 6307TIP3    H218865   3.787   2.237   3.455
 6308TIP3   OH218866   8.177   3.782   2.752
 6308TIP3    H118867   8.141   3.772   2.664
 6308TIP3    H218868   8.172   3.695   2.791
 6309TIP3   OH218869   4.686   1.210   2.484
 6309TIP3    H118870   4.669   1.188   2.576
 6309TIP3    H218871   4.614   1.267   2.459
 6310TIP3   OH218872   8.153   0.689   6.212
 6310TIP3    H118873   8.230   0.683   6.269
 6310TIP3    H218874   8.087   0.635   6.255
 6311TIP3   OH218875   4.216   4.626   0.302
 6311TIP3    H118876   4.170   4.691   0.250
 6311TIP3    H218877   4.294   4.604   0.250
 6312TIP3   OH218878   3.593   2.910   1.273
 6312TIP3    H118879   3.574   2.901   1.367
 6312TIP3    H218880   3.585   3.004   1.256
 6313TIP3   OH218881   3.962   5.303   5.929
 6313TIP3    H118882   3.971   5.341   6.016
 6313TIP3    H218883   3.872   5.270   5.927
 6314TIP3   OH218884   1.899   6.414   0.259
 6314TIP3    H118885   1.894   6.360   0.337
 6314TIP3    H218886   1.824   6.387   0.206
 6315TIP3   OH218887   0.712   2.842   6.133
 6315TIP3    H118888   0.751   2.781   6.195
 6315TIP3    H218889   0.778   2.851   6.064
 6316TIP3   OH218890   5.234   1.129   4.612
 6316TIP3    H118891   5.189   1.045   4.598
 6316TIP3    H218892   5.325   1.105   4.630
 6317TIP3   OH218893   2.860   6.867   5.208
 6317TIP3    H118894   2.939   6.905   5.171
 6317TIP3    H218895   2.812   6.941   5.245
 6318TIP3   OH218896   6.633   1.912   0.391
 6318TIP3    H118897   6.643   2.006   0.404
 6318TIP3    H218898   6.574   1.904   0.316
 6319TIP3   OH218899   5.498   1.102   3.270
 6319TIP3    H118900   5.548   1.183   3.259
 6319TIP3    H218901   5.476   1.075   3.181
 6320TIP3   OH218902   6.044   6.836   4.134
 6320TIP3    H118903   5.970   6.799   4.183
 6320TIP3    H218904   6.045   6.929   4.159
 6321TIP3   OH218905   6.396   5.754   4.563
 6321TIP3    H118906   6.361   5.684   4.619
 6321TIP3    H218907   6.464   5.711   4.511
 6322TIP3   OH218908   3.729   2.051   1.107
 6322TIP3    H118909   3.813   2.055   1.060
 6322TIP3    H218910   3.672   1.998   1.051
 6323TIP3   OH218911   4.654   6.678   2.815
 6323TIP3    H118912   4.678   6.744   2.751
 6323TIP3    H218913   4.578   6.715   2.861
 6324TIP3   OH218914   0.503   2.387   0.200
 6324TIP3    H118915   0.583   2.339   0.220
 6324TIP3    H218916   0.437   2.319   0.186
 6325TIP3   OH218917   0.459   4.793   3.329
 6325TIP3    H118918   0.400   4.866   3.346
 6325TIP3    H218919   0.525   4.800   3.398
 6326TIP3   OH218920   0.409   7.293   4.568
 6326TIP3    H118921   0.466   7.219   4.587
 6326TIP3    H218922   0.464   7.370   4.581
 6327TIP3   OH218923   7.472   4.891   4.585
 6327TIP3    H118924   7.448   4.802   4.558
 6327TIP3    H218925   7.417   4.948   4.531
 6328TIP3   OH218926   5.091   2.045   1.756
 6328TIP3    H118927   5.075   1.956   1.788
 6328TIP3    H218928   5.186   2.054   1.756
 6329TIP3   OH218929   2.357   1.140   3.303
 6329TIP3    H118930   2.313   1.212   3.258
 6329TIP3    H218931   2.305   1.126   3.382
 6330TIP3   OH218932   5.301   7.322   0.912
 6330TIP3    H118933   5.367   7.256   0.894
 6330TIP3    H218934   5.348   7.390   0.961
 6331TIP3   OH218935   5.126   3.949   3.581
 6331TIP3    H118936   5.128   3.942   3.486
 6331TIP3    H218937   5.166   3.867   3.612
 6332TIP3   OH218938   2.521   3.979   1.502
 6332TIP3    H118939   2.490   3.949   1.587
 6332TIP3    H218940   2.467   3.930   1.439
 6333TIP3   OH218941   0.854   1.291   1.808
 6333TIP3    H118942   0.855   1.359   1.875
 6333TIP3    H218943   0.946   1.276   1.788
 6334TIP3   OH218944   1.556   7.543   4.487
 6334TIP3    H118945   1.588   7.553   4.577
 6334TIP3    H218946   1.582   7.454   4.463
 6335TIP3   OH218947   0.958   6.320   1.161
 6335TIP3    H118948   1.036   6.268   1.180
 6335TIP3    H218949   0.899   6.259   1.117
 6336TIP3   OH218950   2.046   4.715   0.231
 6336TIP3    H118951   2.027   4.628   0.196
 6336TIP3    H218952   2.139   4.728   0.212
 6337TIP3   OH218953   3.599   7.302   3.382
 6337TIP3    H118954   3.650   7.343   3.312
 6337TIP3    H218955   3.653   7.312   3.460
 6338TIP3   OH218956   6.607   6.466   2.376
 6338TIP3    H118957   6.526   6.448   2.422
 6338TIP3    H218958   6.599   6.419   2.293
 6339TIP3   OH218959   7.402   2.385   2.997
 6339TIP3    H118960   7.344   2.440   3.049
 6339TIP3    H218961   7.418   2.436   2.918
 6340TIP3   OH218962   1.719   2.998   5.417
 6340TIP3    H118963   1.778   3.027   5.348
 6340TIP3    H218964   1.755   3.035   5.497
 6341TIP3   OH218965   5.773   1.913   4.322
 6341TIP3    H118966   5.723   1.993   4.307
 6341TIP3    H218967   5.773   1.869   4.237
 6342TIP3   OH218968   5.714   6.880   2.463
 6342TIP3    H118969   5.686   6.970   2.446
 6342TIP3    H218970   5.737   6.845   2.377
 6343TIP3   OH218971   2.573   7.689   1.333
 6343TIP3    H118972   2.652   7.720   1.378
 6343TIP3    H218973   2.563   7.749   1.259
 6344TIP3   OH218974   1.462   7.093   5.421
 6344TIP3    H118975   1.508   7.082   5.338
 6344TIP3    H218976   1.530   7.084   5.488
 6345TIP3   OH218977   0.906   1.015   5.423
 6345TIP3    H118978   0.959   1.002   5.502
 6345TIP3    H218979   0.853   1.092   5.443
 6346TIP3   OH218980   0.962   0.812   3.485
 6346TIP3    H118981   1.022   0.774   3.550
 6346TIP3    H218982   0.946   0.741   3.423
 6347TIP3   OH218983   4.037   6.509   1.192
 6347TIP3    H118984   3.975   6.540   1.258
 6347TIP3    H218985   4.113   6.567   1.202
 6348TIP3   OH218986   0.202   7.278   2.390
 6348TIP3    H118987   0.187   7.347   2.325
 6348TIP3    H218988   0.293   7.290   2.417
 6349TIP3   OH218989   3.381   3.967   2.956
 6349TIP3    H118990   3.405   3.979   2.864
 6349TIP3    H218991   3.287   3.984   2.958
 6350TIP3   OH218992   5.322   4.414   3.994
 6350TIP3    H118993   5.388   4.364   3.945
 6350TIP3    H218994   5.293   4.355   4.063
 6351TIP3   OH218995   8.293   6.852   4.723
 6351TIP3    H118996   8.221   6.893   4.676
 6351TIP3    H218997   8.255   6.823   4.806
 6352TIP3   OH218998   5.942   1.232   2.819
 6352TIP3    H118999   5.879   1.296   2.851
 6352TIP3    H219000   5.940   1.240   2.724
 6353TIP3   OH219001   2.506   1.335   4.657
 6353TIP3    H119002   2.420   1.376   4.670
 6353TIP3    H219003   2.516   1.330   4.562
 6354TIP3   OH219004   6.876   1.980   6.610
 6354TIP3    H119005   6.946   1.926   6.647
 6354TIP3    H219006   6.920   2.061   6.583
 6355TIP3   OH219007   6.232   6.878   6.216
 6355TIP3    H119008   6.158   6.841   6.169
 6355TIP3    H219009   6.226   6.840   6.304
 6356TIP3   OH219010   1.589   2.658   6.017
 6356TIP3    H119011   1.665   2.601   6.009
 6356TIP3    H219012   1.533   2.614   6.081
 6357TIP3   OH219013   4.054   2.081   2.984
 6357TIP3    H119014   3.975   2.079   2.930
 6357TIP3    H219015   4.062   1.991   3.018
 6358TIP3   OH219016   4.418   5.580   2.452
 6358TIP3    H119017   4.494   5.538   2.493
 6358TIP3    H219018   4.456   5.642   2.390
 6359TIP3   OH219019   7.907   3.652   2.903
 6359TIP3    H119020   7.956   3.604   2.837
 6359TIP3    H219021   7.893   3.589   2.974
 6360TIP3   OH219022   0.280   1.264   1.485
 6360TIP3    H119023   0.220   1.198   1.451
 6360TIP3    H219024   0.226   1.316   1.545
 6361TIP3   OH219025   6.125   1.873   4.892
 6361TIP3    H119026   6.036   1.907   4.887
 6361TIP3    H219027   6.117   1.792   4.942
 6362TIP3   OH219028   4.572   5.070   3.473
 6362TIP3    H119029   4.611   4.983   3.476
 6362TIP3    H219030   4.520   5.076   3.553
 6363TIP3   OH219031   5.424   3.924   2.254
 6363TIP3    H119032   5.422   3.984   2.179
 6363TIP3    H219033   5.489   3.858   2.230
 6364TIP3   OH219034   4.001   5.124   3.920
 6364TIP3    H119035   4.042   5.176   3.850
 6364TIP3    H219036   3.930   5.179   3.952
 6365TIP3   OH219037   7.632   2.469   1.689
 6365TIP3    H119038   7.672   2.386   1.662
 6365TIP3    H219039   7.700   2.512   1.742
 6366TIP3   OH219040   7.065   5.447   2.203
 6366TIP3    H119041   6.991   5.392   2.229
 6366TIP3    H219042   7.130   5.434   2.272
 6367TIP3   OH219043   2.731   7.698   3.531
 6367TIP3    H119044   2.663   7.717   3.595
 6367TIP3    H219045   2.810   7.737   3.569
 6368TIP3   OH219046   6.677   6.608   3.688
 6368TIP3    H119047   6.678   6.529   3.742
 6368TIP3    H219048   6.586   6.636   3.687
 6369TIP3   OH219049   4.717   7.223   0.146
 6369TIP3    H119050   4.772   7.270   0.210
 6369TIP3    H219051   4.636   7.205   0.193
 6370TIP3   OH219052   7.888   7.101   6.002
 6370TIP3    H119053   7.916   7.079   6.091
 6370TIP3    H219054   7.961   7.151   5.965
 6371TIP3   OH219055   6.887   1.374   1.911
 6371TIP3    H119056   6.867   1.377   1.817
 6371TIP3    H219057   6.966   1.320   1.917
 6372TIP3   OH219058   5.638   4.392   6.752
 6372TIP3    H119059   5.686   4.410   6.671
 6372TIP3    H219060   5.636   4.297   6.759
 6373TIP3   OH219061   6.966   4.131   3.080
 6373TIP3    H119062   7.028   4.093   3.018
 6373TIP3    H219063   6.958   4.223   3.054
 6374TIP3   OH219064   6.642   3.834   6.444
 6374TIP3    H119065   6.561   3.786   6.463
 6374TIP3    H219066   6.630   3.918   6.487
 6375TIP3   OH219067   1.149   7.491   1.256
 6375TIP3    H119068   1.242   7.470   1.249
 6375TIP3    H219069   1.128   7.477   1.348
 6376TIP3   OH219070   3.085   6.195   5.649
 6376TIP3    H119071   3.081   6.107   5.686
 6376TIP3    H219072   3.118   6.183   5.560
 6377TIP3   OH219073   5.325   0.643   5.235
 6377TIP3    H119074   5.264   0.573   5.212
 6377TIP3    H219075   5.350   0.682   5.151
 6378TIP3   OH219076   7.950   1.422   1.190
 6378TIP3    H119077   7.944   1.516   1.169
 6378TIP3    H219078   7.879   1.382   1.140
 6379TIP3   OH219079   6.016   3.350   2.515
 6379TIP3    H119080   6.026   3.388   2.427
 6379TIP3    H219081   5.943   3.397   2.553
 6380TIP3   OH219082   6.593   0.857   4.371
 6380TIP3    H119083   6.517   0.847   4.314
 6380TIP3    H219084   6.661   0.892   4.315
 6381TIP3   OH219085   4.611   0.843   5.466
 6381TIP3    H119086   4.641   0.805   5.383
 6381TIP3    H219087   4.673   0.809   5.531
 6382TIP3   OH219088   1.090   5.256   6.065
 6382TIP3    H119089   1.013   5.240   6.119
 6382TIP3    H219090   1.158   5.199   6.102
 6383TIP3   OH219091   5.858   1.501   2.270
 6383TIP3    H119092   5.825   1.542   2.351
 6383TIP3    H219093   5.946   1.536   2.260
 6384TIP3   OH219094   2.815   7.488   2.061
 6384TIP3    H119095   2.902   7.462   2.093
 6384TIP3    H219096   2.755   7.428   2.103
 6385TIP3   OH219097   6.389   1.196   0.434
 6385TIP3    H119098   6.315   1.247   0.402
 6385TIP3    H219099   6.393   1.214   0.528
 6386TIP3   OH219100   4.094   7.174   1.551
 6386TIP3    H119101   4.168   7.156   1.609
 6386TIP3    H219102   4.095   7.102   1.487
 6387TIP3   OH219103   7.532   0.886   5.835
 6387TIP3    H119104   7.529   0.825   5.908
 6387TIP3    H219105   7.530   0.972   5.875
 6388TIP3   OH219106   5.619   7.417   5.610
 6388TIP3    H119107   5.629   7.506   5.644
 6388TIP3    H219108   5.618   7.428   5.515
 6389TIP3   OH219109   0.065   1.638   0.077
 6389TIP3    H119110   0.060   1.625  -0.018
 6389TIP3    H219111   0.123   1.713   0.087
 6390TIP3   OH219112   7.900   1.703   2.371
 6390TIP3    H119113   7.899   1.661   2.457
 6390TIP3    H219114   7.977   1.760   2.373
 6391TIP3   OH219115   4.763   5.295   5.827
 6391TIP3    H119116   4.718   5.326   5.905
 6391TIP3    H219117   4.854   5.322   5.839
 6392TIP3   OH219118   7.846   1.258   3.935
 6392TIP3    H119119   7.760   1.217   3.945
 6392TIP3    H219120   7.903   1.209   3.995
 6393TIP3   OH219121   2.504   5.667   1.035
 6393TIP3    H119122   2.580   5.726   1.038
 6393TIP3    H219123   2.452   5.691   1.112
 6394TIP3   OH219124   1.160   3.291   2.020
 6394TIP3    H119125   1.064   3.291   2.026
 6394TIP3    H219126   1.179   3.301   1.927
 6395TIP3   OH219127   2.756   6.550   6.195
 6395TIP3    H119128   2.674   6.516   6.158
 6395TIP3    H219129   2.809   6.572   6.119
 6396TIP3   OH219130   1.270   5.606   3.841
 6396TIP3    H119131   1.294   5.611   3.933
 6396TIP3    H219132   1.271   5.512   3.821
 6397TIP3   OH219133   3.459   2.524   0.971
 6397TIP3    H119134   3.386   2.503   0.913
 6397TIP3    H219135   3.432   2.488   1.056
 6398TIP3   OH219136   1.618   2.391   2.716
 6398TIP3    H119137   1.695   2.344   2.686
 6398TIP3    H219138   1.592   2.446   2.641
 6399TIP3   OH219139   0.781   0.971   2.481
 6399TIP3    H119140   0.805   0.883   2.452
 6399TIP3    H219141   0.724   0.956   2.557
 6400TIP3   OH219142   6.546   4.945   2.401
 6400TIP3    H119143   6.615   4.964   2.338
 6400TIP3    H219144   6.511   5.031   2.425
 6401TIP3   OH219145   7.359   5.578   4.912
 6401TIP3    H119146   7.287   5.520   4.937
 6401TIP3    H219147   7.410   5.527   4.848
 6402TIP3   OH219148   5.192   2.670   4.395
 6402TIP3    H119149   5.226   2.588   4.432
 6402TIP3    H219150   5.172   2.724   4.471
 6403TIP3   OH219151   0.740   5.098   3.548
 6403TIP3    H119152   0.819   5.091   3.603
 6403TIP3    H219153   0.769   5.073   3.461
 6404TIP3   OH219154   2.919   4.463   0.502
 6404TIP3    H119155   2.959   4.546   0.527
 6404TIP3    H219156   2.950   4.400   0.567
 6405TIP3   OH219157   1.734   2.885   4.186
 6405TIP3    H119158   1.826   2.866   4.201
 6405TIP3    H219159   1.724   2.977   4.211
 6406TIP3   OH219160   2.780   7.225   4.905
 6406TIP3    H119161   2.798   7.132   4.919
 6406TIP3    H219162   2.836   7.270   4.969
 6407TIP3   OH219163   2.135   6.942   5.432
 6407TIP3    H119164   2.137   6.933   5.337
 6407TIP3    H219165   2.226   6.956   5.457
 6408TIP3   OH219166   3.971   0.066   2.073
 6408TIP3    H119167   3.895   0.020   2.039
 6408TIP3    H219168   4.040  -0.001   2.078
 6409TIP3   OH219169   5.219   4.851   5.686
 6409TIP3    H119170   5.195   4.817   5.600
 6409TIP3    H219171   5.252   4.774   5.733
 6410TIP3   OH219172   2.585   6.805   1.601
 6410TIP3    H119173   2.639   6.733   1.569
 6410TIP3    H219174   2.518   6.817   1.534
 6411TIP3   OH219175   3.935   0.219   3.410
 6411TIP3    H119176   3.946   0.125   3.395
 6411TIP3    H219177   3.900   0.253   3.328
 6412TIP3   OH219178   8.056   5.542   0.109
 6412TIP3    H119179   8.004   5.469   0.075
 6412TIP3    H219180   8.064   5.602   0.035
 6413TIP3   OH219181   8.215   5.044   0.857
 6413TIP3    H119182   8.124   5.075   0.852
 6413TIP3    H219183   8.264   5.105   0.802
 6414TIP3   OH219184   3.683   6.260   2.704
 6414TIP3    H119185   3.664   6.268   2.798
 6414TIP3    H219186   3.762   6.207   2.700
 6415TIP3   OH219187   1.970   1.636   2.466
 6415TIP3    H119188   2.046   1.588   2.498
 6415TIP3    H219189   1.896   1.579   2.484
 6416TIP3   OH219190   0.150   7.558   3.977
 6416TIP3    H119191   0.233   7.519   3.950
 6416TIP3    H219192   0.104   7.487   4.023
 6417TIP3   OH219193   1.376   4.055   4.351
 6417TIP3    H119194   1.374   4.125   4.416
 6417TIP3    H219195   1.327   3.983   4.391
 6418TIP3   OH219196   4.031   5.409   0.839
 6418TIP3    H119197   3.967   5.348   0.801
 6418TIP3    H219198   4.014   5.492   0.795
 6419TIP3   OH219199   6.064   5.117   6.131
 6419TIP3    H119200   5.988   5.059   6.129
 6419TIP3    H219201   6.095   5.113   6.221
 6420TIP3   OH219202   2.114   2.649   2.217
 6420TIP3    H119203   2.019   2.656   2.220
 6420TIP3    H219204   2.138   2.673   2.127
 6421TIP3   OH219205   0.827   1.622   0.158
 6421TIP3    H119206   0.857   1.536   0.187
 6421TIP3    H219207   0.734   1.625   0.182
 6422TIP3   OH219208   8.067   3.837   5.123
 6422TIP3    H119209   8.156   3.867   5.105
 6422TIP3    H219210   8.039   3.797   5.041
 6423TIP3   OH219211   1.242   2.650   2.279
 6423TIP3    H119212   1.287   2.734   2.280
 6423TIP3    H219213   1.233   2.627   2.372
 6424TIP3   OH219214   4.480   1.684   4.134
 6424TIP3    H119215   4.413   1.654   4.195
 6424TIP3    H219216   4.518   1.603   4.098
 6425TIP3   OH219217   7.754   3.895   6.515
 6425TIP3    H119218   7.843   3.862   6.501
 6425TIP3    H219219   7.765   3.971   6.572
 6426TIP3   OH219220   6.926   0.195   5.084
 6426TIP3    H119221   6.868   0.122   5.062
 6426TIP3    H219222   6.936   0.243   5.002
 6427TIP3   OH219223   2.623   0.087   4.663
 6427TIP3    H119224   2.706   0.040   4.668
 6427TIP3    H219225   2.626   0.150   4.734
 6428TIP3   OH219226   7.002   0.284   3.317
 6428TIP3    H119227   7.085   0.307   3.275
 6428TIP3    H219228   7.014   0.194   3.346
 6429TIP3   OH219229   6.420   6.686   3.567
 6429TIP3    H119230   6.404   6.725   3.652
 6429TIP3    H219231   6.376   6.601   3.571
 6430TIP3   OH219232   0.843   2.354   2.545
 6430TIP3    H119233   0.935   2.338   2.564
 6430TIP3    H219234   0.796   2.289   2.598
 6431TIP3   OH219235   1.703   6.258   0.133
 6431TIP3    H119236   1.689   6.202   0.209
 6431TIP3    H219237   1.624   6.249   0.081
 6432TIP3   OH219238   2.509   0.461   3.278
 6432TIP3    H119239   2.506   0.556   3.287
 6432TIP3    H219240   2.467   0.442   3.194
 6433TIP3   OH219241   5.247   7.160   5.533
 6433TIP3    H119242   5.282   7.185   5.618
 6433TIP3    H219243   5.238   7.242   5.485
 6434TIP3   OH219244   2.817   0.520   5.243
 6434TIP3    H119245   2.722   0.519   5.237
 6434TIP3    H219246   2.838   0.606   5.279
 6435TIP3   OH219247   0.099   5.917   1.693
 6435TIP3    H119248   0.186   5.884   1.716
 6435TIP3    H219249   0.071   5.860   1.620
 6436TIP3   OH219250   5.544   0.873   5.332
 6436TIP3    H119251   5.537   0.885   5.237
 6436TIP3    H219252   5.571   0.782   5.342
 6437TIP3   OH219253   2.904   2.120   6.324
 6437TIP3    H119254   2.888   2.214   6.328
 6437TIP3    H219255   2.817   2.081   6.316
 6438TIP3   OH219256   3.986   2.939   2.898
 6438TIP3    H119257   3.978   2.845   2.915
 6438TIP3    H219258   4.026   2.944   2.811
 6439TIP3   OH219259   0.621   2.596   6.415
 6439TIP3    H119260   0.576   2.557   6.340
 6439TIP3    H219261   0.708   2.555   6.415
 6440TIP3   OH219262   7.702   2.493   2.506
 6440TIP3    H119263   7.779   2.457   2.462
 6440TIP3    H219264   7.704   2.586   2.486
 6441TIP3   OH219265   1.637   0.537   4.272
 6441TIP3    H119266   1.671   0.550   4.360
 6441TIP3    H219267   1.664   0.448   4.248
 6442TIP3   OH219268   2.434   2.170   5.015
 6442TIP3    H119269   2.480   2.250   5.040
 6442TIP3    H219270   2.357   2.168   5.071
 6443TIP3   OH219271   6.413   6.251   2.146
 6443TIP3    H119272   6.508   6.262   2.142
 6443TIP3    H219273   6.398   6.200   2.225
 6444TIP3   OH219274   0.808   7.778   3.415
 6444TIP3    H119275   0.844   7.816   3.495
 6444TIP3    H219276   0.715   7.767   3.433
 6445TIP3   OH219277   3.662   6.464   1.283
 6445TIP3    H119278   3.681   6.370   1.272
 6445TIP3    H219279   3.597   6.484   1.217
 6446TIP3   OH219280   5.583   1.335   6.341
 6446TIP3    H119281   5.589   1.312   6.434
 6446TIP3    H219282   5.673   1.323   6.308
 6447TIP3   OH219283   5.713   2.314   2.782
 6447TIP3    H119284   5.718   2.351   2.870
 6447TIP3    H219285   5.804   2.307   2.753
 6448TIP3   OH219286   5.771   6.594   5.889
 6448TIP3    H119287   5.702   6.528   5.898
 6448TIP3    H219288   5.723   6.676   5.871
 6449TIP3   OH219289   5.573   4.412   5.066
 6449TIP3    H119290   5.574   4.482   5.001
 6449TIP3    H219291   5.531   4.451   5.143
 6450TIP3   OH219292   7.479   5.130   0.121
 6450TIP3    H119293   7.446   5.058   0.068
 6450TIP3    H219294   7.410   5.147   0.185
 6451TIP3   OH219295   3.769   5.250   4.007
 6451TIP3    H119296   3.711   5.207   4.070
 6451TIP3    H219297   3.756   5.343   4.022
 6452TIP3   OH219298   5.014   5.949   6.180
 6452TIP3    H119299   4.996   5.875   6.122
 6452TIP3    H219300   5.028   6.023   6.122
 6453TIP3   OH219301   0.203   5.925   2.159
 6453TIP3    H119302   0.225   5.918   2.066
 6453TIP3    H219303   0.108   5.914   2.163
 6454TIP3   OH219304   6.623   6.550   4.118
 6454TIP3    H119305   6.706   6.596   4.100
 6454TIP3    H219306   6.581   6.543   4.032
 6455TIP3   OH219307   1.374   5.505   0.020
 6455TIP3    H119308   1.405   5.520   0.110
 6455TIP3    H219309   1.389   5.412   0.006
 6456TIP3   OH219310   4.573   6.142   5.404
 6456TIP3    H119311   4.594   6.052   5.381
 6456TIP3    H219312   4.652   6.191   5.381
 6457TIP3   OH219313   1.105   1.968   1.183
 6457TIP3    H119314   1.112   1.992   1.276
 6457TIP3    H219315   1.181   1.913   1.167
 6458TIP3   OH219316   5.126   5.157   0.725
 6458TIP3    H119317   5.167   5.221   0.666
 6458TIP3    H219318   5.163   5.176   0.811
 6459TIP3   OH219319   7.871   6.451   0.477
 6459TIP3    H119320   7.780   6.478   0.465
 6459TIP3    H219321   7.904   6.435   0.389
 6460TIP3   OH219322   1.759   5.835   4.619
 6460TIP3    H119323   1.723   5.892   4.687
 6460TIP3    H219324   1.683   5.806   4.569
 6461TIP3   OH219325   8.045   5.911   6.495
 6461TIP3    H119326   8.005   5.966   6.562
 6461TIP3    H219327   7.982   5.911   6.423
 6462TIP3   OH219328   5.392   3.515   3.448
 6462TIP3    H119329   5.430   3.525   3.361
 6462TIP3    H219330   5.337   3.437   3.441
 6463TIP3   OH219331   7.626   1.950   2.923
 6463TIP3    H119332   7.557   2.014   2.904
 6463TIP3    H219333   7.701   2.004   2.949
 6464TIP3   OH219334   3.339   0.617   1.860
 6464TIP3    H119335   3.283   0.541   1.847
 6464TIP3    H219336   3.339   0.662   1.775
 6465TIP3   OH219337   5.293   7.131   4.273
 6465TIP3    H119338   5.320   7.080   4.350
 6465TIP3    H219339   5.201   7.108   4.261
 6466TIP3   OH219340   7.088   3.623   5.437
 6466TIP3    H119341   7.132   3.659   5.514
 6466TIP3    H219342   7.088   3.529   5.452
 6467TIP3   OH219343   2.776   3.705   6.314
 6467TIP3    H119344   2.764   3.610   6.304
 6467TIP3    H219345   2.836   3.714   6.388
 6468TIP3   OH219346   7.666   5.849   5.501
 6468TIP3    H119347   7.672   5.755   5.489
 6468TIP3    H219348   7.594   5.877   5.445
 6469TIP3   OH219349   6.112   0.672   0.356
 6469TIP3    H119350   6.145   0.694   0.443
 6469TIP3    H219351   6.113   0.576   0.353
 6470TIP3   OH219352   1.384   1.614   2.943
 6470TIP3    H119353   1.476   1.591   2.954
 6470TIP3    H219354   1.337   1.531   2.954
 6471TIP3   OH219355   6.396   5.949   2.066
 6471TIP3    H119356   6.419   5.997   1.986
 6471TIP3    H219357   6.431   6.002   2.137
 6472TIP3   OH219358   1.503   1.803   2.260
 6472TIP3    H119359   1.522   1.870   2.325
 6472TIP3    H219360   1.540   1.723   2.298
 6473TIP3   OH219361   8.228   0.804   5.283
 6473TIP3    H119362   8.203   0.724   5.331
 6473TIP3    H219363   8.261   0.772   5.199
 6474TIP3   OH219364   5.993   4.184   0.289
 6474TIP3    H119365   5.997   4.109   0.229
 6474TIP3    H219366   5.972   4.259   0.232
 6475TIP3   OH219367   5.101   3.710   1.233
 6475TIP3    H119368   5.065   3.639   1.287
 6475TIP3    H219369   5.108   3.784   1.293
 6476TIP3   OH219370   6.153   6.070   3.960
 6476TIP3    H119371   6.084   6.055   4.025
 6476TIP3    H219372   6.206   5.990   3.962
 6477TIP3   OH219373   0.421   1.373   6.015
 6477TIP3    H119374   0.493   1.318   5.988
 6477TIP3    H219375   0.412   1.357   6.109
 6478TIP3   OH219376   1.998   6.920   0.527
 6478TIP3    H119377   2.022   6.933   0.435
 6478TIP3    H219378   1.913   6.877   0.524
 6479TIP3   OH219379   5.101   6.624   3.199
 6479TIP3    H119380   5.017   6.668   3.183
 6479TIP3    H219381   5.077   6.541   3.240
 6480TIP3   OH219382   2.345   6.095   6.413
 6480TIP3    H119383   2.415   6.153   6.443
 6480TIP3    H219384   2.291   6.151   6.357
 6481TIP3   OH219385   2.079   0.797   3.775
 6481TIP3    H119386   2.043   0.764   3.693
 6481TIP3    H219387   2.166   0.830   3.751
 6482TIP3   OH219388   2.777   2.533   2.644
 6482TIP3    H119389   2.743   2.572   2.564
 6482TIP3    H219390   2.747   2.591   2.714
 6483TIP3   OH219391   6.925   5.753   6.241
 6483TIP3    H119392   6.927   5.825   6.304
 6483TIP3    H219393   6.852   5.774   6.182
 6484TIP3   OH219394   7.914   0.550   6.284
 6484TIP3    H119395   7.844   0.614   6.273
 6484TIP3    H219396   7.915   0.501   6.201
 6485TIP3   OH219397   3.694   1.835   6.165
 6485TIP3    H119398   3.657   1.860   6.080
 6485TIP3    H219399   3.705   1.739   6.159
 6486TIP3   OH219400   0.546   2.613   4.239
 6486TIP3    H119401   0.639   2.614   4.264
 6486TIP3    H219402   0.546   2.582   4.148
 6487TIP3   OH219403   4.131   3.276   6.724
 6487TIP3    H119404   4.107   3.188   6.696
 6487TIP3    H219405   4.220   3.267   6.758
 6488TIP3   OH219406   4.392   7.674   6.607
 6488TIP3    H119407   4.345   7.757   6.609
 6488TIP3    H219408   4.330   7.610   6.643
 6489TIP3   OH219409   2.516   5.135   0.355
 6489TIP3    H119410   2.535   5.107   0.265
 6489TIP3    H219411   2.593   5.109   0.405
 6490TIP3   OH219412   5.766   5.346   4.583
 6490TIP3    H119413   5.732   5.422   4.630
 6490TIP3    H219414   5.825   5.304   4.646
 6491TIP3   OH219415   1.146   5.848   3.728
 6491TIP3    H119416   1.128   5.770   3.676
 6491TIP3    H219417   1.190   5.908   3.667
 6492TIP3   OH219418   7.950   5.703   6.117
 6492TIP3    H119419   8.029   5.741   6.079
 6492TIP3    H219420   7.965   5.609   6.113
 6493TIP3   OH219421   6.810   4.923   3.929
 6493TIP3    H119422   6.890   4.967   3.900
 6493TIP3    H219423   6.808   4.938   4.024
 6494TIP3   OH219424   2.214   4.948   6.363
 6494TIP3    H119425   2.242   5.036   6.339
 6494TIP3    H219426   2.127   4.959   6.401
 6495TIP3   OH219427   2.675   6.570   3.125
 6495TIP3    H119428   2.682   6.635   3.055
 6495TIP3    H219429   2.582   6.550   3.131
 6496TIP3   OH219430   7.108   6.291   5.515
 6496TIP3    H119431   7.116   6.226   5.445
 6496TIP3    H219432   7.143   6.372   5.477
 6497TIP3   OH219433   2.352   6.654   0.159
 6497TIP3    H119434   2.257   6.668   0.158
 6497TIP3    H219435   2.379   6.666   0.068
 6498TIP3   OH219436   3.336   4.764   6.206
 6498TIP3    H119437   3.271   4.752   6.275
 6498TIP3    H219438   3.292   4.817   6.140
 6499TIP3   OH219439   0.527   4.462   6.688
 6499TIP3    H119440   0.476   4.383   6.708
 6499TIP3    H219441   0.504   4.482   6.597
 6500TIP3   OH219442   7.304   0.125   5.764
 6500TIP3    H119443   7.244   0.171   5.706
 6500TIP3    H219444   7.347   0.194   5.815
 6501TIP3   OH219445   2.336   1.662   2.893
 6501TIP3    H119446   2.283   1.741   2.883
 6501TIP3    H219447   2.329   1.641   2.986
 6502TIP3   OH219448   8.222   1.731   1.777
 6502TIP3    H119449   8.264   1.790   1.840
 6502TIP3    H219450   8.284   1.659   1.768
 6503TIP3   OH219451   7.727   2.616   4.235
 6503TIP3    H119452   7.737   2.705   4.271
 6503TIP3    H219453   7.688   2.629   4.149
 6504TIP3   OH219454   3.658   3.293   5.243
 6504TIP3    H119455   3.702   3.214   5.274
 6504TIP3    H219456   3.672   3.294   5.148
 6505TIP3   OH219457   6.247   2.993   5.977
 6505TIP3    H119458   6.338   2.969   5.994
 6505TIP3    H219459   6.252   3.073   5.925
 6506TIP3   OH219460   7.412   4.687   1.379
 6506TIP3    H119461   7.429   4.601   1.341
 6506TIP3    H219462   7.447   4.748   1.314
 6507TIP3   OH219463   0.418   1.571   4.272
 6507TIP3    H119464   0.494   1.525   4.237
 6507TIP3    H219465   0.395   1.521   4.351
 6508TIP3   OH219466   6.074   4.519   4.633
 6508TIP3    H119467   6.087   4.535   4.540
 6508TIP3    H219468   6.144   4.567   4.676
 6509TIP3   OH219469   6.498   2.637   4.825
 6509TIP3    H119470   6.539   2.605   4.745
 6509TIP3    H219471   6.528   2.728   4.833
 6510TIP3   OH219472   7.841   0.365   2.954
 6510TIP3    H119473   7.867   0.276   2.933
 6510TIP3    H219474   7.924   0.412   2.967
 6511TIP3   OH219475   0.032   6.550   5.378
 6511TIP3    H119476   0.052   6.556   5.471
 6511TIP3    H219477   0.043   6.458   5.357
 6512TIP3   OH219478   3.353   2.850   3.530
 6512TIP3    H119479   3.395   2.816   3.609
 6512TIP3    H219480   3.418   2.909   3.491
 6513TIP3   OH219481   5.600   4.615   3.107
 6513TIP3    H119482   5.600   4.523   3.134
 6513TIP3    H219483   5.636   4.661   3.183
 6514TIP3   OH219484   6.564   2.011   4.985
 6514TIP3    H119485   6.600   2.031   5.071
 6514TIP3    H219486   6.531   2.094   4.952
 6515TIP3   OH219487   7.397   3.376   4.847
 6515TIP3    H119488   7.473   3.431   4.866
 6515TIP3    H219489   7.418   3.291   4.885
 6516TIP3   OH219490   6.648   6.345   1.561
 6516TIP3    H119491   6.628   6.260   1.524
 6516TIP3    H219492   6.744   6.345   1.569
 6517TIP3   OH219493   3.560   4.064   1.099
 6517TIP3    H119494   3.627   4.005   1.135
 6517TIP3    H219495   3.546   4.129   1.168
 6518TIP3   OH219496   3.854   4.496   2.443
 6518TIP3    H119497   3.794   4.435   2.486
 6518TIP3    H219498   3.858   4.466   2.353
 6519TIP3   OH219499   4.748   2.010   4.682
 6519TIP3    H119500   4.762   1.949   4.754
 6519TIP3    H219501   4.675   1.974   4.632
 6520TIP3   OH219502   6.040   3.932   2.472
 6520TIP3    H119503   5.980   3.962   2.404
 6520TIP3    H219504   5.997   3.955   2.555
 6521TIP3   OH219505   7.392   5.483   4.163
 6521TIP3    H119506   7.365   5.464   4.253
 6521TIP3    H219507   7.418   5.575   4.165
 6522TIP3   OH219508   6.232   0.900   0.267
 6522TIP3    H119509   6.315   0.869   0.303
 6522TIP3    H219510   6.174   0.824   0.273
 6523TIP3   OH219511   3.265   5.399   4.650
 6523TIP3    H119512   3.349   5.390   4.605
 6523TIP3    H219513   3.251   5.314   4.691
 6524TIP3   OH219514   2.880   0.196   0.532
 6524TIP3    H119515   2.798   0.179   0.579
 6524TIP3    H219516   2.853   0.219   0.444
 6525TIP3   OH219517   5.441   6.232   4.234
 6525TIP3    H119518   5.355   6.220   4.275
 6525TIP3    H219519   5.476   6.312   4.274
 6526TIP3   OH219520   1.278   1.778   5.026
 6526TIP3    H119521   1.359   1.746   5.064
 6526TIP3    H219522   1.295   1.783   4.932
 6527TIP3   OH219523   4.597   4.021   1.613
 6527TIP3    H119524   4.531   3.965   1.571
 6527TIP3    H219525   4.553   4.055   1.691
 6528TIP3   OH219526   5.400   6.722   5.812
 6528TIP3    H119527   5.481   6.769   5.829
 6528TIP3    H219528   5.336   6.763   5.869
 6529TIP3   OH219529   0.924   5.357   5.356
 6529TIP3    H119530   0.958   5.441   5.323
 6529TIP3    H219531   0.998   5.318   5.403
 6530TIP3   OH219532   6.328   1.928   1.839
 6530TIP3    H119533   6.251   1.945   1.786
 6530TIP3    H219534   6.300   1.859   1.900
 6531TIP3   OH219535   1.478   6.026   1.947
 6531TIP3    H119536   1.522   6.061   1.870
 6531TIP3    H219537   1.519   6.070   2.021
 6532TIP3   OH219538   1.897   6.891   5.564
 6532TIP3    H119539   1.971   6.929   5.515
 6532TIP3    H219540   1.832   6.961   5.567
 6533TIP3   OH219541   3.105   1.429   2.176
 6533TIP3    H119542   3.070   1.382   2.252
 6533TIP3    H219543   3.154   1.502   2.213
 6534TIP3   OH219544   2.073   2.859   6.214
 6534TIP3    H119545   2.001   2.882   6.272
 6534TIP3    H219546   2.080   2.933   6.153
 6535TIP3   OH219547   8.211   7.058   5.101
 6535TIP3    H119548   8.163   7.140   5.087
 6535TIP3    H219549   8.235   7.060   5.194
 6536TIP3   OH219550   1.649   1.768   1.229
 6536TIP3    H119551   1.563   1.747   1.195
 6536TIP3    H219552   1.701   1.689   1.213
 6537TIP3   OH219553   1.713   6.753   5.267
 6537TIP3    H119554   1.701   6.844   5.296
 6537TIP3    H219555   1.717   6.759   5.171
 6538TIP3   OH219556   0.830   0.869   6.071
 6538TIP3    H119557   0.845   0.778   6.096
 6538TIP3    H219558   0.737   0.884   6.089
 6539TIP3   OH219559   5.278   4.623   0.987
 6539TIP3    H119560   5.204   4.570   0.958
 6539TIP3    H219561   5.255   4.712   0.962
 6540TIP3   OH219562   8.093   2.071   6.127
 6540TIP3    H119563   8.131   2.127   6.195
 6540TIP3    H219564   8.150   2.084   6.051
 6541TIP3   OH219565   3.908   5.414   3.122
 6541TIP3    H119566   3.937   5.393   3.033
 6541TIP3    H219567   3.977   5.470   3.157
 6542TIP3   OH219568   6.702   6.055   5.693
 6542TIP3    H119569   6.765   6.116   5.654
 6542TIP3    H219570   6.620   6.076   5.649
 6543TIP3   OH219571   5.513   4.878   5.621
 6543TIP3    H119572   5.421   4.857   5.634
 6543TIP3    H219573   5.517   4.916   5.533
 6544TIP3   OH219574   6.121   5.676   6.528
 6544TIP3    H119575   6.137   5.606   6.592
 6544TIP3    H219576   6.068   5.636   6.460
 6545TIP3   OH219577   7.027   3.166   1.630
 6545TIP3    H119578   7.083   3.128   1.561
 6545TIP3    H219579   7.076   3.152   1.711
 6546TIP3   OH219580   5.368   4.133   5.989
 6546TIP3    H119581   5.403   4.103   5.905
 6546TIP3    H219582   5.300   4.196   5.966
 6547TIP3   OH219583   2.183   2.182   2.397
 6547TIP3    H119584   2.200   2.155   2.487
 6547TIP3    H219585   2.126   2.114   2.362
 6548TIP3   OH219586   3.005   5.745   0.269
 6548TIP3    H119587   2.958   5.747   0.352
 6548TIP3    H219588   3.093   5.779   0.290
 6549TIP3   OH219589   4.870   2.729   2.212
 6549TIP3    H119590   4.929   2.665   2.253
 6549TIP3    H219591   4.829   2.681   2.141
 6550TIP3   OH219592   6.240   5.625   6.142
 6550TIP3    H119593   6.150   5.650   6.123
 6550TIP3    H219594   6.235   5.578   6.226
 6551TIP3   OH219595   0.973   2.148   6.367
 6551TIP3    H119596   0.939   2.107   6.287
 6551TIP3    H219597   1.020   2.077   6.411
 6552TIP3   OH219598   2.677   0.413   5.945
 6552TIP3    H119599   2.727   0.363   5.881
 6552TIP3    H219600   2.742   0.441   6.010
 6553TIP3   OH219601   4.347   4.444   3.824
 6553TIP3    H119602   4.358   4.381   3.896
 6553TIP3    H219603   4.275   4.409   3.772
 6554TIP3   OH219604   4.300   6.604   1.224
 6554TIP3    H119605   4.386   6.560   1.219
 6554TIP3    H219606   4.299   6.663   1.149
 6555TIP3   OH219607   7.059   4.820   4.671
 6555TIP3    H119608   7.092   4.751   4.728
 6555TIP3    H219609   7.065   4.900   4.723
 6556TIP3   OH219610   5.635   4.084   3.025
 6556TIP3    H119611   5.649   3.991   3.046
 6556TIP3    H219612   5.716   4.111   2.981
 6557TIP3   OH219613   1.356   4.953   4.342
 6557TIP3    H119614   1.327   4.902   4.418
 6557TIP3    H219615   1.280   5.005   4.318
 6558TIP3   OH219616   5.657   0.921   0.127
 6558TIP3    H119617   5.665   0.979   0.203
 6558TIP3    H219618   5.740   0.873   0.125
 6559TIP3   OH219619   1.560   0.392   3.899
 6559TIP3    H119620   1.550   0.326   3.831
 6559TIP3    H219621   1.643   0.370   3.942
 6560TIP3   OH219622   0.532   0.775   6.229
 6560TIP3    H119623   0.437   0.787   6.224
 6560TIP3    H219624   0.565   0.855   6.269
 6561TIP3   OH219625   1.133   5.316   5.523
 6561TIP3    H119626   1.202   5.365   5.480
 6561TIP3    H219627   1.178   5.240   5.560
 6562TIP3   OH219628   0.459   0.389   3.213
 6562TIP3    H119629   0.486   0.453   3.279
 6562TIP3    H219630   0.401   0.437   3.155
 6563TIP3   OH219631   6.657   5.676   1.940
 6563TIP3    H119632   6.645   5.630   1.857
 6563TIP3    H219633   6.600   5.630   2.001
 6564TIP3   OH219634   0.887   7.702   6.447
 6564TIP3    H119635   0.959   7.677   6.389
 6564TIP3    H219636   0.847   7.779   6.405
 6565TIP3   OH219637   6.402   1.083   3.380
 6565TIP3    H119638   6.484   1.046   3.412
 6565TIP3    H219639   6.349   1.096   3.458
 6566TIP3   OH219640   0.652   5.874   0.398
 6566TIP3    H119641   0.558   5.856   0.393
 6566TIP3    H219642   0.658   5.965   0.427
 6567TIP3   OH219643   6.427   5.718   1.482
 6567TIP3    H119644   6.408   5.636   1.529
 6567TIP3    H219645   6.482   5.768   1.542
 6568TIP3   OH219646   8.146   6.880   1.168
 6568TIP3    H119647   8.105   6.808   1.216
 6568TIP3    H219648   8.134   6.957   1.224
 6569TIP3   OH219649   5.907   5.426   5.795
 6569TIP3    H119650   5.877   5.472   5.717
 6569TIP3    H219651   5.985   5.378   5.766
 6570TIP3   OH219652   2.256   3.339   0.479
 6570TIP3    H119653   2.329   3.285   0.446
 6570TIP3    H219654   2.252   3.413   0.418
 6571TIP3   OH219655   2.773   0.095   3.901
 6571TIP3    H119656   2.688   0.139   3.913
 6571TIP3    H219657   2.824   0.120   3.978
 6572TIP3   OH219658   6.892   1.906   2.857
 6572TIP3    H119659   6.980   1.896   2.819
 6572TIP3    H219660   6.899   1.868   2.944
 6573TIP3   OH219661   8.176   0.474   3.561
 6573TIP3    H119662   8.247   0.424   3.601
 6573TIP3    H219663   8.216   0.518   3.486
 6574TIP3   OH219664   7.185   1.939   4.223
 6574TIP3    H119665   7.148   1.955   4.310
 6574TIP3    H219666   7.265   1.889   4.241
 6575TIP3   OH219667   3.031   2.813   1.637
 6575TIP3    H119668   3.105   2.873   1.636
 6575TIP3    H219669   3.060   2.739   1.692
 6576TIP3   OH219670   1.757   1.910   6.661
 6576TIP3    H119671   1.794   1.971   6.597
 6576TIP3    H219672   1.778   1.823   6.627
 6577TIP3   OH219673   6.145   6.670   5.229
 6577TIP3    H119674   6.222   6.622   5.260
 6577TIP3    H219675   6.149   6.754   5.274
 6578TIP3   OH219676   4.075   0.951   3.581
 6578TIP3    H119677   4.045   0.975   3.493
 6578TIP3    H219678   4.151   1.006   3.596
 6579TIP3   OH219679   0.445   3.625   4.017
 6579TIP3    H119680   0.417   3.566   4.087
 6579TIP3    H219681   0.539   3.612   4.011
 6580TIP3   OH219682   1.519   1.848   0.518
 6580TIP3    H119683   1.445   1.885   0.470
 6580TIP3    H219684   1.579   1.818   0.449
 6581TIP3   OH219685   7.907   6.715   6.272
 6581TIP3    H119686   7.988   6.679   6.235
 6581TIP3    H219687   7.844   6.710   6.200
 6582TIP3   OH219688   0.484   3.542   2.246
 6582TIP3    H119689   0.428   3.615   2.218
 6582TIP3    H219690   0.523   3.572   2.329
 6583TIP3   OH219691   5.375   4.116   2.037
 6583TIP3    H119692   5.447   4.178   2.047
 6583TIP3    H219693   5.297   4.170   2.033
 6584TIP3   OH219694   7.123   0.140   2.928
 6584TIP3    H119695   7.122   0.044   2.931
 6584TIP3    H219696   7.216   0.163   2.931
 6585TIP3   OH219697   6.785   2.148   5.168
 6585TIP3    H119698   6.871   2.169   5.207
 6585TIP3    H219699   6.744   2.233   5.153
 6586TIP3   OH219700   7.440   7.456   0.871
 6586TIP3    H119701   7.525   7.415   0.887
 6586TIP3    H219702   7.427   7.447   0.777
 6587TIP3   OH219703   3.290   4.180   3.212
 6587TIP3    H119704   3.203   4.205   3.182
 6587TIP3    H219705   3.341   4.170   3.132
 6588TIP3   OH219706   1.177   0.096   5.825
 6588TIP3    H119707   1.270   0.111   5.839
 6588TIP3    H219708   1.141   0.184   5.813
 6589TIP3   OH219709   0.551   7.476   6.724
 6589TIP3    H119710   0.482   7.542   6.726
 6589TIP3    H219711   0.632   7.527   6.717
 6590TIP3   OH219712   2.982   0.535   1.573
 6590TIP3    H119713   3.047   0.483   1.525
 6590TIP3    H219714   2.917   0.559   1.507
 6591TIP3   OH219715   6.474   6.445   4.541
 6591TIP3    H119716   6.485   6.426   4.634
 6591TIP3    H219717   6.381   6.465   4.531
 6592TIP3   OH219718   5.871   5.210   0.034
 6592TIP3    H119719   5.778   5.214   0.055
 6592TIP3    H219720   5.904   5.296   0.058
 6593TIP3   OH219721   0.438   4.016   0.899
 6593TIP3    H119722   0.366   3.964   0.934
 6593TIP3    H219723   0.476   3.961   0.830
 6594TIP3   OH219724   4.163   2.993   4.277
 6594TIP3    H119725   4.070   2.976   4.290
 6594TIP3    H219726   4.207   2.934   4.338
 6595TIP3   OH219727   4.843   6.927   0.624
 6595TIP3    H119728   4.807   6.987   0.689
 6595TIP3    H219729   4.831   6.840   0.663
 6596TIP3   OH219730   3.172   6.399   6.270
 6596TIP3    H119731   3.130   6.472   6.224
 6596TIP3    H219732   3.260   6.431   6.291
 6597TIP3   OH219733   1.893   7.418   4.901
 6597TIP3    H119734   1.959   7.369   4.852
 6597TIP3    H219735   1.898   7.383   4.990
 6598TIP3   OH219736   1.646   5.424   6.306
 6598TIP3    H119737   1.619   5.355   6.366
 6598TIP3    H219738   1.570   5.439   6.250
 6599TIP3   OH219739   1.607   6.794   0.014
 6599TIP3    H119740   1.593   6.717   0.068
 6599TIP3    H219741   1.644   6.859   0.074
 6600TIP3   OH219742   2.255   0.424   5.994
 6600TIP3    H119743   2.311   0.476   5.937
 6600TIP3    H219744   2.229   0.484   6.064
 6601TIP3   OH219745   3.412   1.175   5.201
 6601TIP3    H119746   3.416   1.168   5.297
 6601TIP3    H219747   3.503   1.170   5.173
 6602TIP3   OH219748   0.427   5.785   0.568
 6602TIP3    H119749   0.335   5.810   0.572
 6602TIP3    H219750   0.471   5.843   0.629
 6603TIP3   OH219751   5.050   6.704   5.185
 6603TIP3    H119752   5.023   6.712   5.094
 6603TIP3    H219753   5.001   6.772   5.231
 6604TIP3   OH219754   2.704   4.771   5.245
 6604TIP3    H119755   2.649   4.823   5.185
 6604TIP3    H219756   2.751   4.836   5.297
 6605TIP3   OH219757   3.850   5.440   4.292
 6605TIP3    H119758   3.827   5.528   4.319
 6605TIP3    H219759   3.901   5.452   4.212
 6606TIP3   OH219760   2.631   4.686   4.039
 6606TIP3    H119761   2.674   4.620   4.093
 6606TIP3    H219762   2.544   4.650   4.022
 6607TIP3   OH219763   3.253   1.968   3.010
 6607TIP3    H119764   3.313   1.900   3.041
 6607TIP3    H219765   3.303   2.049   3.015
 6608TIP3   OH219766   3.867   2.566   4.692
 6608TIP3    H119767   3.847   2.554   4.600
 6608TIP3    H219768   3.961   2.550   4.699
 6609TIP3   OH219769   7.682   0.498   3.163
 6609TIP3    H119770   7.669   0.450   3.081
 6609TIP3    H219771   7.763   0.547   3.151
 6610TIP3   OH219772   3.519   1.277   3.364
 6610TIP3    H119773   3.551   1.191   3.392
 6610TIP3    H219774   3.598   1.332   3.360
 6611TIP3   OH219775   0.480   3.903   6.205
 6611TIP3    H119776   0.392   3.889   6.239
 6611TIP3    H219777   0.536   3.844   6.256
 6612TIP3   OH219778   2.840   5.669   0.494
 6612TIP3    H119779   2.813   5.578   0.499
 6612TIP3    H219780   2.841   5.699   0.586
 6613TIP3   OH219781   7.650   6.427   5.137
 6613TIP3    H119782   7.615   6.360   5.078
 6613TIP3    H219783   7.648   6.508   5.086
 6614TIP3   OH219784   2.761   6.773   3.510
 6614TIP3    H119785   2.831   6.726   3.556
 6614TIP3    H219786   2.805   6.849   3.472
 6615TIP3   OH219787   3.113   4.564   3.760
 6615TIP3    H119788   3.102   4.654   3.728
 6615TIP3    H219789   3.064   4.561   3.842
 6616TIP3   OH219790   7.580   1.476   3.862
 6616TIP3    H119791   7.664   1.434   3.880
 6616TIP3    H219792   7.516   1.405   3.864
 6617TIP3   OH219793   6.482   4.582   6.142
 6617TIP3    H119794   6.505   4.623   6.226
 6617TIP3    H219795   6.388   4.565   6.148
 6618TIP3   OH219796   6.859   6.631   0.350
 6618TIP3    H119797   6.854   6.661   0.441
 6618TIP3    H219798   6.818   6.701   0.299
 6619TIP3   OH219799   0.609   2.037   3.280
 6619TIP3    H119800   0.551   2.021   3.354
 6619TIP3    H219801   0.623   1.951   3.241
 6620TIP3   OH219802   0.066   5.039   5.251
 6620TIP3    H119803   0.126   5.114   5.250
 6620TIP3    H219804   0.024   5.042   5.336
 6621TIP3   OH219805   7.288   7.020   0.232
 6621TIP3    H119806   7.320   7.008   0.321
 6621TIP3    H219807   7.218   6.955   0.223
 6622TIP3   OH219808   2.259   2.674   0.641
 6622TIP3    H119809   2.304   2.591   0.661
 6622TIP3    H219810   2.323   2.724   0.590
 6623TIP3   OH219811   5.137   2.001   2.269
 6623TIP3    H119812   5.163   1.950   2.345
 6623TIP3    H219813   5.189   1.965   2.197
 6624TIP3   OH219814   6.489   6.341   1.871
 6624TIP3    H119815   6.517   6.433   1.864
 6624TIP3    H219816   6.395   6.343   1.855
 6625TIP3   OH219817   7.740   3.473   2.672
 6625TIP3    H119818   7.704   3.546   2.722
 6625TIP3    H219819   7.778   3.416   2.739
 6626TIP3   OH219820   6.950   7.604   6.335
 6626TIP3    H119821   6.987   7.635   6.253
 6626TIP3    H219822   6.904   7.681   6.371
 6627TIP3   OH219823   6.865   3.597   3.209
 6627TIP3    H119824   6.916   3.516   3.210
 6627TIP3    H219825   6.852   3.619   3.301
 6628TIP3   OH219826   2.053   7.342   5.470
 6628TIP3    H119827   1.961   7.367   5.456
 6628TIP3    H219828   2.092   7.419   5.511
 6629TIP3   OH219829   0.192   0.703   1.519
 6629TIP3    H119830   0.127   0.755   1.565
 6629TIP3    H219831   0.148   0.619   1.503
 6630TIP3   OH219832   5.268   3.705   2.475
 6630TIP3    H119833   5.291   3.698   2.568
 6630TIP3    H219834   5.256   3.799   2.461
 6631TIP3   OH219835   7.532   6.826   0.146
 6631TIP3    H119836   7.564   6.753   0.198
 6631TIP3    H219837   7.453   6.855   0.191
 6632TIP3   OH219838   0.190   7.450   3.314
 6632TIP3    H119839   0.172   7.541   3.338
 6632TIP3    H219840   0.285   7.442   3.320
 6633TIP3   OH219841   1.806   6.161   4.846
 6633TIP3    H119842   1.766   6.217   4.779
 6633TIP3    H219843   1.852   6.223   4.903
 6634TIP3   OH219844   4.731   3.780   0.019
 6634TIP3    H119845   4.759   3.866  -0.012
 6634TIP3    H219846   4.725   3.789   0.114
 6635TIP3   OH219847   5.224   0.856   2.473
 6635TIP3    H119848   5.207   0.874   2.381
 6635TIP3    H219849   5.265   0.936   2.507
 6636TIP3   OH219850   4.965   1.169   2.700
 6636TIP3    H119851   4.912   1.089   2.702
 6636TIP3    H219852   4.909   1.235   2.739
 6637TIP3   OH219853   2.964   4.174   5.751
 6637TIP3    H119854   3.008   4.257   5.771
 6637TIP3    H219855   3.034   4.109   5.751
 6638TIP3   OH219856   5.685   3.303   2.319
 6638TIP3    H119857   5.694   3.256   2.402
 6638TIP3    H219858   5.774   3.310   2.285
 6639TIP3   OH219859   6.754   7.236   0.967
 6639TIP3    H119860   6.817   7.279   1.025
 6639TIP3    H219861   6.691   7.305   0.945
 6640TIP3   OH219862   2.543   2.342   1.199
 6640TIP3    H119863   2.511   2.431   1.184
 6640TIP3    H219864   2.511   2.292   1.123
 6641TIP3   OH219865   1.594   0.430   2.609
 6641TIP3    H119866   1.627   0.487   2.678
 6641TIP3    H219867   1.533   0.371   2.654
 6642TIP3   OH219868   3.649   0.070   5.651
 6642TIP3    H119869   3.612   0.126   5.582
 6642TIP3    H219870   3.595  -0.009   5.649
 6643TIP3   OH219871   1.943   3.669   3.778
 6643TIP3    H119872   1.979   3.584   3.805
 6643TIP3    H219873   1.947   3.668   3.683
 6644TIP3   OH219874   4.460   0.580   0.365
 6644TIP3    H119875   4.422   0.529   0.437
 6644TIP3    H219876   4.468   0.518   0.293
 6645TIP3   OH219877   4.727   5.129   6.471
 6645TIP3    H119878   4.822   5.118   6.469
 6645TIP3    H219879   4.714   5.223   6.478
 6646TIP3   OH219880   2.278   2.209   5.652
 6646TIP3    H119881   2.204   2.154   5.626
 6646TIP3    H219882   2.254   2.297   5.623
 6647TIP3   OH219883   0.731   5.353   2.489
 6647TIP3    H119884   0.666   5.422   2.501
 6647TIP3    H219885   0.793   5.366   2.561
 6648TIP3   OH219886   6.829   0.987   4.200
 6648TIP3    H119887   6.759   0.973   4.136
 6648TIP3    H219888   6.886   1.053   4.160
 6649TIP3   OH219889   3.899   4.404   4.312
 6649TIP3    H119890   3.862   4.479   4.359
 6649TIP3    H219891   3.825   4.343   4.303
 6650TIP3   OH219892   2.864   6.029   4.900
 6650TIP3    H119893   2.828   5.960   4.844
 6650TIP3    H219894   2.924   5.983   4.959
 6651TIP3   OH219895   5.555   4.565   4.707
 6651TIP3    H119896   5.461   4.557   4.724
 6651TIP3    H219897   5.561   4.627   4.635
 6652TIP3   OH219898   1.262   4.830   2.480
 6652TIP3    H119899   1.181   4.787   2.453
 6652TIP3    H219900   1.323   4.816   2.408
 6653TIP3   OH219901   0.337   3.413   1.270
 6653TIP3    H119902   0.405   3.440   1.331
 6653TIP3    H219903   0.328   3.487   1.210
 6654TIP3   OH219904   4.170   4.552   4.103
 6654TIP3    H119905   4.147   4.471   4.056
 6654TIP3    H219906   4.086   4.597   4.115
 6655TIP3   OH219907   4.647   7.080   2.725
 6655TIP3    H119908   4.667   7.058   2.816
 6655TIP3    H219909   4.569   7.135   2.729
 6656TIP3   OH219910   2.588   0.225   1.872
 6656TIP3    H119911   2.628   0.297   1.921
 6656TIP3    H219912   2.506   0.208   1.918
 6657TIP3   OH219913   7.041   5.908   2.352
 6657TIP3    H119914   7.003   5.827   2.385
 6657TIP3    H219915   7.088   5.945   2.426
 6658TIP3   OH219916   4.765   4.228   2.847
 6658TIP3    H119917   4.797   4.179   2.771
 6658TIP3    H219918   4.812   4.312   2.842
 6659TIP3   OH219919   8.168   3.217   0.222
 6659TIP3    H119920   8.133   3.287   0.168
 6659TIP3    H219921   8.133   3.234   0.309
 6660TIP3   OH219922   6.759   1.566   0.720
 6660TIP3    H119923   6.684   1.601   0.672
 6660TIP3    H219924   6.763   1.474   0.696
 6661TIP3   OH219925   6.091   1.368   6.475
 6661TIP3    H119926   6.050   1.301   6.420
 6661TIP3    H219927   6.140   1.423   6.414
 6662TIP3   OH219928   5.498   3.469   5.957
 6662TIP3    H119929   5.459   3.452   6.043
 6662TIP3    H219930   5.592   3.474   5.974
 6663TIP3   OH219931   5.450   7.711   2.296
 6663TIP3    H119932   5.376   7.696   2.354
 6663TIP3    H219933   5.463   7.627   2.250
 6664TIP3   OH219934   7.809   3.095   0.968
 6664TIP3    H119935   7.848   3.011   0.990
 6664TIP3    H219936   7.735   3.074   0.912
 6665TIP3   OH219937   7.561   7.216   2.809
 6665TIP3    H119938   7.645   7.177   2.833
 6665TIP3    H219939   7.528   7.160   2.739
 6666TIP3   OH219940   6.727   5.098   0.320
 6666TIP3    H119941   6.757   5.126   0.233
 6666TIP3    H219942   6.650   5.151   0.338
 6667TIP3   OH219943   3.322   1.491   4.059
 6667TIP3    H119944   3.314   1.577   4.101
 6667TIP3    H219945   3.268   1.433   4.113
 6668TIP3   OH219946   5.686   4.207   5.925
 6668TIP3    H119947   5.665   4.300   5.926
 6668TIP3    H219948   5.633   4.170   5.855
 6669TIP3   OH219949   3.835   6.961   1.391
 6669TIP3    H119950   3.878   6.916   1.318
 6669TIP3    H219951   3.761   6.903   1.414
 6670TIP3   OH219952   3.749   6.594   6.112
 6670TIP3    H119953   3.747   6.604   6.016
 6670TIP3    H219954   3.801   6.668   6.142
 6671TIP3   OH219955   2.732   0.713   2.027
 6671TIP3    H119956   2.666   0.772   2.062
 6671TIP3    H219957   2.814   0.739   2.070
 6672TIP3   OH219958   2.263   1.591   6.187
 6672TIP3    H119959   2.347   1.580   6.232
 6672TIP3    H219960   2.283   1.647   6.113
 6673TIP3   OH219961   5.227   4.252   4.191
 6673TIP3    H119962   5.317   4.227   4.210
 6673TIP3    H219963   5.176   4.172   4.208
 6674TIP3   OH219964   2.770   2.594   1.894
 6674TIP3    H119965   2.783   2.681   1.856
 6674TIP3    H219966   2.750   2.610   1.986
 6675TIP3   OH219967   7.951   7.246   1.522
 6675TIP3    H119968   7.892   7.187   1.568
 6675TIP3    H219969   7.898   7.283   1.451
 6676TIP3   OH219970   4.818   1.006   3.077
 6676TIP3    H119971   4.849   1.024   3.166
 6676TIP3    H219972   4.761   0.929   3.087
 6677TIP3   OH219973   4.711   7.169   5.091
 6677TIP3    H119974   4.746   7.216   5.015
 6677TIP3    H219975   4.650   7.106   5.055
 6678TIP3   OH219976   1.056   3.821   0.854
 6678TIP3    H119977   1.032   3.732   0.826
 6678TIP3    H219978   1.039   3.821   0.949
 6679TIP3   OH219979   7.997   6.641   3.305
 6679TIP3    H119980   7.953   6.711   3.257
 6679TIP3    H219981   8.060   6.605   3.242
 6680TIP3   OH219982   0.016   3.419   1.321
 6680TIP3    H119983  -0.059   3.408   1.262
 6680TIP3    H219984   0.081   3.467   1.268
 6681TIP3   OH219985   3.642   6.234   0.460
 6681TIP3    H119986   3.648   6.200   0.550
 6681TIP3    H219987   3.612   6.324   0.471
 6682TIP3   OH219988   4.214   1.083   0.406
 6682TIP3    H119989   4.134   1.091   0.355
 6682TIP3    H219990   4.192   1.116   0.493
 6683TIP3   OH219991   7.240   1.051   3.350
 6683TIP3    H119992   7.243   0.983   3.282
 6683TIP3    H219993   7.212   1.004   3.429
 6684TIP3   OH219994   7.609   0.191   3.510
 6684TIP3    H119995   7.533   0.197   3.451
 6684TIP3    H219996   7.611   0.099   3.536
 6685TIP3   OH219997   2.070   3.595   1.345
 6685TIP3    H119998   2.129   3.524   1.369
 6685TIP3    H219999   2.123   3.674   1.352
 6686TIP3   OH220000   0.893   0.388   5.066
 6686TIP3    H120001   0.819   0.431   5.108
 6686TIP3    H220002   0.860   0.303   5.038
 6687TIP3   OH220003   0.740   2.388   4.023
 6687TIP3    H120004   0.751   2.390   3.928
 6687TIP3    H220005   0.660   2.338   4.037
 6688TIP3   OH220006   7.105   7.566   6.067
 6688TIP3    H120007   7.168   7.578   6.138
 6688TIP3    H220008   7.155   7.524   5.997
 6689TIP3   OH220009   6.824   2.378   1.771
 6689TIP3    H120010   6.905   2.429   1.780
 6689TIP3    H220011   6.846   2.310   1.707
 6690TIP3   OH220012   2.817   0.662   1.397
 6690TIP3    H120013   2.734   0.705   1.416
 6690TIP3    H220014   2.882   0.731   1.407
 6691TIP3   OH220015   2.437   3.830   5.501
 6691TIP3    H120016   2.532   3.836   5.487
 6691TIP3    H220017   2.427   3.771   5.576
 6692TIP3   OH220018   6.572   3.472   4.345
 6692TIP3    H120019   6.604   3.535   4.281
 6692TIP3    H220020   6.624   3.489   4.423
 6693TIP3   OH220021   0.579   3.849   4.771
 6693TIP3    H120022   0.658   3.898   4.743
 6693TIP3    H220023   0.591   3.762   4.733
 6694TIP3   OH220024   6.053   6.357   0.866
 6694TIP3    H120025   6.065   6.316   0.952
 6694TIP3    H220026   6.073   6.287   0.804
 6695TIP3   OH220027   5.447   6.144   0.724
 6695TIP3    H120028   5.381   6.205   0.690
 6695TIP3    H220029   5.513   6.139   0.655
 6696TIP3   OH220030   6.804   1.143   6.255
 6696TIP3    H120031   6.746   1.211   6.222
 6696TIP3    H220032   6.772   1.126   6.344
 6697TIP3   OH220033   6.102   7.402   4.955
 6697TIP3    H120034   6.035   7.445   4.902
 6697TIP3    H220035   6.052   7.353   5.021
 6698TIP3   OH220036   5.962   7.582   6.571
 6698TIP3    H120037   6.040   7.530   6.555
 6698TIP3    H220038   5.895   7.519   6.596
 6699TIP3   OH220039   1.363   5.079   1.870
 6699TIP3    H120040   1.383   5.021   1.796
 6699TIP3    H220041   1.404   5.162   1.847
 6700TIP3   OH220042   2.047   5.536   3.177
 6700TIP3    H120043   2.121   5.493   3.220
 6700TIP3    H220044   2.080   5.558   3.089
 6701TIP3   OH220045   7.252   2.825   1.285
 6701TIP3    H120046   7.260   2.826   1.380
 6701TIP3    H220047   7.290   2.908   1.257
 6702TIP3   OH220048   7.913   5.082   6.056
 6702TIP3    H120049   7.930   5.138   5.980
 6702TIP3    H220050   7.964   5.003   6.039
 6703TIP3   OH220051   7.755   5.361   4.272
 6703TIP3    H120052   7.781   5.400   4.188
 6703TIP3    H220053   7.827   5.381   4.331
 6704TIP3   OH220054   0.642   3.067   4.290
 6704TIP3    H120055   0.723   3.025   4.319
 6704TIP3    H220056   0.668   3.157   4.268
 6705TIP3   OH220057   1.333   3.764   6.205
 6705TIP3    H120058   1.353   3.700   6.273
 6705TIP3    H220059   1.288   3.714   6.138
 6706TIP3   OH220060   4.846   1.640   4.719
 6706TIP3    H120061   4.831   1.605   4.632
 6706TIP3    H220062   4.940   1.658   4.722
 6707TIP3   OH220063   2.766   3.072   3.815
 6707TIP3    H120064   2.819   3.099   3.740
 6707TIP3    H220065   2.820   3.009   3.862
 6708TIP3   OH220066   3.303   1.310   2.530
 6708TIP3    H120067   3.323   1.223   2.567
 6708TIP3    H220068   3.312   1.369   2.605
 6709TIP3   OH220069   2.337   2.123   1.685
 6709TIP3    H120070   2.309   2.199   1.736
 6709TIP3    H220071   2.369   2.160   1.602
 6710TIP3   OH220072   0.916   5.306   1.621
 6710TIP3    H120073   0.983   5.269   1.679
 6710TIP3    H220074   0.882   5.382   1.669
 6711TIP3   OH220075   7.134   2.580   1.247
 6711TIP3    H120076   7.152   2.552   1.157
 6711TIP3    H220077   7.175   2.667   1.254
 6712TIP3   OH220078   3.234   5.770   0.893
 6712TIP3    H120079   3.282   5.719   0.958
 6712TIP3    H220080   3.259   5.861   0.910
 6713TIP3   OH220081   0.830   6.403   2.086
 6713TIP3    H120082   0.856   6.479   2.137
 6713TIP3    H220083   0.744   6.379   2.121
 6714TIP3   OH220084   6.437   0.529   5.328
 6714TIP3    H120085   6.464   0.528   5.236
 6714TIP3    H220086   6.438   0.437   5.354
 6715TIP3   OH220087   6.930   4.949   2.454
 6715TIP3    H120088   6.872   4.964   2.379
 6715TIP3    H220089   6.871   4.951   2.530
 6716TIP3   OH220090   0.964   5.548   3.293
 6716TIP3    H120091   0.982   5.486   3.222
 6716TIP3    H220092   1.010   5.628   3.267
 6717TIP3   OH220093   7.388   6.842   5.970
 6717TIP3    H120094   7.461   6.903   5.957
 6717TIP3    H220095   7.372   6.805   5.883
 6718TIP3   OH220096   6.907   5.030   4.231
 6718TIP3    H120097   6.979   4.968   4.217
 6718TIP3    H220098   6.948   5.104   4.276
 6719TIP3   OH220099   6.303   3.939   2.566
 6719TIP3    H120100   6.214   3.921   2.538
 6719TIP3    H220101   6.358   3.907   2.494
 6720TIP3   OH220102   0.559   7.423   1.258
 6720TIP3    H120103   0.594   7.472   1.183
 6720TIP3    H220104   0.602   7.462   1.334
 6721TIP3   OH220105   5.959   7.359   4.674
 6721TIP3    H120106   6.050   7.382   4.654
 6721TIP3    H220107   5.948   7.270   4.640
 6722TIP3   OH220108   4.637   3.953   2.670
 6722TIP3    H120109   4.713   3.898   2.691
 6722TIP3    H220110   4.606   3.919   2.586
 6723TIP3   OH220111   3.962   0.314   1.777
 6723TIP3    H120112   4.035   0.371   1.801
 6723TIP3    H220113   3.979   0.232   1.824
 6724TIP3   OH220114   5.862   1.726   0.258
 6724TIP3    H120115   5.876   1.744   0.165
 6724TIP3    H220116   5.862   1.813   0.299
 6725TIP3   OH220117   2.426   5.837   6.394
 6725TIP3    H120118   2.495   5.855   6.329
 6725TIP3    H220119   2.375   5.918   6.398
 6726TIP3   OH220120   1.934   7.595   5.701
 6726TIP3    H120121   1.927   7.681   5.743
 6726TIP3    H220122   1.849   7.581   5.659
 6727TIP3   OH220123   7.884   2.097   2.924
 6727TIP3    H120124   7.976   2.107   2.898
 6727TIP3    H220125   7.874   2.155   2.999
 6728TIP3   OH220126   2.667   1.644   3.103
 6728TIP3    H120127   2.649   1.660   3.010
 6728TIP3    H220128   2.760   1.622   3.105
 6729TIP3   OH220129   6.949   5.228   5.633
 6729TIP3    H120130   6.987   5.228   5.721
 6729TIP3    H220131   6.934   5.321   5.614
 6730TIP3   OH220132   1.066   0.841   3.184
 6730TIP3    H120133   1.033   0.903   3.249
 6730TIP3    H220134   1.025   0.868   3.102
 6731TIP3   OH220135   0.888   2.998   3.197
 6731TIP3    H120136   0.907   3.037   3.283
 6731TIP3    H220137   0.824   2.929   3.216
 6732TIP3   OH220138   7.612   6.837   3.360
 6732TIP3    H120139   7.691   6.861   3.409
 6732TIP3    H220140   7.590   6.916   3.311
 6733TIP3   OH220141   7.290   6.937   1.453
 6733TIP3    H120142   7.376   6.966   1.422
 6733TIP3    H220143   7.272   6.858   1.403
 6734TIP3   OH220144   6.728   7.455   2.009
 6734TIP3    H120145   6.762   7.372   1.976
 6734TIP3    H220146   6.683   7.494   1.934
 6735TIP3   OH220147   4.510   5.904   6.577
 6735TIP3    H120148   4.601   5.884   6.595
 6735TIP3    H220149   4.506   5.916   6.482
 6736TIP3   OH220150   2.524   4.082   6.197
 6736TIP3    H120151   2.601   4.121   6.156
 6736TIP3    H220152   2.542   3.988   6.199
 6737TIP3   OH220153   3.456   6.541   0.412
 6737TIP3    H120154   3.423   6.504   0.329
 6737TIP3    H220155   3.394   6.511   0.478
 6738TIP3   OH220156   2.272   4.518   1.647
 6738TIP3    H120157   2.222   4.595   1.620
 6738TIP3    H220158   2.284   4.467   1.567
 6739TIP3   OH220159   4.831   5.917   3.112
 6739TIP3    H120160   4.913   5.965   3.101
 6739TIP3    H220161   4.853   5.826   3.091
 6740TIP3   OH220162   3.416   3.399   0.630
 6740TIP3    H120163   3.346   3.336   0.648
 6740TIP3    H220164   3.370   3.480   0.609
 6741TIP3   OH220165   5.570   4.308   2.131
 6741TIP3    H120166   5.595   4.356   2.210
 6741TIP3    H220167   5.554   4.377   2.066
 6742TIP3   OH220168   5.904   3.809   0.480
 6742TIP3    H120169   5.996   3.814   0.505
 6742TIP3    H220170   5.905   3.815   0.385
 6743TIP3   OH220171   1.612   0.533   2.011
 6743TIP3    H120172   1.695   0.567   1.977
 6743TIP3    H220173   1.553   0.536   1.936
 6744TIP3   OH220174   6.841   2.206   3.827
 6744TIP3    H120175   6.770   2.163   3.778
 6744TIP3    H220176   6.876   2.136   3.883
 6745TIP3   OH220177   1.566   2.116   5.964
 6745TIP3    H120178   1.502   2.075   6.022
 6745TIP3    H220179   1.649   2.109   6.012
 6746TIP3   OH220180   4.296   1.731   3.522
 6746TIP3    H120181   4.318   1.749   3.613
 6746TIP3    H220182   4.379   1.735   3.475
 6747TIP3   OH220183   3.398   7.658   4.089
 6747TIP3    H120184   3.386   7.656   4.184
 6747TIP3    H220185   3.363   7.574   4.058
 6748TIP3   OH220186   2.280   6.271   2.716
 6748TIP3    H120187   2.347   6.322   2.763
 6748TIP3    H220188   2.318   6.183   2.709
 6749TIP3   OH220189   6.007   2.272   2.722
 6749TIP3    H120190   6.035   2.295   2.634
 6749TIP3    H220191   6.086   2.239   2.764
 6750TIP3   OH220192   3.186   0.335   3.956
 6750TIP3    H120193   3.185   0.263   4.019
 6750TIP3    H220194   3.251   0.396   3.991
 6751TIP3   OH220195   2.089   5.416   3.802
 6751TIP3    H120196   2.020   5.352   3.786
 6751TIP3    H220197   2.096   5.420   3.897
 6752TIP3   OH220198   3.217   1.030   4.432
 6752TIP3    H120199   3.221   0.944   4.474
 6752TIP3    H220200   3.204   1.011   4.339
 6753TIP3   OH220201   4.944   1.897   5.536
 6753TIP3    H120202   5.027   1.921   5.577
 6753TIP3    H220203   4.942   1.802   5.540
 6754TIP3   OH220204   4.314   7.774   5.785
 6754TIP3    H120205   4.302   7.745   5.694
 6754TIP3    H220206   4.389   7.833   5.782
 6755TIP3   OH220207   4.757   4.258   4.722
 6755TIP3    H120208   4.776   4.257   4.628
 6755TIP3    H220209   4.843   4.264   4.764
 6756TIP3   OH220210   0.548   3.583   4.639
 6756TIP3    H120211   0.517   3.497   4.613
 6756TIP3    H220212   0.508   3.643   4.576
 6757TIP3   OH220213   6.704   1.315   4.751
 6757TIP3    H120214   6.639   1.343   4.815
 6757TIP3    H220215   6.657   1.317   4.667
 6758TIP3   OH220216   5.786   0.144   6.294
 6758TIP3    H120217   5.804   0.139   6.200
 6758TIP3    H220218   5.705   0.194   6.300
 6759TIP3   OH220219   0.366   4.486   3.817
 6759TIP3    H120220   0.339   4.555   3.756
 6759TIP3    H220221   0.288   4.469   3.870
 6760TIP3   OH220222   0.699   4.737   3.168
 6760TIP3    H120223   0.619   4.745   3.220
 6760TIP3    H220224   0.675   4.772   3.082
 6761TIP3   OH220225   0.275   6.120   0.430
 6761TIP3    H120226   0.319   6.200   0.402
 6761TIP3    H220227   0.211   6.102   0.361
 6762TIP3   OH220228   3.616   6.390   5.177
 6762TIP3    H120229   3.643   6.437   5.098
 6762TIP3    H220230   3.698   6.364   5.218
 6763TIP3   OH220231   5.087   6.024   0.693
 6763TIP3    H120232   5.181   6.017   0.676
 6763TIP3    H220233   5.045   5.990   0.614
 6764TIP3   OH220234   1.435   4.782   3.679
 6764TIP3    H120235   1.488   4.750   3.752
 6764TIP3    H220236   1.361   4.721   3.674
 6765TIP3   OH220237   0.799   3.804   2.515
 6765TIP3    H120238   0.757   3.739   2.458
 6765TIP3    H220239   0.887   3.813   2.479
 6766TIP3   OH220240   5.896   6.272   2.685
 6766TIP3    H120241   5.930   6.258   2.597
 6766TIP3    H220242   5.857   6.360   2.682
 6767TIP3   OH220243   2.099   0.206   5.576
 6767TIP3    H120244   2.130   0.294   5.599
 6767TIP3    H220245   2.142   0.148   5.639
 6768TIP3   OH220246   6.295   6.784   6.464
 6768TIP3    H120247   6.262   6.725   6.532
 6768TIP3    H220248   6.351   6.729   6.409
 6769TIP3   OH220249   2.568   7.688   6.101
 6769TIP3    H120250   2.579   7.750   6.029
 6769TIP3    H220251   2.604   7.606   6.067
 6770TIP3   OH220252   3.145   3.422   5.112
 6770TIP3    H120253   3.231   3.404   5.152
 6770TIP3    H220254   3.139   3.360   5.039
 6771TIP3   OH220255   5.670   5.942   2.894
 6771TIP3    H120256   5.624   6.021   2.867
 6771TIP3    H220257   5.749   5.940   2.839
 6772TIP3   OH220258   4.635   6.913   1.409
 6772TIP3    H120259   4.659   6.828   1.446
 6772TIP3    H220260   4.672   6.977   1.470
 6773TIP3   OH220261   3.877   4.765   2.511
 6773TIP3    H120262   3.870   4.756   2.606
 6773TIP3    H220263   3.867   4.676   2.477
 6774TIP3   OH220264   6.704   0.869   2.036
 6774TIP3    H120265   6.651   0.871   2.116
 6774TIP3    H220266   6.643   0.892   1.966
 6775TIP3   OH220267   5.886   1.311   2.541
 6775TIP3    H120268   5.826   1.381   2.513
 6775TIP3    H220269   5.924   1.278   2.460
 6776TIP3   OH220270   5.608   6.939   1.804
 6776TIP3    H120271   5.571   6.856   1.774
 6776TIP3    H220272   5.645   6.979   1.726
 6777TIP3   OH220273   5.358   4.937   2.378
 6777TIP3    H120274   5.310   5.014   2.347
 6777TIP3    H220275   5.422   4.919   2.309
 6778TIP3   OH220276   5.368   2.880   3.483
 6778TIP3    H120277   5.462   2.901   3.481
 6778TIP3    H220278   5.336   2.905   3.397
 6779TIP3   OH220279   5.438   7.521   1.038
 6779TIP3    H120280   5.363   7.578   1.052
 6779TIP3    H220281   5.491   7.531   1.117
 6780TIP3   OH220282   4.128   3.259   4.962
 6780TIP3    H120283   4.108   3.247   4.869
 6780TIP3    H220284   4.177   3.181   4.986
 6781TIP3   OH220285   0.805   0.589   4.583
 6781TIP3    H120286   0.717   0.624   4.575
 6781TIP3    H220287   0.809   0.518   4.518
 6782TIP3   OH220288   0.309   7.787   0.809
 6782TIP3    H120289   0.215   7.776   0.791
 6782TIP3    H220290   0.339   7.700   0.833
 6783TIP3   OH220291   4.000   6.243   1.771
 6783TIP3    H120292   4.077   6.269   1.720
 6783TIP3    H220293   4.034   6.230   1.859
 6784TIP3   OH220294   5.789   5.458   5.011
 6784TIP3    H120295   5.783   5.375   4.963
 6784TIP3    H220296   5.873   5.452   5.057
 6785TIP3   OH220297   1.355   3.722   1.477
 6785TIP3    H120298   1.389   3.714   1.566
 6785TIP3    H220299   1.418   3.674   1.423
 6786TIP3   OH220300   0.228   2.561   0.211
 6786TIP3    H120301   0.213   2.494   0.144
 6786TIP3    H220302   0.274   2.515   0.282
 6787TIP3   OH220303   5.225   0.192   3.558
 6787TIP3    H120304   5.286   0.155   3.495
 6787TIP3    H220305   5.262   0.277   3.581
 6788TIP3   OH220306   8.248   6.200   6.675
 6788TIP3    H120307   8.291   6.284   6.660
 6788TIP3    H220308   8.163   6.210   6.633
 6789TIP3   OH220309   5.994   0.741   2.242
 6789TIP3    H120310   6.040   0.740   2.158
 6789TIP3    H220311   6.046   0.685   2.299
 6790TIP3   OH220312   5.515   5.758   6.736
 6790TIP3    H120313   5.435   5.743   6.685
 6790TIP3    H220314   5.490   5.822   6.802
 6791TIP3   OH220315   1.130   1.654   1.086
 6791TIP3    H120316   1.082   1.728   1.124
 6791TIP3    H220317   1.097   1.648   0.997
 6792TIP3   OH220318   4.551   0.304   1.041
 6792TIP3    H120319   4.600   0.226   1.014
 6792TIP3    H220320   4.474   0.270   1.086
 6793TIP3   OH220321   7.078   6.566   4.900
 6793TIP3    H120322   7.011   6.635   4.898
 6793TIP3    H220323   7.123   6.575   4.816
 6794TIP3   OH220324   0.903   0.091   0.345
 6794TIP3    H120325   0.905   0.023   0.278
 6794TIP3    H220326   0.995   0.117   0.355
 6795TIP3   OH220327   5.952   1.641   5.082
 6795TIP3    H120328   5.894   1.639   5.006
 6795TIP3    H220329   5.895   1.665   5.155
 6796TIP3   OH220330   0.352   2.405   3.119
 6796TIP3    H120331   0.369   2.417   3.212
 6796TIP3    H220332   0.424   2.451   3.076
 6797TIP3   OH220333   0.172   0.985   4.278
 6797TIP3    H120334   0.225   1.057   4.243
 6797TIP3    H220335   0.162   0.925   4.204
 6798TIP3   OH220336   4.808   0.180   0.211
 6798TIP3    H120337   4.782   0.269   0.188
 6798TIP3    H220338   4.751   0.124   0.158
 6799TIP3   OH220339   6.090   5.442   0.303
 6799TIP3    H120340   6.185   5.450   0.292
 6799TIP3    H220341   6.079   5.397   0.387
 6800TIP3   OH220342   7.212   7.638   5.437
 6800TIP3    H120343   7.193   7.557   5.485
 6800TIP3    H220344   7.285   7.677   5.484
 6801TIP3   OH220345   8.200   3.699   4.881
 6801TIP3    H120346   8.160   3.742   4.805
 6801TIP3    H220347   8.283   3.745   4.893
 6802TIP3   OH220348   4.244   0.121   0.965
 6802TIP3    H120349   4.279   0.139   1.052
 6802TIP3    H220350   4.164   0.173   0.960
 6803TIP3   OH220351   1.598   3.359   5.721
 6803TIP3    H120352   1.601   3.452   5.742
 6803TIP3    H220353   1.563   3.318   5.801
 6804TIP3   OH220354   0.862   5.644   2.924
 6804TIP3    H120355   0.815   5.672   2.845
 6804TIP3    H220356   0.820   5.692   2.995
 6805TIP3   OH220357   6.253   1.460   3.179
 6805TIP3    H120358   6.160   1.479   3.184
 6805TIP3    H220359   6.280   1.442   3.269
 6806TIP3   OH220360   5.653   6.992   1.537
 6806TIP3    H120361   5.560   6.988   1.515
 6806TIP3    H220362   5.684   7.072   1.494
 6807TIP3   OH220363   6.375   5.730   5.925
 6807TIP3    H120364   6.325   5.676   5.987
 6807TIP3    H220365   6.465   5.726   5.957
 6808TIP3   OH220366   3.555   5.207   2.631
 6808TIP3    H120367   3.598   5.278   2.679
 6808TIP3    H220368   3.561   5.132   2.691
 6809TIP3   OH220369   5.475   3.793   3.520
 6809TIP3    H120370   5.481   3.849   3.442
 6809TIP3    H220371   5.425   3.717   3.490
 6810TIP3   OH220372   0.350   0.581   3.039
 6810TIP3    H120373   0.284   0.596   3.107
 6810TIP3    H220374   0.322   0.501   2.995
 6811TIP3   OH220375   5.149   5.820   0.149
 6811TIP3    H120376   5.170   5.782   0.235
 6811TIP3    H220377   5.054   5.817   0.145
 6812TIP3   OH220378   4.693   0.375   4.454
 6812TIP3    H120379   4.785   0.372   4.480
 6812TIP3    H220380   4.651   0.307   4.507
 6813TIP3   OH220381   2.427   6.824   2.330
 6813TIP3    H120382   2.431   6.870   2.246
 6813TIP3    H220383   2.467   6.884   2.392
 6814TIP3   OH220384   1.184   1.794   1.569
 6814TIP3    H120385   1.242   1.762   1.638
 6814TIP3    H220386   1.233   1.779   1.488
 6815TIP3   OH220387   1.435   5.077   0.832
 6815TIP3    H120388   1.490   5.000   0.821
 6815TIP3    H220389   1.413   5.103   0.743
 6816TIP3   OH220390   2.792   5.707   5.204
 6816TIP3    H120391   2.727   5.637   5.214
 6816TIP3    H220392   2.846   5.700   5.282
 6817TIP3   OH220393   4.543   1.731   6.517
 6817TIP3    H120394   4.619   1.765   6.470
 6817TIP3    H220395   4.531   1.642   6.482
 6818TIP3   OH220396   1.567   1.152   2.957
 6818TIP3    H120397   1.562   1.092   3.032
 6818TIP3    H220398   1.579   1.238   2.996
 6819TIP3   OH220399   3.976   3.837   3.806
 6819TIP3    H120400   3.968   3.872   3.716
 6819TIP3    H220401   4.063   3.797   3.809
 6820TIP3   OH220402   0.836   7.254   6.632
 6820TIP3    H120403   0.800   7.311   6.700
 6820TIP3    H220404   0.842   7.311   6.555
 6821TIP3   OH220405   2.362   2.813   4.905
 6821TIP3    H120406   2.401   2.830   4.991
 6821TIP3    H220407   2.322   2.727   4.914
 6822TIP3   OH220408   2.624   5.532   4.062
 6822TIP3    H120409   2.718   5.546   4.074
 6822TIP3    H220410   2.603   5.457   4.118
 6823TIP3   OH220411   2.808   2.638   3.120
 6823TIP3    H120412   2.785   2.555   3.079
 6823TIP3    H220413   2.735   2.696   3.099
 6824TIP3   OH220414   6.134   2.956   6.332
 6824TIP3    H120415   6.100   2.960   6.243
 6824TIP3    H220416   6.068   2.998   6.386
 6825TIP3   OH220417   7.560   3.493   0.153
 6825TIP3    H120418   7.580   3.491   0.247
 6825TIP3    H220419   7.464   3.495   0.150
 6826TIP3   OH220420   3.336   3.612   6.327
 6826TIP3    H120421   3.356   3.561   6.249
 6826TIP3    H220422   3.279   3.554   6.379
 6827TIP3   OH220423   3.135   2.517   5.959
 6827TIP3    H120424   3.130   2.457   6.033
 6827TIP3    H220425   3.050   2.562   5.959
 6828TIP3   OH220426   7.224   2.979   4.761
 6828TIP3    H120427   7.318   2.990   4.772
 6828TIP3    H220428   7.186   3.009   4.843
 6829TIP3   OH220429   6.185   6.111   5.514
 6829TIP3    H120430   6.122   6.176   5.546
 6829TIP3    H220431   6.233   6.156   5.445
 6830TIP3   OH220432   1.280   4.476   1.292
 6830TIP3    H120433   1.264   4.565   1.261
 6830TIP3    H220434   1.364   4.482   1.337
 6831TIP3   OH220435   8.066   1.524   3.472
 6831TIP3    H120436   7.988   1.522   3.529
 6831TIP3    H220437   8.120   1.452   3.505
 6832TIP3   OH220438   3.391   7.286   5.336
 6832TIP3    H120439   3.374   7.370   5.379
 6832TIP3    H220440   3.410   7.309   5.245
 6833TIP3   OH220441   2.494   3.297   6.287
 6833TIP3    H120442   2.460   3.222   6.237
 6833TIP3    H220443   2.422   3.360   6.288
 6834TIP3   OH220444   0.775   0.193   5.667
 6834TIP3    H120445   0.761   0.124   5.603
 6834TIP3    H220446   0.869   0.211   5.665
 6835TIP3   OH220447   1.662   7.676   6.711
 6835TIP3    H120448   1.616   7.604   6.667
 6835TIP3    H220449   1.628   7.755   6.670
 6836TIP3   OH220450   7.285   1.940   1.869
 6836TIP3    H120451   7.314   1.897   1.950
 6836TIP3    H220452   7.320   2.029   1.875
 6837TIP3   OH220453   1.419   1.549   1.180
 6837TIP3    H120454   1.324   1.542   1.169
 6837TIP3    H220455   1.446   1.462   1.208
 6838TIP3   OH220456   3.551   6.130   3.960
 6838TIP3    H120457   3.547   6.177   4.044
 6838TIP3    H220458   3.628   6.166   3.916
 6839TIP3   OH220459   3.073   7.485   2.230
 6839TIP3    H120460   3.025   7.467   2.311
 6839TIP3    H220461   3.049   7.574   2.207
 6840TIP3   OH220462   6.048   1.621   3.949
 6840TIP3    H120463   5.983   1.605   3.880
 6840TIP3    H220464   6.023   1.562   4.020
 6841TIP3   OH220465   6.608   6.027   5.950
 6841TIP3    H120466   6.628   6.042   5.858
 6841TIP3    H220467   6.524   6.070   5.965
 6842TIP3   OH220468   3.764   1.781   2.333
 6842TIP3    H120469   3.849   1.798   2.291
 6842TIP3    H220470   3.744   1.690   2.312
 6843TIP3   OH220471   1.296   4.705   0.943
 6843TIP3    H120472   1.314   4.618   0.907
 6843TIP3    H220473   1.250   4.752   0.873
 6844TIP3   OH220474   4.400   5.530   1.217
 6844TIP3    H120475   4.324   5.573   1.255
 6844TIP3    H220476   4.404   5.564   1.127
 6845TIP3   OH220477   6.447   1.698   0.975
 6845TIP3    H120478   6.493   1.648   1.043
 6845TIP3    H220479   6.382   1.749   1.024
 6846TIP3   OH220480   4.900   7.262   3.631
 6846TIP3    H120481   4.919   7.196   3.563
 6846TIP3    H220482   4.814   7.237   3.664
 6847TIP3   OH220483   0.803   3.445   6.092
 6847TIP3    H120484   0.861   3.429   6.167
 6847TIP3    H220485   0.716   3.421   6.124
 6848TIP3   OH220486   8.048   7.573   4.570
 6848TIP3    H120487   8.094   7.508   4.623
 6848TIP3    H220488   7.985   7.613   4.630
 6849TIP3   OH220489   1.933   0.769   2.175
 6849TIP3    H120490   1.948   0.793   2.267
 6849TIP3    H220491   1.840   0.749   2.171
 6850TIP3   OH220492   2.704   3.157   5.251
 6850TIP3    H120493   2.620   3.202   5.247
 6850TIP3    H220494   2.719   3.127   5.161
 6851TIP3   OH220495   3.356   0.949   0.520
 6851TIP3    H120496   3.442   0.925   0.484
 6851TIP3    H220497   3.309   0.866   0.527
 6852TIP3   OH220498   2.172   2.060   2.651
 6852TIP3    H120499   2.247   2.116   2.673
 6852TIP3    H220500   2.145   2.023   2.736
 6853TIP3   OH220501   6.446   6.951   5.980
 6853TIP3    H120502   6.531   6.967   5.940
 6853TIP3    H220503   6.464   6.896   6.056
 6854TIP3   OH220504   0.179   5.537   2.179
 6854TIP3    H120505   0.251   5.598   2.194
 6854TIP3    H220506   0.110   5.565   2.239
 6855TIP3   OH220507   7.983   2.033   0.654
 6855TIP3    H120508   7.979   2.112   0.601
 6855TIP3    H220509   7.978   2.064   0.745
 6856TIP3   OH220510   7.988   2.912   0.366
 6856TIP3    H120511   8.039   2.945   0.292
 6856TIP3    H220512   7.975   2.819   0.347
 6857TIP3   OH220513   0.894   7.197   4.122
 6857TIP3    H120514   0.855   7.244   4.048
 6857TIP3    H220515   0.945   7.127   4.082
 6858TIP3   OH220516   2.900   5.961   2.865
 6858TIP3    H120517   2.902   6.053   2.892
 6858TIP3    H220518   2.868   5.963   2.775
 6859TIP3   OH220519   1.755   7.628   3.919
 6859TIP3    H120520   1.724   7.625   4.009
 6859TIP3    H220521   1.810   7.706   3.914
 6860TIP3   OH220522   4.556   2.312   5.759
 6860TIP3    H120523   4.502   2.262   5.697
 6860TIP3    H220524   4.541   2.268   5.843
 6861TIP3   OH220525   8.191   5.972   0.810
 6861TIP3    H120526   8.195   5.963   0.905
 6861TIP3    H220527   8.129   5.904   0.782
 6862TIP3   OH220528   2.513   2.065   0.066
 6862TIP3    H120529   2.443   2.039   0.007
 6862TIP3    H220530   2.573   2.116   0.011
 6863TIP3   OH220531   7.525   4.294   5.190
 6863TIP3    H120532   7.436   4.278   5.157
 6863TIP3    H220533   7.578   4.227   5.149
 6864TIP3   OH220534   6.815   6.762   0.103
 6864TIP3    H120535   6.828   6.837   0.045
 6864TIP3    H220536   6.765   6.700   0.049
 6865TIP3   OH220537   3.274   3.180   0.270
 6865TIP3    H120538   3.252   3.265   0.231
 6865TIP3    H220539   3.233   3.116   0.213
 6866TIP3   OH220540   8.214   5.782   6.041
 6866TIP3    H120541   8.292   5.789   6.097
 6866TIP3    H220542   8.209   5.689   6.018
 6867TIP3   OH220543   0.987   5.485   4.960
 6867TIP3    H120544   0.901   5.465   4.923
 6867TIP3    H220545   1.048   5.475   4.888
 6868TIP3   OH220546   1.823   3.060   1.472
 6868TIP3    H120547   1.802   3.153   1.463
 6868TIP3    H220548   1.812   3.025   1.383
 6869TIP3   OH220549   3.049   4.633   5.112
 6869TIP3    H120550   3.098   4.585   5.180
 6869TIP3    H220551   3.061   4.580   5.033
 6870TIP3   OH220552   4.995   5.653   5.518
 6870TIP3    H120553   4.959   5.691   5.438
 6870TIP3    H220554   4.968   5.561   5.514
 6871TIP3   OH220555   5.007   2.959   3.135
 6871TIP3    H120556   4.962   2.884   3.096
 6871TIP3    H220557   4.960   3.035   3.102
 6872TIP3   OH220558   3.945   0.864   4.804
 6872TIP3    H120559   4.036   0.845   4.783
 6872TIP3    H220560   3.934   0.956   4.780
 6873TIP3   OH220561   3.162   0.394   1.899
 6873TIP3    H120562   3.194   0.326   1.958
 6873TIP3    H220563   3.146   0.348   1.816
 6874TIP3   OH220564   3.691   6.097   6.354
 6874TIP3    H120565   3.783   6.076   6.369
 6874TIP3    H220566   3.690   6.193   6.345
 6875TIP3   OH220567   4.414   6.027   4.719
 6875TIP3    H120568   4.364   5.946   4.733
 6875TIP3    H220569   4.410   6.041   4.624
 6876TIP3   OH220570   3.197   7.374   3.049
 6876TIP3    H120571   3.152   7.290   3.039
 6876TIP3    H220572   3.131   7.440   3.024
 6877TIP3   OH220573   2.993   5.721   6.710
 6877TIP3    H120574   3.047   5.799   6.719
 6877TIP3    H220575   3.047   5.650   6.746
 6878TIP3   OH220576   3.500   7.520   1.988
 6878TIP3    H120577   3.591   7.527   1.960
 6878TIP3    H220578   3.479   7.606   2.025
 6879TIP3   OH220579   1.064   0.325   1.255
 6879TIP3    H120580   0.971   0.334   1.231
 6879TIP3    H220581   1.095   0.415   1.264
 6880TIP3   OH220582   3.428   4.981   5.156
 6880TIP3    H120583   3.357   5.044   5.164
 6880TIP3    H220584   3.463   4.973   5.245
 6881TIP3   OH220585   4.388   0.976   2.135
 6881TIP3    H120586   4.352   0.944   2.053
 6881TIP3    H220587   4.436   1.056   2.111
 6882TIP3   OH220588   7.154   2.538   3.115
 6882TIP3    H120589   7.109   2.502   3.038
 6882TIP3    H220590   7.119   2.489   3.189
 6883TIP3   OH220591   7.156   4.884   6.651
 6883TIP3    H120592   7.244   4.917   6.633
 6883TIP3    H220593   7.169   4.794   6.680
 6884TIP3   OH220594   7.184   6.212   3.925
 6884TIP3    H120595   7.240   6.239   3.997
 6884TIP3    H220596   7.096   6.243   3.950
 6885TIP3   OH220597   0.105   0.220   5.359
 6885TIP3    H120598   0.037   0.207   5.425
 6885TIP3    H220599   0.069   0.285   5.299
 6886TIP3   OH220600   6.978   1.540   3.366
 6886TIP3    H120601   7.024   1.609   3.318
 6886TIP3    H220602   6.925   1.496   3.300
 6887TIP3   OH220603   1.095   7.273   2.976
 6887TIP3    H120604   1.033   7.271   2.903
 6887TIP3    H220605   1.160   7.207   2.954
 6888TIP3   OH220606   5.787   2.959   1.585
 6888TIP3    H120607   5.830   2.955   1.671
 6888TIP3    H220608   5.695   2.938   1.603
 6889TIP3   OH220609   5.183   6.412   1.651
 6889TIP3    H120610   5.214   6.333   1.606
 6889TIP3    H220611   5.184   6.479   1.583
 6890TIP3   OH220612   1.421   4.254   6.606
 6890TIP3    H120613   1.384   4.202   6.677
 6890TIP3    H220614   1.362   4.328   6.596
 6891TIP3   OH220615   5.470   0.303   0.984
 6891TIP3    H120616   5.491   0.389   0.949
 6891TIP3    H220617   5.375   0.294   0.971
 6892TIP3   OH220618   0.569   1.681   0.343
 6892TIP3    H120619   0.529   1.629   0.413
 6892TIP3    H220620   0.629   1.740   0.388
 6893TIP3   OH220621   5.728   0.423   1.480
 6893TIP3    H120622   5.649   0.436   1.429
 6893TIP3    H220623   5.800   0.428   1.417
 6894TIP3   OH220624   0.656   7.066   0.851
 6894TIP3    H120625   0.613   7.141   0.808
 6894TIP3    H220626   0.694   7.016   0.779
 6895TIP3   OH220627   3.533   7.743   2.544
 6895TIP3    H120628   3.567   7.786   2.623
 6895TIP3    H220629   3.522   7.651   2.570
 6896TIP3   OH220630   6.031   1.412   1.231
 6896TIP3    H120631   5.968   1.345   1.206
 6896TIP3    H220632   6.086   1.423   1.154
 6897TIP3   OH220633   8.151   5.355   0.504
 6897TIP3    H120634   8.097   5.346   0.425
 6897TIP3    H220635   8.217   5.421   0.481
 6898TIP3   OH220636   1.673   3.016   6.136
 6898TIP3    H120637   1.603   2.957   6.164
 6898TIP3    H220638   1.707   3.053   6.217
 6899TIP3   OH220639   7.950   2.972   0.647
 6899TIP3    H120640   7.949   2.880   0.672
 6899TIP3    H220641   7.932   2.972   0.553
 6900TIP3   OH220642   7.206   5.313   3.041
 6900TIP3    H120643   7.223   5.401   3.007
 6900TIP3    H220644   7.255   5.309   3.123
 6901TIP3   OH220645   1.154   3.396   3.321
 6901TIP3    H120646   1.170   3.370   3.230
 6901TIP3    H220647   1.068   3.362   3.342
 6902TIP3   OH220648   7.376   3.592   3.142
 6902TIP3    H120649   7.301   3.567   3.196
 6902TIP3    H220650   7.339   3.650   3.075
 6903TIP3   OH220651   6.673   1.119   0.006
 6903TIP3    H120652   6.761   1.100   0.041
 6903TIP3    H220653   6.614   1.073   0.065
 6904TIP3   OH220654   5.355   5.473   3.581
 6904TIP3    H120655   5.439   5.428   3.583
 6904TIP3    H220656   5.353   5.517   3.496
 6905TIP3   OH220657   3.086   3.458   6.337
 6905TIP3    H120658   3.027   3.397   6.380
 6905TIP3    H220659   3.124   3.408   6.264
 6906TIP3   OH220660   4.164   3.977   3.122
 6906TIP3    H120661   4.150   3.912   3.191
 6906TIP3    H220662   4.084   3.975   3.070
 6907TIP3   OH220663   3.966   6.405   6.275
 6907TIP3    H120664   3.991   6.497   6.286
 6907TIP3    H220665   3.996   6.382   6.187
 6908TIP3   OH220666   5.170   2.168   0.418
 6908TIP3    H120667   5.184   2.245   0.362
 6908TIP3    H220668   5.076   2.156   0.419
 6909TIP3   OH220669   4.286   7.532   0.483
 6909TIP3    H120670   4.226   7.594   0.441
 6909TIP3    H220671   4.361   7.585   0.509
 6910TIP3   OH220672   0.997   2.854   5.096
 6910TIP3    H120673   1.076   2.866   5.149
 6910TIP3    H220674   0.940   2.800   5.151
 6911TIP3   OH220675   4.731   5.027   5.789
 6911TIP3    H120676   4.792   4.976   5.736
 6911TIP3    H220677   4.765   5.116   5.786
 6912TIP3   OH220678   3.228   1.654   1.137
 6912TIP3    H120679   3.182   1.660   1.221
 6912TIP3    H220680   3.160   1.635   1.073
 6913TIP3   OH220681   3.178   7.344   2.714
 6913TIP3    H120682   3.243   7.274   2.723
 6913TIP3    H220683   3.105   7.302   2.668
 6914TIP3   OH220684   5.193   3.265   3.513
 6914TIP3    H120685   5.120   3.216   3.475
 6914TIP3    H220686   5.220   3.214   3.589
 6915TIP3   OH220687   0.057   3.107   3.052
 6915TIP3    H120688   0.143   3.095   3.093
 6915TIP3    H220689   0.005   3.033   3.084
 6916TIP3   OH220690   0.499   4.359   3.422
 6916TIP3    H120691   0.500   4.338   3.329
 6916TIP3    H220692   0.590   4.384   3.442
 6917TIP3   OH220693   6.916   3.298   2.024
 6917TIP3    H120694   6.835   3.277   1.977
 6917TIP3    H220695   6.894   3.282   2.116
 6918TIP3   OH220696   4.851   4.922   3.222
 6918TIP3    H120697   4.929   4.944   3.172
 6918TIP3    H220698   4.789   4.992   3.202
 6919TIP3   OH220699   0.108   6.064   1.038
 6919TIP3    H120700   0.119   6.028   1.126
 6919TIP3    H220701   0.027   6.115   1.042
 6920TIP3   OH220702   5.958   5.970   0.538
 6920TIP3    H120703   5.969   5.952   0.631
 6920TIP3    H220704   6.025   5.915   0.495
 6921TIP3   OH220705   7.472   6.671   1.048
 6921TIP3    H120706   7.541   6.721   1.092
 6921TIP3    H220707   7.439   6.730   0.980
 6922TIP3   OH220708   5.794   6.278   5.871
 6922TIP3    H120709   5.795   6.184   5.891
 6922TIP3    H220710   5.729   6.315   5.930
 6923TIP3   OH220711   6.028   0.488   6.409
 6923TIP3    H120712   5.972   0.452   6.478
 6923TIP3    H220713   5.989   0.573   6.388
 6924TIP3   OH220714   4.205   2.602   6.645
 6924TIP3    H120715   4.181   2.562   6.561
 6924TIP3    H220716   4.273   2.544   6.680
 6925TIP3   OH220717   2.735   0.902   5.124
 6925TIP3    H120718   2.802   0.962   5.156
 6925TIP3    H220719   2.690   0.872   5.202
 6926TIP3   OH220720   4.606   2.541   3.714
 6926TIP3    H120721   4.701   2.543   3.720
 6926TIP3    H220722   4.580   2.633   3.705
 6927TIP3   OH220723   6.687   5.070   4.831
 6927TIP3    H120724   6.741   5.016   4.888
 6927TIP3    H220725   6.620   5.107   4.889
 6928TIP3   OH220726   5.835   2.730   1.207
 6928TIP3    H120727   5.854   2.737   1.300
 6928TIP3    H220728   5.902   2.782   1.164
 6929TIP3   OH220729   4.462   7.636   2.373
 6929TIP3    H120730   4.476   7.575   2.445
 6929TIP3    H220731   4.453   7.580   2.295
 6930TIP3   OH220732   0.595   3.280   1.332
 6930TIP3    H120733   0.534   3.262   1.404
 6930TIP3    H220734   0.670   3.323   1.373
 6931TIP3   OH220735   3.145   1.809   6.376
 6931TIP3    H120736   3.159   1.714   6.379
 6931TIP3    H220737   3.230   1.846   6.402
 6932TIP3   OH220738   0.299   2.868   5.041
 6932TIP3    H120739   0.393   2.878   5.059
 6932TIP3    H220740   0.296   2.823   4.956
 6933TIP3   OH220741   6.443   0.273   0.554
 6933TIP3    H120742   6.381   0.273   0.482
 6933TIP3    H220743   6.504   0.202   0.533
 6934TIP3   OH220744   6.049   5.980   3.431
 6934TIP3    H120745   6.112   5.966   3.360
 6934TIP3    H220746   6.009   6.065   3.411
 6935TIP3   OH220747   1.202   0.537   2.072
 6935TIP3    H120748   1.239   0.592   2.004
 6935TIP3    H220749   1.248   0.561   2.152
 6936TIP3   OH220750   6.453   1.747   1.323
 6936TIP3    H120751   6.519   1.683   1.298
 6936TIP3    H220752   6.369   1.706   1.301
 6937TIP3   OH220753   2.573   1.684   0.391
 6937TIP3    H120754   2.658   1.643   0.406
 6937TIP3    H220755   2.538   1.701   0.478
 6938TIP3   OH220756   0.692   4.145   6.566
 6938TIP3    H120757   0.774   4.175   6.603
 6938TIP3    H220758   0.628   4.153   6.637
 6939TIP3   OH220759   2.542   2.039   4.278
 6939TIP3    H120760   2.523   2.082   4.361
 6939TIP3    H220761   2.637   2.028   4.277
 6940TIP3   OH220762   5.705   6.424   1.713
 6940TIP3    H120763   5.711   6.417   1.617
 6940TIP3    H220764   5.618   6.391   1.734
 6941TIP3   OH220765   1.734   6.577   4.761
 6941TIP3    H120766   1.778   6.655   4.794
 6941TIP3    H220767   1.645   6.581   4.798
 6942TIP3   OH220768   3.168   3.044   6.322
 6942TIP3    H120769   3.212   3.047   6.407
 6942TIP3    H220770   3.076   3.062   6.342
 6943TIP3   OH220771   7.761   0.262   1.495
 6943TIP3    H120772   7.676   0.304   1.509
 6943TIP3    H220773   7.750   0.212   1.415
 6944TIP3   OH220774   5.535   1.859   4.643
 6944TIP3    H120775   5.516   1.825   4.555
 6944TIP3    H220776   5.466   1.922   4.660
 6945TIP3   OH220777   1.816   5.063   5.757
 6945TIP3    H120778   1.906   5.074   5.728
 6945TIP3    H220779   1.797   4.970   5.741
 6946TIP3   OH220780   3.441   4.870   5.418
 6946TIP3    H120781   3.465   4.879   5.511
 6946TIP3    H220782   3.354   4.830   5.420
 6947TIP3   OH220783   1.103   4.795   4.933
 6947TIP3    H120784   1.100   4.837   4.847
 6947TIP3    H220785   1.171   4.728   4.925
 6948TIP3   OH220786   6.010   7.484   4.083
 6948TIP3    H120787   5.964   7.400   4.078
 6948TIP3    H220788   6.093   7.468   4.038
 6949TIP3   OH220789   0.843   2.941   1.118
 6949TIP3    H120790   0.825   2.848   1.135
 6949TIP3    H220791   0.770   2.988   1.159
 6950TIP3   OH220792   1.874   6.266   1.310
 6950TIP3    H120793   1.874   6.184   1.359
 6950TIP3    H220794   1.831   6.329   1.369
 6951TIP3   OH220795   0.456   6.800   6.213
 6951TIP3    H120796   0.505   6.718   6.204
 6951TIP3    H220797   0.427   6.820   6.124
 6952TIP3   OH220798   4.634   1.666   1.328
 6952TIP3    H120799   4.702   1.671   1.395
 6952TIP3    H220800   4.629   1.755   1.293
 6953TIP3   OH220801   6.332   4.156   5.052
 6953TIP3    H120802   6.336   4.250   5.069
 6953TIP3    H220803   6.351   4.115   5.136
 6954TIP3   OH220804   5.802   3.159   2.518
 6954TIP3    H120805   5.800   3.081   2.574
 6954TIP3    H220806   5.895   3.184   2.515
 6955TIP3   OH220807   7.035   4.016   3.337
 6955TIP3    H120808   7.129   4.001   3.339
 6955TIP3    H220809   7.014   4.025   3.244
 6956TIP3   OH220810   2.491   4.528   3.132
 6956TIP3    H120811   2.575   4.535   3.086
 6956TIP3    H220812   2.428   4.570   3.073
 6957TIP3   OH220813   1.998   0.288   6.200
 6957TIP3    H120814   2.015   0.206   6.248
 6957TIP3    H220815   2.032   0.357   6.257
 6958TIP3   OH220816   0.169   1.877   1.949
 6958TIP3    H120817   0.195   1.966   1.973
 6958TIP3    H220818   0.231   1.851   1.881
 6959TIP3   OH220819   3.287   2.058   5.651
 6959TIP3    H120820   3.241   2.049   5.735
 6959TIP3    H220821   3.379   2.043   5.673
 6960TIP3   OH220822   1.001   6.466   3.938
 6960TIP3    H120823   0.934   6.513   3.988
 6960TIP3    H220824   1.077   6.523   3.940
 6961TIP3   OH220825   5.131   4.488   2.401
 6961TIP3    H120826   5.043   4.482   2.363
 6961TIP3    H220827   5.160   4.577   2.380
 6962TIP3   OH220828   5.657   0.733   2.498
 6962TIP3    H120829   5.752   0.745   2.498
 6962TIP3    H220830   5.629   0.757   2.586
 6963TIP3   OH220831   7.496   7.657   4.620
 6963TIP3    H120832   7.465   7.566   4.629
 6963TIP3    H220833   7.416   7.709   4.612
 6964TIP3   OH220834   2.222   3.166   3.569
 6964TIP3    H120835   2.183   3.132   3.488
 6964TIP3    H220836   2.249   3.255   3.546
 6965TIP3   OH220837   7.875   0.453   4.427
 6965TIP3    H120838   7.908   0.363   4.431
 6965TIP3    H220839   7.780   0.443   4.429
 6966TIP3   OH220840   1.713   3.306   1.415
 6966TIP3    H120841   1.771   3.382   1.427
 6966TIP3    H220842   1.715   3.290   1.320
 6967TIP3   OH220843   3.818   7.401   2.799
 6967TIP3    H120844   3.846   7.335   2.863
 6967TIP3    H220845   3.789   7.475   2.851
 6968TIP3   OH220846   7.139   6.144   5.280
 6968TIP3    H120847   7.206   6.167   5.215
 6968TIP3    H220848   7.091   6.071   5.240
 6969TIP3   OH220849   2.028   3.917   2.893
 6969TIP3    H120850   1.954   3.858   2.904
 6969TIP3    H220851   2.104   3.859   2.886
 6970TIP3   OH220852   1.197   5.654   0.311
 6970TIP3    H120853   1.165   5.699   0.233
 6970TIP3    H220854   1.286   5.627   0.288
 6971TIP3   OH220855   6.814   5.386   6.541
 6971TIP3    H120856   6.750   5.319   6.568
 6971TIP3    H220857   6.775   5.426   6.463
 6972TIP3   OH220858   6.858   3.701   0.385
 6972TIP3    H120859   6.804   3.682   0.308
 6972TIP3    H220860   6.948   3.688   0.354
 6973TIP3   OH220861   2.815   5.633   1.907
 6973TIP3    H120862   2.902   5.640   1.947
 6973TIP3    H220863   2.772   5.563   1.955
 6974TIP3   OH220864   4.335   7.285   5.359
 6974TIP3    H120865   4.377   7.200   5.369
 6974TIP3    H220866   4.287   7.279   5.276
 6975TIP3   OH220867   4.503   7.710   0.500
 6975TIP3    H120868   4.575   7.655   0.532
 6975TIP3    H220869   4.518   7.795   0.541
 6976TIP3   OH220870   7.601   5.134   4.628
 6976TIP3    H120871   7.533   5.068   4.641
 6976TIP3    H220872   7.683   5.088   4.649
 6977TIP3   OH220873   4.069   5.961   0.578
 6977TIP3    H120874   4.155   5.960   0.536
 6977TIP3    H220875   4.010   5.995   0.510
 6978TIP3   OH220876   7.664   5.399   2.366
 6978TIP3    H120877   7.703   5.487   2.363
 6978TIP3    H220878   7.712   5.353   2.434
 6979TIP3   OH220879   5.651   3.585   2.925
 6979TIP3    H120880   5.696   3.534   2.857
 6979TIP3    H220881   5.583   3.526   2.957
 6980TIP3   OH220882   0.605   0.790   2.689
 6980TIP3    H120883   0.518   0.804   2.726
 6980TIP3    H220884   0.608   0.697   2.669
 6981TIP3   OH220885   2.658   6.234   1.572
 6981TIP3    H120886   2.675   6.140   1.582
 6981TIP3    H220887   2.595   6.254   1.641
 6982TIP3   OH220888   3.564   2.531   6.543
 6982TIP3    H120889   3.501   2.539   6.471
 6982TIP3    H220890   3.511   2.536   6.622
 6983TIP3   OH220891   3.795   2.996   3.554
 6983TIP3    H120892   3.822   3.086   3.535
 6983TIP3    H220893   3.878   2.951   3.572
 6984TIP3   OH220894   4.808   4.392   0.284
 6984TIP3    H120895   4.763   4.339   0.217
 6984TIP3    H220896   4.740   4.450   0.317
 6985TIP3   OH220897   0.334   2.270   2.518
 6985TIP3    H120898   0.283   2.323   2.456
 6985TIP3    H220899   0.425   2.288   2.495
 6986TIP3   OH220900   5.959   0.245   0.968
 6986TIP3    H120901   5.994   0.298   1.039
 6986TIP3    H220902   5.959   0.156   1.002
 6987TIP3   OH220903   0.430  -0.024   1.320
 6987TIP3    H120904   0.357  -0.007   1.260
 6987TIP3    H220905   0.448   0.061   1.360
 6988TIP3   OH220906   4.550   1.058   1.144
 6988TIP3    H120907   4.577   1.019   1.227
 6988TIP3    H220908   4.581   0.996   1.077
 6989TIP3   OH220909   3.329   7.135   3.287
 6989TIP3    H120910   3.234   7.135   3.280
 6989TIP3    H220911   3.356   7.217   3.247
 6990TIP3   OH220912   0.521   1.587   3.063
 6990TIP3    H120913   0.442   1.582   3.116
 6990TIP3    H220914   0.589   1.617   3.124
 6991TIP3   OH220915   3.883   2.264   2.043
 6991TIP3    H120916   3.938   2.203   2.091
 6991TIP3    H220917   3.926   2.349   2.055
 6992TIP3   OH220918   3.714   7.667   3.558
 6992TIP3    H120919   3.653   7.621   3.615
 6992TIP3    H220920   3.674   7.665   3.471
 6993TIP3   OH220921   3.361   2.085   4.092
 6993TIP3    H120922   3.321   2.132   4.165
 6993TIP3    H220923   3.455   2.082   4.115
 6994TIP3   OH220924   5.601   0.962   4.460
 6994TIP3    H120925   5.561   0.897   4.403
 6994TIP3    H220926   5.694   0.938   4.462
 6995TIP3   OH220927   0.854   3.520   3.600
 6995TIP3    H120928   0.761   3.526   3.581
 6995TIP3    H220929   0.883   3.611   3.606
 6996TIP3   OH220930   0.337   6.047   1.506
 6996TIP3    H120931   0.300   5.977   1.561
 6996TIP3    H220932   0.260   6.089   1.468
 6997TIP3   OH220933   3.217   6.370   5.809
 6997TIP3    H120934   3.205   6.457   5.770
 6997TIP3    H220935   3.165   6.312   5.753
 6998TIP3   OH220936   0.060   1.462   2.353
 6998TIP3    H120937  -0.002   1.397   2.321
 6998TIP3    H220938   0.006   1.526   2.399
 6999TIP3   OH220939   7.675   1.683   2.952
 6999TIP3    H120940   7.680   1.689   3.048
 6999TIP3    H220941   7.663   1.773   2.923
 7000TIP3   OH220942   4.178   4.049   5.702
 7000TIP3    H120943   4.203   3.974   5.755
 7000TIP3    H220944   4.138   4.110   5.765
 7001TIP3   OH220945   3.516   2.791   3.750
 7001TIP3    H120946   3.465   2.720   3.791
 7001TIP3    H220947   3.596   2.749   3.719
 7002TIP3   OH220948   2.756   0.178   3.639
 7002TIP3    H120949   2.793   0.102   3.595
 7002TIP3    H220950   2.773   0.164   3.732
 7003TIP3   OH220951   4.039   0.057   2.362
 7003TIP3    H120952   4.086  -0.022   2.385
 7003TIP3    H220953   3.957   0.026   2.322
 7004TIP3   OH220954   8.031   2.052   1.780
 7004TIP3    H120955   8.023   1.958   1.762
 7004TIP3    H220956   7.975   2.093   1.714
 7005TIP3   OH220957   5.745   3.301   0.538
 7005TIP3    H120958   5.705   3.255   0.611
 7005TIP3    H220959   5.675   3.308   0.473
 7006TIP3   OH220960   3.795   4.120   4.642
 7006TIP3    H120961   3.737   4.117   4.566
 7006TIP3    H220962   3.800   4.030   4.672
 7007TIP3   OH220963   3.770   1.642   5.103
 7007TIP3    H120964   3.699   1.691   5.144
 7007TIP3    H220965   3.778   1.563   5.158
 7008TIP3   OH220966   1.756   4.195   2.527
 7008TIP3    H120967   1.820   4.248   2.480
 7008TIP3    H220968   1.802   4.167   2.606
 7009TIP3   OH220969   0.385   4.366   0.544
 7009TIP3    H120970   0.310   4.355   0.603
 7009TIP3    H220971   0.408   4.459   0.552
 7010TIP3   OH220972   3.047   2.460   2.635
 7010TIP3    H120973   3.052   2.526   2.566
 7010TIP3    H220974   2.969   2.484   2.686
 7011TIP3   OH220975   6.014   4.752   2.814
 7011TIP3    H120976   5.923   4.735   2.838
 7011TIP3    H220977   6.030   4.842   2.843
 7012TIP3   OH220978   4.313   4.819   5.781
 7012TIP3    H120979   4.257   4.780   5.714
 7012TIP3    H220980   4.292   4.769   5.860
 7013TIP3   OH220981   7.048   1.791   4.775
 7013TIP3    H120982   6.977   1.754   4.827
 7013TIP3    H220983   7.004   1.828   4.698
 7014TIP3   OH220984   0.589   4.949   5.390
 7014TIP3    H120985   0.497   4.954   5.418
 7014TIP3    H220986   0.589   4.983   5.301
 7015TIP3   OH220987   5.305   6.950   0.976
 7015TIP3    H120988   5.342   7.028   0.934
 7015TIP3    H220989   5.234   6.923   0.919
 7016TIP3   OH220990   4.419   1.833   5.587
 7016TIP3    H120991   4.413   1.851   5.494
 7016TIP3    H220992   4.397   1.740   5.595
 7017TIP3   OH220993   4.157   6.952   5.294
 7017TIP3    H120994   4.067   6.983   5.302
 7017TIP3    H220995   4.153   6.859   5.315
 7018TIP3   OH220996   2.958   7.250   1.372
 7018TIP3    H120997   3.029   7.198   1.334
 7018TIP3    H220998   2.917   7.192   1.436
 7019TIP3   OH220999   6.291   4.849   6.076
 7019TIP3    H121000   6.265   4.769   6.121
 7019TIP3    H221001   6.241   4.847   5.994
 7020TIP3   OH221002   1.843   0.178   5.742
 7020TIP3    H121003   1.869   0.135   5.823
 7020TIP3    H221004   1.926   0.196   5.697
 7021TIP3   OH221005   4.438   2.080   3.471
 7021TIP3    H121006   4.506   2.147   3.480
 7021TIP3    H221007   4.393   2.081   3.556
 7022TIP3   OH221008   4.543   7.394   5.591
 7022TIP3    H121009   4.549   7.489   5.592
 7022TIP3    H221010   4.506   7.372   5.506
 7023TIP3   OH221011   2.469   2.829   5.184
 7023TIP3    H121012   2.388   2.792   5.218
 7023TIP3    H221013   2.473   2.917   5.222
 7024TIP3   OH221014   7.874   5.304   5.382
 7024TIP3    H121015   7.819   5.227   5.399
 7024TIP3    H221016   7.816   5.367   5.340
 7025TIP3   OH221017   1.354   3.990   5.643
 7025TIP3    H121018   1.296   4.028   5.577
 7025TIP3    H221019   1.295   3.960   5.712
 7026TIP3   OH221020   7.069   1.022   5.273
 7026TIP3    H121021   7.121   1.072   5.210
 7026TIP3    H221022   6.993   0.992   5.223
 7027TIP3   OH221023   2.868   3.679   5.704
 7027TIP3    H121024   2.895   3.731   5.779
 7027TIP3    H221025   2.878   3.588   5.734
 7028TIP3   OH221026   3.820   3.697   6.229
 7028TIP3    H121027   3.810   3.730   6.140
 7028TIP3    H221028   3.854   3.608   6.218
 7029TIP3   OH221029   1.457   1.516   0.464
 7029TIP3    H121030   1.549   1.501   0.488
 7029TIP3    H221031   1.422   1.428   0.449
 7030TIP3   OH221032   8.278   5.161   1.774
 7030TIP3    H121033   8.261   5.096   1.842
 7030TIP3    H221034   8.204   5.153   1.714
 7031TIP3   OH221035   1.724   3.988   6.233
 7031TIP3    H121036   1.751   4.050   6.166
 7031TIP3    H221037   1.680   4.041   6.300
 7032TIP3   OH221038   1.873   5.816   2.328
 7032TIP3    H121039   1.828   5.870   2.394
 7032TIP3    H221040   1.926   5.756   2.380
 7033TIP3   OH221041   0.499   7.580   5.901
 7033TIP3    H121042   0.429   7.591   5.837
 7033TIP3    H221043   0.458   7.532   5.973
 7034TIP3   OH221044   5.159   2.369   1.534
 7034TIP3    H121045   5.245   2.398   1.563
 7034TIP3    H221046   5.158   2.387   1.440
 7035TIP3   OH221047   4.400  -0.030   3.527
 7035TIP3    H121048   4.370   0.052   3.567
 7035TIP3    H221049   4.463  -0.002   3.461
 7036TIP3   OH221050   4.440   0.448   5.747
 7036TIP3    H121051   4.357   0.495   5.734
 7036TIP3    H221052   4.490   0.505   5.806
 7037TIP3   OH221053   0.863   0.750   3.879
 7037TIP3    H121054   0.797   0.683   3.900
 7037TIP3    H221055   0.945   0.701   3.869
 7038TIP3   OH221056   3.134   3.377   0.153
 7038TIP3    H121057   3.126   3.465   0.190
 7038TIP3    H221058   3.144   3.391   0.059
 7039TIP3   OH221059   4.216   5.826   4.718
 7039TIP3    H121060   4.167   5.816   4.799
 7039TIP3    H221061   4.150   5.842   4.651
 7040TIP3   OH221062   8.082   5.657   4.663
 7040TIP3    H121063   8.050   5.739   4.626
 7040TIP3    H221064   8.136   5.684   4.737
 7041TIP3   OH221065   3.431   5.851   1.134
 7041TIP3    H121066   3.498   5.804   1.085
 7041TIP3    H221067   3.451   5.832   1.226
 7042TIP3   OH221068   6.834   5.724   4.376
 7042TIP3    H121069   6.757   5.763   4.335
 7042TIP3    H221070   6.816   5.630   4.376
 7043TIP3   OH221071   4.957   7.683   4.801
 7043TIP3    H121072   4.970   7.631   4.722
 7043TIP3    H221073   4.973   7.774   4.774
 7044TIP3   OH221074   7.188   7.190   4.516
 7044TIP3    H121075   7.172   7.135   4.439
 7044TIP3    H221076   7.226   7.130   4.580
 7045TIP3   OH221077   7.377   6.757   3.074
 7045TIP3    H121078   7.324   6.717   3.005
 7045TIP3    H221079   7.354   6.709   3.153
 7046TIP3   OH221080   1.944   0.970   1.315
 7046TIP3    H121081   1.959   0.880   1.284
 7046TIP3    H221082   1.989   0.974   1.400
 7047TIP3   OH221083   7.962   6.346   4.752
 7047TIP3    H121084   7.981   6.346   4.846
 7047TIP3    H221085   8.034   6.297   4.713
 7048TIP3   OH221086   7.306   0.409   3.509
 7048TIP3    H121087   7.390   0.409   3.555
 7048TIP3    H221088   7.311   0.334   3.450
 7049TIP3   OH221089   5.625   7.677   0.645
 7049TIP3    H121090   5.535   7.693   0.614
 7049TIP3    H221091   5.678   7.738   0.594
 7050TIP3   OH221092   2.116   2.151   5.903
 7050TIP3    H121093   2.202   2.145   5.861
 7050TIP3    H221094   2.123   2.094   5.979
 7051TIP3   OH221095   2.102   7.639   1.774
 7051TIP3    H121096   2.151   7.660   1.694
 7051TIP3    H221097   2.170   7.621   1.839
 7052TIP3   OH221098   2.940   4.300   0.742
 7052TIP3    H121099   2.904   4.298   0.831
 7052TIP3    H221100   3.033   4.278   0.754
 7053TIP3   OH221101   6.130   6.543   2.498
 7053TIP3    H121102   6.100   6.484   2.429
 7053TIP3    H221103   6.185   6.607   2.452
 7054TIP3   OH221104   2.948   2.104   4.755
 7054TIP3    H121105   3.002   2.158   4.812
 7054TIP3    H221106   2.944   2.019   4.799
 7055TIP3   OH221107   4.270   3.306   0.560
 7055TIP3    H121108   4.193   3.299   0.616
 7055TIP3    H221109   4.243   3.367   0.491
 7056TIP3   OH221110   6.798   4.368   2.500
 7056TIP3    H121111   6.863   4.437   2.517
 7056TIP3    H221112   6.783   4.329   2.586
 7057TIP3   OH221113   4.684   3.895   2.948
 7057TIP3    H121114   4.637   3.919   2.869
 7057TIP3    H221115   4.666   3.966   3.009
 7058TIP3   OH221116   7.553   4.307   1.750
 7058TIP3    H121117   7.648   4.302   1.743
 7058TIP3    H221118   7.534   4.285   1.841
 7059TIP3   OH221119   7.195   3.875   6.695
 7059TIP3    H121120   7.100   3.882   6.690
 7059TIP3    H221121   7.225   3.893   6.606
 7060TIP3   OH221122   5.968   4.717   0.263
 7060TIP3    H121123   5.968   4.755   0.351
 7060TIP3    H221124   5.886   4.747   0.224
 7061TIP3   OH221125   5.550   0.222   0.308
 7061TIP3    H121126   5.591   0.302   0.276
 7061TIP3    H221127   5.612   0.153   0.287
 7062TIP3   OH221128   3.706   5.209   2.311
 7062TIP3    H121129   3.705   5.113   2.316
 7062TIP3    H221130   3.651   5.237   2.384
 7063TIP3   OH221131   8.098   6.858   3.444
 7063TIP3    H121132   8.019   6.912   3.441
 7063TIP3    H221133   8.074   6.777   3.400
 7064TIP3   OH221134   1.942   5.515   0.177
 7064TIP3    H121135   2.010   5.580   0.198
 7064TIP3    H221136   1.980   5.463   0.107
 7065TIP3   OH221137   6.247   0.968   1.911
 7065TIP3    H121138   6.214   1.025   1.842
 7065TIP3    H221139   6.342   0.982   1.911
 7066TIP3   OH221140   0.072   3.284   6.172
 7066TIP3    H121141   0.007   3.345   6.208
 7066TIP3    H221142   0.069   3.299   6.077
 7067TIP3   OH221143   1.576   2.221   4.119
 7067TIP3    H121144   1.570   2.132   4.082
 7067TIP3    H221145   1.487   2.242   4.144
 7068TIP3   OH221146   6.614   3.293   5.053
 7068TIP3    H121147   6.665   3.277   4.974
 7068TIP3    H221148   6.614   3.209   5.099
 7069TIP3   OH221149   5.065   5.658   3.825
 7069TIP3    H121150   5.028   5.624   3.906
 7069TIP3    H221151   5.014   5.736   3.805
 7070TIP3   OH221152   0.201   2.748   5.664
 7070TIP3    H121153   0.204   2.718   5.573
 7070TIP3    H221154   0.208   2.668   5.716
 7071TIP3   OH221155   1.195   2.546   1.237
 7071TIP3    H121156   1.121   2.597   1.203
 7071TIP3    H221157   1.181   2.544   1.332
 7072TIP3   OH221158   5.922   4.176   3.257
 7072TIP3    H121159   5.846   4.124   3.283
 7072TIP3    H221160   5.986   4.111   3.226
 7073TIP3   OH221161   1.214   7.642   0.650
 7073TIP3    H121162   1.173   7.679   0.728
 7073TIP3    H221163   1.164   7.562   0.631
 7074TIP3   OH221164   5.263   6.419   4.968
 7074TIP3    H121165   5.323   6.350   4.996
 7074TIP3    H221166   5.301   6.452   4.887
 7075TIP3   OH221167   0.965   6.589   5.009
 7075TIP3    H121168   1.021   6.667   5.013
 7075TIP3    H221169   0.877   6.623   5.024
 7076TIP3   OH221170   4.366   6.055   3.540
 7076TIP3    H121171   4.385   5.964   3.521
 7076TIP3    H221172   4.271   6.061   3.538
 7077TIP3   OH221173   6.421   0.032   5.893
 7077TIP3    H121174   6.384   0.116   5.921
 7077TIP3    H221175   6.494   0.017   5.953
 7078TIP3   OH221176   0.076   7.259   4.380
 7078TIP3    H121177   0.092   7.242   4.473
 7078TIP3    H221178   0.109   7.182   4.336
 7079TIP3   OH221179   0.801   0.374   3.470
 7079TIP3    H121180   0.792   0.365   3.565
 7079TIP3    H221181   0.710   0.378   3.438
 7080TIP3   OH221182   0.577   4.879   4.964
 7080TIP3    H121183   0.486   4.877   4.934
 7080TIP3    H221184   0.578   4.822   5.041
 7081TIP3   OH221185   3.050   6.558   5.199
 7081TIP3    H121186   3.140   6.575   5.228
 7081TIP3    H221187   3.026   6.635   5.148
 7082TIP3   OH221188   8.202   5.596   5.606
 7082TIP3    H121189   8.274   5.534   5.593
 7082TIP3    H221190   8.153   5.595   5.524
 7083TIP3   OH221191   1.340   4.593   2.797
 7083TIP3    H121192   1.278   4.558   2.860
 7083TIP3    H221193   1.313   4.556   2.713
 7084TIP3   OH221194   3.147   4.196   2.222
 7084TIP3    H121195   3.075   4.249   2.188
 7084TIP3    H221196   3.115   4.106   2.218
 7085TIP3   OH221197   6.634   4.117   4.197
 7085TIP3    H121198   6.644   4.134   4.291
 7085TIP3    H221199   6.557   4.169   4.172
 7086TIP3   OH221200   5.855   7.136   2.497
 7086TIP3    H121201   5.918   7.196   2.537
 7086TIP3    H221202   5.904   7.053   2.489
 7087TIP3   OH221203   8.099   2.423   3.043
 7087TIP3    H121204   8.135   2.424   2.954
 7087TIP3    H221205   8.175   2.442   3.099
 7088TIP3   OH221206   6.525   0.447   4.282
 7088TIP3    H121207   6.593   0.497   4.238
 7088TIP3    H221208   6.444   0.470   4.236
 7089TIP3   OH221209   7.355   7.800   4.216
 7089TIP3    H121210   7.420   7.871   4.211
 7089TIP3    H221211   7.361   7.757   4.131
 7090TIP3   OH221212   1.215   6.284   5.304
 7090TIP3    H121213   1.211   6.330   5.220
 7090TIP3    H221214   1.253   6.347   5.364
 7091TIP3   OH221215   3.385   0.902   1.469
 7091TIP3    H121216   3.420   0.991   1.476
 7091TIP3    H221217   3.368   0.891   1.375
 7092TIP3   OH221218   0.754   0.074   5.993
 7092TIP3    H121219   0.773   0.160   5.956
 7092TIP3    H221220   0.687   0.091   6.059
 7093TIP3   OH221221   1.603   0.125   2.001
 7093TIP3    H121222   1.603   0.198   2.063
 7093TIP3    H221223   1.657   0.154   1.928
 7094TIP3   OH221224   6.712   4.701   0.151
 7094TIP3    H121225   6.706   4.614   0.191
 7094TIP3    H221226   6.650   4.754   0.199
 7095TIP3   OH221227   0.865   2.721   6.327
 7095TIP3    H121228   0.879   2.750   6.417
 7095TIP3    H221229   0.942   2.668   6.306
 7096TIP3   OH221230   2.089   0.661   4.559
 7096TIP3    H121231   2.114   0.610   4.483
 7096TIP3    H221232   2.137   0.743   4.551
 7097TIP3   OH221233   3.777   7.486   1.970
 7097TIP3    H121234   3.865   7.494   1.935
 7097TIP3    H221235   3.772   7.551   2.040
 7098TIP3   OH221236   2.609   2.687   2.306
 7098TIP3    H121237   2.594   2.782   2.311
 7098TIP3    H221238   2.570   2.661   2.222
 7099TIP3   OH221239   6.589   2.083   1.166
 7099TIP3    H121240   6.605   2.006   1.111
 7099TIP3    H221241   6.571   2.153   1.104
 7100TIP3   OH221242   1.919   5.281   5.036
 7100TIP3    H121243   1.934   5.211   4.972
 7100TIP3    H221244   1.858   5.242   5.099
 7101TIP3   OH221245   0.603   3.316   6.600
 7101TIP3    H121246   0.686   3.285   6.637
 7101TIP3    H221247   0.550   3.339   6.676
 7102TIP3   OH221248   7.493   4.607   1.691
 7102TIP3    H121249   7.527   4.518   1.684
 7102TIP3    H221250   7.525   4.638   1.776
 7103TIP3   OH221251   6.588   3.602   0.229
 7103TIP3    H121252   6.572   3.509   0.219
 7103TIP3    H221253   6.580   3.638   0.141
 7104TIP3   OH221254   5.323   7.615   4.715
 7104TIP3    H121255   5.313   7.693   4.770
 7104TIP3    H221256   5.300   7.645   4.627
 7105TIP3   OH221257   6.325   2.059   2.601
 7105TIP3    H121258   6.281   2.122   2.658
 7105TIP3    H221259   6.340   2.107   2.519
 7106TIP3   OH221260   5.784   2.659   1.708
 7106TIP3    H121261   5.824   2.702   1.783
 7106TIP3    H221262   5.690   2.676   1.718
 7107TIP3   OH221263   1.842   7.180   4.164
 7107TIP3    H121264   1.866   7.093   4.130
 7107TIP3    H221265   1.852   7.238   4.088
 7108TIP3   OH221266   3.955   5.871   4.175
 7108TIP3    H121267   3.932   5.962   4.196
 7108TIP3    H221268   3.872   5.824   4.182
 7109TIP3   OH221269   0.349   7.066   5.591
 7109TIP3    H121270   0.321   7.140   5.645
 7109TIP3    H221271   0.357   7.103   5.503
 7110TIP3   OH221272   6.915   6.337   4.249
 7110TIP3    H121273   6.935   6.429   4.232
 7110TIP3    H221274   6.819   6.335   4.257
 7111TIP3   OH221275   3.071   7.251   1.684
 7111TIP3    H121276   2.995   7.195   1.669
 7111TIP3    H221277   3.131   7.230   1.612
 7112TIP3   OH221278   3.616   1.361   5.695
 7112TIP3    H121279   3.707   1.363   5.727
 7112TIP3    H221280   3.591   1.453   5.689
 7113TIP3   OH221281   6.354   4.123   3.866
 7113TIP3    H121282   6.410   4.062   3.914
 7113TIP3    H221283   6.269   4.119   3.911
 7114TIP3   OH221284   1.254   7.290   1.707
 7114TIP3    H121285   1.207   7.347   1.645
 7114TIP3    H221286   1.205   7.299   1.789
 7115TIP3   OH221287   0.139   2.675   1.029
 7115TIP3    H121288   0.164   2.641   1.115
 7115TIP3    H221289   0.215   2.658   0.974
 7116TIP3   OH221290   6.370   0.968   1.348
 7116TIP3    H121291   6.315   0.914   1.404
 7116TIP3    H221292   6.381   1.050   1.396
 7117TIP3   OH221293   3.674   4.150   3.342
 7117TIP3    H121294   3.654   4.090   3.414
 7117TIP3    H221295   3.615   4.225   3.357
 7118TIP3   OH221296   5.454   5.128   3.646
 7118TIP3    H121297   5.376   5.080   3.617
 7118TIP3    H221298   5.435   5.154   3.736
 7119TIP3   OH221299   1.152   5.557   4.714
 7119TIP3    H121300   1.208   5.536   4.789
 7119TIP3    H221301   1.176   5.491   4.648
 7120TIP3   OH221302   8.084   5.956   2.787
 7120TIP3    H121303   8.001   5.992   2.818
 7120TIP3    H221304   8.144   5.966   2.861
 7121TIP3   OH221305   3.227   5.165   2.760
 7121TIP3    H121306   3.194   5.254   2.750
 7121TIP3    H221307   3.208   5.143   2.851
 7122TIP3   OH221308   5.731   7.306   5.195
 7122TIP3    H121309   5.666   7.300   5.265
 7122TIP3    H221310   5.680   7.315   5.115
 7123TIP3   OH221311   5.651   1.391   1.636
 7123TIP3    H121312   5.649   1.405   1.730
 7123TIP3    H221313   5.639   1.478   1.598
 7124TIP3   OH221314   3.915   2.179   4.559
 7124TIP3    H121315   3.895   2.181   4.465
 7124TIP3    H221316   3.855   2.114   4.595
 7125TIP3   OH221317   7.901   6.016   6.013
 7125TIP3    H121318   7.888   6.093   5.957
 7125TIP3    H221319   7.822   6.012   6.067
 7126TIP3   OH221320   4.248   1.005   3.879
 7126TIP3    H121321   4.217   1.093   3.858
 7126TIP3    H221322   4.335   1.018   3.916
 7127TIP3   OH221323   4.542   2.918   4.933
 7127TIP3    H121324   4.577   3.007   4.924
 7127TIP3    H221325   4.550   2.880   4.846
 7128TIP3   OH221326   5.574   3.052   5.404
 7128TIP3    H121327   5.520   3.130   5.396
 7128TIP3    H221328   5.534   2.988   5.344
 7129TIP3   OH221329   5.139   1.944   1.496
 7129TIP3    H121330   5.079   1.968   1.426
 7129TIP3    H221331   5.105   1.988   1.573
 7130TIP3   OH221332   0.092   6.461   2.809
 7130TIP3    H121333   0.049   6.377   2.825
 7130TIP3    H221334   0.128   6.454   2.721
 7131TIP3   OH221335   1.270   5.208   3.413
 7131TIP3    H121336   1.256   5.126   3.461
 7131TIP3    H221337   1.363   5.207   3.391
 7132TIP3   OH221338   2.488   4.855   3.021
 7132TIP3    H121339   2.468   4.935   2.973
 7132TIP3    H221340   2.414   4.797   3.001
 7133TIP3   OH221341   7.668   5.111   3.496
 7133TIP3    H121342   7.594   5.087   3.552
 7133TIP3    H221343   7.735   5.046   3.516
 7134TIP3   OH221344   0.944   1.117   6.182
 7134TIP3    H121345   0.975   1.092   6.269
 7134TIP3    H221346   0.901   1.039   6.148
 7135TIP3   OH221347   4.202   4.775   2.579
 7135TIP3    H121348   4.149   4.791   2.657
 7135TIP3    H221349   4.172   4.690   2.546
 7136TIP3   OH221350   6.239   0.761   0.604
 7136TIP3    H121351   6.253   0.737   0.695
 7136TIP3    H221352   6.186   0.841   0.608
 7137TIP3   OH221353   2.133   4.259   4.490
 7137TIP3    H121354   2.108   4.352   4.491
 7137TIP3    H221355   2.163   4.243   4.401
 7138TIP3   OH221356   3.208   3.208   4.914
 7138TIP3    H121357   3.168   3.222   4.828
 7138TIP3    H221358   3.295   3.174   4.894
 7139TIP3   OH221359   2.343   5.421   5.832
 7139TIP3    H121360   2.263   5.461   5.867
 7139TIP3    H221361   2.367   5.476   5.757
 7140TIP3   OH221362   3.292   5.763   2.454
 7140TIP3    H121363   3.276   5.729   2.542
 7140TIP3    H221364   3.290   5.686   2.398
 7141TIP3   OH221365   7.689   6.177   1.500
 7141TIP3    H121366   7.682   6.211   1.589
 7141TIP3    H221367   7.709   6.084   1.511
 7142TIP3   OH221368   5.640   3.851   2.089
 7142TIP3    H121369   5.708   3.796   2.050
 7142TIP3    H221370   5.665   3.940   2.066
 7143TIP3   OH221371   0.006   1.626   4.710
 7143TIP3    H121372   0.012   1.718   4.736
 7143TIP3    H221373   0.081   1.584   4.752
 7144TIP3   OH221374   0.854   5.018   2.827
 7144TIP3    H121375   0.885   5.012   2.917
 7144TIP3    H221376   0.800   5.097   2.825
 7145TIP3   OH221377   7.233   5.872   2.880
 7145TIP3    H121378   7.165   5.905   2.939
 7145TIP3    H221379   7.310   5.861   2.935
 7146TIP3   OH221380   0.101   0.398   5.617
 7146TIP3    H121381   0.030   0.430   5.673
 7146TIP3    H221382   0.155   0.345   5.675
 7147TIP3   OH221383   0.964   2.858   2.567
 7147TIP3    H121384   0.922   2.915   2.632
 7147TIP3    H221385   0.967   2.772   2.608
 7148TIP3   OH221386   5.628   6.546   0.662
 7148TIP3    H121387   5.664   6.476   0.606
 7148TIP3    H221388   5.687   6.620   0.649
 7149TIP3   OH221389   4.761   6.426   2.900
 7149TIP3    H121390   4.690   6.368   2.871
 7149TIP3    H221391   4.723   6.513   2.897
 7150TIP3   OH221392   6.735   4.222   1.413
 7150TIP3    H121393   6.719   4.301   1.360
 7150TIP3    H221394   6.757   4.256   1.500
 7151TIP3   OH221395   5.912   7.390   0.798
 7151TIP3    H121396   5.852   7.456   0.763
 7151TIP3    H221397   5.961   7.436   0.866
 7152TIP3   OH221398   5.649   4.548   1.409
 7152TIP3    H121399   5.587   4.582   1.345
 7152TIP3    H221400   5.671   4.623   1.464
 7153TIP3   OH221401   8.241   5.425   4.531
 7153TIP3    H121402   8.295   5.348   4.512
 7153TIP3    H221403   8.242   5.432   4.626
 7154TIP3   OH221404   0.710   7.220   5.487
 7154TIP3    H121405   0.784   7.221   5.426
 7154TIP3    H221406   0.695   7.127   5.503
 7155TIP3   OH221407   2.546   4.326   3.863
 7155TIP3    H121408   2.520   4.326   3.771
 7155TIP3    H221409   2.639   4.349   3.862
 7156TIP3   OH221410   5.720   6.688   6.331
 7156TIP3    H121411   5.701   6.627   6.402
 7156TIP3    H221412   5.805   6.726   6.355
 7157TIP3   OH221413   3.756   0.486   1.766
 7157TIP3    H121414   3.783   0.548   1.699
 7157TIP3    H221415   3.835   0.436   1.787
 7158TIP3   OH221416   2.642   0.521   5.570
 7158TIP3    H121417   2.638   0.525   5.475
 7158TIP3    H221418   2.590   0.595   5.600
 7159TIP3   OH221419   5.000   3.879   2.904
 7159TIP3    H121420   5.013   3.904   2.812
 7159TIP3    H221421   4.905   3.877   2.915
 7160TIP3   OH221422   1.119   1.431   3.650
 7160TIP3    H121423   1.053   1.471   3.707
 7160TIP3    H221424   1.140   1.348   3.693
 7161TIP3   OH221425   4.908   1.065   4.432
 7161TIP3    H121426   4.962   0.995   4.467
 7161TIP3    H221427   4.925   1.140   4.488
 7162TIP3   OH221428   7.176   5.808   5.330
 7162TIP3    H121429   7.244   5.826   5.394
 7162TIP3    H221430   7.094   5.817   5.378
 7163TIP3   OH221431   3.931   5.704   4.740
 7163TIP3    H121432   3.859   5.733   4.796
 7163TIP3    H221433   3.896   5.626   4.695
 7164TIP3   OH221434   2.390   6.109   0.105
 7164TIP3    H121435   2.477   6.074   0.128
 7164TIP3    H221436   2.360   6.153   0.185
 7165TIP3   OH221437   2.380   1.120   1.779
 7165TIP3    H121438   2.395   1.036   1.735
 7165TIP3    H221439   2.344   1.176   1.710
 7166TIP3   OH221440   3.940   3.516   0.532
 7166TIP3    H121441   3.908   3.587   0.588
 7166TIP3    H221442   3.864   3.458   0.522
 7167TIP3   OH221443   7.339   4.630   1.041
 7167TIP3    H121444   7.395   4.598   1.112
 7167TIP3    H221445   7.340   4.725   1.051
 7168TIP3   OH221446   0.343   3.283   4.413
 7168TIP3    H121447   0.435   3.265   4.429
 7168TIP3    H221448   0.298   3.201   4.433
 7169TIP3   OH221449   1.849   1.591   0.524
 7169TIP3    H121450   1.899   1.540   0.459
 7169TIP3    H221451   1.758   1.563   0.512
 7170TIP3   OH221452   0.731   5.937   5.779
 7170TIP3    H121453   0.679   6.014   5.801
 7170TIP3    H221454   0.670   5.864   5.784
 7171TIP3   OH221455   1.061   3.157   1.493
 7171TIP3    H121456   1.133   3.113   1.447
 7171TIP3    H221457   1.026   3.090   1.551
 7172TIP3   OH221458   8.108   0.262   3.209
 7172TIP3    H121459   8.097   0.193   3.144
 7172TIP3    H221460   8.061   0.229   3.286
 7173TIP3   OH221461   3.856   4.344   2.194
 7173TIP3    H121462   3.946   4.310   2.195
 7173TIP3    H221463   3.801   4.266   2.203
 7174TIP3   OH221464   3.899   4.311   4.788
 7174TIP3    H121465   3.873   4.242   4.727
 7174TIP3    H221466   3.817   4.348   4.819
 7175TIP3   OH221467   6.465   0.466   0.779
 7175TIP3    H121468   6.373   0.455   0.803
 7175TIP3    H221469   6.481   0.398   0.713
 7176TIP3   OH221470   1.643   0.623   0.500
 7176TIP3    H121471   1.731   0.624   0.536
 7176TIP3    H221472   1.647   0.561   0.427
 7177TIP3   OH221473   2.991   3.433   5.791
 7177TIP3    H121474   3.065   3.412   5.735
 7177TIP3    H221475   2.974   3.352   5.839
 7178TIP3   OH221476   0.745   7.166   0.071
 7178TIP3    H121477   0.718   7.256   0.051
 7178TIP3    H221478   0.676   7.111   0.034
 7179TIP3   OH221479   7.678   2.847   4.031
 7179TIP3    H121480   7.585   2.837   4.014
 7179TIP3    H221481   7.685   2.858   4.126
 7180TIP3   OH221482   2.405   4.592   0.895
 7180TIP3    H121483   2.399   4.687   0.908
 7180TIP3    H221484   2.325   4.557   0.932
 7181TIP3   OH221485   1.128   2.425   2.930
 7181TIP3    H121486   1.219   2.438   2.902
 7181TIP3    H221487   1.112   2.332   2.918
 7182TIP3   OH221488   0.156   4.088   0.268
 7182TIP3    H121489   0.143   4.093   0.362
 7182TIP3    H221490   0.113   4.167   0.233
 7183TIP3   OH221491   7.032   2.216   5.274
 7183TIP3    H121492   7.123   2.245   5.264
 7183TIP3    H221493   7.022   2.201   5.368
 7184TIP3   OH221494   3.643   3.411   2.549
 7184TIP3    H121495   3.695   3.393   2.470
 7184TIP3    H221496   3.701   3.465   2.603
 7185TIP3   OH221497   2.299   0.107   2.760
 7185TIP3    H121498   2.354   0.028   2.763
 7185TIP3    H221499   2.240   0.092   2.686
 7186TIP3   OH221500   5.223   0.058   5.629
 7186TIP3    H121501   5.274   0.064   5.710
 7186TIP3    H221502   5.263  -0.014   5.581
 7187TIP3   OH221503   3.250   1.336   6.548
 7187TIP3    H121504   3.187   1.320   6.619
 7187TIP3    H221505   3.320   1.387   6.589
 7188TIP3   OH221506   4.343   2.578   2.164
 7188TIP3    H121507   4.391   2.522   2.102
 7188TIP3    H221508   4.384   2.664   2.155
 7189TIP3   OH221509   0.431   5.762   6.345
 7189TIP3    H121510   0.355   5.706   6.325
 7189TIP3    H221511   0.474   5.719   6.419
 7190TIP3   OH221512   7.188   6.855   2.572
 7190TIP3    H121513   7.120   6.913   2.603
 7190TIP3    H221514   7.151   6.767   2.581
 7191TIP3   OH221515   6.765   6.998   0.836
 7191TIP3    H121516   6.703   6.926   0.852
 7191TIP3    H221517   6.736   7.068   0.895
 7192TIP3   OH221518   2.969   1.831   4.896
 7192TIP3    H121519   2.884   1.811   4.936
 7192TIP3    H221520   3.033   1.799   4.960
 7193TIP3   OH221521   4.120   3.245   2.902
 7193TIP3    H121522   4.037   3.273   2.862
 7193TIP3    H221523   4.110   3.151   2.915
 7194TIP3   OH221524   0.124   5.540   5.010
 7194TIP3    H121525   0.196   5.603   5.011
 7194TIP3    H221526   0.067   5.569   5.082
 7195TIP3   OH221527   1.420   4.442   0.471
 7195TIP3    H121528   1.362   4.479   0.537
 7195TIP3    H221529   1.502   4.427   0.518
 7196TIP3   OH221530   6.334   4.856   1.105
 7196TIP3    H121531   6.336   4.761   1.089
 7196TIP3    H221532   6.374   4.894   1.027
 7197TIP3   OH221533   7.115   4.427   1.220
 7197TIP3    H121534   7.048   4.477   1.267
 7197TIP3    H221535   7.089   4.433   1.129
 7198TIP3   OH221536   1.761   3.484   0.998
 7198TIP3    H121537   1.773   3.406   1.051
 7198TIP3    H221538   1.841   3.491   0.946
 7199TIP3   OH221539   6.485   1.009   2.468
 7199TIP3    H121540   6.501   0.933   2.523
 7199TIP3    H221541   6.394   1.032   2.485
 7200TIP3   OH221542   3.657   5.740   3.424
 7200TIP3    H121543   3.750   5.723   3.441
 7200TIP3    H221544   3.628   5.790   3.501
 7201TIP3   OH221545   5.287   0.844   3.244
 7201TIP3    H121546   5.340   0.889   3.179
 7201TIP3    H221547   5.349   0.789   3.292
 7202TIP3   OH221548   8.276   5.222   6.685
 7202TIP3    H121549   8.321   5.188   6.608
 7202TIP3    H221550   8.187   5.241   6.654
 7203TIP3   OH221551   0.395   2.159   2.773
 7203TIP3    H121552   0.372   2.161   2.680
 7203TIP3    H221553   0.461   2.091   2.780
 7204TIP3   OH221554   4.832   6.006   1.946
 7204TIP3    H121555   4.810   6.087   1.900
 7204TIP3    H221556   4.891   6.034   2.016
 7205TIP3   OH221557   2.881   5.575   1.452
 7205TIP3    H121558   2.960   5.592   1.401
 7205TIP3    H221559   2.913   5.554   1.540
 7206TIP3   OH221560   3.526   3.450   5.884
 7206TIP3    H121561   3.532   3.356   5.869
 7206TIP3    H221562   3.602   3.486   5.839
 7207TIP3   OH221563   5.361   5.459   5.544
 7207TIP3    H121564   5.404   5.497   5.468
 7207TIP3    H221565   5.409   5.378   5.561
 7208TIP3   OH221566   6.659   2.126   0.086
 7208TIP3    H121567   6.651   2.039   0.125
 7208TIP3    H221568   6.605   2.182   0.141
 7209TIP3   OH221569   5.109   7.149   6.568
 7209TIP3    H121570   5.164   7.221   6.537
 7209TIP3    H221571   5.039   7.192   6.617
 7210TIP3   OH221572   4.262   1.276   4.566
 7210TIP3    H121573   4.241   1.355   4.515
 7210TIP3    H221574   4.306   1.309   4.644
 7211TIP3   OH221575   1.291   6.842   5.329
 7211TIP3    H121576   1.207   6.854   5.373
 7211TIP3    H221577   1.348   6.907   5.369
 7212TIP3   OH221578   5.057   7.248   1.787
 7212TIP3    H121579   5.114   7.200   1.846
 7212TIP3    H221580   5.091   7.338   1.789
 7213TIP3   OH221581   2.505   3.028   5.703
 7213TIP3    H121582   2.467   2.983   5.628
 7213TIP3    H221583   2.527   3.115   5.671
 7214TIP3   OH221584   6.467   4.497   4.791
 7214TIP3    H121585   6.561   4.496   4.773
 7214TIP3    H221586   6.431   4.427   4.737
 7215TIP3   OH221587   0.328   1.362   1.897
 7215TIP3    H121588   0.404   1.322   1.938
 7215TIP3    H221589   0.361   1.399   1.815
 7216TIP3   OH221590   0.851   6.272   4.301
 7216TIP3    H121591   0.821   6.257   4.212
 7216TIP3    H221592   0.782   6.237   4.357
 7217TIP3   OH221593   3.686   6.298   5.633
 7217TIP3    H121594   3.608   6.344   5.600
 7217TIP3    H221595   3.669   6.286   5.726
 7218TIP3   OH221596   2.224   2.438   5.507
 7218TIP3    H121597   2.135   2.474   5.509
 7218TIP3    H221598   2.224   2.376   5.434
 7219TIP3   OH221599   3.663   5.971   5.937
 7219TIP3    H121600   3.630   6.038   5.998
 7219TIP3    H221601   3.642   5.888   5.979
 7220TIP3   OH221602   2.131   6.197   6.269
 7220TIP3    H121603   2.168   6.186   6.182
 7220TIP3    H221604   2.071   6.272   6.261
 7221TIP3   OH221605   3.470   4.194   6.721
 7221TIP3    H121606   3.563   4.183   6.704
 7221TIP3    H221607   3.428   4.122   6.675
 7222TIP3   OH221608   2.544   1.679   3.362
 7222TIP3    H121609   2.627   1.724   3.376
 7222TIP3    H221610   2.559   1.625   3.283
 7223TIP3   OH221611   1.959   7.014   1.203
 7223TIP3    H121612   2.023   7.039   1.270
 7223TIP3    H221613   1.893   6.964   1.250
 7224TIP3   OH221614   7.271   2.636   0.489
 7224TIP3    H121615   7.303   2.648   0.399
 7224TIP3    H221616   7.351   2.630   0.542
 7225TIP3   OH221617   2.373   5.299   0.043
 7225TIP3    H121618   2.451   5.302  -0.013
 7225TIP3    H221619   2.357   5.391   0.066
 7226TIP3   OH221620   7.304   4.506   3.780
 7226TIP3    H121621   7.389   4.463   3.776
 7226TIP3    H221622   7.273   4.491   3.869
 7227TIP3   OH221623   5.330   0.347   5.657
 7227TIP3    H121624   5.330   0.260   5.617
 7227TIP3    H221625   5.415   0.354   5.700
 7228TIP3   OH221626   5.871   5.062   6.398
 7228TIP3    H121627   5.789   5.107   6.416
 7228TIP3    H221628   5.920   5.067   6.480
 7229TIP3   OH221629   2.626   6.201   2.243
 7229TIP3    H121630   2.700   6.261   2.248
 7229TIP3    H221631   2.568   6.240   2.177
 7230TIP3   OH221632   3.465   3.872   6.275
 7230TIP3    H121633   3.403   3.926   6.226
 7230TIP3    H221634   3.447   3.783   6.246
 7231TIP3   OH221635   8.227   1.233   1.769
 7231TIP3    H121636   8.182   1.285   1.835
 7231TIP3    H221637   8.212   1.279   1.687
 7232TIP3   OH221638   6.355   7.013   1.781
 7232TIP3    H121639   6.261   7.021   1.767
 7232TIP3    H221640   6.384   7.102   1.801
 7233TIP3   OH221641   4.396   0.399   0.818
 7233TIP3    H121642   4.400   0.316   0.866
 7233TIP3    H221643   4.463   0.453   0.860
 7234TIP3   OH221644   7.210   5.359   5.013
 7234TIP3    H121645   7.127   5.382   4.971
 7234TIP3    H221646   7.184   5.318   5.096
 7235TIP3   OH221647   2.609   2.991   4.785
 7235TIP3    H121648   2.566   2.957   4.707
 7235TIP3    H221649   2.656   3.069   4.755
 7236TIP3   OH221650   7.670   5.256   0.948
 7236TIP3    H121651   7.616   5.177   0.954
 7236TIP3    H221652   7.671   5.291   1.037
 7237TIP3   OH221653   1.821   6.031   3.798
 7237TIP3    H121654   1.886   6.014   3.867
 7237TIP3    H221655   1.864   6.091   3.738
 7238TIP3   OH221656   3.331   3.451   6.090
 7238TIP3    H121657   3.357   3.453   5.998
 7238TIP3    H221658   3.247   3.404   6.091
 7239TIP3   OH221659   2.135   3.691   0.740
 7239TIP3    H121660   2.052   3.644   0.747
 7239TIP3    H221661   2.122   3.772   0.789
 7240TIP3   OH221662   4.332   4.509   5.771
 7240TIP3    H121663   4.256   4.552   5.733
 7240TIP3    H221664   4.394   4.503   5.698
 7241TIP3   OH221665   7.302   6.994   3.204
 7241TIP3    H121666   7.350   6.959   3.129
 7241TIP3    H221667   7.312   6.927   3.272
 7242TIP3   OH221668   5.285   2.213   6.206
 7242TIP3    H121669   5.310   2.133   6.160
 7242TIP3    H221670   5.313   2.283   6.147
 7243TIP3   OH221671   1.942   1.425   3.751
 7243TIP3    H121672   2.006   1.496   3.743
 7243TIP3    H221673   1.858   1.469   3.761
 7244TIP3   OH221674   8.102   6.957   1.605
 7244TIP3    H121675   8.117   6.992   1.692
 7244TIP3    H221676   8.008   6.943   1.600
 7245TIP3   OH221677   3.151   6.824   4.708
 7245TIP3    H121678   3.238   6.845   4.742
 7245TIP3    H221679   3.130   6.739   4.746
 7246TIP3   OH221680   0.755   0.589   6.108
 7246TIP3    H121681   0.750   0.511   6.163
 7246TIP3    H221682   0.692   0.649   6.146
 7247TIP3   OH221683   7.612   1.833   5.382
 7247TIP3    H121684   7.570   1.750   5.406
 7247TIP3    H221685   7.562   1.866   5.308
 7248TIP3   OH221686   3.603   6.153   4.480
 7248TIP3    H121687   3.661   6.190   4.546
 7248TIP3    H221688   3.514   6.173   4.512
 7249TIP3   OH221689   6.289   5.477   2.334
 7249TIP3    H121690   6.371   5.469   2.382
 7249TIP3    H221691   6.314   5.524   2.254
 7250TIP3   OH221692   4.865   4.747   2.159
 7250TIP3    H121693   4.863   4.734   2.064
 7250TIP3    H221694   4.904   4.833   2.170
 7251TIP3   OH221695   5.229   7.639   2.851
 7251TIP3    H121696   5.196   7.573   2.790
 7251TIP3    H221697   5.323   7.622   2.855
 7252TIP3   OH221698   6.383   7.010   6.617
 7252TIP3    H121699   6.389   6.922   6.655
 7252TIP3    H221700   6.392   6.997   6.523
 7253TIP3   OH221701   7.877   6.032   2.428
 7253TIP3    H121702   7.806   6.097   2.422
 7253TIP3    H221703   7.957   6.084   2.428
 7254TIP3   OH221704   0.558   0.269   2.991
 7254TIP3    H121705   0.539   0.300   3.080
 7254TIP3    H221706   0.472   0.259   2.950
 7255TIP3   OH221707   2.170   7.639   5.445
 7255TIP3    H121708   2.197   7.730   5.428
 7255TIP3    H221709   2.235   7.586   5.399
 7256TIP3   OH221710   4.311   3.855   0.338
 7256TIP3    H121711   4.225   3.878   0.302
 7256TIP3    H221712   4.303   3.762   0.360
 7257TIP3   OH221713   6.390   7.346   5.525
 7257TIP3    H121714   6.312   7.353   5.579
 7257TIP3    H221715   6.463   7.359   5.586
 7258TIP3   OH221716   3.734   5.529   4.987
 7258TIP3    H121717   3.816   5.482   4.970
 7258TIP3    H221718   3.669   5.482   4.935
 7259TIP3   OH221719   3.186   2.771   2.289
 7259TIP3    H121720   3.157   2.848   2.338
 7259TIP3    H221721   3.140   2.698   2.331
 7260TIP3   OH221722   4.634   6.548   5.561
 7260TIP3    H121723   4.694   6.558   5.635
 7260TIP3    H221724   4.649   6.625   5.507
 7261TIP3   OH221725   6.553   1.029   4.099
 7261TIP3    H121726   6.499   0.957   4.131
 7261TIP3    H221727   6.498   1.106   4.107
 7262TIP3   OH221728   3.845   4.754   1.195
 7262TIP3    H121729   3.863   4.775   1.103
 7262TIP3    H221730   3.907   4.808   1.245
 7263TIP3   OH221731   6.125   7.246   4.368
 7263TIP3    H121732   6.216   7.256   4.398
 7263TIP3    H221733   6.076   7.227   4.448
 7264TIP3   OH221734   2.865   4.981   4.000
 7264TIP3    H121735   2.927   5.010   4.066
 7264TIP3    H221736   2.879   5.042   3.927
 7265TIP3   OH221737   7.558   6.157   3.834
 7265TIP3    H121738   7.532   6.173   3.743
 7265TIP3    H221739   7.491   6.097   3.868
 7266TIP3   OH221740   1.052   0.456   6.678
 7266TIP3    H121741   1.072   0.395   6.749
 7266TIP3    H221742   0.965   0.489   6.698
 7267TIP3   OH221743   1.393   5.334   1.580
 7267TIP3    H121744   1.375   5.341   1.674
 7267TIP3    H221745   1.401   5.240   1.564
 7268TIP3   OH221746   5.924   7.589   3.233
 7268TIP3    H121747   5.921   7.644   3.154
 7268TIP3    H221748   5.954   7.504   3.202
 7269TIP3   OH221749   2.397   5.213   1.661
 7269TIP3    H121750   2.460   5.285   1.663
 7269TIP3    H221751   2.317   5.249   1.699
 7270TIP3   OH221752   5.370   3.979   0.141
 7270TIP3    H121753   5.365   4.044   0.072
 7270TIP3    H221754   5.385   4.029   0.221
 7271TIP3   OH221755   6.234   7.677   0.633
 7271TIP3    H121756   6.139   7.679   0.647
 7271TIP3    H221757   6.248   7.602   0.575
 7272TIP3   OH221758   6.548   3.853   1.290
 7272TIP3    H121759   6.634   3.815   1.272
 7272TIP3    H221760   6.516   3.881   1.205
 7273TIP3   OH221761   7.473   4.168   1.496
 7273TIP3    H121762   7.386   4.128   1.493
 7273TIP3    H221763   7.482   4.201   1.585
 7274TIP3   OH221764   0.537   2.325   0.629
 7274TIP3    H121765   0.503   2.236   0.637
 7274TIP3    H221766   0.630   2.313   0.611
 7275TIP3   OH221767   1.460   7.700   3.319
 7275TIP3    H121768   1.462   7.607   3.300
 7275TIP3    H221769   1.515   7.710   3.397
 7276TIP3   OH221770   6.748   4.285   0.937
 7276TIP3    H121771   6.737   4.218   0.870
 7276TIP3    H221772   6.840   4.277   0.964
 7277TIP3   OH221773   5.385   4.394   0.348
 7277TIP3    H121774   5.357   4.484   0.362
 7277TIP3    H221775   5.458   4.381   0.409
 7278TIP3   OH221776   5.232   3.524   1.812
 7278TIP3    H121777   5.227   3.561   1.724
 7278TIP3    H221778   5.285   3.586   1.861
 7279TIP3   OH221779   4.865   1.932   0.431
 7279TIP3    H121780   4.783   1.912   0.476
 7279TIP3    H221781   4.841   1.934   0.338
 7280TIP3   OH221782   7.193   1.231   6.479
 7280TIP3    H121783   7.148   1.183   6.410
 7280TIP3    H221784   7.218   1.314   6.439
 7281TIP3   OH221785   1.194   7.604   0.005
 7281TIP3    H121786   1.111   7.627  -0.038
 7281TIP3    H221787   1.182   7.633   0.095
 7282TIP3   OH221788   2.329   6.254   4.499
 7282TIP3    H121789   2.332   6.325   4.435
 7282TIP3    H221790   2.236   6.242   4.518
 7283TIP3   OH221791   4.515   4.399   6.670
 7283TIP3    H121792   4.552   4.460   6.607
 7283TIP3    H221793   4.468   4.454   6.732
 7284TIP3   OH221794   2.262   5.194   6.261
 7284TIP3    H121795   2.313   5.225   6.186
 7284TIP3    H221796   2.291   5.249   6.334
 7285TIP3   OH221797   5.651   2.913   3.459
 7285TIP3    H121798   5.681   2.822   3.452
 7285TIP3    H221799   5.707   2.961   3.397
 7286TIP3   OH221800   6.391   1.412   4.398
 7286TIP3    H121801   6.365   1.502   4.383
 7286TIP3    H221802   6.314   1.360   4.377
 7287TIP3   OH221803   6.817   0.640   6.281
 7287TIP3    H121804   6.768   0.567   6.318
 7287TIP3    H221805   6.904   0.633   6.320
 7288TIP3   OH221806   8.020   0.903   1.524
 7288TIP3    H121807   8.067   0.824   1.498
 7288TIP3    H221808   8.052   0.922   1.612
 7289TIP3   OH221809   8.131   4.781   0.992
 7289TIP3    H121810   8.123   4.868   0.953
 7289TIP3    H221811   8.166   4.797   1.080
 7290TIP3   OH221812   4.439   0.153   5.999
 7290TIP3    H121813   4.406   0.170   5.911
 7290TIP3    H221814   4.360   0.146   6.053
 7291TIP3   OH221815   2.525   0.128   0.553
 7291TIP3    H121816   2.446   0.180   0.564
 7291TIP3    H221817   2.586   0.163   0.618
 7292TIP3   OH221818   0.110   6.717   0.309
 7292TIP3    H121819   0.049   6.685   0.243
 7292TIP3    H221820   0.056   6.763   0.373
 7293TIP3   OH221821   5.203   5.984   4.259
 7293TIP3    H121822   5.127   5.932   4.286
 7293TIP3    H221823   5.188   6.070   4.299
 7294TIP3   OH221824   1.410   1.947   6.606
 7294TIP3    H121825   1.316   1.963   6.604
 7294TIP3    H221826   1.441   1.997   6.682
 7295TIP3   OH221827   2.464   6.747   5.395
 7295TIP3    H121828   2.437   6.829   5.435
 7295TIP3    H221829   2.533   6.713   5.451
 7296TIP3   OH221830   6.609   1.617   6.339
 7296TIP3    H121831   6.519   1.602   6.368
 7296TIP3    H221832   6.663   1.593   6.414
 7297TIP3   OH221833   4.103   2.408   1.638
 7297TIP3    H121834   4.060   2.351   1.702
 7297TIP3    H221835   4.071   2.378   1.553
 7298TIP3   OH221836   6.085   4.029   6.495
 7298TIP3    H121837   6.144   4.100   6.470
 7298TIP3    H221838   6.005   4.073   6.524
 7299TIP3   OH221839   6.752   5.939   3.154
 7299TIP3    H121840   6.672   5.984   3.181
 7299TIP3    H221841   6.723   5.850   3.131
 7300TIP3   OH221842   3.432   0.293   6.169
 7300TIP3    H121843   3.368   0.359   6.198
 7300TIP3    H221844   3.507   0.344   6.138
 7301TIP3   OH221845   1.324   0.509   3.128
 7301TIP3    H121846   1.323   0.486   3.221
 7301TIP3    H221847   1.239   0.478   3.095
 7302TIP3   OH221848   0.171   3.972   1.457
 7302TIP3    H121849   0.230   3.913   1.410
 7302TIP3    H221850   0.100   3.989   1.395
 7303TIP3   OH221851   3.731   2.536   0.925
 7303TIP3    H121852   3.650   2.552   0.974
 7303TIP3    H221853   3.701   2.511   0.838
 7304TIP3   OH221854   4.386   4.715   2.875
 7304TIP3    H121855   4.313   4.658   2.850
 7304TIP3    H221856   4.439   4.723   2.796
 7305TIP3   OH221857   4.718   7.510   1.203
 7305TIP3    H121858   4.779   7.556   1.261
 7305TIP3    H221859   4.648   7.480   1.261
 7306TIP3   OH221860   7.130   1.414   4.125
 7306TIP3    H121861   7.093   1.476   4.063
 7306TIP3    H221862   7.082   1.430   4.206
 7307TIP3   OH221863   5.034   6.613   2.046
 7307TIP3    H121864   4.939   6.625   2.058
 7307TIP3    H221865   5.041   6.533   1.994
 7308TIP3   OH221866   1.614   2.530   3.990
 7308TIP3    H121867   1.533   2.553   4.036
 7308TIP3    H221868   1.595   2.550   3.898
 7309TIP3   OH221869   6.816   3.540   5.000
 7309TIP3    H121870   6.897   3.514   5.046
 7309TIP3    H221871   6.794   3.625   5.037
 7310TIP3   OH221872   2.292   4.982   6.715
 7310TIP3    H121873   2.327   5.069   6.696
 7310TIP3    H221874   2.308   4.931   6.636
 7311TIP3   OH221875   4.666   3.580   2.783
 7311TIP3    H121876   4.612   3.658   2.765
 7311TIP3    H221877   4.696   3.552   2.697
 7312TIP3   OH221878   2.593   6.569   6.678
 7312TIP3    H121879   2.610   6.562   6.772
 7312TIP3    H221880   2.635   6.491   6.641
 7313TIP3   OH221881   0.195   1.967   1.073
 7313TIP3    H121882   0.117   2.006   1.115
 7313TIP3    H221883   0.260   1.962   1.143
 7314TIP3   OH221884   8.051   2.049   0.028
 7314TIP3    H121885   8.060   2.102   0.107
 7314TIP3    H221886   8.140   2.026   0.004
 7315TIP3   OH221887   6.494   5.282   4.008
 7315TIP3    H121888   6.558   5.348   4.034
 7315TIP3    H221889   6.464   5.311   3.921
 7316TIP3   OH221890   4.952   3.511   4.633
 7316TIP3    H121891   4.884   3.518   4.699
 7316TIP3    H221892   5.029   3.551   4.673
 7317TIP3   OH221893   2.447   6.251   1.764
 7317TIP3    H121894   2.372   6.199   1.794
 7317TIP3    H221895   2.425   6.341   1.789
 7318TIP3   OH221896   5.185   1.364   2.297
 7318TIP3    H121897   5.201   1.422   2.372
 7318TIP3    H221898   5.096   1.331   2.312
 7319TIP3   OH221899   1.261   7.174   4.172
 7319TIP3    H121900   1.347   7.201   4.139
 7319TIP3    H221901   1.207   7.253   4.165
 7320TIP3   OH221902   1.684   1.526   5.908
 7320TIP3    H121903   1.610   1.585   5.893
 7320TIP3    H221904   1.679   1.463   5.835
 7321TIP3   OH221905   5.084   6.195   5.240
 7321TIP3    H121906   4.991   6.200   5.217
 7321TIP3    H221907   5.106   6.283   5.270
 7322TIP3   OH221908   0.477   1.469   1.552
 7322TIP3    H121909   0.567   1.440   1.539
 7322TIP3    H221910   0.423   1.404   1.507
 7323TIP3   OH221911   2.898   6.194   0.557
 7323TIP3    H121912   2.943   6.276   0.580
 7323TIP3    H221913   2.952   6.125   0.595
 7324TIP3   OH221914   1.388   3.385   2.162
 7324TIP3    H121915   1.346   3.427   2.237
 7324TIP3    H221916   1.315   3.355   2.107
 7325TIP3   OH221917   6.049   0.952   0.612
 7325TIP3    H121918   6.007   0.922   0.532
 7325TIP3    H221919   6.065   1.045   0.598
 7326TIP3   OH221920   4.244   6.658   5.009
 7326TIP3    H121921   4.179   6.725   5.031
 7326TIP3    H221922   4.213   6.579   5.054
 7327TIP3   OH221923   5.737   1.317   0.548
 7327TIP3    H121924   5.757   1.410   0.552
 7327TIP3    H221925   5.823   1.275   0.540
 7328TIP3   OH221926   0.624   4.184   0.499
 7328TIP3    H121927   0.690   4.222   0.440
 7328TIP3    H221928   0.555   4.250   0.503
 7329TIP3   OH221929   1.279   7.801   5.236
 7329TIP3    H121930   1.285   7.713   5.198
 7329TIP3    H221931   1.207   7.842   5.188
 7330TIP3   OH221932   3.600   3.051   3.761
 7330TIP3    H121933   3.671   3.021   3.704
 7330TIP3    H221934   3.576   2.973   3.811
 7331TIP3   OH221935   4.399   7.002   4.042
 7331TIP3    H121936   4.408   6.939   3.971
 7331TIP3    H221937   4.349   7.074   4.005
 7332TIP3   OH221938   8.021   2.673   3.890
 7332TIP3    H121939   8.065   2.756   3.906
 7332TIP3    H221940   7.998   2.642   3.978
 7333TIP3   OH221941   5.262   2.740   1.206
 7333TIP3    H121942   5.246   2.824   1.162
 7333TIP3    H221943   5.201   2.740   1.279
 7334TIP3   OH221944   2.624   4.228   0.175
 7334TIP3    H121945   2.569   4.219   0.252
 7334TIP3    H221946   2.569   4.201   0.102
 7335TIP3   OH221947   5.239   4.751   4.713
 7335TIP3    H121948   5.189   4.791   4.641
 7335TIP3    H221949   5.221   4.658   4.706
 7336TIP3   OH221950   8.040   7.304   5.141
 7336TIP3    H121951   8.067   7.303   5.232
 7336TIP3    H221952   7.964   7.245   5.138
 7337TIP3   OH221953   3.638   2.610   2.083
 7337TIP3    H121954   3.559   2.616   2.137
 7337TIP3    H221955   3.626   2.530   2.032
 7338TIP3   OH221956   2.756   0.024   2.947
 7338TIP3    H121957   2.757   0.100   2.890
 7338TIP3    H221958   2.679   0.037   3.003
 7339TIP3   OH221959   6.720   7.772   2.342
 7339TIP3    H121960   6.737   7.819   2.424
 7339TIP3    H221961   6.625   7.759   2.342
 7340TIP3   OH221962   6.728   2.955   4.162
 7340TIP3    H121963   6.645   2.907   4.170
 7340TIP3    H221964   6.720   3.002   4.079
 7341TIP3   OH221965   4.948   3.517   1.387
 7341TIP3    H121966   4.900   3.553   1.462
 7341TIP3    H221967   4.969   3.427   1.414
 7342TIP3   OH221968   4.935   4.298   5.294
 7342TIP3    H121969   4.870   4.233   5.319
 7342TIP3    H221970   4.909   4.327   5.206
 7343TIP3   OH221971   2.350   4.026   2.517
 7343TIP3    H121972   2.392   4.056   2.436
 7343TIP3    H221973   2.258   4.047   2.506
 7344TIP3   OH221974   3.321   1.512   0.475
 7344TIP3    H121975   3.342   1.605   0.467
 7344TIP3    H221976   3.371   1.471   0.405
 7345TIP3   OH221977   3.689   1.001   4.343
 7345TIP3    H121978   3.639   1.068   4.296
 7345TIP3    H221979   3.628   0.965   4.407
 7346TIP3   OH221980   2.716   0.887   5.665
 7346TIP3    H121981   2.784   0.922   5.723
 7346TIP3    H221982   2.718   0.944   5.589
 7347TIP3   OH221983   2.084   4.628   5.255
 7347TIP3    H121984   2.130   4.699   5.210
 7347TIP3    H221985   2.053   4.668   5.336
 7348TIP3   OH221986   3.593   6.755   0.194
 7348TIP3    H121987   3.601   6.850   0.187
 7348TIP3    H221988   3.506   6.736   0.159
 7349TIP3   OH221989   1.441   7.740   2.068
 7349TIP3    H121990   1.469   7.745   1.976
 7349TIP3    H221991   1.492   7.808   2.112
 7350TIP3   OH221992   7.313   0.558   6.627
 7350TIP3    H121993   7.298   0.469   6.660
 7350TIP3    H221994   7.346   0.546   6.538
 7351TIP3   OH221995   1.230   3.248   5.386
 7351TIP3    H121996   1.272   3.326   5.350
 7351TIP3    H221997   1.302   3.188   5.405
 7352TIP3   OH221998   7.489   3.608   6.432
 7352TIP3    H121999   7.483   3.514   6.454
 7352TIP3    H222000   7.399   3.638   6.431
 7353TIP3   OH222001   1.102   4.238   0.197
 7353TIP3    H122002   1.046   4.278   0.130
 7353TIP3    H222003   1.111   4.147   0.169
 7354TIP3   OH222004   3.338   1.767   4.133
 7354TIP3    H122005   3.392   1.808   4.065
 7354TIP3    H222006   3.269   1.831   4.150
 7355TIP3   OH222007   3.479   1.167   4.185
 7355TIP3    H122008   3.401   1.113   4.173
 7355TIP3    H222009   3.451   1.238   4.243
 7356TIP3   OH222010   0.315   4.301   2.155
 7356TIP3    H122011   0.258   4.351   2.097
 7356TIP3    H222012   0.374   4.366   2.194
 7357TIP3   OH222013   0.452   0.378   2.675
 7357TIP3    H122014   0.494   0.367   2.590
 7357TIP3    H222015   0.458   0.471   2.694
 7358TIP3   OH222016   1.904   6.299   0.505
 7358TIP3    H122017   1.982   6.260   0.466
 7358TIP3    H222018   1.919   6.294   0.600
 7359TIP3   OH222019   2.172   5.459   2.380
 7359TIP3    H122020   2.099   5.516   2.405
 7359TIP3    H222021   2.242   5.483   2.441
 7360TIP3   OH222022   5.328   0.570   5.928
 7360TIP3    H122023   5.259   0.632   5.904
 7360TIP3    H222024   5.330   0.574   6.024
 7361TIP3   OH222025   7.819   6.216   4.291
 7361TIP3    H122026   7.799   6.302   4.327
 7361TIP3    H222027   7.856   6.166   4.364
 7362TIP3   OH222028   5.375   0.723   4.971
 7362TIP3    H122029   5.432   0.793   5.003
 7362TIP3    H222030   5.364   0.743   4.878
 7363TIP3   OH222031   2.925   0.999   3.871
 7363TIP3    H122032   2.974   1.074   3.836
 7363TIP3    H222033   2.971   0.922   3.838
 7364TIP3   OH222034   0.798   4.874   2.587
 7364TIP3    H122035   0.819   4.942   2.651
 7364TIP3    H222036   0.703   4.880   2.577
 7365TIP3   OH222037   4.562   1.834   0.466
 7365TIP3    H122038   4.510   1.908   0.435
 7365TIP3    H222039   4.596   1.793   0.387
 7366TIP3   OH222040   7.689   3.047   3.141
 7366TIP3    H122041   7.659   3.017   3.055
 7366TIP3    H222042   7.670   3.140   3.142
 7367TIP3   OH222043   3.940   0.558   0.129
 7367TIP3    H122044   4.015   0.607   0.165
 7367TIP3    H222045   3.960   0.466   0.147
 7368TIP3   OH222046   1.956   6.706   3.077
 7368TIP3    H122047   2.021   6.670   3.138
 7368TIP3    H222048   1.994   6.788   3.046
 7369TIP3   OH222049   0.524   2.057   5.653
 7369TIP3    H122050   0.590   2.126   5.645
 7369TIP3    H222051   0.481   2.054   5.567
 7370TIP3   OH222052   6.198   4.944   3.903
 7370TIP3    H122053   6.161   4.973   3.987
 7370TIP3    H222054   6.203   5.024   3.851
 7371TIP3   OH222055   2.095   6.842   5.160
 7371TIP3    H122056   2.122   6.750   5.162
 7371TIP3    H222057   2.064   6.856   5.070
 7372TIP3   OH222058   0.956   3.267   0.748
 7372TIP3    H122059   0.899   3.228   0.683
 7372TIP3    H222060   1.016   3.323   0.698
 7373TIP3   OH222061   3.879   6.001   5.173
 7373TIP3    H122062   3.939   6.001   5.247
 7373TIP3    H222063   3.931   6.036   5.100
 7374TIP3   OH222064   0.857   7.126   2.235
 7374TIP3    H122065   0.933   7.080   2.200
 7374TIP3    H222066   0.786   7.107   2.173
 7375TIP3   OH222067   1.123   7.277   0.322
 7375TIP3    H122068   1.060   7.348   0.337
 7375TIP3    H222069   1.082   7.225   0.252
 7376TIP3   OH222070   7.014   5.441   0.436
 7376TIP3    H122071   6.999   5.350   0.460
 7376TIP3    H222072   7.103   5.442   0.401
 7377TIP3   OH222073   4.751   1.308   6.178
 7377TIP3    H122074   4.818   1.283   6.241
 7377TIP3    H222075   4.782   1.273   6.094
 7378TIP3   OH222076   0.971   2.326   1.878
 7378TIP3    H122077   0.883   2.362   1.861
 7378TIP3    H222078   0.962   2.280   1.962
 7379TIP3   OH222079   3.388   5.392   5.226
 7379TIP3    H122080   3.354   5.373   5.313
 7379TIP3    H222081   3.358   5.481   5.208
 7380TIP3   OH222082   4.132   3.596   5.126
 7380TIP3    H122083   4.134   3.680   5.079
 7380TIP3    H222084   4.223   3.572   5.135
 7381TIP3   OH222085   1.496   0.201   2.985
 7381TIP3    H122086   1.402   0.182   2.994
 7381TIP3    H222087   1.510   0.278   3.041
 7382TIP3   OH222088   3.321   3.611   4.274
 7382TIP3    H122089   3.405   3.654   4.291
 7382TIP3    H222090   3.263   3.645   4.341
 7383TIP3   OH222091   0.398   3.908   4.055
 7383TIP3    H122092   0.427   3.828   4.010
 7383TIP3    H222093   0.364   3.877   4.139
 7384TIP3   OH222094   3.353   6.740   1.806
 7384TIP3    H122095   3.404   6.742   1.887
 7384TIP3    H222096   3.419   6.739   1.736
 7385TIP3   OH222097   7.504   3.833   1.938
 7385TIP3    H122098   7.583   3.786   1.965
 7385TIP3    H222099   7.463   3.860   2.021
 7386TIP3   OH222100   3.509   0.118   0.260
 7386TIP3    H122101   3.461   0.107   0.178
 7386TIP3    H222102   3.585   0.171   0.236
 7387TIP3   OH222103   3.089   1.026   6.722
 7387TIP3    H122104   3.140   1.105   6.739
 7387TIP3    H222105   3.005   1.042   6.765
 7388TIP3   OH222106   6.066   4.176   0.555
 7388TIP3    H122107   6.050   4.166   0.461
 7388TIP3    H222108   6.070   4.087   0.588
 7389TIP3   OH222109   0.463   1.418   1.209
 7389TIP3    H122110   0.529   1.487   1.216
 7389TIP3    H222111   0.407   1.431   1.285
 7390TIP3   OH222112   2.731   3.132   0.984
 7390TIP3    H122113   2.637   3.118   0.973
 7390TIP3    H222114   2.764   3.048   1.016
 7391TIP3   OH222115   3.889   2.243   5.537
 7391TIP3    H122116   3.840   2.182   5.482
 7391TIP3    H222117   3.923   2.309   5.476
 7392TIP3   OH222118   7.180   4.362   6.197
 7392TIP3    H122119   7.086   4.380   6.197
 7392TIP3    H222120   7.188   4.269   6.216
 7393TIP3   OH222121   3.778   4.022   1.641
 7393TIP3    H122122   3.702   4.079   1.625
 7393TIP3    H222123   3.826   4.065   1.711
 7394TIP3   OH222124   0.825   2.893   0.743
 7394TIP3    H122125   0.751   2.832   0.746
 7394TIP3    H222126   0.833   2.926   0.832
 7395TIP3   OH222127   6.410   2.338   5.232
 7395TIP3    H122128   6.481   2.402   5.235
 7395TIP3    H222129   6.333   2.389   5.206
 7396TIP3   OH222130   3.667   6.800   3.613
 7396TIP3    H122131   3.650   6.869   3.549
 7396TIP3    H222132   3.604   6.817   3.684
 7397TIP3   OH222133   7.318   2.247   5.243
 7397TIP3    H122134   7.369   2.275   5.319
 7397TIP3    H222135   7.347   2.158   5.225
 7398TIP3   OH222136   1.086   0.527   5.937
 7398TIP3    H122137   1.040   0.560   6.014
 7398TIP3    H222138   1.174   0.563   5.944
 7399TIP3   OH222139   5.011   6.638   6.056
 7399TIP3    H122140   5.043   6.719   6.017
 7399TIP3    H222141   4.995   6.579   5.982
 7400TIP3   OH222142   6.007   2.296  -0.005
 7400TIP3    H122143   6.014   2.370   0.056
 7400TIP3    H222144   6.097   2.278  -0.031
 7401TIP3   OH222145   7.198   3.370   6.008
 7401TIP3    H122146   7.226   3.459   6.033
 7401TIP3    H222147   7.149   3.339   6.084
 7402TIP3   OH222148   4.408   4.407   3.219
 7402TIP3    H122149   4.339   4.405   3.285
 7402TIP3    H222150   4.388   4.334   3.161
 7403TIP3   OH222151   7.873   6.482   6.653
 7403TIP3    H122152   7.841   6.433   6.728
 7403TIP3    H222153   7.799   6.487   6.593
 7404TIP3   OH222154   0.831   4.190   5.427
 7404TIP3    H122155   0.752   4.227   5.388
 7404TIP3    H222156   0.858   4.121   5.366
 7405TIP3   OH222157   1.280   0.205   1.168
 7405TIP3    H122158   1.194   0.239   1.194
 7405TIP3    H222159   1.333   0.283   1.151
 7406TIP3   OH222160   5.130   3.611   6.565
 7406TIP3    H122161   5.218   3.648   6.565
 7406TIP3    H222162   5.139   3.528   6.518
 7407TIP3   OH222163   1.100   6.187   0.516
 7407TIP3    H122164   1.162   6.152   0.580
 7407TIP3    H222165   1.131   6.276   0.499
 7408TIP3   OH222166   6.291   7.150   1.455
 7408TIP3    H122167   6.201   7.184   1.463
 7408TIP3    H222168   6.288   7.094   1.378
 7409TIP3   OH222169   5.103   5.690   4.996
 7409TIP3    H122170   5.110   5.648   5.081
 7409TIP3    H222171   5.147   5.630   4.935
 7410TIP3   OH222172   6.496   7.245   4.175
 7410TIP3    H122173   6.536   7.296   4.245
 7410TIP3    H222174   6.440   7.182   4.220
 7411TIP3   OH222175   2.013   5.925   6.662
 7411TIP3    H122176   2.106   5.947   6.662
 7411TIP3    H222177   2.008   5.840   6.706
 7412TIP3   OH222178   6.521   5.938   2.914
 7412TIP3    H122179   6.496   5.859   2.962
 7412TIP3    H222180   6.480   6.010   2.961
 7413TIP3   OH222181   1.857   3.459   4.752
 7413TIP3    H122182   1.842   3.366   4.734
 7413TIP3    H222183   1.812   3.474   4.835
 7414TIP3   OH222184   7.726   5.941   4.506
 7414TIP3    H122185   7.681   5.965   4.587
 7414TIP3    H222186   7.806   5.992   4.508
 7415TIP3   OH222187   3.391   6.498   4.369
 7415TIP3    H122188   3.337   6.576   4.378
 7415TIP3    H222189   3.330   6.430   4.341
 7416TIP3   OH222190   6.550   7.101   3.694
 7416TIP3    H122191   6.640   7.132   3.694
 7416TIP3    H222192   6.557   7.006   3.703
 7417TIP3   OH222193   5.717   0.409   6.074
 7417TIP3    H122194   5.798   0.423   6.025
 7417TIP3    H222195   5.699   0.316   6.066
 7418TIP3   OH222196   4.056   5.575   2.936
 7418TIP3    H122197   4.036   5.597   2.845
 7418TIP3    H222198   4.090   5.486   2.932
 7419TIP3   OH222199   2.979   4.647   1.453
 7419TIP3    H122200   2.902   4.691   1.417
 7419TIP3    H222201   2.955   4.630   1.544
 7420TIP3   OH222202   7.252   6.608   3.300
 7420TIP3    H122203   7.325   6.610   3.361
 7420TIP3    H222204   7.174   6.607   3.355
 7421TIP3   OH222205   5.034   4.010   2.645
 7421TIP3    H122206   4.999   4.096   2.620
 7421TIP3    H222207   5.072   3.975   2.565
 7422TIP3   OH222208   4.294   0.187   5.762
 7422TIP3    H122209   4.326   0.268   5.721
 7422TIP3    H222210   4.315   0.118   5.699
 7423TIP3   OH222211   0.059   7.687   6.434
 7423TIP3    H122212   0.138   7.738   6.450
 7423TIP3    H222213   0.064   7.663   6.341
 7424TIP3   OH222214   0.259   7.056   3.623
 7424TIP3    H122215   0.260   7.043   3.718
 7424TIP3    H222216   0.332   7.002   3.591
 7425TIP3   OH222217   6.006   6.897   4.440
 7425TIP3    H122218   6.098   6.879   4.423
 7425TIP3    H222219   5.984   6.840   4.513
 7426TIP3   OH222220   7.941   0.057   3.701
 7426TIP3    H122221   7.990   0.050   3.619
 7426TIP3    H222222   7.916   0.149   3.707
 7427TIP3   OH222223   2.536   4.243   1.216
 7427TIP3    H122224   2.632   4.245   1.219
 7427TIP3    H222225   2.512   4.162   1.261
 7428TIP3   OH222226   2.478   2.536   5.535
 7428TIP3    H122227   2.388   2.507   5.522
 7428TIP3    H222228   2.484   2.554   5.629
 7429TIP3   OH222229   0.353   7.177   5.128
 7429TIP3    H122230   0.401   7.256   5.103
 7429TIP3    H222231   0.353   7.123   5.049
 7430TIP3   OH222232   0.318   5.742   5.303
 7430TIP3    H122233   0.407   5.778   5.303
 7430TIP3    H222234   0.331   5.648   5.302
 7431TIP3   OH222235   1.977   5.241   3.206
 7431TIP3    H122236   1.989   5.264   3.114
 7431TIP3    H222237   1.927   5.314   3.243
 7432TIP3   OH222238   5.504   1.275   4.796
 7432TIP3    H122239   5.532   1.347   4.740
 7432TIP3    H222240   5.581   1.256   4.851
 7433TIP3   OH222241   6.562   5.961   0.516
 7433TIP3    H122242   6.504   5.975   0.441
 7433TIP3    H222243   6.641   6.010   0.494
 7434TIP3   OH222244   5.530   0.514   5.047
 7434TIP3    H122245   5.479   0.462   4.985
 7434TIP3    H222246   5.493   0.602   5.043
 7435TIP3   OH222247   7.444   1.216   5.631
 7435TIP3    H122248   7.528   1.174   5.612
 7435TIP3    H222249   7.382   1.174   5.571
 7436TIP3   OH222250   3.518   4.138   5.204
 7436TIP3    H122251   3.444   4.150   5.263
 7436TIP3    H222252   3.478   4.110   5.121
 7437TIP3   OH222253   5.398   5.189   5.872
 7437TIP3    H122254   5.339   5.163   5.802
 7437TIP3    H222255   5.475   5.223   5.827
 7438TIP3   OH222256   4.523   6.249   4.011
 7438TIP3    H122257   4.524   6.192   3.934
 7438TIP3    H222258   4.485   6.195   4.080
 7439TIP3   OH222259   2.885   0.130   6.655
 7439TIP3    H122260   2.941   0.105   6.581
 7439TIP3    H222261   2.800   0.089   6.635
 7440TIP3   OH222262   1.692   6.118   4.401
 7440TIP3    H122263   1.672   6.089   4.490
 7440TIP3    H222264   1.784   6.095   4.388
 7441TIP3   OH222265   0.320   3.639   0.477
 7441TIP3    H122266   0.302   3.646   0.383
 7441TIP3    H222267   0.284   3.719   0.514
 7442TIP3   OH222268   8.097   2.174   3.174
 7442TIP3    H122269   8.150   2.212   3.245
 7442TIP3    H222270   8.108   2.234   3.101
 7443TIP3   OH222271   4.262   2.481   3.326
 7443TIP3    H122272   4.354   2.456   3.318
 7443TIP3    H222273   4.227   2.471   3.237
 7444TIP3   OH222274   6.442   3.585   1.208
 7444TIP3    H122275   6.440   3.490   1.198
 7444TIP3    H222276   6.493   3.617   1.134
 7445TIP3   OH222277   5.999   5.093   4.047
 7445TIP3    H122278   6.019   5.156   4.117
 7445TIP3    H222279   5.964   5.148   3.976
 7446TIP3   OH222280   6.150   1.264   4.362
 7446TIP3    H122281   6.119   1.174   4.369
 7446TIP3    H222282   6.070   1.316   4.360
 7447TIP3   OH222283   0.552   6.968   1.837
 7447TIP3    H122284   0.558   6.903   1.767
 7447TIP3    H222285   0.466   6.953   1.877
 7448TIP3   OH222286   4.250   6.706   4.261
 7448TIP3    H122287   4.335   6.710   4.304
 7448TIP3    H222288   4.191   6.671   4.328
 7449TIP3   OH222289   2.058   6.032   2.546
 7449TIP3    H122290   2.064   5.988   2.461
 7449TIP3    H222291   2.075   6.124   2.525
 7450TIP3   OH222292   7.547   5.876   4.308
 7450TIP3    H122293   7.543   5.782   4.296
 7450TIP3    H222294   7.609   5.888   4.380
 7451TIP3   OH222295   6.945   7.788   2.576
 7451TIP3    H122296   6.959   7.703   2.534
 7451TIP3    H222297   6.954   7.771   2.670
 7452TIP3   OH222298   7.995   7.624   5.906
 7452TIP3    H122299   7.909   7.660   5.929
 7452TIP3    H222300   7.987   7.601   5.814
 7453TIP3   OH222301   1.817   4.210   4.470
 7453TIP3    H122302   1.777   4.274   4.528
 7453TIP3    H222303   1.827   4.131   4.524
 7454TIP3   OH222304   2.975   4.369   1.792
 7454TIP3    H122305   2.906   4.399   1.733
 7454TIP3    H222306   3.035   4.319   1.735
 7455TIP3   OH222307   5.274   1.966   6.627
 7455TIP3    H122308   5.331   2.016   6.569
 7455TIP3    H222309   5.304   1.876   6.617
 7456TIP3   OH222310   1.963   1.312   1.473
 7456TIP3    H122311   1.878   1.300   1.431
 7456TIP3    H222312   1.955   1.395   1.521
 7457TIP3   OH222313   0.263   6.889  -0.010
 7457TIP3    H122314   0.249   6.945   0.065
 7457TIP3    H222315   0.175   6.866  -0.040
 7458TIP3   OH222316   6.771   3.620   5.437
 7458TIP3    H122317   6.855   3.576   5.452
 7458TIP3    H222318   6.727   3.565   5.371
 7459TIP3   OH222319   4.685   1.874   3.571
 7459TIP3    H122320   4.667   1.809   3.639
 7459TIP3    H222321   4.731   1.944   3.617
 7460TIP3   OH222322   0.116   2.999   0.743
 7460TIP3    H122323   0.073   2.959   0.667
 7460TIP3    H222324   0.209   2.982   0.728
 7461TIP3   OH222325   0.509   2.931   5.372
 7461TIP3    H122326   0.468   3.016   5.387
 7461TIP3    H222327   0.495   2.883   5.454
 7462TIP3   OH222328   2.547   6.689   1.122
 7462TIP3    H122329   2.502   6.609   1.150
 7462TIP3    H222330   2.522   6.699   1.030
 7463TIP3   OH222331   4.052   6.596   0.566
 7463TIP3    H122332   3.999   6.553   0.633
 7463TIP3    H222333   4.057   6.687   0.595
 7464TIP3   OH222334   3.745   7.329   4.596
 7464TIP3    H122335   3.669   7.278   4.570
 7464TIP3    H222336   3.757   7.392   4.525
 7465TIP3   OH222337   1.509   5.748   5.217
 7465TIP3    H122338   1.427   5.728   5.172
 7465TIP3    H222339   1.564   5.671   5.203
 7466TIP3   OH222340   4.445   3.286   1.701
 7466TIP3    H122341   4.398   3.346   1.759
 7466TIP3    H222342   4.380   3.260   1.636
 7467TIP3   OH222343   4.425   7.366   2.199
 7467TIP3    H122344   4.490   7.304   2.233
 7467TIP3    H222345   4.343   7.315   2.199
 7468TIP3   OH222346   1.261   3.418   1.528
 7468TIP3    H122347   1.220   3.372   1.601
 7468TIP3    H222348   1.355   3.406   1.542
 7469TIP3   OH222349   7.101   5.492   6.451
 7469TIP3    H122350   7.075   5.487   6.359
 7469TIP3    H222351   7.019   5.507   6.498
 7470TIP3   OH222352   6.180   2.309   4.135
 7470TIP3    H122353   6.116   2.264   4.081
 7470TIP3    H222354   6.167   2.402   4.116
 7471TIP3   OH222355   5.391   4.128   1.584
 7471TIP3    H122356   5.465   4.157   1.531
 7471TIP3    H222357   5.342   4.068   1.528
 7472TIP3   OH222358   6.597   1.034   4.617
 7472TIP3    H122359   6.598   0.963   4.553
 7472TIP3    H222360   6.511   1.027   4.659
 7473TIP3   OH222361   5.556   1.059   4.185
 7473TIP3    H122362   5.574   1.016   4.101
 7473TIP3    H222363   5.557   0.988   4.249
 7474TIP3   OH222364   6.668   0.730   3.648
 7474TIP3    H122365   6.739   0.673   3.677
 7474TIP3    H222366   6.610   0.672   3.599
 7475TIP3   OH222367   2.328   3.635   4.668
 7475TIP3    H122368   2.399   3.699   4.667
 7475TIP3    H222369   2.259   3.677   4.720
 7476TIP3   OH222370   0.900   7.503   5.469
 7476TIP3    H122371   0.870   7.440   5.404
 7476TIP3    H222372   0.981   7.465   5.504
 7477TIP3   OH222373   7.579   4.513   1.241
 7477TIP3    H122374   7.643   4.584   1.250
 7477TIP3    H222375   7.620   4.438   1.283
 7478TIP3   OH222376   1.306   7.242   2.283
 7478TIP3    H122377   1.300   7.335   2.306
 7478TIP3    H222378   1.398   7.229   2.262
 7479TIP3   OH222379   6.942   2.083   0.798
 7479TIP3    H122380   6.886   2.028   0.853
 7479TIP3    H222381   7.013   2.026   0.771
 7480TIP3   OH222382   5.717   6.452   1.439
 7480TIP3    H122383   5.687   6.526   1.385
 7480TIP3    H222384   5.702   6.375   1.384
 7481TIP3   OH222385   1.945   2.949   1.677
 7481TIP3    H122386   1.975   3.031   1.718
 7481TIP3    H222387   1.889   2.977   1.605
 7482TIP3   OH222388   4.705   2.473   4.241
 7482TIP3    H122389   4.698   2.472   4.145
 7482TIP3    H222390   4.792   2.510   4.258
 7483TIP3   OH222391   4.527   7.340   1.943
 7483TIP3    H122392   4.621   7.322   1.948
 7483TIP3    H222393   4.498   7.343   2.034
 7484TIP3   OH222394   4.482   3.359   5.482
 7484TIP3    H122395   4.485   3.348   5.387
 7484TIP3    H222396   4.389   3.371   5.502
 7485TIP3   OH222397   1.230   4.818   1.896
 7485TIP3    H122398   1.169   4.750   1.868
 7485TIP3    H222399   1.198   4.898   1.854
 7486TIP3   OH222400   3.993   3.390   2.037
 7486TIP3    H122401   4.025   3.360   2.123
 7486TIP3    H222402   4.072   3.414   1.989
 7487TIP3   OH222403   3.424   5.218   6.158
 7487TIP3    H122404   3.446   5.270   6.235
 7487TIP3    H222405   3.449   5.128   6.181
 7488TIP3   OH222406   3.126   0.678   4.244
 7488TIP3    H122407   3.215   0.681   4.276
 7488TIP3    H222408   3.072   0.665   4.322
 7489TIP3   OH222409   4.135   3.847   1.873
 7489TIP3    H122410   4.105   3.837   1.783
 7489TIP3    H222411   4.164   3.759   1.898
 7490TIP3   OH222412   3.708   0.532   4.022
 7490TIP3    H122413   3.687   0.616   4.062
 7490TIP3    H222414   3.779   0.552   3.961
 7491TIP3   OH222415   1.193   7.457   6.575
 7491TIP3    H122416   1.202   7.362   6.581
 7491TIP3    H222417   1.247   7.491   6.646
 7492TIP3   OH222418   3.769   0.551   2.934
 7492TIP3    H122419   3.835   0.529   3.000
 7492TIP3    H222420   3.803   0.631   2.893
 7493TIP3   OH222421   1.608   3.780   1.956
 7493TIP3    H122422   1.604   3.875   1.947
 7493TIP3    H222423   1.691   3.763   2.001
 7494TIP3   OH222424   4.316   4.131   6.057
 7494TIP3    H122425   4.336   4.045   6.095
 7494TIP3    H222426   4.276   4.180   6.128
 7495TIP3   OH222427   4.694   6.407   4.211
 7495TIP3    H122428   4.635   6.380   4.141
 7495TIP3    H222429   4.690   6.336   4.275
 7496TIP3   OH222430   2.938   0.280   3.199
 7496TIP3    H122431   2.845   0.294   3.216
 7496TIP3    H222432   2.952   0.188   3.221
 7497TIP3   OH222433   3.066   3.084   1.819
 7497TIP3    H122434   3.066   3.017   1.886
 7497TIP3    H222435   3.134   3.057   1.757
 7498TIP3   OH222436   0.325   3.443   5.728
 7498TIP3    H122437   0.302   3.356   5.695
 7498TIP3    H222438   0.286   3.504   5.666
 7499TIP3   OH222439   7.487   4.989   5.034
 7499TIP3    H122440   7.511   4.916   4.977
 7499TIP3    H222441   7.513   5.067   4.985
 7500TIP3   OH222442   5.597   7.016   6.470
 7500TIP3    H122443   5.607   7.056   6.557
 7500TIP3    H222444   5.687   6.997   6.442
 7501TIP3   OH222445   0.246   0.936   0.398
 7501TIP3    H122446   0.326   0.903   0.440
 7501TIP3    H222447   0.275   0.966   0.312
 7502TIP3   OH222448   6.753   2.562   4.194
 7502TIP3    H122449   6.794   2.500   4.135
 7502TIP3    H222450   6.825   2.601   4.243
 7503TIP3   OH222451   6.692   3.334   3.457
 7503TIP3    H122452   6.642   3.389   3.517
 7503TIP3    H222453   6.671   3.245   3.482
 7504TIP3   OH222454   2.342   0.711   4.345
 7504TIP3    H122455   2.268   0.772   4.343
 7504TIP3    H222456   2.420   0.767   4.347
 7505TIP3   OH222457   0.529   4.033   3.280
 7505TIP3    H122458   0.578   3.998   3.206
 7505TIP3    H222459   0.575   3.999   3.357
 7506TIP3   OH222460   0.326   1.117   2.276
 7506TIP3    H122461   0.330   1.204   2.314
 7506TIP3    H222462   0.279   1.064   2.340
 7507TIP3   OH222463   1.123   4.254   3.662
 7507TIP3    H122464   1.066   4.327   3.685
 7507TIP3    H222465   1.147   4.271   3.571
 7508TIP3   OH222466   7.914   6.253   5.868
 7508TIP3    H122467   7.965   6.255   5.786
 7508TIP3    H222468   7.823   6.260   5.839
 7509TIP3   OH222469   0.593   3.104   4.883
 7509TIP3    H122470   0.645   3.049   4.824
 7509TIP3    H222471   0.506   3.104   4.844
 7510TIP3   OH222472   1.583   2.144   6.706
 7510TIP3    H122473   1.609   2.080   6.640
 7510TIP3    H222474   1.655   2.144   6.769
 7511TIP3   OH222475   1.787   3.251   0.638
 7511TIP3    H122476   1.717   3.226   0.698
 7511TIP3    H222477   1.861   3.275   0.694
 7512TIP3   OH222478   6.532   1.533   3.327
 7512TIP3    H122479   6.584   1.608   3.298
 7512TIP3    H222480   6.595   1.461   3.335
 7513TIP3   OH222481   5.839   6.720   4.268
 7513TIP3    H122482   5.875   6.711   4.356
 7513TIP3    H222483   5.780   6.645   4.258
 7514TIP3   OH222484   4.958   6.105   0.222
 7514TIP3    H122485   4.894   6.038   0.197
 7514TIP3    H222486   4.975   6.153   0.142
 7515TIP3   OH222487   3.684   3.937   0.309
 7515TIP3    H122488   3.726   3.855   0.332
 7515TIP3    H222489   3.750   4.004   0.328
 7516TIP3   OH222490   7.560   3.494   0.470
 7516TIP3    H122491   7.543   3.517   0.561
 7516TIP3    H222492   7.646   3.532   0.451
 7517TIP3   OH222493   4.584   6.836   0.856
 7517TIP3    H122494   4.507   6.792   0.820
 7517TIP3    H222495   4.550   6.911   0.904
 7518TIP3   OH222496   7.613   4.836   3.223
 7518TIP3    H122497   7.534   4.871   3.265
 7518TIP3    H222498   7.620   4.747   3.256
 7519TIP3   OH222499   5.076   3.139   5.034
 7519TIP3    H122500   5.054   3.189   4.955
 7519TIP3    H222501   5.000   3.151   5.091
 7520TIP3   OH222502   0.332   5.155   2.527
 7520TIP3    H122503   0.354   5.156   2.620
 7520TIP3    H222504   0.264   5.088   2.519
 7521TIP3   OH222505   2.027   1.758   0.649
 7521TIP3    H122506   2.049   1.705   0.725
 7521TIP3    H222507   1.970   1.703   0.596
 7522TIP3   OH222508   3.528   6.865   3.856
 7522TIP3    H122509   3.434   6.851   3.842
 7522TIP3    H222510   3.540   6.960   3.848
 7523TIP3   OH222511   4.430   5.857   3.007
 7523TIP3    H122512   4.488   5.929   2.985
 7523TIP3    H222513   4.466   5.782   2.959
 7524TIP3   OH222514   7.823   6.975   6.392
 7524TIP3    H122515   7.846   6.882   6.388
 7524TIP3    H222516   7.728   6.976   6.382
 7525TIP3   OH222517   5.492   2.619   1.578
 7525TIP3    H122518   5.503   2.714   1.584
 7525TIP3    H222519   5.504   2.600   1.485
 7526TIP3   OH222520   1.336   4.535   2.151
 7526TIP3    H122521   1.395   4.557   2.080
 7526TIP3    H222522   1.342   4.609   2.212
 7527TIP3   OH222523   3.002   4.040   4.788
 7527TIP3    H122524   3.004   3.979   4.861
 7527TIP3    H222525   3.024   3.987   4.711
 7528TIP3   OH222526   1.015   1.537   5.522
 7528TIP3    H122527   0.981   1.613   5.475
 7528TIP3    H222528   1.108   1.555   5.532
 7529TIP3   OH222529   1.371   0.307   4.879
 7529TIP3    H122530   1.401   0.242   4.942
 7529TIP3    H222531   1.378   0.391   4.925
 7530TIP3   OH222532   7.784   0.792   5.310
 7530TIP3    H122533   7.828   0.868   5.273
 7530TIP3    H222534   7.836   0.717   5.279
 7531TIP3   OH222535   2.684   0.054   5.818
 7531TIP3    H122536   2.719   0.138   5.790
 7531TIP3    H222537   2.607   0.041   5.763
 7532TIP3   OH222538   5.182   6.450   5.234
 7532TIP3    H122539   5.156   6.540   5.215
 7532TIP3    H222540   5.233   6.423   5.157
 7533TIP3   OH222541   5.053   2.969   2.238
 7533TIP3    H122542   4.973   2.985   2.288
 7533TIP3    H222543   5.044   2.878   2.208
 7534TIP3   OH222544   7.957   7.245   4.559
 7534TIP3    H122545   7.981   7.153   4.563
 7534TIP3    H222546   8.017   7.288   4.620
 7535TIP3   OH222547   2.298   4.649   5.839
 7535TIP3    H122548   2.209   4.616   5.854
 7535TIP3    H222549   2.301   4.732   5.886
 7536TIP3   OH222550   6.100   2.235   5.938
 7536TIP3    H122551   6.159   2.299   5.978
 7536TIP3    H222552   6.055   2.284   5.869
 7537TIP3   OH222553   4.779   7.818   1.724
 7537TIP3    H122554   4.716   7.864   1.669
 7537TIP3    H222555   4.727   7.753   1.771
 7538TIP3   OH222556   3.795   0.350   0.875
 7538TIP3    H122557   3.744   0.360   0.955
 7538TIP3    H222558   3.745   0.288   0.822
 7539TIP3   OH222559   5.154   4.821   3.846
 7539TIP3    H122560   5.237   4.850   3.810
 7539TIP3    H222561   5.093   4.892   3.826
 7540TIP3   OH222562   1.614   6.831   6.286
 7540TIP3    H122563   1.564   6.837   6.205
 7540TIP3    H222564   1.665   6.912   6.289
 7541TIP3   OH222565   0.659   0.347   6.211
 7541TIP3    H122566   0.640   0.255   6.230
 7541TIP3    H222567   0.575   0.384   6.185
 7542TIP3   OH222568   5.367   2.407   3.377
 7542TIP3    H122569   5.424   2.484   3.379
 7542TIP3    H222570   5.282   2.441   3.350
 7543TIP3   OH222571   6.763   4.036   1.740
 7543TIP3    H122572   6.703   4.032   1.816
 7543TIP3    H222573   6.717   3.987   1.672
 7544TIP3   OH222574   0.828   5.140   4.094
 7544TIP3    H122575   0.818   5.137   4.189
 7544TIP3    H222576   0.875   5.059   4.072
 7545TIP3   OH222577   1.801   5.459   4.004
 7545TIP3    H122578   1.769   5.512   4.077
 7545TIP3    H222579   1.892   5.439   4.027
 7546TIP3   OH222580   1.591   3.090   2.110
 7546TIP3    H122581   1.499   3.106   2.134
 7546TIP3    H222582   1.617   3.016   2.164
 7547TIP3   OH222583   5.202   6.454   6.469
 7547TIP3    H122584   5.219   6.542   6.503
 7547TIP3    H222585   5.131   6.466   6.406
 7548TIP3   OH222586   2.071   2.161   1.543
 7548TIP3    H122587   2.011   2.097   1.506
 7548TIP3    H222588   2.124   2.111   1.606
 7549TIP3   OH222589   5.091   2.773   2.720
 7549TIP3    H122590   5.087   2.770   2.624
 7549TIP3    H222591   5.101   2.866   2.740
 7550TIP3   OH222592   7.652   7.443   6.093
 7550TIP3    H122593   7.724   7.404   6.143
 7550TIP3    H222594   7.610   7.368   6.051
 7551TIP3   OH222595   0.846   4.261   0.700
 7551TIP3    H122596   0.784   4.234   0.633
 7551TIP3    H222597   0.909   4.189   0.706
 7552TIP3   OH222598   2.302   3.200   1.690
 7552TIP3    H122599   2.338   3.266   1.748
 7552TIP3    H222600   2.242   3.248   1.633
 7553TIP3   OH222601   0.764   1.542   6.116
 7553TIP3    H122602   0.714   1.585   6.185
 7553TIP3    H222603   0.786   1.612   6.054
 7554TIP3   OH222604   3.297   4.021   3.655
 7554TIP3    H122605   3.355   4.012   3.731
 7554TIP3    H222606   3.218   4.061   3.691
 7555TIP3   OH222607   2.209   5.090   1.975
 7555TIP3    H122608   2.304   5.087   1.975
 7555TIP3    H222609   2.186   5.136   1.895
 7556TIP3   OH222610   2.078   4.018   3.518
 7556TIP3    H122611   2.160   4.068   3.524
 7556TIP3    H222612   2.021   4.058   3.583
 7557TIP3   OH222613   1.595   2.410   6.480
 7557TIP3    H122614   1.588   2.495   6.523
 7557TIP3    H222615   1.615   2.348   6.551
 7558TIP3   OH222616   4.727   6.794   3.642
 7558TIP3    H122617   4.757   6.723   3.586
 7558TIP3    H222618   4.636   6.808   3.616
 7559TIP3   OH222619   0.118   2.046   6.769
 7559TIP3    H122620   0.123   1.964   6.817
 7559TIP3    H222621   0.045   2.034   6.708
 7560TIP3   OH222622   4.472   4.791   3.128
 7560TIP3    H122623   4.436   4.770   3.041
 7560TIP3    H222624   4.401   4.768   3.189
 7561TIP3   OH222625   5.102   5.140   3.564
 7561TIP3    H122626   5.135   5.215   3.515
 7561TIP3    H222627   5.153   5.066   3.532
 7562TIP3   OH222628   5.837   7.206   4.871
 7562TIP3    H122629   5.866   7.278   4.815
 7562TIP3    H222630   5.889   7.216   4.951
 7563TIP3   OH222631   2.433   7.193   4.465
 7563TIP3    H122632   2.485   7.129   4.418
 7563TIP3    H222633   2.466   7.189   4.555
 7564TIP3   OH222634   1.556   0.445   6.062
 7564TIP3    H122635   1.587   0.535   6.071
 7564TIP3    H222636   1.601   0.397   6.132
 7565TIP3   OH222637   0.285   0.553   4.032
 7565TIP3    H122638   0.254   0.548   3.941
 7565TIP3    H222639   0.326   0.467   4.047
 7566TIP3   OH222640   0.745   1.605   3.686
 7566TIP3    H122641   0.790   1.527   3.720
 7566TIP3    H222642   0.653   1.579   3.681
 7567TIP3   OH222643   5.507   5.378   2.809
 7567TIP3    H122644   5.448   5.422   2.747
 7567TIP3    H222645   5.497   5.427   2.890
 7568TIP3   OH222646   7.871   0.063   0.477
 7568TIP3    H122647   7.914  -0.015   0.444
 7568TIP3    H222648   7.847   0.042   0.567
 7569TIP3   OH222649   2.614   4.122   2.604
 7569TIP3    H122650   2.532   4.092   2.565
 7569TIP3    H222651   2.642   4.195   2.548
 7570TIP3   OH222652   0.274   5.700   6.751
 7570TIP3    H122653   0.327   5.774   6.722
 7570TIP3    H222654   0.213   5.686   6.679
 7571TIP3   OH222655   0.768   7.197   4.657
 7571TIP3    H122656   0.708   7.235   4.721
 7571TIP3    H222657   0.850   7.246   4.669
 7572TIP3   OH222658   4.521   0.872   4.485
 7572TIP3    H122659   4.565   0.942   4.532
 7572TIP3    H222660   4.497   0.808   4.553
 7573TIP3   OH222661   0.455   7.392   2.968
 7573TIP3    H122662   0.424   7.308   3.003
 7573TIP3    H222663   0.376   7.433   2.932
 7574TIP3   OH222664   2.662   1.223   2.922
 7574TIP3    H122665   2.708   1.140   2.917
 7574TIP3    H222666   2.731   1.288   2.939
 7575TIP3   OH222667   4.408   7.310   4.788
 7575TIP3    H122668   4.477   7.273   4.843
 7575TIP3    H222669   4.399   7.247   4.716
 7576TIP3   OH222670   7.415   2.516   1.881
 7576TIP3    H122671   7.466   2.485   1.807
 7576TIP3    H222672   7.421   2.611   1.877
 7577TIP3   OH222673   0.620   3.552   2.792
 7577TIP3    H122674   0.686   3.490   2.823
 7577TIP3    H222675   0.579   3.585   2.872
 7578TIP3   OH222676   2.281   0.383   0.914
 7578TIP3    H122677   2.242   0.307   0.956
 7578TIP3    H222678   2.350   0.411   0.974
 7579TIP3   OH222679   3.789   2.870   0.578
 7579TIP3    H122680   3.823   2.874   0.489
 7579TIP3    H222681   3.859   2.829   0.628
 7580TIP3   OH222682   4.808   6.232   1.774
 7580TIP3    H122683   4.716   6.252   1.756
 7580TIP3    H222684   4.846   6.316   1.801
 7581TIP3   OH222685   3.853   1.243   3.797
 7581TIP3    H122686   3.778   1.291   3.832
 7581TIP3    H222687   3.859   1.164   3.851
 7582TIP3   OH222688   3.132   1.712   5.089
 7582TIP3    H122689   3.163   1.621   5.083
 7582TIP3    H222690   3.103   1.722   5.179
 7583TIP3   OH222691   6.688   5.113   1.048
 7583TIP3    H122692   6.734   5.039   1.088
 7583TIP3    H222693   6.614   5.073   1.002
 7584TIP3   OH222694   2.733   2.118   1.984
 7584TIP3    H122695   2.780   2.078   1.910
 7584TIP3    H222696   2.801   2.163   2.034
 7585TIP3   OH222697   7.369   0.077   2.402
 7585TIP3    H122698   7.342  -0.009   2.368
 7585TIP3    H222699   7.421   0.115   2.332
 7586TIP3   OH222700   5.478   1.917   1.266
 7586TIP3    H122701   5.544   1.859   1.228
 7586TIP3    H222702   5.455   1.876   1.349
 7587TIP3   OH222703   3.520   2.080   0.261
 7587TIP3    H122704   3.614   2.068   0.268
 7587TIP3    H222705   3.501   2.157   0.314
 7588TIP3   OH222706   6.169   6.189   2.045
 7588TIP3    H122707   6.161   6.234   1.961
 7588TIP3    H222708   6.260   6.203   2.071
 7589TIP3   OH222709   3.212   6.648   5.988
 7589TIP3    H122710   3.299   6.668   6.024
 7589TIP3    H222711   3.212   6.692   5.903
 7590TIP3   OH222712   6.294   3.976   5.484
 7590TIP3    H122713   6.311   3.978   5.389
 7590TIP3    H222714   6.243   3.896   5.497
 7591TIP3   OH222715   1.000   4.111   1.161
 7591TIP3    H122716   0.910   4.094   1.132
 7591TIP3    H222717   0.989   4.170   1.236
 7592TIP3   OH222718   7.008   4.320   1.951
 7592TIP3    H122719   7.055   4.321   2.034
 7592TIP3    H222720   7.078   4.319   1.885
 7593TIP3   OH222721   3.294   0.918   1.842
 7593TIP3    H122722   3.235   0.873   1.781
 7593TIP3    H222723   3.285   0.869   1.924
 7594TIP3   OH222724   5.656   2.763   0.630
 7594TIP3    H122725   5.604   2.839   0.602
 7594TIP3    H222726   5.746   2.793   0.622
 7595TIP3   OH222727   2.363   2.266   2.731
 7595TIP3    H122728   2.396   2.302   2.813
 7595TIP3    H222729   2.434   2.280   2.669
 7596TIP3   OH222730   5.774   7.783   2.671
 7596TIP3    H122731   5.708   7.796   2.602
 7596TIP3    H222732   5.777   7.689   2.684
 7597TIP3   OH222733   4.848   2.727   4.756
 7597TIP3    H122734   4.819   2.654   4.812
 7597TIP3    H222735   4.770   2.782   4.746
 7598TIP3   OH222736   6.679   0.850   1.062
 7598TIP3    H122737   6.665   0.899   0.981
 7598TIP3    H222738   6.771   0.867   1.084
 7599TIP3   OH222739   5.549   0.666   0.249
 7599TIP3    H122740   5.576   0.756   0.233
 7599TIP3    H222741   5.524   0.633   0.162
 7600TIP3   OH222742   2.760   0.586   2.717
 7600TIP3    H122743   2.722   0.665   2.678
 7600TIP3    H222744   2.708   0.514   2.682
 7601TIP3   OH222745   1.953   1.381   0.340
 7601TIP3    H122746   2.019   1.413   0.278
 7601TIP3    H222747   1.971   1.287   0.348
 7602TIP3   OH222748   4.455   0.571   1.684
 7602TIP3    H122749   4.525   0.610   1.632
 7602TIP3    H222750   4.395   0.644   1.703
 7603TIP3   OH222751   2.933   7.308   5.662
 7603TIP3    H122752   2.987   7.230   5.653
 7603TIP3    H222753   2.876   7.289   5.737
 7604TIP3   OH222754   5.460   1.013   4.682
 7604TIP3    H122755   5.514   0.991   4.606
 7604TIP3    H222756   5.499   1.092   4.718
 7605TIP3   OH222757   5.387   7.256   5.741
 7605TIP3    H122758   5.361   7.198   5.812
 7605TIP3    H222759   5.481   7.244   5.733
 7606TIP3   OH222760   1.874   3.029   0.026
 7606TIP3    H122761   1.915   3.108   0.060
 7606TIP3    H222762   1.867   2.971   0.101
 7607TIP3   OH222763   4.531   0.592   2.018
 7607TIP3    H122764   4.551   0.676   1.977
 7607TIP3    H222765   4.464   0.553   1.962
 7608TIP3   OH222766   5.599   1.623   0.338
 7608TIP3    H122767   5.681   1.651   0.297
 7608TIP3    H222768   5.596   1.529   0.324
 7609TIP3   OH222769   1.762   3.834   1.445
 7609TIP3    H122770   1.727   3.861   1.530
 7609TIP3    H222771   1.769   3.915   1.395
 7610TIP3   OH222772   3.154   7.121   5.427
 7610TIP3    H122773   3.236   7.169   5.431
 7610TIP3    H222774   3.156   7.078   5.341
 7611TIP3   OH222775   0.842   6.763   4.319
 7611TIP3    H122776   0.800   6.724   4.395
 7611TIP3    H222777   0.923   6.802   4.353
 7612TIP3   OH222778   3.233   4.271   0.689
 7612TIP3    H122779   3.283   4.272   0.608
 7612TIP3    H222780   3.260   4.351   0.735
 7613TIP3   OH222781   6.896   3.496   3.724
 7613TIP3    H122782   6.912   3.454   3.640
 7613TIP3    H222783   6.961   3.566   3.729
 7614TIP3   OH222784   3.213   4.197   1.690
 7614TIP3    H122785   3.241   4.114   1.730
 7614TIP3    H222786   3.275   4.262   1.724
 7615TIP3   OH222787   4.748   5.513   0.949
 7615TIP3    H122788   4.813   5.473   0.892
 7615TIP3    H222789   4.688   5.442   0.971
 7616TIP3   OH222790   8.156   5.923   5.175
 7616TIP3    H122791   8.157   5.956   5.086
 7616TIP3    H222792   8.247   5.925   5.203
 7617TIP3   OH222793   0.263   0.953   2.074
 7617TIP3    H122794   0.208   1.026   2.044
 7617TIP3    H222795   0.318   0.991   2.142
 7618TIP3   OH222796   6.465   7.054   6.331
 7618TIP3    H122797   6.537   7.042   6.268
 7618TIP3    H222798   6.397   6.995   6.301
 7619TIP3   OH222799   6.105   7.338   3.672
 7619TIP3    H122800   6.099   7.244   3.653
 7619TIP3    H222801   6.199   7.354   3.680
 7620TIP3   OH222802   5.263   5.991   0.437
 7620TIP3    H122803   5.179   5.946   0.430
 7620TIP3    H222804   5.328   5.921   0.432
 7621TIP3   OH222805   1.682   6.887   5.843
 7621TIP3    H122806   1.718   6.835   5.771
 7621TIP3    H222807   1.642   6.962   5.799
 7622TIP3   OH222808   4.130   0.289   2.799
 7622TIP3    H122809   4.087   0.212   2.837
 7622TIP3    H222810   4.166   0.335   2.875
 7623TIP3   OH222811   7.683   5.094   5.793
 7623TIP3    H122812   7.650   5.150   5.863
 7623TIP3    H222813   7.776   5.081   5.814
 7624TIP3   OH222814   2.233   1.490   2.283
 7624TIP3    H122815   2.258   1.430   2.353
 7624TIP3    H222816   2.294   1.470   2.211
 7625TIP3   OH222817   3.819   1.124   0.695
 7625TIP3    H122818   3.798   1.124   0.602
 7625TIP3    H222819   3.736   1.101   0.738
 7626TIP3   OH222820   3.911   4.661   4.177
 7626TIP3    H122821   3.914   4.739   4.234
 7626TIP3    H222822   3.825   4.622   4.195
 7627TIP3   OH222823   1.523   1.843   0.034
 7627TIP3    H122824   1.471   1.923   0.036
 7627TIP3    H222825   1.541   1.825   0.126
 7628TIP3   OH222826   3.952   5.066   0.294
 7628TIP3    H122827   3.961   5.002   0.364
 7628TIP3    H222828   3.965   5.015   0.213
 7629TIP3   OH222829   3.005   5.997   0.713
 7629TIP3    H122830   2.955   5.923   0.748
 7629TIP3    H222831   3.025   6.050   0.790
 7630TIP3   OH222832   1.430   2.381   1.723
 7630TIP3    H122833   1.477   2.298   1.726
 7630TIP3    H222834   1.488   2.442   1.769
 7631TIP3   OH222835   1.853   6.591   6.064
 7631TIP3    H122836   1.758   6.602   6.059
 7631TIP3    H222837   1.882   6.665   6.117
 7632TIP3   OH222838   3.588   1.521   6.003
 7632TIP3    H122839   3.627   1.452   6.057
 7632TIP3    H222840   3.662   1.571   5.970
 7633TIP3   OH222841   2.703   2.956   0.054
 7633TIP3    H122842   2.791   2.989   0.071
 7633TIP3    H222843   2.681   2.987  -0.033
 7634TIP3   OH222844   7.790   5.520   4.914
 7634TIP3    H122845   7.762   5.572   4.989
 7634TIP3    H222846   7.864   5.469   4.947
 7635TIP3   OH222847   5.338   7.571   6.630
 7635TIP3    H122848   5.430   7.566   6.603
 7635TIP3    H222849   5.315   7.663   6.617
 7636TIP3   OH222850   5.964   7.723   5.471
 7636TIP3    H122851   6.013   7.649   5.507
 7636TIP3    H222852   6.016   7.799   5.494
 7637TIP3   OH222853   0.125   4.143   0.577
 7637TIP3    H122854   0.168   4.217   0.619
 7637TIP3    H222855   0.033   4.152   0.601
 7638TIP3   OH222856   3.017   0.190   4.762
 7638TIP3    H122857   3.034   0.282   4.740
 7638TIP3    H222858   2.935   0.170   4.716
 7639TIP3   OH222859   3.438   2.876   2.458
 7639TIP3    H122860   3.427   2.827   2.377
 7639TIP3    H222861   3.434   2.809   2.527
 7640TIP3   OH222862   3.188   0.974   1.168
 7640TIP3    H122863   3.191   1.064   1.199
 7640TIP3    H222864   3.272   0.962   1.122
 7641TIP3   OH222865   7.954   6.129   0.455
 7641TIP3    H122866   8.025   6.107   0.395
 7641TIP3    H222867   7.908   6.200   0.412
 7642TIP3   OH222868   4.988   5.163   5.500
 7642TIP3    H122869   4.960   5.110   5.425
 7642TIP3    H222870   4.931   5.240   5.498
 7643TIP3   OH222871   1.941   6.160   5.800
 7643TIP3    H122872   1.942   6.235   5.741
 7643TIP3    H222873   1.929   6.197   5.887
 7644TIP3   OH222874   2.010   2.856   4.141
 7644TIP3    H122875   2.102   2.859   4.168
 7644TIP3    H222876   2.005   2.911   4.064
 7645TIP3   OH222877   1.297   1.341   4.215
 7645TIP3    H122878   1.270   1.340   4.123
 7645TIP3    H222879   1.384   1.381   4.214
 7646TIP3   OH222880   3.666   6.875   5.322
 7646TIP3    H122881   3.625   6.789   5.332
 7646TIP3    H222882   3.675   6.887   5.228
 7647TIP3   OH222883   0.775   4.607   2.346
 7647TIP3    H122884   0.771   4.699   2.320
 7647TIP3    H222885   0.779   4.559   2.264
 7648TIP3   OH222886   5.749   4.787   0.590
 7648TIP3    H122887   5.678   4.771   0.527
 7648TIP3    H222888   5.706   4.788   0.675
 7649TIP3   OH222889   6.750   5.442   3.500
 7649TIP3    H122890   6.722   5.517   3.552
 7649TIP3    H222891   6.694   5.446   3.422
 7650TIP3   OH222892   0.012   7.221   0.448
 7650TIP3    H122893   0.082   7.227   0.513
 7650TIP3    H222894   0.056   7.232   0.364
 7651TIP3   OH222895   0.967   5.950   5.884
 7651TIP3    H122896   1.002   5.873   5.839
 7651TIP3    H222897   0.879   5.961   5.847
 7652TIP3   OH222898   4.422   2.372   4.247
 7652TIP3    H122899   4.437   2.340   4.336
 7652TIP3    H222900   4.506   2.409   4.221
 7653TIP3   OH222901   0.948   4.576   4.063
 7653TIP3    H122902   0.981   4.488   4.047
 7653TIP3    H222903   1.027   4.630   4.071
 7654TIP3   OH222904   8.031   5.425   5.022
 7654TIP3    H122905   8.056   5.489   5.089
 7654TIP3    H222906   8.098   5.435   4.954
 7655TIP3   OH222907   1.558   1.736   0.757
 7655TIP3    H122908   1.505   1.669   0.800
 7655TIP3    H222909   1.509   1.758   0.678
 7656TIP3   OH222910   3.706   7.218   6.758
 7656TIP3    H122911   3.635   7.272   6.793
 7656TIP3    H222912   3.667   7.175   6.682
 7657TIP3   OH222913   1.670   5.020   3.326
 7657TIP3    H122914   1.718   5.070   3.392
 7657TIP3    H222915   1.654   5.082   3.255
 7658TIP3   OH222916   2.175   5.048   3.267
 7658TIP3    H122917   2.158   4.962   3.227
 7658TIP3    H222918   2.093   5.095   3.258
 7659TIP3   OH222919   6.883   1.759   4.261
 7659TIP3    H122920   6.810   1.820   4.261
 7659TIP3    H222921   6.886   1.724   4.172
 7660TIP3   OH222922   5.765   1.405   2.909
 7660TIP3    H122923   5.805   1.492   2.918
 7660TIP3    H222924   5.694   1.405   2.973
 7661TIP3   OH222925   6.637   0.230   3.386
 7661TIP3    H122926   6.656   0.206   3.477
 7661TIP3    H222927   6.678   0.315   3.374
 7662TIP3   OH222928   2.690   1.121   4.320
 7662TIP3    H122929   2.762   1.143   4.261
 7662TIP3    H222930   2.733   1.107   4.405
 7663TIP3   OH222931   5.822   7.158   3.536
 7663TIP3    H122932   5.860   7.135   3.620
 7663TIP3    H222933   5.729   7.174   3.555
 7664TIP3   OH222934   7.443   6.216   1.922
 7664TIP3    H122935   7.432   6.121   1.917
 7664TIP3    H222936   7.491   6.230   2.004
 7665TIP3   OH222937   0.240   5.035   5.748
 7665TIP3    H122938   0.161   5.007   5.794
 7665TIP3    H222939   0.248   4.975   5.674
 7666TIP3   OH222940   5.630   0.013   6.707
 7666TIP3    H122941   5.564  -0.041   6.664
 7666TIP3    H222942   5.628   0.096   6.659
 7667TIP3   OH222943   3.841   1.950   3.995
 7667TIP3    H122944   3.913   1.936   3.932
 7667TIP3    H222945   3.873   2.018   4.053
 7668TIP3   OH222946   6.802   1.058   4.821
 7668TIP3    H122947   6.727   1.087   4.770
 7668TIP3    H222948   6.867   1.127   4.809
 7669TIP3   OH222949   7.069   2.478   2.870
 7669TIP3    H122950   7.037   2.464   2.781
 7669TIP3    H222951   7.093   2.570   2.873
 7670TIP3   OH222952   6.473   3.334   6.187
 7670TIP3    H122953   6.473   3.310   6.095
 7670TIP3    H222954   6.456   3.252   6.234
 7671TIP3   OH222955   5.535   5.773   0.991
 7671TIP3    H122956   5.497   5.841   0.935
 7671TIP3    H222957   5.459   5.727   1.028
 7672TIP3   OH222958   5.408   6.343   2.625
 7672TIP3    H122959   5.491   6.389   2.641
 7672TIP3    H222960   5.341   6.409   2.639
 7673TIP3   OH222961   7.983   5.649   1.122
 7673TIP3    H122962   7.965   5.724   1.066
 7673TIP3    H222963   8.067   5.668   1.164
 7674TIP3   OH222964   3.027   5.761   1.072
 7674TIP3    H122965   3.058   5.711   0.997
 7674TIP3    H222966   3.014   5.850   1.038
 7675TIP3   OH222967   3.860   1.366   5.839
 7675TIP3    H122968   3.835   1.316   5.916
 7675TIP3    H222969   3.872   1.455   5.871
 7676TIP3   OH222970   6.663   6.276   2.651
 7676TIP3    H122971   6.581   6.310   2.616
 7676TIP3    H222972   6.642   6.246   2.739
 7677TIP3   OH222973   5.755   6.806   0.645
 7677TIP3    H122974   5.799   6.767   0.721
 7677TIP3    H222975   5.815   6.875   0.615
 7678TIP3   OH222976   8.183   1.771   4.174
 7678TIP3    H122977   8.248   1.841   4.182
 7678TIP3    H222978   8.176   1.734   4.262
 7679TIP3   OH222979   3.956   1.635   3.923
 7679TIP3    H122980   3.984   1.724   3.900
 7679TIP3    H222981   3.928   1.642   4.014
 7680TIP3   OH222982   7.164   2.859   1.558
 7680TIP3    H122983   7.071   2.863   1.579
 7680TIP3    H222984   7.183   2.765   1.553
 7681TIP3   OH222985   6.572   2.098   2.116
 7681TIP3    H122986   6.621   2.021   2.145
 7681TIP3    H222987   6.565   2.089   2.021
 7682TIP3   OH222988   1.764   6.366   6.640
 7682TIP3    H122989   1.842   6.311   6.635
 7682TIP3    H222990   1.741   6.385   6.549
 7683TIP3   OH222991   7.152   5.762   1.693
 7683TIP3    H122992   7.082   5.776   1.757
 7683TIP3    H222993   7.106   5.733   1.614
 7684TIP3   OH222994   1.272   4.661   3.310
 7684TIP3    H122995   1.322   4.629   3.235
 7684TIP3    H222996   1.309   4.615   3.385
 7685TIP3   OH222997   4.217   3.600   4.312
 7685TIP3    H122998   4.275   3.673   4.335
 7685TIP3    H222999   4.276   3.529   4.289
 7686TIP3   OH223000   1.399   3.746   0.559
 7686TIP3    H123001   1.356   3.673   0.515
 7686TIP3    H223002   1.337   3.818   0.552
 7687TIP3   OH223003   7.054   1.234   2.205
 7687TIP3    H123004   6.966   1.248   2.238
 7687TIP3    H223005   7.108   1.298   2.250
 7688TIP3   OH223006   1.379   3.561   6.387
 7688TIP3    H123007   1.371   3.484   6.443
 7688TIP3    H223008   1.466   3.596   6.407
 7689TIP3   OH223009   4.410   5.585   0.097
 7689TIP3    H123010   4.444   5.672   0.117
 7689TIP3    H223011   4.410   5.538   0.180
 7690TIP3   OH223012   3.708   6.499   0.126
 7690TIP3    H123013   3.639   6.548   0.170
 7690TIP3    H223014   3.737   6.557   0.055
 7691TIP3   OH223015   2.455   6.720   0.856
 7691TIP3    H123016   2.439   6.629   0.832
 7691TIP3    H223017   2.368   6.760   0.855
 7692TIP3   OH223018   3.673   4.902   4.041
 7692TIP3    H123019   3.653   4.985   4.084
 7692TIP3    H223020   3.593   4.880   3.994
 7693TIP3   OH223021   5.580   2.908   2.515
 7693TIP3    H123022   5.520   2.981   2.534
 7693TIP3    H223023   5.661   2.931   2.560
 7694TIP3   OH223024   2.937   4.765   3.320
 7694TIP3    H123025   2.852   4.761   3.277
 7694TIP3    H223026   2.937   4.690   3.379
 7695TIP3   OH223027   0.123   7.747   4.663
 7695TIP3    H123028   0.128   7.745   4.567
 7695TIP3    H223029   0.214   7.743   4.692
 7696TIP3   OH223030   6.943   0.180   2.697
 7696TIP3    H123031   7.004   0.181   2.770
 7696TIP3    H223032   6.970   0.106   2.643
 7697TIP3   OH223033   2.396   4.386   1.435
 7697TIP3    H123034   2.354   4.407   1.351
 7697TIP3    H223035   2.488   4.407   1.421
 7698TIP3   OH223036   2.371   5.393   3.905
 7698TIP3    H123037   2.350   5.447   3.982
 7698TIP3    H223038   2.347   5.304   3.931
 7699TIP3   OH223039   2.121   5.104   2.922
 7699TIP3    H123040   2.154   5.018   2.894
 7699TIP3    H223041   2.188   5.166   2.894
 7700TIP3   OH223042   0.458   4.150   1.936
 7700TIP3    H123043   0.412   4.216   1.988
 7700TIP3    H223044   0.435   4.171   1.846
 7701TIP3   OH223045   1.680   7.329   5.881
 7701TIP3    H123046   1.776   7.331   5.880
 7701TIP3    H223047   1.657   7.334   5.973
 7702TIP3   OH223048   3.432   6.917   0.726
 7702TIP3    H123049   3.342   6.896   0.701
 7702TIP3    H223050   3.481   6.914   0.643
 7703TIP3   OH223051   8.153   2.738   2.509
 7703TIP3    H123052   8.118   2.737   2.598
 7703TIP3    H223053   8.232   2.791   2.515
 7704TIP3   OH223054   1.992   3.369   2.486
 7704TIP3    H123055   2.077   3.326   2.474
 7704TIP3    H223056   2.008   3.460   2.463
 7705TIP3   OH223057   2.684   4.346   0.916
 7705TIP3    H123058   2.593   4.322   0.930
 7705TIP3    H223059   2.734   4.270   0.949
 7706TIP3   OH223060   7.740   7.164   0.209
 7706TIP3    H123061   7.769   7.102   0.141
 7706TIP3    H223062   7.656   7.196   0.177
 7707TIP3   OH223063   1.646   2.068   0.645
 7707TIP3    H123064   1.741   2.066   0.641
 7707TIP3    H223065   1.618   1.980   0.618
 7708TIP3   OH223066   0.769   7.211   0.522
 7708TIP3    H123067   0.848   7.165   0.494
 7708TIP3    H223068   0.799   7.272   0.589
 7709TIP3   OH223069   6.948   0.819   6.550
 7709TIP3    H123070   6.923   0.745   6.605
 7709TIP3    H223071   7.034   0.845   6.583
 7710TIP3   OH223072   0.954   7.581   4.662
 7710TIP3    H123073   0.955   7.495   4.619
 7710TIP3    H223074   0.951   7.561   4.755
 7711TIP3   OH223075   5.040   7.749   0.734
 7711TIP3    H123076   5.063   7.671   0.683
 7711TIP3    H223077   5.068   7.729   0.823
 7712TIP3   OH223078   4.450   1.326   1.125
 7712TIP3    H123079   4.489   1.240   1.137
 7712TIP3    H223080   4.518   1.378   1.083
 7713TIP3   OH223081   7.813   1.049   6.517
 7713TIP3    H123082   7.756   1.061   6.593
 7713TIP3    H223083   7.836   0.957   6.519
 7714TIP3   OH223084   5.817   0.245   3.109
 7714TIP3    H123085   5.858   0.159   3.114
 7714TIP3    H223086   5.801   0.259   3.016
 7715TIP3   OH223087   2.120   2.387   3.110
 7715TIP3    H123088   2.182   2.446   3.152
 7715TIP3    H223089   2.034   2.420   3.135
 7716TIP3   OH223090   3.906   0.044   5.758
 7716TIP3    H123091   3.821   0.082   5.737
 7716TIP3    H223092   3.956   0.116   5.795
 7717TIP3   OH223093   4.392   5.644   0.974
 7717TIP3    H123094   4.359   5.557   0.950
 7717TIP3    H223095   4.331   5.705   0.934
 7718TIP3   OH223096   5.447   6.831   3.839
 7718TIP3    H123097   5.492   6.910   3.870
 7718TIP3    H223098   5.484   6.815   3.752
 7719TIP3   OH223099   0.418   7.269   3.661
 7719TIP3    H123100   0.378   7.354   3.677
 7719TIP3    H223101   0.345   7.209   3.650
 7720TIP3   OH223102   2.225   0.606   5.609
 7720TIP3    H123103   2.228   0.672   5.540
 7720TIP3    H223104   2.205   0.655   5.689
 7721TIP3   OH223105   1.770   6.387   1.998
 7721TIP3    H123106   1.707   6.316   2.014
 7721TIP3    H223107   1.819   6.395   2.081
 7722TIP3   OH223108   3.009   4.018   6.206
 7722TIP3    H123109   3.075   3.965   6.251
 7722TIP3    H223110   2.943   3.956   6.177
 7723TIP3   OH223111   4.682   2.650   6.751
 7723TIP3    H123112   4.622   2.623   6.682
 7723TIP3    H223113   4.721   2.569   6.784
 7724TIP3   OH223114   6.567   7.645   5.450
 7724TIP3    H123115   6.610   7.730   5.447
 7724TIP3    H223116   6.565   7.621   5.543
 7725TIP3   OH223117   4.038   5.000   5.068
 7725TIP3    H123118   3.952   4.965   5.091
 7725TIP3    H223119   4.100   4.936   5.102
 7726TIP3   OH223120   6.191   3.581   4.970
 7726TIP3    H123121   6.168   3.499   4.927
 7726TIP3    H223122   6.286   3.580   4.974
 7727TIP3   OH223123   5.012   2.457   5.806
 7727TIP3    H123124   4.946   2.429   5.743
 7727TIP3    H223125   5.045   2.540   5.771
 7728TIP3   OH223126   3.522   4.698   0.413
 7728TIP3    H123127   3.566   4.616   0.390
 7728TIP3    H223128   3.544   4.758   0.341
 7729TIP3   OH223129   7.370   0.599   4.132
 7729TIP3    H123130   7.429   0.524   4.139
 7729TIP3    H223131   7.309   0.576   4.062
 7730TIP3   OH223132   4.311   6.382   2.500
 7730TIP3    H123133   4.358   6.453   2.544
 7730TIP3    H223134   4.270   6.332   2.571
 7731TIP3   OH223135   5.443   4.093   4.575
 7731TIP3    H123136   5.495   4.025   4.619
 7731TIP3    H223137   5.489   4.175   4.595
 7732TIP3   OH223138   5.466   3.927   2.829
 7732TIP3    H123139   5.523   3.973   2.891
 7732TIP3    H223140   5.439   3.994   2.766
 7733TIP3   OH223141   1.757   5.606   2.234
 7733TIP3    H123142   1.788   5.696   2.248
 7733TIP3    H223143   1.691   5.614   2.165
 7734TIP3   OH223144   3.154   0.580   4.887
 7734TIP3    H123145   3.117   0.668   4.892
 7734TIP3    H223146   3.123   0.545   4.804
 7735TIP3   OH223147   7.764   3.340   5.254
 7735TIP3    H123148   7.809   3.256   5.266
 7735TIP3    H223149   7.736   3.365   5.342
 7736TIP3   OH223150   7.192   7.761   0.414
 7736TIP3    H123151   7.230   7.740   0.499
 7736TIP3    H223152   7.263   7.802   0.365
 7737TIP3   OH223153   7.571   2.875   2.666
 7737TIP3    H123154   7.649   2.840   2.623
 7737TIP3    H223155   7.498   2.834   2.619
 7738TIP3   OH223156   0.643   4.817   3.533
 7738TIP3    H123157   0.640   4.760   3.610
 7738TIP3    H223158   0.648   4.905   3.570
 7739TIP3   OH223159   5.831   7.496   1.372
 7739TIP3    H123160   5.821   7.533   1.460
 7739TIP3    H223161   5.911   7.536   1.338
 7740TIP3   OH223162   1.903   5.068   0.047
 7740TIP3    H123163   1.962   5.120   0.101
 7740TIP3    H223164   1.870   5.000   0.106
 7741TIP3   OH223165   6.129   5.616   2.541
 7741TIP3    H123166   6.165   5.592   2.626
 7741TIP3    H223167   6.157   5.545   2.482
 7742TIP3   OH223168   1.308   7.774   1.347
 7742TIP3    H123169   1.285   7.842   1.410
 7742TIP3    H223170   1.239   7.778   1.281
 7743TIP3   OH223171   7.597   5.229   4.955
 7743TIP3    H123172   7.692   5.226   4.942
 7743TIP3    H223173   7.567   5.298   4.897
 7744TIP3   OH223174   3.031   5.707   4.802
 7744TIP3    H123175   3.052   5.792   4.842
 7744TIP3    H223176   3.025   5.647   4.876
 7745TIP3   OH223177   4.113   1.255   2.590
 7745TIP3    H123178   4.039   1.224   2.537
 7745TIP3    H223179   4.086   1.341   2.620
 7746TIP3   OH223180   4.568   2.867   3.179
 7746TIP3    H123181   4.570   2.957   3.147
 7746TIP3    H223182   4.484   2.833   3.151
 7747TIP3   OH223183   5.827   2.308   4.047
 7747TIP3    H123184   5.899   2.245   4.043
 7747TIP3    H223185   5.809   2.330   3.955
 7748TIP3   OH223186   5.765   2.475   3.195
 7748TIP3    H123187   5.713   2.394   3.197
 7748TIP3    H223188   5.829   2.460   3.125
 7749TIP3   OH223189   5.760   7.238   1.033
 7749TIP3    H123190   5.808   7.156   1.022
 7749TIP3    H223191   5.785   7.291   0.958
 7750TIP3   OH223192   5.538   3.528   3.229
 7750TIP3    H123193   5.526   3.450   3.175
 7750TIP3    H223194   5.633   3.535   3.241
 7751TIP3   OH223195   3.314   5.917   6.600
 7751TIP3    H123196   3.231   5.965   6.609
 7751TIP3    H223197   3.378   5.984   6.575
 7752TIP3   OH223198   5.509   6.880   6.196
 7752TIP3    H123199   5.575   6.819   6.228
 7752TIP3    H223200   5.534   6.965   6.232
 7753TIP3   OH223201   1.746   3.855   3.777
 7753TIP3    H123202   1.714   3.835   3.690
 7753TIP3    H223203   1.820   3.795   3.790
 7754TIP3   OH223204   6.452   5.272   4.613
 7754TIP3    H123205   6.472   5.179   4.622
 7754TIP3    H223206   6.398   5.278   4.534
 7755TIP3   OH223207   4.776   2.195   2.640
 7755TIP3    H123208   4.781   2.210   2.546
 7755TIP3    H223209   4.803   2.104   2.651
 7756TIP3   OH223210   0.283   1.161   0.962
 7756TIP3    H123211   0.329   1.159   1.046
 7756TIP3    H223212   0.227   1.084   0.963
 7757TIP3   OH223213   0.327   3.578   5.467
 7757TIP3    H123214   0.352   3.670   5.460
 7757TIP3    H223215   0.409   3.530   5.471
 7758TIP3   OH223216   3.878   4.900   3.863
 7758TIP3    H123217   3.796   4.900   3.913
 7758TIP3    H223218   3.920   4.982   3.887
 7759TIP3   OH223219   1.698   4.806   5.743
 7759TIP3    H123220   1.729   4.718   5.763
 7759TIP3    H223221   1.632   4.824   5.810
 7760TIP3   OH223222   6.209   4.294   1.092
 7760TIP3    H123223   6.130   4.300   1.038
 7760TIP3    H223224   6.182   4.328   1.177
 7761TIP3   OH223225   7.492   0.350   4.089
 7761TIP3    H123226   7.447   0.287   4.033
 7761TIP3    H223227   7.567   0.302   4.125
 7762TIP3   OH223228   5.637   0.465   4.763
 7762TIP3    H123229   5.544   0.470   4.785
 7762TIP3    H223230   5.643   0.509   4.678
 7763TIP3   OH223231   6.765   5.509   2.607
 7763TIP3    H123232   6.793   5.430   2.654
 7763TIP3    H223233   6.842   5.537   2.559
 7764TIP3   OH223234   4.510   2.378   5.051
 7764TIP3    H123235   4.558   2.388   5.134
 7764TIP3    H223236   4.465   2.294   5.059
 7765TIP3   OH223237   2.134   2.977   0.786
 7765TIP3    H123238   2.220   2.963   0.746
 7765TIP3    H223239   2.071   2.951   0.718
 7766TIP3   OH223240   4.778   3.035   5.984
 7766TIP3    H123241   4.755   3.121   6.020
 7766TIP3    H223242   4.714   3.020   5.914
 7767TIP3   OH223243   7.915   4.614   0.752
 7767TIP3    H123244   7.866   4.550   0.805
 7767TIP3    H223245   7.969   4.661   0.815
 7768TIP3   OH223246   1.797   4.598   0.949
 7768TIP3    H123247   1.852   4.652   0.892
 7768TIP3    H223248   1.825   4.620   1.038
 7769TIP3   OH223249   7.852   0.439   2.485
 7769TIP3    H123250   7.845   0.358   2.536
 7769TIP3    H223251   7.947   0.454   2.478
 7770TIP3   OH223252   0.332   6.679   1.751
 7770TIP3    H123253   0.237   6.671   1.738
 7770TIP3    H223254   0.345   6.662   1.844
 7771TIP3   OH223255   2.582   7.111   4.690
 7771TIP3    H123256   2.645   7.163   4.740
 7771TIP3    H223257   2.537   7.058   4.756
 7772TIP3   OH223258   3.499   5.664   5.055
 7772TIP3    H123259   3.476   5.691   4.966
 7772TIP3    H223260   3.590   5.636   5.049
 7773TIP3   OH223261   6.766   3.756   3.900
 7773TIP3    H123262   6.682   3.775   3.942
 7773TIP3    H223263   6.765   3.808   3.819
 7774TIP3   OH223264   5.518   7.573   5.305
 7774TIP3    H123265   5.581   7.644   5.318
 7774TIP3    H223266   5.435   7.616   5.287
 7775TIP3   OH223267   8.088   6.253   4.191
 7775TIP3    H123268   8.083   6.348   4.193
 7775TIP3    H223269   8.015   6.224   4.246
 7776TIP3   OH223270   0.488   5.264   6.187
 7776TIP3    H123271   0.543   5.307   6.122
 7776TIP3    H223272   0.531   5.180   6.204
 7777TIP3   OH223273   1.749   5.845   2.072
 7777TIP3    H123274   1.688   5.867   2.001
 7777TIP3    H223275   1.734   5.912   2.138
 7778TIP3   OH223276   5.988   0.332   5.588
 7778TIP3    H123277   5.925   0.260   5.580
 7778TIP3    H223278   6.066   0.302   5.541
 7779TIP3   OH223279   1.482   5.307   0.630
 7779TIP3    H123280   1.561   5.256   0.648
 7779TIP3    H223281   1.420   5.243   0.593
 7780TIP3   OH223282   2.973   2.626   5.690
 7780TIP3    H123283   2.936   2.569   5.623
 7780TIP3    H223284   2.938   2.713   5.670
 7781TIP3   OH223285   4.621   7.218   1.624
 7781TIP3    H123286   4.673   7.155   1.574
 7781TIP3    H223287   4.661   7.218   1.711
 7782TIP3   OH223288   4.434   4.655   4.619
 7782TIP3    H123289   4.508   4.611   4.661
 7782TIP3    H223290   4.457   4.658   4.526
 7783TIP3   OH223291   2.384   4.154   2.876
 7783TIP3    H123292   2.329   4.192   2.807
 7783TIP3    H223293   2.419   4.074   2.838
 7784TIP3   OH223294   5.104   4.419   0.927
 7784TIP3    H123295   5.011   4.404   0.909
 7784TIP3    H223296   5.150   4.356   0.872
 7785TIP3   OH223297   0.377   1.898   3.804
 7785TIP3    H123298   0.375   1.937   3.892
 7785TIP3    H223299   0.336   1.812   3.815
 7786TIP3   OH223300   0.713   2.774   3.512
 7786TIP3    H123301   0.715   2.851   3.569
 7786TIP3    H223302   0.803   2.762   3.484
 7787TIP3   OH223303   2.689   3.992   1.190
 7787TIP3    H123304   2.756   4.059   1.180
 7787TIP3    H223305   2.703   3.957   1.278
 7788TIP3   OH223306   5.397   3.288   5.436
 7788TIP3    H123307   5.400   3.356   5.504
 7788TIP3    H223308   5.304   3.266   5.428
 7789TIP3   OH223309   3.657   5.099   3.244
 7789TIP3    H123310   3.659   5.056   3.330
 7789TIP3    H223311   3.564   5.117   3.229
 7790TIP3   OH223312   4.560   4.487   5.556
 7790TIP3    H123313   4.649   4.497   5.590
 7790TIP3    H223314   4.571   4.440   5.473
 7791TIP3   OH223315   1.923   2.369   1.612
 7791TIP3    H123316   1.952   2.279   1.620
 7791TIP3    H223317   1.932   2.389   1.519
 7792TIP3   OH223318   5.628   2.623   5.231
 7792TIP3    H123319   5.586   2.552   5.182
 7792TIP3    H223320   5.717   2.627   5.195
 7793TIP3   OH223321   2.821   7.314   3.708
 7793TIP3    H123322   2.823   7.406   3.736
 7793TIP3    H223323   2.834   7.264   3.788
 7794TIP3   OH223324   0.904   3.773   3.084
 7794TIP3    H123325   0.956   3.709   3.035
 7794TIP3    H223326   0.965   3.845   3.100
 7795TIP3   OH223327   5.601   6.093   6.197
 7795TIP3    H123328   5.578   6.147   6.274
 7795TIP3    H223329   5.528   6.105   6.137
 7796TIP3   OH223330   0.471   2.673   3.433
 7796TIP3    H123331   0.476   2.578   3.445
 7796TIP3    H223332   0.552   2.707   3.471
 7797TIP3   OH223333   3.042   0.083   6.452
 7797TIP3    H123334   3.020   0.103   6.361
 7797TIP3    H223335   3.128   0.121   6.466
 7798TIP3   OH223336   2.185   0.637   0.313
 7798TIP3    H123337   2.151   0.662   0.399
 7798TIP3    H223338   2.193   0.542   0.317
 7799TIP3   OH223339   3.431   4.197   2.189
 7799TIP3    H123340   3.451   4.104   2.198
 7799TIP3    H223341   3.335   4.200   2.180
 7800TIP3   OH223342   4.836   4.319   6.467
 7800TIP3    H123343   4.890   4.398   6.466
 7800TIP3    H223344   4.827   4.298   6.560
 7801TIP3   OH223345   2.899   6.662   4.942
 7801TIP3    H123346   2.841   6.587   4.955
 7801TIP3    H223347   2.982   6.623   4.913
 7802TIP3   OH223348   0.147   1.742   0.937
 7802TIP3    H123349   0.075   1.708   0.991
 7802TIP3    H223350   0.173   1.824   0.980
 7803TIP3   OH223351   6.187   5.924   4.965
 7803TIP3    H123352   6.118   5.885   5.019
 7803TIP3    H223353   6.257   5.859   4.965
 7804TIP3   OH223354   5.415   5.110   3.916
 7804TIP3    H123355   5.329   5.089   3.952
 7804TIP3    H223356   5.456   5.165   3.983
 7805TIP3   OH223357   5.946   4.011   5.627
 7805TIP3    H123358   5.932   4.079   5.562
 7805TIP3    H223359   6.032   4.030   5.665
 7806TIP3   OH223360   4.174   2.387   2.677
 7806TIP3    H123361   4.097   2.442   2.659
 7806TIP3    H223362   4.230   2.442   2.732
 7807TIP3   OH223363   0.573   1.982   1.115
 7807TIP3    H123364   0.577   1.921   1.041
 7807TIP3    H223365   0.491   2.030   1.102
 7808TIP3   OH223366   7.542   4.965   4.086
 7808TIP3    H123367   7.569   4.902   4.153
 7808TIP3    H223368   7.477   5.019   4.130
 7809TIP3   OH223369   7.781   3.867   0.417
 7809TIP3    H123370   7.699   3.857   0.370
 7809TIP3    H223371   7.805   3.779   0.444
 7810TIP3   OH223372   2.295   5.232   1.113
 7810TIP3    H123373   2.342   5.175   1.173
 7810TIP3    H223374   2.363   5.280   1.066
 7811TIP3   OH223375   6.002   1.102   3.600
 7811TIP3    H123376   6.088   1.140   3.581
 7811TIP3    H223377   6.012   1.009   3.583
 7812TIP3   OH223378   7.420   5.258   2.546
 7812TIP3    H123379   7.350   5.291   2.602
 7812TIP3    H223380   7.446   5.175   2.586
 7813TIP3   OH223381   6.124   5.591   3.356
 7813TIP3    H123382   6.182   5.615   3.428
 7813TIP3    H223383   6.039   5.629   3.380
 7814TIP3   OH223384   1.695   1.214   6.517
 7814TIP3    H123385   1.689   1.283   6.452
 7814TIP3    H223386   1.634   1.241   6.586
 7815TIP3   OH223387   0.103   6.832   1.027
 7815TIP3    H123388   0.162   6.884   1.083
 7815TIP3    H223389   0.015   6.858   1.054
 7816TIP3   OH223390   0.164   0.835   4.893
 7816TIP3    H123391   0.231   0.846   4.961
 7816TIP3    H223392   0.213   0.806   4.816
 7817TIP3   OH223393   2.862   6.119   3.845
 7817TIP3    H123394   2.911   6.196   3.817
 7817TIP3    H223395   2.832   6.141   3.934
 7818TIP3   OH223396   5.572   1.530   4.596
 7818TIP3    H123397   5.507   1.551   4.663
 7818TIP3    H223398   5.580   1.610   4.545
 7819TIP3   OH223399   0.440   7.195   5.924
 7819TIP3    H123400   0.480   7.240   5.850
 7819TIP3    H223401   0.346   7.206   5.912
 7820TIP3   OH223402   2.383   3.120   3.141
 7820TIP3    H123403   2.289   3.126   3.128
 7820TIP3    H223404   2.420   3.120   3.053
 7821TIP3   OH223405   1.717   6.668   6.595
 7821TIP3    H123406   1.735   6.587   6.644
 7821TIP3    H223407   1.653   6.642   6.529
 7822TIP3   OH223408   0.196   4.230   5.868
 7822TIP3    H123409   0.188   4.135   5.875
 7822TIP3    H223410   0.107   4.261   5.849
 7823TIP3   OH223411   6.380   5.707   4.202
 7823TIP3    H123412   6.428   5.712   4.284
 7823TIP3    H223413   6.348   5.617   4.198
 7824TIP3   OH223414   6.467   3.538   4.691
 7824TIP3    H123415   6.552   3.578   4.670
 7824TIP3    H223416   6.411   3.559   4.616
 7825TIP3   OH223417   1.993   5.173   4.066
 7825TIP3    H123418   2.002   5.126   3.983
 7825TIP3    H223419   1.900   5.165   4.088
 7826TIP3   OH223420   1.448   6.383   2.998
 7826TIP3    H123421   1.413   6.392   2.909
 7826TIP3    H223422   1.480   6.293   3.002
 7827TIP3   OH223423   8.016   3.289   3.483
 7827TIP3    H123424   7.980   3.353   3.545
 7827TIP3    H223425   7.965   3.209   3.499
 7828TIP3   OH223426   2.387   4.341   3.598
 7828TIP3    H123427   2.390   4.361   3.504
 7828TIP3    H223428   2.332   4.263   3.604
 7829TIP3   OH223429   3.975   1.102   3.312
 7829TIP3    H123430   4.054   1.155   3.314
 7829TIP3    H223431   3.903   1.166   3.318
 7830TIP3   OH223432   4.675   2.116   5.199
 7830TIP3    H123433   4.598   2.085   5.151
 7830TIP3    H223434   4.708   2.038   5.244
 7831TIP3   OH223435   3.065   2.070   0.854
 7831TIP3    H123436   3.110   2.112   0.780
 7831TIP3    H223437   3.012   2.140   0.892
 7832TIP3   OH223438   3.988   5.658   2.668
 7832TIP3    H123439   4.007   5.725   2.602
 7832TIP3    H223440   3.936   5.593   2.622
 7833TIP3   OH223441   7.802   4.090   4.626
 7833TIP3    H123442   7.803   4.179   4.589
 7833TIP3    H223443   7.836   4.035   4.556
 7834TIP3   OH223444   0.113   7.758   0.235
 7834TIP3    H123445   0.107   7.706   0.315
 7834TIP3    H223446   0.023   7.786   0.218
 7835TIP3   OH223447   6.629   2.391   4.990
 7835TIP3    H123448   6.663   2.453   4.925
 7835TIP3    H223449   6.639   2.436   5.074
 7836TIP3   OH223450   0.195   5.046   3.969
 7836TIP3    H123451   0.136   5.118   3.993
 7836TIP3    H223452   0.274   5.090   3.938
 7837TIP3   OH223453   3.767   4.078   0.889
 7837TIP3    H123454   3.712   4.044   0.960
 7837TIP3    H223455   3.724   4.158   0.861
 7838TIP3   OH223456   7.482   3.850   0.572
 7838TIP3    H123457   7.478   3.829   0.479
 7838TIP3    H223458   7.569   3.820   0.600
 7839TIP3   OH223459   7.487   6.254   3.572
 7839TIP3    H123460   7.428   6.315   3.616
 7839TIP3    H223461   7.436   6.221   3.498
 7840TIP3   OH223462   3.789   7.796   1.865
 7840TIP3    H123463   3.733   7.844   1.926
 7840TIP3    H223464   3.820   7.721   1.916
 7841TIP3   OH223465   3.542   2.924   2.981
 7841TIP3    H123466   3.465   2.954   2.932
 7841TIP3    H223467   3.600   3.000   2.982
 7842TIP3   OH223468   1.886   2.603   4.156
 7842TIP3    H123469   1.934   2.686   4.148
 7842TIP3    H223470   1.794   2.629   4.156
 7843TIP3   OH223471   1.090   1.136   4.867
 7843TIP3    H123472   1.039   1.109   4.943
 7843TIP3    H223473   1.152   1.065   4.853
 7844TIP3   OH223474   5.645   0.625   5.265
 7844TIP3    H123475   5.712   0.674   5.217
 7844TIP3    H223476   5.595   0.580   5.197
 7845TIP3   OH223477   6.441   0.803   0.395
 7845TIP3    H123478   6.489   0.721   0.388
 7845TIP3    H223479   6.379   0.789   0.466
 7846TIP3   OH223480   5.940   0.417   0.420
 7846TIP3    H123481   5.852   0.381   0.405
 7846TIP3    H223482   5.999   0.351   0.383
 7847TIP3   OH223483   5.480   6.002   1.808
 7847TIP3    H123484   5.523   5.919   1.832
 7847TIP3    H223485   5.432   5.981   1.728
 7848TIP3   OH223486   5.022   0.858   1.374
 7848TIP3    H123487   5.007   0.896   1.287
 7848TIP3    H223488   5.117   0.862   1.385
 7849TIP3   OH223489   8.054   0.151   3.965
 7849TIP3    H123490   8.140   0.191   3.951
 7849TIP3    H223491   8.044   0.091   3.891
 7850TIP3   OH223492   1.572   4.388   1.679
 7850TIP3    H123493   1.610   4.372   1.593
 7850TIP3    H223494   1.515   4.464   1.666
 7851TIP3   OH223495   3.924   0.027   6.296
 7851TIP3    H123496   3.952   0.066   6.378
 7851TIP3    H223497   3.985  -0.047   6.283
 7852TIP3   OH223498   1.521   4.947   4.832
 7852TIP3    H123499   1.496   5.020   4.889
 7852TIP3    H223500   1.480   4.870   4.871
 7853TIP3   OH223501   1.116   7.154   5.178
 7853TIP3    H123502   1.144   7.245   5.170
 7853TIP3    H223503   1.195   7.104   5.159
 7854TIP3   OH223504   3.803   0.149   5.369
 7854TIP3    H123505   3.723   0.200   5.372
 7854TIP3    H223506   3.774   0.060   5.350
 7855TIP3   OH223507   0.817   4.435   3.559
 7855TIP3    H123508   0.772   4.388   3.629
 7855TIP3    H223509   0.852   4.514   3.601
 7856TIP3   OH223510   0.974   4.463   3.777
 7856TIP3    H123511   0.977   4.526   3.849
 7856TIP3    H223512   0.900   4.406   3.797
 7857TIP3   OH223513   7.098   4.189   2.451
 7857TIP3    H123514   7.058   4.133   2.517
 7857TIP3    H223515   7.102   4.275   2.493
 7858TIP3   OH223516   1.502   5.268   3.937
 7858TIP3    H123517   1.456   5.223   3.866
 7858TIP3    H223518   1.444   5.256   4.013
 7859TIP3   OH223519   5.287   7.409   1.831
 7859TIP3    H123520   5.320   7.369   1.912
 7859TIP3    H223521   5.320   7.353   1.761
 7860TIP3   OH223522   1.778   4.529   6.420
 7860TIP3    H123523   1.844   4.591   6.449
 7860TIP3    H223524   1.761   4.474   6.497
 7861TIP3   OH223525   4.099   5.081   4.261
 7861TIP3    H123526   4.096   5.000   4.312
 7861TIP3    H223527   4.109   5.051   4.170
 7862TIP3   OH223528   6.327   2.608   1.249
 7862TIP3    H123529   6.399   2.656   1.290
 7862TIP3    H223530   6.316   2.649   1.163
 7863TIP3   OH223531   6.963   7.450   4.681
 7863TIP3    H123532   6.921   7.399   4.612
 7863TIP3    H223533   7.002   7.385   4.739
 7864TIP3   OH223534   6.197   5.192   0.766
 7864TIP3    H123535   6.213   5.250   0.840
 7864TIP3    H223536   6.283   5.159   0.742
 7865TIP3   OH223537   6.781   5.580   1.356
 7865TIP3    H123538   6.799   5.557   1.265
 7865TIP3    H223539   6.716   5.516   1.385
 7866TIP3   OH223540   1.196   2.883   5.306
 7866TIP3    H123541   1.227   2.797   5.277
 7866TIP3    H223542   1.164   2.869   5.395
 7867TIP3   OH223543   0.931   2.425   4.636
 7867TIP3    H123544   0.934   2.502   4.580
 7867TIP3    H223545   0.910   2.459   4.723
 7868TIP3   OH223546   2.179   4.061   4.666
 7868TIP3    H123547   2.120   4.124   4.625
 7868TIP3    H223548   2.255   4.058   4.608
 7869TIP3   OH223549   3.782   7.847   3.802
 7869TIP3    H123550   3.818   7.808   3.881
 7869TIP3    H223551   3.748   7.773   3.752
 7870TIP3   OH223552   0.262   5.041   3.458
 7870TIP3    H123553   0.349   5.053   3.419
 7870TIP3    H223554   0.203   5.087   3.398
 7871TIP3   OH223555   4.597   3.012   0.049
 7871TIP3    H123556   4.653   3.031   0.125
 7871TIP3    H223557   4.588   2.916   0.050
 7872TIP3   OH223558   3.127   1.845   5.554
 7872TIP3    H123559   3.061   1.914   5.544
 7872TIP3    H223560   3.207   1.891   5.576
 7873TIP3   OH223561   6.666   1.442   4.406
 7873TIP3    H123562   6.691   1.488   4.486
 7873TIP3    H223563   6.576   1.413   4.422
 7874TIP3   OH223564   4.365   1.310   6.378
 7874TIP3    H123565   4.297   1.311   6.311
 7874TIP3    H223566   4.425   1.380   6.352
 7875TIP3   OH223567   5.426   1.157   0.706
 7875TIP3    H123568   5.415   1.248   0.681
 7875TIP3    H223569   5.484   1.120   0.639
 7876TIP3   OH223570   3.053   3.655   5.937
 7876TIP3    H123571   3.014   3.573   5.907
 7876TIP3    H223572   3.123   3.672   5.875
 7877TIP3   OH223573   4.352   5.614   2.815
 7877TIP3    H123574   4.416   5.579   2.876
 7877TIP3    H223575   4.298   5.539   2.791
 7878TIP3   OH223576   7.145   3.197   6.508
 7878TIP3    H123577   7.205   3.136   6.552
 7878TIP3    H223578   7.058   3.159   6.523
 7879TIP3   OH223579   4.557   2.543   4.514
 7879TIP3    H123580   4.510   2.465   4.542
 7879TIP3    H223581   4.616   2.513   4.445
 7880TIP3   OH223582   3.253   5.656   2.714
 7880TIP3    H123583   3.257   5.731   2.773
 7880TIP3    H223584   3.233   5.582   2.770
 7881TIP3   OH223585   0.705   7.465   0.240
 7881TIP3    H123586   0.678   7.511   0.319
 7881TIP3    H223587   0.654   7.384   0.240
 7882TIP3   OH223588   0.345   4.630   0.551
 7882TIP3    H123589   0.388   4.694   0.494
 7882TIP3    H223590   0.283   4.683   0.602
 7883TIP3   OH223591   0.386   2.238   4.395
 7883TIP3    H123592   0.296   2.239   4.365
 7883TIP3    H223593   0.401   2.326   4.429
 7884TIP3   OH223594   4.838   5.394   5.553
 7884TIP3    H123595   4.807   5.372   5.641
 7884TIP3    H223596   4.769   5.364   5.495
 7885TIP3   OH223597   4.171   0.987   0.973
 7885TIP3    H123598   4.162   1.053   1.042
 7885TIP3    H223599   4.211   1.033   0.900
 7886TIP3   OH223600   3.934   7.578   5.427
 7886TIP3    H123601   3.856   7.556   5.378
 7886TIP3    H223602   4.006   7.565   5.365
 7887TIP3   OH223603   6.064   4.418   1.669
 7887TIP3    H123604   6.001   4.353   1.637
 7887TIP3    H223605   6.118   4.370   1.732
 7888TIP3   OH223606   0.172   4.331   3.958
 7888TIP3    H123607   0.115   4.282   3.898
 7888TIP3    H223608   0.207   4.265   4.017
 7889TIP3   OH223609   5.522   0.890   2.740
 7889TIP3    H123610   5.476   0.960   2.786
 7889TIP3    H223611   5.615   0.914   2.745
 7890TIP3   OH223612   7.553   3.478   5.773
 7890TIP3    H123613   7.489   3.468   5.702
 7890TIP3    H223614   7.610   3.549   5.744
 7891TIP3   OH223615   2.552   5.079   6.524
 7891TIP3    H123616   2.546   5.012   6.456
 7891TIP3    H223617   2.484   5.142   6.501
 7892TIP3   OH223618   1.824   0.389   3.993
 7892TIP3    H123619   1.853   0.307   4.034
 7892TIP3    H223620   1.886   0.455   4.025
 7893TIP3   OH223621   3.996   7.520   4.149
 7893TIP3    H123622   4.069   7.538   4.207
 7893TIP3    H223623   3.918   7.532   4.203
 7894TIP3   OH223624   6.247   4.584   6.289
 7894TIP3    H123625   6.270   4.544   6.373
 7894TIP3    H223626   6.158   4.554   6.272
 7895TIP3   OH223627   1.196   6.260   3.005
 7895TIP3    H123628   1.222   6.341   3.048
 7895TIP3    H223629   1.142   6.289   2.931
 7896TIP3   OH223630   1.708   1.099   1.241
 7896TIP3    H123631   1.786   1.043   1.238
 7896TIP3    H223632   1.678   1.103   1.150
 7897TIP3   OH223633   2.020   0.222   0.108
 7897TIP3    H123634   2.037   0.313   0.087
 7897TIP3    H223635   2.105   0.178   0.099
 7898TIP3   OH223636   1.929   3.309   4.086
 7898TIP3    H123637   1.886   3.256   4.153
 7898TIP3    H223638   1.884   3.393   4.089
 7899TIP3   OH223639   7.697   0.939   4.978
 7899TIP3    H123640   7.613   0.971   4.944
 7899TIP3    H223641   7.702   0.849   4.947
 7900TIP3   OH223642   3.788   2.523   3.433
 7900TIP3    H123643   3.815   2.531   3.342
 7900TIP3    H223644   3.698   2.555   3.434
 7901TIP3   OH223645   3.586   0.390   4.677
 7901TIP3    H123646   3.514   0.364   4.734
 7901TIP3    H223647   3.663   0.392   4.734
 7902TIP3   OH223648   3.328   5.119   6.527
 7902TIP3    H123649   3.384   5.165   6.465
 7902TIP3    H223650   3.350   5.157   6.612
 7903TIP3   OH223651   6.514   1.002   1.877
 7903TIP3    H123652   6.526   1.046   1.793
 7903TIP3    H223653   6.534   1.068   1.942
 7904TIP3   OH223654   3.177   4.270   2.811
 7904TIP3    H123655   3.113   4.295   2.745
 7904TIP3    H223656   3.256   4.249   2.762
 7905TIP3   OH223657   6.692   7.811   0.205
 7905TIP3    H123658   6.717   7.789   0.116
 7905TIP3    H223659   6.739   7.748   0.260
 7906TIP3   OH223660   2.527   2.201   3.208
 7906TIP3    H123661   2.555   2.255   3.282
 7906TIP3    H223662   2.584   2.124   3.212
 7907TIP3   OH223663   4.957   5.124   1.615
 7907TIP3    H123664   4.878   5.166   1.580
 7907TIP3    H223665   5.029   5.167   1.568
 7908TIP3   OH223666   1.300   7.270   3.369
 7908TIP3    H123667   1.274   7.189   3.327
 7908TIP3    H223668   1.251   7.338   3.324
 7909TIP3   OH223669   4.001   6.518   2.515
 7909TIP3    H123670   4.054   6.496   2.592
 7909TIP3    H223671   4.048   6.477   2.442
 7910TIP3   OH223672   2.327   7.156   0.063
 7910TIP3    H123673   2.277   7.093   0.011
 7910TIP3    H223674   2.415   7.154   0.025
 7911TIP3   OH223675   7.326   6.221   6.621
 7911TIP3    H123676   7.380   6.298   6.605
 7911TIP3    H223677   7.272   6.244   6.697
 7912TIP3   OH223678   3.624   1.278   0.151
 7912TIP3    H123679   3.584   1.196   0.180
 7912TIP3    H223680   3.563   1.346   0.179
 7913TIP3   OH223681   3.646   1.312   2.737
 7913TIP3    H123682   3.634   1.406   2.721
 7913TIP3    H223683   3.738   1.302   2.759
 7914TIP3   OH223684   8.210   7.425   4.948
 7914TIP3    H123685   8.237   7.517   4.940
 7914TIP3    H223686   8.138   7.426   5.010
 7915TIP3   OH223687   5.654   0.857   0.804
 7915TIP3    H123688   5.633   0.911   0.728
 7915TIP3    H223689   5.608   0.774   0.789
 7916TIP3   OH223690   6.668   3.531   2.192
 7916TIP3    H123691   6.580   3.567   2.180
 7916TIP3    H223692   6.700   3.514   2.103
 7917TIP3   OH223693   1.606   4.671   4.444
 7917TIP3    H123694   1.573   4.679   4.355
 7917TIP3    H223695   1.623   4.577   4.455
 7918TIP3   OH223696   3.003   0.221   0.915
 7918TIP3    H123697   3.048   0.265   0.843
 7918TIP3    H223698   2.998   0.129   0.888
 7919TIP3   OH223699   7.580   5.097   1.729
 7919TIP3    H123700   7.531   5.179   1.729
 7919TIP3    H223701   7.529   5.038   1.785
 7920TIP3   OH223702   6.178   3.281   3.221
 7920TIP3    H123703   6.100   3.226   3.214
 7920TIP3    H223704   6.151   3.355   3.276
 7921TIP3   OH223705   2.395   0.241   1.245
 7921TIP3    H123706   2.302   0.236   1.267
 7921TIP3    H223707   2.440   0.229   1.329
 7922TIP3   OH223708   1.729   2.293   5.737
 7922TIP3    H123709   1.791   2.366   5.745
 7922TIP3    H223710   1.776   2.218   5.774
 7923TIP3   OH223711   1.508   1.186   2.130
 7923TIP3    H123712   1.512   1.255   2.063
 7923TIP3    H223713   1.587   1.199   2.182
 7924TIP3   OH223714   4.691   1.442   1.666
 7924TIP3    H123715   4.676   1.449   1.572
 7924TIP3    H223716   4.774   1.488   1.681
 7925TIP3   OH223717   7.270   1.452   4.810
 7925TIP3    H123718   7.262   1.537   4.854
 7925TIP3    H223719   7.261   1.472   4.717
 7926TIP3   OH223720   4.489   3.910   0.853
 7926TIP3    H123721   4.475   3.852   0.778
 7926TIP3    H223722   4.577   3.890   0.883
 7927TIP3   OH223723   4.135   6.128   3.262
 7927TIP3    H123724   4.051   6.101   3.226
 7927TIP3    H223725   4.137   6.090   3.350
 7928TIP3   OH223726   4.000   3.501   5.591
 7928TIP3    H123727   4.017   3.580   5.539
 7928TIP3    H223728   3.916   3.468   5.558
 7929TIP3   OH223729   5.941   2.540   2.184
 7929TIP3    H123730   6.010   2.606   2.193
 7929TIP3    H223731   5.861   2.590   2.167
 7930TIP3   OH223732   6.254   2.037   0.930
 7930TIP3    H123733   6.185   1.978   0.964
 7930TIP3    H223734   6.280   2.088   1.007
 7931TIP3   OH223735   2.656   7.626   4.945
 7931TIP3    H123736   2.653   7.630   5.041
 7931TIP3    H223737   2.704   7.705   4.919
 7932TIP3   OH223738   0.146   4.952   4.509
 7932TIP3    H123739   0.205   4.879   4.488
 7932TIP3    H223740   0.193   5.002   4.576
 7933TIP3   OH223741   3.707   6.114   3.674
 7933TIP3    H123742   3.668   6.199   3.695
 7933TIP3    H223743   3.739   6.123   3.585
 7934TIP3   OH223744   0.646   7.718   1.440
 7934TIP3    H123745   0.644   7.772   1.519
 7934TIP3    H223746   0.663   7.629   1.472
 7935TIP3   OH223747   6.248   5.981   2.754
 7935TIP3    H123748   6.319   5.975   2.690
 7935TIP3    H223749   6.290   5.970   2.839
 7936TIP3   OH223750   1.071   6.925   6.714
 7936TIP3    H123751   1.075   6.912   6.808
 7936TIP3    H223752   0.980   6.948   6.697
 7937TIP3   OH223753   8.059   7.276   2.885
 7937TIP3    H123754   8.111   7.355   2.900
 7937TIP3    H223755   7.970   7.300   2.913
 7938TIP3   OH223756   2.526   0.022   3.086
 7938TIP3    H123757   2.560   0.077   3.157
 7938TIP3    H223758   2.436   0.052   3.074
 7939TIP3   OH223759   2.943   4.754   5.371
 7939TIP3    H123760   2.981   4.792   5.292
 7939TIP3    H223761   2.892   4.680   5.339
 7940TIP3   OH223762   8.128   1.848   2.095
 7940TIP3    H123763   8.215   1.886   2.091
 7940TIP3    H223764   8.072   1.920   2.125
 7941TIP3   OH223765   1.440   6.781   2.751
 7941TIP3    H123766   1.392   6.794   2.669
 7941TIP3    H223767   1.371   6.763   2.816
 7942TIP3   OH223768   6.323   3.030   5.228
 7942TIP3    H123769   6.334   2.950   5.176
 7942TIP3    H223770   6.378   3.015   5.305
 7943TIP3   OH223771   5.032   5.407   1.161
 7943TIP3    H123772   5.093   5.337   1.138
 7943TIP3    H223773   5.005   5.445   1.077
 7944TIP3   OH223774   6.301   3.354   1.076
 7944TIP3    H123775   6.379   3.344   1.020
 7944TIP3    H223776   6.327   3.316   1.159
 7945TIP3   OH223777   3.990   6.313   2.905
 7945TIP3    H123778   3.966   6.223   2.885
 7945TIP3    H223779   3.930   6.339   2.975
 7946TIP3   OH223780   6.973   5.901   1.090
 7946TIP3    H123781   7.003   5.898   0.999
 7946TIP3    H223782   6.884   5.867   1.087
 7947TIP3   OH223783   7.967   6.450   6.110
 7947TIP3    H123784   8.015   6.383   6.061
 7947TIP3    H223785   8.036   6.505   6.148
 7948TIP3   OH223786   2.795   1.038   4.586
 7948TIP3    H123787   2.862   1.093   4.627
 7948TIP3    H223788   2.718   1.049   4.643
 7949TIP3   OH223789   6.714   0.294   5.433
 7949TIP3    H123790   6.637   0.237   5.440
 7949TIP3    H223791   6.729   0.302   5.339
 7950TIP3   OH223792   8.151   2.739   4.354
 7950TIP3    H123793   8.215   2.804   4.324
 7950TIP3    H223794   8.068   2.785   4.356
 7951TIP3   OH223795   0.784   3.310   4.163
 7951TIP3    H123796   0.745   3.395   4.185
 7951TIP3    H223797   0.821   3.323   4.076
 7952TIP3   OH223798   7.145   1.567   3.766
 7952TIP3    H123799   7.214   1.544   3.704
 7952TIP3    H223800   7.177   1.646   3.809
 7953TIP3   OH223801   4.477   6.609   4.443
 7953TIP3    H123802   4.452   6.693   4.480
 7953TIP3    H223803   4.572   6.609   4.441
 7954TIP3   OH223804   1.989   7.313   0.532
 7954TIP3    H123805   2.074   7.302   0.490
 7954TIP3    H223806   1.926   7.306   0.459
 7955TIP3   OH223807   7.238   3.274   5.753
 7955TIP3    H123808   7.220   3.325   5.832
 7955TIP3    H223809   7.201   3.188   5.771
 7956TIP3   OH223810   2.473   5.383   0.966
 7956TIP3    H123811   2.559   5.369   0.928
 7956TIP3    H223812   2.466   5.478   0.977
 7957TIP3   OH223813   5.344   3.133   4.935
 7957TIP3    H123814   5.369   3.225   4.931
 7957TIP3    H223815   5.255   3.134   4.971
 7958TIP3   OH223816   1.757   7.794   4.889
 7958TIP3    H123817   1.678   7.758   4.928
 7958TIP3    H223818   1.799   7.719   4.847
 7959TIP3   OH223819   6.290   1.710   3.574
 7959TIP3    H123820   6.209   1.737   3.532
 7959TIP3    H223821   6.306   1.777   3.640
 7960TIP3   OH223822   7.638   7.460   1.996
 7960TIP3    H123823   7.610   7.542   2.037
 7960TIP3    H223824   7.722   7.441   2.037
 7961TIP3   OH223825   4.699   4.187   2.412
 7961TIP3    H123826   4.787   4.148   2.415
 7961TIP3    H223827   4.694   4.228   2.326
 7962TIP3   OH223828   8.248   6.921   3.681
 7962TIP3    H123829   8.166   6.906   3.636
 7962TIP3    H223830   8.286   6.998   3.638
 7963TIP3   OH223831   6.022   7.344   3.176
 7963TIP3    H123832   6.045   7.273   3.116
 7963TIP3    H223833   6.023   7.304   3.263
 7964TIP3   OH223834   6.850   7.796   5.422
 7964TIP3    H123835   6.915   7.866   5.430
 7964TIP3    H223836   6.853   7.751   5.506
 7965TIP3   OH223837   7.503   0.175   2.177
 7965TIP3    H123838   7.444   0.222   2.118
 7965TIP3    H223839   7.574   0.238   2.194
 7966TIP3   OH223840   1.625   3.487   2.270
 7966TIP3    H123841   1.638   3.441   2.187
 7966TIP3    H223842   1.534   3.469   2.293
 7967TIP3   OH223843   8.244   7.519   0.149
 7967TIP3    H123844   8.221   7.534   0.240
 7967TIP3    H223845   8.320   7.460   0.153
 7968TIP3   OH223846   1.378   3.791   4.042
 7968TIP3    H123847   1.367   3.819   3.951
 7968TIP3    H223848   1.363   3.697   4.040
 7969TIP3   OH223849   4.776   7.657   4.005
 7969TIP3    H123850   4.802   7.568   4.029
 7969TIP3    H223851   4.857   7.699   3.976
 7970TIP3   OH223852   2.729   6.988   5.684
 7970TIP3    H123853   2.701   6.897   5.670
 7970TIP3    H223854   2.734   6.996   5.779
 7971TIP3   OH223855   1.607   1.752   5.641
 7971TIP3    H123856   1.540   1.685   5.645
 7971TIP3    H223857   1.593   1.795   5.556
 7972TIP3   OH223858   6.550   2.184   5.976
 7972TIP3    H123859   6.600   2.192   6.058
 7972TIP3    H223860   6.485   2.116   5.995
 7973TIP3   OH223861   1.309   6.242   0.972
 7973TIP3    H123862   1.399   6.251   1.005
 7973TIP3    H223863   1.256   6.224   1.049
 7974TIP3   OH223864   2.246   1.418   4.711
 7974TIP3    H123865   2.255   1.493   4.769
 7974TIP3    H223866   2.158   1.428   4.674
 7975TIP3   OH223867   5.042   3.589   6.203
 7975TIP3    H123868   5.113   3.644   6.238
 7975TIP3    H223869   5.008   3.542   6.280
 7976TIP3   OH223870   3.052   1.313   0.887
 7976TIP3    H123871   3.113   1.342   0.820
 7976TIP3    H223872   3.051   1.384   0.951
 7977TIP3   OH223873   5.901   5.549   5.560
 7977TIP3    H123874   5.897   5.641   5.535
 7977TIP3    H223875   5.860   5.502   5.488
 7978TIP3   OH223876   3.314   1.080   6.463
 7978TIP3    H123877   3.236   1.027   6.481
 7978TIP3    H223878   3.293   1.166   6.498
 7979TIP3   OH223879   1.820   2.514   6.101
 7979TIP3    H123880   1.889   2.503   6.167
 7979TIP3    H223881   1.862   2.491   6.018
 7980TIP3   OH223882   6.485   3.621   0.945
 7980TIP3    H123883   6.547   3.669   0.891
 7980TIP3    H223884   6.458   3.547   0.891
 7981TIP3   OH223885   3.240   1.736   6.656
 7981TIP3    H123886   3.305   1.682   6.610
 7981TIP3    H223887   3.273   1.825   6.650
 7982TIP3   OH223888   5.221   7.629   1.644
 7982TIP3    H123889   5.215   7.579   1.725
 7982TIP3    H223890   5.155   7.698   1.654
 7983TIP3   OH223891   6.063   6.886   2.061
 7983TIP3    H123892   6.082   6.961   2.116
 7983TIP3    H223893   5.998   6.917   1.998
 7984TIP3   OH223894   1.859   4.181   3.111
 7984TIP3    H123895   1.802   4.258   3.121
 7984TIP3    H223896   1.890   4.186   3.021
 7985TIP3   OH223897   1.105   1.313   1.467
 7985TIP3    H123898   1.062   1.323   1.382
 7985TIP3    H223899   1.155   1.394   1.478
 7986TIP3   OH223900   3.330   6.483   1.510
 7986TIP3    H123901   3.425   6.498   1.507
 7986TIP3    H223902   3.319   6.417   1.578
 7987TIP3   OH223903   5.658   4.358   3.213
 7987TIP3    H123904   5.606   4.285   3.179
 7987TIP3    H223905   5.643   4.356   3.308
 7988TIP3   OH223906   6.208   4.577   2.846
 7988TIP3    H123907   6.275   4.633   2.885
 7988TIP3    H223908   6.128   4.630   2.846
 7989TIP3   OH223909   3.905   7.524   6.100
 7989TIP3    H123910   3.949   7.542   6.018
 7989TIP3    H223911   3.831   7.584   6.102
 7990TIP3   OH223912   1.340   2.747   3.247
 7990TIP3    H123913   1.257   2.753   3.199
 7990TIP3    H223914   1.406   2.733   3.180
 7991TIP3   OH223915   6.790   2.833   2.471
 7991TIP3    H123916   6.799   2.749   2.426
 7991TIP3    H223917   6.703   2.864   2.447
 7992TIP3   OH223918   5.628   4.739   2.661
 7992TIP3    H123919   5.555   4.782   2.706
 7992TIP3    H223920   5.647   4.662   2.714
 7993TIP3   OH223921   1.219   7.049   2.866
 7993TIP3    H123922   1.260   7.059   2.781
 7993TIP3    H223923   1.243   6.961   2.895
 7994TIP3   OH223924   3.765   0.081   4.815
 7994TIP3    H123925   3.738   0.118   4.730
 7994TIP3    H223926   3.687   0.035   4.846
 7995TIP3   OH223927   7.735   2.086   2.316
 7995TIP3    H123928   7.679   2.036   2.258
 7995TIP3    H223929   7.694   2.173   2.320
 7996TIP3   OH223930   4.002   1.345   1.714
 7996TIP3    H123931   3.910   1.345   1.688
 7996TIP3    H223932   4.046   1.292   1.647
 7997TIP3   OH223933   2.164   7.212   1.551
 7997TIP3    H123934   2.197   7.156   1.481
 7997TIP3    H223935   2.234   7.276   1.566
 7998TIP3   OH223936   0.321   3.020   3.151
 7998TIP3    H123937   0.374   2.997   3.228
 7998TIP3    H223938   0.290   2.936   3.118
 7999TIP3   OH223939   1.147   4.320   0.644
 7999TIP3    H123940   1.206   4.391   0.671
 7999TIP3    H223941   1.159   4.253   0.711
 8000TIP3   OH223942   4.752   7.022   4.329
 8000TIP3    H123943   4.657   7.015   4.333
 8000TIP3    H223944   4.778   7.046   4.418
 8001TIP3   OH223945   8.140   1.346   3.703
 8001TIP3    H123946   8.159   1.252   3.699
 8001TIP3    H223947   8.215   1.387   3.659
 8002TIP3   OH223948   4.902   6.115   6.663
 8002TIP3    H123949   4.984   6.099   6.616
 8002TIP3    H223950   4.880   6.031   6.703
 8003TIP3   OH223951   4.000   5.634   5.942
 8003TIP3    H123952   4.055   5.631   6.021
 8003TIP3    H223953   4.038   5.570   5.883
 8004TIP3   OH223954   3.746   6.183   2.158
 8004TIP3    H123955   3.835   6.218   2.162
 8004TIP3    H223956   3.728   6.153   2.247
 8005TIP3   OH223957   4.988   6.485   2.377
 8005TIP3    H123958   4.971   6.540   2.454
 8005TIP3    H223959   4.902   6.446   2.358
 8006TIP3   OH223960   5.595   7.574   1.268
 8006TIP3    H123961   5.571   7.611   1.354
 8006TIP3    H223962   5.685   7.543   1.279
 8007TIP3   OH223963   3.572   6.929   5.927
 8007TIP3    H123964   3.648   6.943   5.871
 8007TIP3    H223965   3.504   6.986   5.890
 8008TIP3   OH223966   7.003   6.871   5.603
 8008TIP3    H123967   7.030   6.804   5.539
 8008TIP3    H223968   7.015   6.829   5.688
 8009TIP3   OH223969   2.496   1.963   6.488
 8009TIP3    H123970   2.513   1.963   6.582
 8009TIP3    H223971   2.545   2.039   6.455
 8010TIP3   OH223972   0.795   1.023   5.781
 8010TIP3    H123973   0.797   0.928   5.794
 8010TIP3    H223974   0.732   1.036   5.710
 8011TIP3   OH223975   5.422   4.393   1.653
 8011TIP3    H123976   5.373   4.311   1.659
 8011TIP3    H223977   5.370   4.448   1.595
 8012TIP3   OH223978   3.509   0.557   1.356
 8012TIP3    H123979   3.541   0.468   1.371
 8012TIP3    H223980   3.518   0.600   1.441
 8013TIP3   OH223981   3.021   2.421   6.605
 8013TIP3    H123982   3.014   2.413   6.700
 8013TIP3    H223983   2.963   2.353   6.571
 8014TIP3   OH223984   0.944   2.291   5.803
 8014TIP3    H123985   0.900   2.372   5.777
 8014TIP3    H223986   1.000   2.269   5.729
 8015TIP3   OH223987   5.690   1.324   3.625
 8015TIP3    H123988   5.714   1.276   3.546
 8015TIP3    H223989   5.671   1.255   3.689
 8016TIP3   OH223990   5.256   7.792   3.240
 8016TIP3    H123991   5.183   7.766   3.297
 8016TIP3    H223992   5.215   7.837   3.167
 8017TIP3   OH223993   6.581   6.543   0.257
 8017TIP3    H123994   6.640   6.514   0.326
 8017TIP3    H223995   6.638   6.570   0.185
 8018TIP3   OH223996   6.266   2.762   5.553
 8018TIP3    H123997   6.324   2.836   5.531
 8018TIP3    H223998   6.324   2.698   5.593
 8019TIP3   OH223999   3.376   6.812   5.084
 8019TIP3    H124000   3.340   6.814   4.995
 8019TIP3    H224001   3.470   6.826   5.072
 8020TIP3   OH224002   7.559   5.370   3.195
 8020TIP3    H124003   7.542   5.464   3.193
 8020TIP3    H224004   7.650   5.361   3.169
 8021TIP3   OH224005   1.231   5.732   1.476
 8021TIP3    H124006   1.178   5.691   1.545
 8021TIP3    H224007   1.305   5.771   1.522
 8022TIP3   OH224008   8.154   0.820   2.260
 8022TIP3    H124009   8.143   0.725   2.260
 8022TIP3    H224010   8.092   0.851   2.193
 8023TIP3   OH224011   2.742   6.832   2.575
 8023TIP3    H124012   2.786   6.916   2.573
 8023TIP3    H224013   2.666   6.846   2.632
 8024TIP3   OH224014   0.338   3.163   4.998
 8024TIP3    H124015   0.418   3.199   5.035
 8024TIP3    H224016   0.345   3.069   5.011
 8025TIP3   OH224017   4.527   3.797   6.724
 8025TIP3    H124018   4.452   3.857   6.720
 8025TIP3    H224019   4.602   3.853   6.743
 8026TIP3   OH224020   2.432   1.451   1.879
 8026TIP3    H124021   2.510   1.397   1.873
 8026TIP3    H224022   2.438   1.510   1.804
 8027TIP3   OH224023   2.341   3.491   5.264
 8027TIP3    H124024   2.275   3.509   5.197
 8027TIP3    H224025   2.379   3.407   5.238
 8028TIP3   OH224026   3.738   3.284   4.988
 8028TIP3    H124027   3.696   3.332   4.916
 8028TIP3    H224028   3.732   3.192   4.963
 8029TIP3   OH224029   2.247   4.169   5.127
 8029TIP3    H124030   2.319   4.173   5.191
 8029TIP3    H224031   2.175   4.215   5.170
 8030TIP3   OH224032   6.882   6.784   3.302
 8030TIP3    H124033   6.879   6.878   3.284
 8030TIP3    H224034   6.791   6.760   3.319
 8031TIP3   OH224035   2.390   1.874   3.473
 8031TIP3    H124036   2.433   1.794   3.444
 8031TIP3    H224037   2.364   1.919   3.392
 8032TIP3   OH224038   0.588   7.697   3.847
 8032TIP3    H124039   0.679   7.725   3.839
 8032TIP3    H224040   0.568   7.655   3.764
 8033TIP3   OH224041   2.488   3.600   6.063
 8033TIP3    H124042   2.528   3.525   6.019
 8033TIP3    H224043   2.395   3.578   6.068
 8034TIP3   OH224044   6.144   1.717   5.823
 8034TIP3    H124045   6.192   1.800   5.821
 8034TIP3    H224046   6.064   1.734   5.774
 8035TIP3   OH224047   6.761   1.209   1.409
 8035TIP3    H124048   6.700   1.188   1.338
 8035TIP3    H224049   6.847   1.189   1.372
 8036TIP3   OH224050   6.694   6.536   6.208
 8036TIP3    H124051   6.707   6.485   6.288
 8036TIP3    H224052   6.652   6.475   6.148
 8037TIP3   OH224053   5.288   4.498   1.390
 8037TIP3    H124054   5.211   4.454   1.353
 8037TIP3    H224055   5.331   4.538   1.315
 8038TIP3   OH224056   3.397   6.261   4.865
 8038TIP3    H124057   3.315   6.247   4.912
 8038TIP3    H224058   3.464   6.224   4.923
 8039TIP3   OH224059   3.488   6.448   1.074
 8039TIP3    H124060   3.401   6.478   1.045
 8039TIP3    H224061   3.472   6.361   1.111
 8040TIP3   OH224062   4.145   4.567   3.086
 8040TIP3    H124063   4.164   4.541   2.996
 8040TIP3    H224064   4.119   4.486   3.129
 8041TIP3   OH224065   6.092   5.359   2.193
 8041TIP3    H124066   6.137   5.421   2.251
 8041TIP3    H224067   6.049   5.298   2.253
 8042TIP3   OH224068   5.954   3.360   2.245
 8042TIP3    H124069   5.959   3.264   2.244
 8042TIP3    H224070   5.950   3.385   2.153
 8043TIP3   OH224071   2.104   4.646   4.644
 8043TIP3    H124072   2.155   4.564   4.648
 8043TIP3    H224073   2.057   4.641   4.561
 8044TIP3   OH224074   0.409   5.138   3.669
 8044TIP3    H124075   0.372   5.065   3.618
 8044TIP3    H224076   0.333   5.193   3.689
 8045TIP3   OH224077   2.828   4.041   3.709
 8045TIP3    H124078   2.749   3.987   3.717
 8045TIP3    H224079   2.831   4.065   3.616
 8046TIP3   OH224080   2.837   3.828   6.051
 8046TIP3    H124081   2.918   3.782   6.028
 8046TIP3    H224082   2.811   3.791   6.136
 8047TIP3   OH224083   6.367   7.019   4.838
 8047TIP3    H124084   6.399   7.033   4.927
 8047TIP3    H224085   6.285   7.069   4.835
 8048TIP3   OH224086   0.044   3.564   4.042
 8048TIP3    H124087   0.037   3.625   4.116
 8048TIP3    H224088   0.067   3.480   4.082
 8049TIP3   OH224089   4.239   2.304   6.227
 8049TIP3    H124090   4.305   2.322   6.160
 8049TIP3    H224091   4.275   2.232   6.279
 8050TIP3   OH224092   7.365   5.191   6.374
 8050TIP3    H124093   7.336   5.230   6.292
 8050TIP3    H224094   7.314   5.235   6.442
 8051TIP3   OH224095   4.268   1.062   5.463
 8051TIP3    H124096   4.333   1.074   5.393
 8051TIP3    H224097   4.293   0.980   5.506
 8052TIP3   OH224098   7.382   0.429   0.210
 8052TIP3    H124099   7.397   0.360   0.275
 8052TIP3    H224100   7.313   0.393   0.153
 8053TIP3   OH224101   6.200   5.546   5.531
 8053TIP3    H124102   6.237   5.495   5.459
 8053TIP3    H224103   6.108   5.520   5.534
 8054TIP3   OH224104   1.328   3.172   0.306
 8054TIP3    H124105   1.268   3.242   0.331
 8054TIP3    H224106   1.324   3.169   0.210
 8055TIP3   OH224107  -0.018   7.699   4.923
 8055TIP3    H124108   0.018   7.727   4.839
 8055TIP3    H224109   0.049   7.722   4.987
 8056TIP3   OH224110   4.904   6.961   5.043
 8056TIP3    H124111   4.874   7.047   5.072
 8056TIP3    H224112   4.954   6.979   4.963
 8057TIP3   OH224113   1.192   3.938   5.218
 8057TIP3    H124114   1.201   4.031   5.200
 8057TIP3    H224115   1.271   3.915   5.268
 8058TIP3   OH224116   4.813   1.290   4.862
 8058TIP3    H124117   4.759   1.358   4.901
 8058TIP3    H224118   4.755   1.246   4.800
 8059TIP3   OH224119   5.101   3.926   3.319
 8059TIP3    H124120   5.163   3.901   3.250
 8059TIP3    H224121   5.043   3.990   3.277
 8060TIP3   OH224122   7.864   2.826   2.644
 8060TIP3    H124123   7.919   2.902   2.624
 8060TIP3    H224124   7.923   2.766   2.689
 8061TIP3   OH224125   6.251   0.277   5.476
 8061TIP3    H124126   6.330   0.232   5.507
 8061TIP3    H224127   6.198   0.208   5.437
 8062TIP3   OH224128   5.028   5.292   5.804
 8062TIP3    H124129   5.068   5.207   5.784
 8062TIP3    H224130   5.091   5.356   5.770
 8063TIP3   OH224131   1.819   0.044   4.597
 8063TIP3    H124132   1.734   0.088   4.608
 8063TIP3    H224133   1.883   0.116   4.600
 8064TIP3   OH224134   0.356   3.988   5.700
 8064TIP3    H124135   0.292   3.943   5.754
 8064TIP3    H224136   0.416   4.029   5.762
 8065TIP3   OH224137   6.480   2.915   5.435
 8065TIP3    H124138   6.500   2.988   5.494
 8065TIP3    H224139   6.565   2.883   5.406
 8066TIP3   OH224140   4.043   5.705   4.480
 8066TIP3    H124141   3.964   5.689   4.429
 8066TIP3    H224142   4.012   5.713   4.571
 8067TIP3   OH224143   6.415   1.230   1.460
 8067TIP3    H124144   6.325   1.260   1.468
 8067TIP3    H224145   6.468   1.307   1.480
 8068TIP3   OH224146   7.387   4.751   6.206
 8068TIP3    H124147   7.401   4.844   6.188
 8068TIP3    H224148   7.413   4.739   6.297
 8069TIP3   OH224149   7.765   7.702   6.012
 8069TIP3    H124150   7.738   7.629   6.068
 8069TIP3    H224151   7.752   7.779   6.066
 8070TIP3   OH224152   1.660   2.265   4.811
 8070TIP3    H124153   1.569   2.274   4.781
 8070TIP3    H224154   1.712   2.281   4.733
 8071TIP3   OH224155   5.540   6.307   2.229
 8071TIP3    H124156   5.629   6.284   2.255
 8071TIP3    H224157   5.531   6.275   2.140
 8072TIP3   OH224158   7.885   4.104   2.314
 8072TIP3    H124159   7.903   4.064   2.399
 8072TIP3    H224160   7.875   4.029   2.255
 8073TIP3   OH224161   6.527   7.693   3.107
 8073TIP3    H124162   6.444   7.686   3.155
 8073TIP3    H224163   6.524   7.780   3.066
 8074TIP3   OH224164   1.587   5.980   2.735
 8074TIP3    H124165   1.623   6.064   2.763
 8074TIP3    H224166   1.496   5.998   2.715
 8075TIP3   OH224167   7.788   2.559   0.126
 8075TIP3    H124168   7.801   2.550   0.031
 8075TIP3    H224169   7.696   2.536   0.140
 8076TIP3   OH224170   3.408   3.200   3.635
 8076TIP3    H124171   3.453   3.156   3.707
 8076TIP3    H224172   3.465   3.272   3.612
 8077TIP3   OH224173   2.784   5.055   5.341
 8077TIP3    H124174   2.741   5.061   5.255
 8077TIP3    H224175   2.869   5.097   5.328
 8078TIP3   OH224176   6.164   7.126   6.680
 8078TIP3    H124177   6.184   7.191   6.747
 8078TIP3    H224178   6.248   7.086   6.659
 8079TIP3   OH224179   7.745   7.574   0.730
 8079TIP3    H124180   7.820   7.515   0.724
 8079TIP3    H224181   7.694   7.555   0.650
 8080TIP3   OH224182   2.857   6.662   1.765
 8080TIP3    H124183   2.867   6.611   1.845
 8080TIP3    H224184   2.855   6.597   1.695
 8081TIP3   OH224185   6.888   4.321   5.252
 8081TIP3    H124186   6.975   4.331   5.292
 8081TIP3    H224187   6.882   4.228   5.233
 8082TIP3   OH224188   6.968   6.081   4.290
 8082TIP3    H124189   6.956   6.174   4.274
 8082TIP3    H224190   7.061   6.065   4.275
 8083TIP3   OH224191   8.162   3.570   5.942
 8083TIP3    H124192   8.073   3.537   5.955
 8083TIP3    H224193   8.216   3.492   5.932
 8084TIP3   OH224194   0.991   7.393   1.027
 8084TIP3    H124195   0.940   7.312   1.033
 8084TIP3    H224196   1.046   7.393   1.105
 8085TIP3   OH224197   0.521   7.512   5.594
 8085TIP3    H124198   0.518   7.436   5.652
 8085TIP3    H224199   0.429   7.541   5.589
 8086TIP3   OH224200   8.250   1.346   0.974
 8086TIP3    H124201   8.187   1.288   1.017
 8086TIP3    H224202   8.302   1.288   0.919
 8087TIP3   OH224203   2.113   5.150   5.769
 8087TIP3    H124204   2.080   5.240   5.769
 8087TIP3    H224205   2.206   5.159   5.746
 8088TIP3   OH224206   3.146   5.235   2.275
 8088TIP3    H124207   3.116   5.314   2.230
 8088TIP3    H224208   3.229   5.260   2.316
 8089TIP3   OH224209   2.822   3.045   4.586
 8089TIP3    H124210   2.890   3.068   4.523
 8089TIP3    H224211   2.751   3.008   4.534
 8090TIP3   OH224212   3.914   7.596   5.694
 8090TIP3    H124213   3.949   7.571   5.608
 8090TIP3    H224214   3.823   7.621   5.677
 8091TIP3   OH224215   4.244   6.244   0.785
 8091TIP3    H124216   4.236   6.319   0.726
 8091TIP3    H224217   4.287   6.177   0.732
 8092TIP3   OH224218   2.469   4.415   2.384
 8092TIP3    H124219   2.517   4.371   2.314
 8092TIP3    H224220   2.444   4.500   2.347
 8093TIP3   OH224221   0.657   3.782   6.659
 8093TIP3    H124222   0.576   3.734   6.678
 8093TIP3    H224223   0.627   3.871   6.638
 8094TIP3   OH224224   7.145   3.862   6.142
 8094TIP3    H124225   7.058   3.866   6.183
 8094TIP3    H224226   7.189   3.941   6.171
 8095TIP3   OH224227   6.822   4.037   5.071
 8095TIP3    H124228   6.803   4.020   5.163
 8095TIP3    H224229   6.748   4.091   5.041
 8096TIP3   OH224230   5.410   4.259   6.314
 8096TIP3    H124231   5.381   4.347   6.288
 8096TIP3    H224232   5.329   4.208   6.318
 8097TIP3   OH224233   1.886   2.263   5.204
 8097TIP3    H124234   1.884   2.211   5.123
 8097TIP3    H224235   1.796   2.293   5.216
 8098TIP3   OH224236   2.926   0.126   5.455
 8098TIP3    H124237   2.842   0.123   5.408
 8098TIP3    H224238   2.913   0.070   5.531
 8099TIP3   OH224239   4.845   5.175   5.226
 8099TIP3    H124240   4.900   5.203   5.153
 8099TIP3    H224241   4.803   5.255   5.257
 8100TIP3   OH224242   2.861   2.238   3.916
 8100TIP3    H124243   2.928   2.225   3.850
 8100TIP3    H224244   2.789   2.281   3.870
 8101TIP3   OH224245   7.067   0.724   1.035
 8101TIP3    H124246   7.005   0.656   1.061
 8101TIP3    H224247   7.035   0.804   1.078
 8102TIP3   OH224248   3.021   0.257   2.914
 8102TIP3    H124249   3.008   0.241   3.008
 8102TIP3    H224250   2.938   0.230   2.874
 8103TIP3   OH224251   6.125   5.589   1.156
 8103TIP3    H124252   6.087   5.548   1.234
 8103TIP3    H224253   6.207   5.628   1.187
 8104TIP3   OH224254   5.972   5.338   4.758
 8104TIP3    H124255   6.052   5.287   4.748
 8104TIP3    H224256   6.001   5.429   4.758
 8105TIP3   OH224257   4.336   5.811   2.629
 8105TIP3    H124258   4.299   5.736   2.582
 8105TIP3    H224259   4.384   5.771   2.703
 8106TIP3   OH224260   7.602   6.396   3.962
 8106TIP3    H124261   7.566   6.315   3.926
 8106TIP3    H224262   7.669   6.423   3.900
 8107TIP3   OH224263   5.830   6.793   1.136
 8107TIP3    H124264   5.869   6.775   1.222
 8107TIP3    H224265   5.837   6.709   1.090
 8108TIP3   OH224266   3.409   4.848   1.688
 8108TIP3    H124267   3.426   4.920   1.628
 8108TIP3    H224268   3.437   4.881   1.773
 8109TIP3   OH224269   1.973   2.402   4.559
 8109TIP3    H124270   2.046   2.449   4.598
 8109TIP3    H224271   2.012   2.322   4.523
 8110TIP3   OH224272   3.541   0.294   1.501
 8110TIP3    H124273   3.636   0.299   1.515
 8110TIP3    H224274   3.506   0.274   1.588
 8111TIP3   OH224275   6.898   3.739   1.607
 8111TIP3    H124276   6.922   3.715   1.518
 8111TIP3    H224277   6.926   3.830   1.615
 8112TIP3   OH224278   7.079   2.747   4.826
 8112TIP3    H124279   7.004   2.783   4.874
 8112TIP3    H224280   7.129   2.824   4.797
 8113TIP3   OH224281   0.244   2.782   3.015
 8113TIP3    H124282   0.150   2.798   3.003
 8113TIP3    H224283   0.264   2.710   2.955
 8114TIP3   OH224284   6.128   5.414   3.632
 8114TIP3    H124285   6.176   5.497   3.641
 8114TIP3    H224286   6.180   5.364   3.569
 8115TIP3   OH224287   2.203   3.665   2.633
 8115TIP3    H124288   2.254   3.587   2.612
 8115TIP3    H224289   2.266   3.724   2.675
 8116TIP3   OH224290   1.725   0.283   6.213
 8116TIP3    H124291   1.751   0.230   6.138
 8116TIP3    H224292   1.807   0.323   6.244
 8117TIP3   OH224293   6.028   5.788   0.125
 8117TIP3    H124294   6.102   5.847   0.110
 8117TIP3    H224295   6.026   5.732   0.048
 8118TIP3   OH224296   3.314   7.211   3.602
 8118TIP3    H124297   3.339   7.231   3.512
 8118TIP3    H224298   3.318   7.115   3.607
 8119TIP3   OH224299   3.641   2.455   5.912
 8119TIP3    H124300   3.638   2.463   6.007
 8119TIP3    H224301   3.668   2.364   5.896
 8120TIP3   OH224302   6.878   0.949   0.832
 8120TIP3    H124303   6.909   0.876   0.885
 8120TIP3    H224304   6.940   0.953   0.759
 8121TIP3   OH224305   6.024   0.353   6.127
 8121TIP3    H124306   5.955   0.310   6.178
 8121TIP3    H224307   5.989   0.441   6.110
 8122TIP3   OH224308   2.806   2.334   1.224
 8122TIP3    H124309   2.782   2.363   1.312
 8122TIP3    H224310   2.724   2.308   1.183
 8123TIP3   OH224311   7.787   4.646   6.150
 8123TIP3    H124312   7.842   4.656   6.228
 8123TIP3    H224313   7.703   4.683   6.176
 8124TIP3   OH224314   5.558   6.686   3.624
 8124TIP3    H124315   5.589   6.692   3.534
 8124TIP3    H224316   5.511   6.603   3.627
 8125TIP3   OH224317   4.855   4.464   5.066
 8125TIP3    H124318   4.845   4.547   5.019
 8125TIP3    H224319   4.884   4.402   4.999
 8126TIP3   OH224320   1.635   3.359   2.028
 8126TIP3    H124321   1.550   3.399   2.050
 8126TIP3    H224322   1.615   3.266   2.021
 8127TIP3   OH224323   2.286   1.351   0.311
 8127TIP3    H124324   2.380   1.335   0.307
 8127TIP3    H224325   2.277   1.445   0.295
 8128TIP3   OH224326   0.115   2.539   6.269
 8128TIP3    H124327   0.178   2.484   6.316
 8128TIP3    H224328   0.159   2.623   6.258
 8129TIP3   OH224329   0.318   6.700   4.961
 8129TIP3    H124330   0.278   6.687   4.876
 8129TIP3    H224331   0.259   6.760   5.007
 8130TIP3   OH224332   7.481   0.105   6.486
 8130TIP3    H124333   7.543   0.165   6.445
 8130TIP3    H224334   7.455   0.045   6.416
 8131TIP3   OH224335   1.039   3.908   6.683
 8131TIP3    H124336   0.980   3.923   6.757
 8131TIP3    H224337   0.985   3.927   6.606
 8132TIP3   OH224338   2.808   3.326   1.174
 8132TIP3    H124339   2.814   3.242   1.129
 8132TIP3    H224340   2.851   3.312   1.258
 8133TIP3   OH224341   3.023   4.837   3.730
 8133TIP3    H124342   2.983   4.905   3.784
 8133TIP3    H224343   3.059   4.884   3.654
 8134TIP3   OH224344   6.002   6.367   1.299
 8134TIP3    H124345   5.937   6.383   1.367
 8134TIP3    H224346   6.066   6.437   1.310
 8135TIP3   OH224347   0.819   0.317   2.943
 8135TIP3    H124348   0.819   0.412   2.960
 8135TIP3    H224349   0.728   0.296   2.926
 8136TIP3   OH224350   8.047   0.218   5.810
 8136TIP3    H124351   8.089   0.139   5.843
 8136TIP3    H224352   7.957   0.192   5.790
 8137TIP3   OH224353   5.814   2.653   3.405
 8137TIP3    H124354   5.907   2.675   3.416
 8137TIP3    H224355   5.815   2.577   3.346
 8138TIP3   OH224356   1.508   3.799   6.004
 8138TIP3    H124357   1.433   3.796   6.063
 8138TIP3    H224358   1.526   3.892   5.992
 8139TIP3   OH224359   4.757   6.666   6.373
 8139TIP3    H124360   4.694   6.637   6.308
 8139TIP3    H224361   4.739   6.759   6.385
 8140TIP3   OH224362   8.075   5.226   2.623
 8140TIP3    H124363   8.041   5.196   2.707
 8140TIP3    H224364   8.158   5.268   2.645
 8141TIP3   OH224365   0.464   5.495   0.431
 8141TIP3    H124366   0.470   5.588   0.450
 8141TIP3    H224367   0.515   5.453   0.501
 8142TIP3   OH224368   2.456   1.673   4.554
 8142TIP3    H124369   2.409   1.676   4.637
 8142TIP3    H224370   2.395   1.708   4.490
 8143TIP3   OH224371   4.574   2.544   2.553
 8143TIP3    H124372   4.540   2.457   2.572
 8143TIP3    H224373   4.572   2.589   2.637
 8144TIP3   OH224374   0.411   0.502   4.638
 8144TIP3    H124375   0.422   0.527   4.730
 8144TIP3    H224376   0.373   0.415   4.641
 8145TIP3   OH224377   5.184   4.346   2.058
 8145TIP3    H124378   5.105   4.348   2.004
 8145TIP3    H224379   5.214   4.437   2.060
 8146TIP3   OH224380   4.115   6.338   5.769
 8146TIP3    H124381   4.079   6.305   5.687
 8146TIP3    H224382   4.209   6.347   5.751
 8147TIP3   OH224383   5.823   4.113   2.624
 8147TIP3    H124384   5.735   4.151   2.628
 8147TIP3    H224385   5.881   4.186   2.649
 8148TIP3   OH224386   0.333   7.103   3.070
 8148TIP3    H124387   0.266   7.040   3.043
 8148TIP3    H224388   0.308   7.128   3.159
 8149TIP3   OH224389   7.698   3.862   2.591
 8149TIP3    H124390   7.779   3.903   2.621
 8149TIP3    H224391   7.628   3.912   2.633
 8150TIP3   OH224392   0.087   5.581   0.561
 8150TIP3    H124393   0.100   5.496   0.519
 8150TIP3    H224394   0.111   5.566   0.653
 8151TIP3   OH224395   7.719   1.369   3.120
 8151TIP3    H124396   7.712   1.325   3.205
 8151TIP3    H224397   7.630   1.369   3.086
 8152TIP3   OH224398   3.584   7.039   6.243
 8152TIP3    H124399   3.518   7.093   6.286
 8152TIP3    H224400   3.617   7.093   6.171
 8153TIP3   OH224401   8.116   6.911   2.383
 8153TIP3    H124402   8.038   6.904   2.437
 8153TIP3    H224403   8.084   6.903   2.293
 8154TIP3   OH224404   4.958   3.462   1.768
 8154TIP3    H124405   5.027   3.471   1.833
 8154TIP3    H224406   5.003   3.467   1.684
 8155TIP3   OH224407   6.171   2.459   5.488
 8155TIP3    H124408   6.199   2.386   5.543
 8155TIP3    H224409   6.205   2.537   5.531
 8156TIP3   OH224410   2.914   5.951   3.412
 8156TIP3    H124411   2.954   5.907   3.337
 8156TIP3    H224412   2.825   5.917   3.415
 8157TIP3   OH224413   3.943   4.103   6.372
 8157TIP3    H124414   3.864   4.072   6.328
 8157TIP3    H224415   3.998   4.025   6.381
 8158TIP3   OH224416   3.077   1.663   1.356
 8158TIP3    H124417   3.075   1.756   1.333
 8158TIP3    H224418   2.986   1.641   1.372
 8159TIP3   OH224419   1.635   7.637   4.154
 8159TIP3    H124420   1.610   7.707   4.215
 8159TIP3    H224421   1.553   7.592   4.134
 8160TIP3   OH224422   2.499   6.298   1.069
 8160TIP3    H124423   2.426   6.356   1.091
 8160TIP3    H224424   2.459   6.212   1.056
 8161TIP3   OH224425   6.298   4.576   1.063
 8161TIP3    H124426   6.242   4.608   0.993
 8161TIP3    H224427   6.263   4.490   1.086
 8162TIP3   OH224428   6.130   1.008   2.212
 8162TIP3    H124429   6.196   0.996   2.144
 8162TIP3    H224430   6.123   0.922   2.254
 8163TIP3   OH224431   4.713   7.335   4.324
 8163TIP3    H124432   4.785   7.383   4.284
 8163TIP3    H224433   4.703   7.257   4.270
 8164TIP3   OH224434   7.889   5.871   0.184
 8164TIP3    H124435   7.831   5.931   0.229
 8164TIP3    H224436   7.831   5.805   0.146
 8165TIP3   OH224437   0.983   0.159   3.084
 8165TIP3    H124438   0.945   0.208   3.012
 8165TIP3    H224439   0.952   0.204   3.163
 8166TIP3   OH224440   4.596   0.975   0.486
 8166TIP3    H124441   4.563   0.937   0.568
 8166TIP3    H224442   4.687   0.948   0.481
 8167TIP3   OH224443   5.591   6.857   5.219
 8167TIP3    H124444   5.563   6.919   5.287
 8167TIP3    H224445   5.674   6.823   5.252
 8168TIP3   OH224446   4.503   1.819   3.376
 8168TIP3    H124447   4.564   1.824   3.450
 8168TIP3    H224448   4.463   1.906   3.373
 8169TIP3   OH224449   0.732   0.966   0.806
 8169TIP3    H124450   0.748   0.905   0.878
 8169TIP3    H224451   0.746   0.914   0.727
 8170TIP3   OH224452   4.375   6.420   3.803
 8170TIP3    H124453   4.383   6.491   3.866
 8170TIP3    H224454   4.328   6.351   3.850
 8171TIP3   OH224455   0.535   2.335   1.881
 8171TIP3    H124456   0.537   2.240   1.885
 8171TIP3    H224457   0.573   2.364   1.964
 8172TIP3   OH224458   6.845   4.705   5.749
 8172TIP3    H124459   6.814   4.670   5.666
 8172TIP3    H224460   6.862   4.798   5.731
 8173TIP3   OH224461   6.834   1.957   3.400
 8173TIP3    H124462   6.892   1.933   3.472
 8173TIP3    H224463   6.748   1.923   3.426
 8174TIP3   OH224464   6.424   1.438   0.182
 8174TIP3    H124465   6.477   1.444   0.261
 8174TIP3    H224466   6.382   1.352   0.186
 8175TIP3   OH224467   7.232   5.204   5.592
 8175TIP3    H124468   7.137   5.194   5.584
 8175TIP3    H224469   7.267   5.121   5.559
 8176TIP3   OH224470   5.518   2.855   5.681
 8176TIP3    H124471   5.611   2.840   5.694
 8176TIP3    H224472   5.513   2.912   5.604
 8177TIP3   OH224473   7.470   7.665   5.324
 8177TIP3    H124474   7.502   7.638   5.410
 8177TIP3    H224475   7.414   7.593   5.295
 8178TIP3   OH224476   4.132   7.630   2.091
 8178TIP3    H124477   4.091   7.547   2.114
 8178TIP3    H224478   4.128   7.633   1.995
 8179TIP3   OH224479   5.195   4.442   5.412
 8179TIP3    H124480   5.137   4.482   5.347
 8179TIP3    H224481   5.175   4.349   5.409
 8180TIP3   OH224482   1.436   6.938   0.311
 8180TIP3    H124483   1.521   6.915   0.273
 8180TIP3    H224484   1.439   6.902   0.400
 8181TIP3   OH224485   4.143   3.447   3.121
 8181TIP3    H124486   4.070   3.506   3.099
 8181TIP3    H224487   4.150   3.389   3.045
 8182TIP3   OH224488   2.426   1.515   0.789
 8182TIP3    H124489   2.386   1.588   0.744
 8182TIP3    H224490   2.394   1.437   0.743
 8183TIP3   OH224491   1.844   2.524   1.084
 8183TIP3    H124492   1.779   2.564   1.142
 8183TIP3    H224493   1.923   2.578   1.096
 8184TIP3   OH224494   3.393   4.443   6.655
 8184TIP3    H124495   3.467   4.488   6.696
 8184TIP3    H224496   3.411   4.350   6.671
 8185TIP3   OH224497   3.971   1.351   6.518
 8185TIP3    H124498   3.889   1.372   6.473
 8185TIP3    H224499   4.006   1.436   6.543
 8186TIP3   OH224500   2.923   5.111   2.152
 8186TIP3    H124501   2.964   5.172   2.214
 8186TIP3    H224502   2.972   5.123   2.071
 8187TIP3   OH224503   5.894   0.772   0.174
 8187TIP3    H124504   5.971   0.744   0.224
 8187TIP3    H224505   5.892   0.712   0.099
 8188TIP3   OH224506   2.210   6.238   6.002
 8188TIP3    H124507   2.269   6.274   5.935
 8188TIP3    H224508   2.215   6.143   5.989
 8189TIP3   OH224509   7.012   4.511   0.988
 8189TIP3    H124510   6.930   4.548   0.956
 8189TIP3    H224511   7.079   4.549   0.932
 8190TIP3   OH224512   3.986   7.692   1.645
 8190TIP3    H124513   3.921   7.635   1.603
 8190TIP3    H224514   4.000   7.653   1.731
 8191TIP3   OH224515   1.047   5.910   6.610
 8191TIP3    H124516   1.139   5.900   6.584
 8191TIP3    H224517   1.046   5.893   6.704
 8192TIP3   OH224518   6.075   2.775   3.481
 8192TIP3    H124519   6.085   2.788   3.575
 8192TIP3    H224520   6.159   2.802   3.444
 8193TIP3   OH224521   8.117   3.902   4.174
 8193TIP3    H124522   8.127   3.829   4.235
 8193TIP3    H224523   8.023   3.909   4.161
 8194TIP3   OH224524   7.457   3.624   5.079
 8194TIP3    H124525   7.428   3.550   5.132
 8194TIP3    H224526   7.549   3.637   5.102
 8195TIP3   OH224527   6.339   6.523   6.104
 8195TIP3    H124528   6.373   6.452   6.049
 8195TIP3    H224529   6.317   6.593   6.043
 8196TIP3   OH224530   1.931   3.048   3.959
 8196TIP3    H124531   1.982   3.066   3.880
 8196TIP3    H224532   1.912   3.134   3.996
 8197TIP3   OH224533   5.015   5.107   0.261
 8197TIP3    H124534   5.105   5.116   0.291
 8197TIP3    H224535   4.964   5.094   0.341
 8198TIP3   OH224536   1.675   5.724   2.705
 8198TIP3    H124537   1.637   5.663   2.768
 8198TIP3    H224538   1.621   5.803   2.712
 8199TIP3   OH224539   3.609   4.436   5.479
 8199TIP3    H124540   3.598   4.347   5.511
 8199TIP3    H224541   3.525   4.459   5.440
 8200TIP3   OH224542   1.601   7.239   2.240
 8200TIP3    H124543   1.666   7.173   2.263
 8200TIP3    H224544   1.635   7.279   2.160
 8201TIP3   OH224545   1.525   6.611   1.914
 8201TIP3    H124546   1.512   6.643   1.825
 8201TIP3    H224547   1.437   6.590   1.946
 8202TIP3   OH224548   2.356   7.360   5.906
 8202TIP3    H124549   2.341   7.452   5.928
 8202TIP3    H224550   2.396   7.323   5.984
 8203TIP3   OH224551   0.892   5.543   6.479
 8203TIP3    H124552   0.908   5.628   6.519
 8203TIP3    H224553   0.959   5.485   6.517
 8204TIP3   OH224554   0.650   0.238   1.624
 8204TIP3    H124555   0.575   0.178   1.621
 8204TIP3    H224556   0.611   0.325   1.619
 8205TIP3   OH224557   4.436   3.556   1.933
 8205TIP3    H124558   4.518   3.587   1.895
 8205TIP3    H224559   4.403   3.631   1.983
 8206TIP3   OH224560   4.159   7.061   3.669
 8206TIP3    H124561   4.102   7.077   3.595
 8206TIP3    H224562   4.229   7.006   3.634
 8207TIP3   OH224563   7.944   1.746   4.504
 8207TIP3    H124564   7.949   1.815   4.570
 8207TIP3    H224565   8.035   1.717   4.492
 8208TIP3   OH224566   0.171   1.713   6.617
 8208TIP3    H124567   0.217   1.632   6.635
 8208TIP3    H224568   0.124   1.733   6.698
 8209TIP3   OH224569   2.753   7.056   5.960
 8209TIP3    H124570   2.838   7.014   5.973
 8209TIP3    H224571   2.691   6.999   6.005
 8210TIP3   OH224572   1.948   1.673   1.933
 8210TIP3    H124573   1.961   1.654   2.026
 8210TIP3    H224574   2.028   1.644   1.891
 8211TIP3   OH224575   2.564   7.371   5.107
 8211TIP3    H124576   2.577   7.301   5.043
 8211TIP3    H224577   2.618   7.444   5.075
 8212TIP3   OH224578   5.907   4.154   1.237
 8212TIP3    H124579   5.847   4.133   1.309
 8212TIP3    H224580   5.992   4.168   1.280
 8213TIP3   OH224581   6.673   7.171   0.123
 8213TIP3    H124582   6.590   7.193   0.081
 8213TIP3    H224583   6.740   7.205   0.063
 8214TIP3   OH224584   6.821   0.806   4.874
 8214TIP3    H124585   6.788   0.889   4.840
 8214TIP3    H224586   6.879   0.830   4.946
 8215TIP3   OH224587   7.645   6.513   4.672
 8215TIP3    H124588   7.651   6.435   4.727
 8215TIP3    H224589   7.670   6.585   4.730
 8216TIP3   OH224590   4.747   5.945   5.330
 8216TIP3    H124591   4.798   5.987   5.400
 8216TIP3    H224592   4.756   5.851   5.348
 8217TIP3   OH224593   3.911   1.036   4.045
 8217TIP3    H124594   3.955   0.962   4.004
 8217TIP3    H224595   3.818   1.023   4.025
 8218TIP3   OH224596   2.541   5.275   4.170
 8218TIP3    H124597   2.583   5.203   4.217
 8218TIP3    H224598   2.474   5.233   4.117
 8219TIP3   OH224599   6.824   1.400   1.594
 8219TIP3    H124600   6.919   1.406   1.580
 8219TIP3    H224601   6.797   1.324   1.543
 8220TIP3   OH224602   2.455   5.789   0.214
 8220TIP3    H124603   2.519   5.818   0.278
 8220TIP3    H224604   2.495   5.810   0.129
 8221TIP3   OH224605   6.381   4.501   5.323
 8221TIP3    H124606   6.336   4.468   5.245
 8221TIP3    H224607   6.409   4.423   5.370
 8222TIP3   OH224608   0.321   2.761   3.735
 8222TIP3    H124609   0.279   2.834   3.689
 8222TIP3    H224610   0.393   2.802   3.783
 8223TIP3   OH224611   1.520   0.413   6.403
 8223TIP3    H124612   1.478   0.381   6.483
 8223TIP3    H224613   1.613   0.407   6.421
 8224TIP3   OH224614   7.319   5.772   2.100
 8224TIP3    H124615   7.393   5.735   2.053
 8224TIP3    H224616   7.322   5.730   2.187
 8225TIP3   OH224617   2.827   1.765   3.383
 8225TIP3    H124618   2.880   1.788   3.459
 8225TIP3    H224619   2.833   1.670   3.377
 8226TIP3   OH224620   3.793   3.319   0.436
 8226TIP3    H124621   3.844   3.292   0.360
 8226TIP3    H224622   3.703   3.327   0.404
 8227TIP3   OH224623   0.760   2.501   1.377
 8227TIP3    H124624   0.700   2.476   1.447
 8227TIP3    H224625   0.821   2.427   1.370
 8228TIP3   OH224626   2.206   3.654   0.256
 8228TIP3    H124627   2.260   3.726   0.288
 8228TIP3    H224628   2.134   3.648   0.318
 8229TIP3   OH224629   2.532   0.311   6.161
 8229TIP3    H124630   2.487   0.389   6.194
 8229TIP3    H224631   2.580   0.342   6.084
 8230TIP3   OH224632   4.029   6.136   5.558
 8230TIP3    H124633   4.065   6.111   5.472
 8230TIP3    H224634   4.040   6.058   5.612
 8231TIP3   OH224635   2.274   0.476   4.753
 8231TIP3    H124636   2.196   0.500   4.804
 8231TIP3    H224637   2.311   0.560   4.726
 8232TIP3   OH224638   3.113   1.782   3.830
 8232TIP3    H124639   3.056   1.855   3.853
 8232TIP3    H224640   3.167   1.769   3.908
 8233TIP3   OH224641   0.302   1.155   0.206
 8233TIP3    H124642   0.361   1.181   0.277
 8233TIP3    H224643   0.231   1.219   0.210
 8234TIP3   OH224644   3.773   2.061   2.326
 8234TIP3    H124645   3.776   1.971   2.359
 8234TIP3    H224646   3.693   2.065   2.273
 8235TIP3   OH224647   7.845   1.698   5.486
 8235TIP3    H124648   7.789   1.753   5.432
 8235TIP3    H224649   7.787   1.660   5.551
 8236TIP3   OH224650   6.193   1.646   5.220
 8236TIP3    H124651   6.105   1.647   5.183
 8236TIP3    H224652   6.199   1.561   5.264
 8237TIP3   OH224653   1.459   0.017   5.881
 8237TIP3    H124654   1.446   0.101   5.926
 8237TIP3    H224655   1.498   0.041   5.797
 8238TIP3   OH224656   7.318   4.993   1.339
 8238TIP3    H124657   7.338   4.926   1.405
 8238TIP3    H224658   7.235   5.030   1.368
 8239TIP3   OH224659   5.009   3.287   1.515
 8239TIP3    H124660   5.052   3.248   1.591
 8239TIP3    H224661   5.049   3.242   1.440
 8240TIP3   OH224662   7.475   4.008   1.008
 8240TIP3    H124663   7.428   3.937   0.965
 8240TIP3    H224664   7.425   4.087   0.986
 8241TIP3   OH224665   4.425   7.517   5.906
 8241TIP3    H124666   4.380   7.447   5.858
 8241TIP3    H224667   4.367   7.593   5.898
 8242TIP3   OH224668   1.759   1.464   2.517
 8242TIP3    H124669   1.698   1.521   2.563
 8242TIP3    H224670   1.751   1.379   2.559
 8243TIP3   OH224671   5.448   5.523   1.759
 8243TIP3    H124672   5.539   5.543   1.739
 8243TIP3    H224673   5.427   5.578   1.835
 8244TIP3   OH224674   1.368   3.817   2.081
 8244TIP3    H124675   1.288   3.793   2.033
 8244TIP3    H224676   1.439   3.794   2.022
 8245TIP3   OH224677   0.398   5.626   2.348
 8245TIP3    H124678   0.461   5.587   2.288
 8245TIP3    H224679   0.434   5.609   2.435
 8246TIP3   OH224680   2.222   6.545   4.533
 8246TIP3    H124681   2.193   6.454   4.520
 8246TIP3    H224682   2.212   6.585   4.446
 8247TIP3   OH224683   0.825   3.381   1.630
 8247TIP3    H124684   0.788   3.294   1.612
 8247TIP3    H224685   0.749   3.439   1.634
 8248TIP3   OH224686   6.054   3.196   1.071
 8248TIP3    H124687   6.044   3.192   0.976
 8248TIP3    H224688   6.130   3.253   1.085
 8249TIP3   OH224689   1.883   0.994   6.605
 8249TIP3    H124690   1.970   1.019   6.574
 8249TIP3    H224691   1.829   1.072   6.591
 8250TIP3   OH224692   0.380   0.689   5.003
 8250TIP3    H124693   0.469   0.708   4.974
 8250TIP3    H224694   0.387   0.681   5.098
 8251TIP3   OH224695   2.362   2.202   4.163
 8251TIP3    H124696   2.417   2.126   4.177
 8251TIP3    H224697   2.328   2.223   4.251
 8252TIP3   OH224698   4.396   3.726   0.646
 8252TIP3    H124699   4.304   3.746   0.665
 8252TIP3    H224700   4.392   3.659   0.578
 8253TIP3   OH224701   7.739   1.851   1.101
 8253TIP3    H124702   7.677   1.917   1.069
 8253TIP3    H224703   7.732   1.780   1.038
 8254TIP3   OH224704   1.775   0.897   3.459
 8254TIP3    H124705   1.825   0.821   3.488
 8254TIP3    H224706   1.773   0.955   3.535
 8255TIP3   OH224707   1.203   5.886   5.277
 8255TIP3    H124708   1.232   5.817   5.218
 8255TIP3    H224709   1.243   5.865   5.361
 8256TIP3   OH224710   3.096   0.131   0.194
 8256TIP3    H124711   3.043   0.090   0.262
 8256TIP3    H224712   3.163   0.066   0.172
 8257TIP3   OH224713   6.850   6.603   5.185
 8257TIP3    H124714   6.945   6.601   5.193
 8257TIP3    H224715   6.834   6.640   5.098
 8258TIP3   OH224716   2.556   3.375   5.882
 8258TIP3    H124717   2.644   3.359   5.917
 8258TIP3    H224718   2.561   3.345   5.791
 8259TIP3   OH224719   3.403   5.647   6.648
 8259TIP3    H124720   3.498   5.644   6.635
 8259TIP3    H224721   3.381   5.740   6.645
 8260TIP3   OH224722   1.793   3.560   0.449
 8260TIP3    H124723   1.732   3.624   0.486
 8260TIP3    H224724   1.877   3.606   0.444
 8261TIP3   OH224725   2.376   6.062   2.438
 8261TIP3    H124726   2.284   6.041   2.420
 8261TIP3    H224727   2.421   6.048   2.355
 8262TIP3   OH224728   8.223   6.281   1.102
 8262TIP3    H124729   8.225   6.349   1.035
 8262TIP3    H224730   8.194   6.327   1.181
 8263TIP3   OH224731   3.262   5.624   5.188
 8263TIP3    H124732   3.240   5.708   5.229
 8263TIP3    H224733   3.341   5.642   5.137
 8264TIP3   OH224734   8.281   1.281   5.811
 8264TIP3    H124735   8.269   1.196   5.853
 8264TIP3    H224736   8.247   1.270   5.723
 8265TIP3   OH224737   2.804   1.715   5.092
 8265TIP3    H124738   2.709   1.725   5.097
 8265TIP3    H224739   2.838   1.779   5.155
 8266TIP3   OH224740   5.827   6.563   0.330
 8266TIP3    H124741   5.808   6.477   0.368
 8266TIP3    H224742   5.897   6.599   0.386
 8267TIP3   OH224743   5.590   0.585   0.510
 8267TIP3    H124744   5.510   0.605   0.558
 8267TIP3    H224745   5.575   0.620   0.422
 8268TIP3   OH224746   5.562   0.929   3.477
 8268TIP3    H124747   5.520   0.856   3.432
 8268TIP3    H224748   5.573   0.996   3.409
 8269TIP3   OH224749   1.705   5.689   0.906
 8269TIP3    H124750   1.726   5.639   0.985
 8269TIP3    H224751   1.658   5.766   0.938
 8270TIP3   OH224752   4.326   6.355   4.401
 8270TIP3    H124753   4.401   6.414   4.411
 8270TIP3    H224754   4.267   6.378   4.473
 8271TIP3   OH224755   2.484   1.283   6.680
 8271TIP3    H124756   2.414   1.220   6.664
 8271TIP3    H224757   2.450   1.366   6.645
 8272TIP3   OH224758   0.246   7.311   5.672
 8272TIP3    H124759   0.153   7.312   5.649
 8272TIP3    H224760   0.266   7.402   5.693
 8273TIP3   OH224761   7.710   0.350   2.250
 8273TIP3    H124762   7.801   0.323   2.233
 8273TIP3    H224763   7.715   0.403   2.329
 8274TIP3   OH224764   7.451   5.329   5.168
 8274TIP3    H124765   7.496   5.283   5.097
 8274TIP3    H224766   7.371   5.362   5.128
 8275TIP3   OH224767   7.956   1.201   4.435
 8275TIP3    H124768   7.954   1.212   4.530
 8275TIP3    H224769   7.914   1.280   4.400
 8276TIP3   OH224770   5.510   6.021   0.122
 8276TIP3    H124771   5.425   6.046   0.158
 8276TIP3    H224772   5.571   6.031   0.195
 8277TIP3   OH224773   3.223   0.967   5.141
 8277TIP3    H124774   3.269   1.041   5.182
 8277TIP3    H224775   3.131   0.982   5.162
 8278TIP3   OH224776   6.909   5.015   3.480
 8278TIP3    H124777   6.968   5.072   3.431
 8278TIP3    H224778   6.863   5.074   3.540
 8279TIP3   OH224779   5.449   5.829   6.192
 8279TIP3    H124780   5.453   5.903   6.253
 8279TIP3    H224781   5.397   5.861   6.119
 8280TIP3   OH224782   5.407   5.656   2.912
 8280TIP3    H124783   5.314   5.634   2.907
 8280TIP3    H224784   5.419   5.720   2.841
 8281TIP3   OH224785   2.722   7.755   0.669
 8281TIP3    H124786   2.722   7.672   0.718
 8281TIP3    H224787   2.782   7.811   0.717
 8282TIP3   OH224788   4.241   5.068   3.502
 8282TIP3    H124789   4.202   4.987   3.471
 8282TIP3    H224790   4.235   5.128   3.427
 8283TIP3   OH224791   6.017   3.864   3.916
 8283TIP3    H124792   6.025   3.782   3.964
 8283TIP3    H224793   5.963   3.843   3.840
 8284TIP3   OH224794   5.194   0.273   1.912
 8284TIP3    H124795   5.195   0.308   2.001
 8284TIP3    H224796   5.221   0.347   1.857
 8285TIP3   OH224797   0.141   7.275   0.136
 8285TIP3    H124798   0.133   7.185   0.167
 8285TIP3    H224799   0.090   7.278   0.056
 8286TIP3   OH224800   0.290   1.375   0.748
 8286TIP3    H124801   0.228   1.342   0.683
 8286TIP3    H224802   0.285   1.312   0.820
 8287TIP3   OH224803   0.852   2.056   5.445
 8287TIP3    H124804   0.826   2.140   5.485
 8287TIP3    H224805   0.897   2.081   5.364
 8288TIP3   OH224806   6.080   4.969   2.943
 8288TIP3    H124807   6.075   4.917   3.024
 8288TIP3    H224808   6.024   5.044   2.959
 8289TIP3   OH224809   3.750   5.543   1.553
 8289TIP3    H124810   3.702   5.626   1.551
 8289TIP3    H224811   3.736   5.506   1.466
 8290TIP3   OH224812   0.359   6.259   6.106
 8290TIP3    H124813   0.275   6.217   6.127
 8290TIP3    H224814   0.403   6.267   6.191
 8291TIP3   OH224815   8.002   4.600   6.003
 8291TIP3    H124816   7.911   4.616   6.028
 8291TIP3    H224817   8.040   4.554   6.077
 8292TIP3   OH224818   1.231   2.205   0.111
 8292TIP3    H124819   1.214   2.114   0.136
 8292TIP3    H224820   1.307   2.200   0.052
 8293TIP3   OH224821   5.245   3.557   2.223
 8293TIP3    H124822   5.232   3.611   2.300
 8293TIP3    H224823   5.340   3.543   2.219
 8294TIP3   OH224824   2.539   3.117   2.856
 8294TIP3    H124825   2.550   3.046   2.794
 8294TIP3    H224826   2.625   3.158   2.863
 8295TIP3   OH224827   0.453   2.945   3.376
 8295TIP3    H124828   0.469   2.851   3.384
 8295TIP3    H224829   0.494   2.982   3.454
 8296TIP3   OH224830   4.948   7.251   0.328
 8296TIP3    H124831   4.922   7.343   0.327
 8296TIP3    H224832   5.035   7.251   0.368
 8297TIP3   OH224833   1.823   5.314   1.379
 8297TIP3    H124834   1.793   5.224   1.389
 8297TIP3    H224835   1.903   5.307   1.328
 8298TIP3   OH224836   3.512   2.533   5.500
 8298TIP3    H124837   3.446   2.496   5.559
 8298TIP3    H224838   3.583   2.469   5.500
 8299TIP3   OH224839   3.347   7.325   6.677
 8299TIP3    H124840   3.260   7.322   6.639
 8299TIP3    H224841   3.387   7.241   6.654
 8300TIP3   OH224842   5.166   0.118   4.019
 8300TIP3    H124843   5.118   0.048   3.976
 8300TIP3    H224844   5.123   0.198   3.990
 8301TIP3   OH224845   5.556   4.450   5.890
 8301TIP3    H124846   5.596   4.516   5.834
 8301TIP3    H224847   5.484   4.497   5.933
 8302TIP3   OH224848   5.563   5.987   1.228
 8302TIP3    H124849   5.513   6.011   1.150
 8302TIP3    H224850   5.631   6.055   1.234
 8303TIP3   OH224851   6.295   7.583   6.162
 8303TIP3    H124852   6.359   7.535   6.109
 8303TIP3    H224853   6.248   7.637   6.099
 8304TIP3   OH224854   7.755   4.668   0.440
 8304TIP3    H124855   7.746   4.748   0.492
 8304TIP3    H224856   7.849   4.653   0.437
 8305TIP3   OH224857   5.647   0.465   2.829
 8305TIP3    H124858   5.706   0.456   2.754
 8305TIP3    H224859   5.573   0.516   2.796
 8306TIP3   OH224860   4.211   1.417   5.815
 8306TIP3    H124861   4.203   1.392   5.723
 8306TIP3    H224862   4.160   1.351   5.862
 8307TIP3   OH224863   7.931   2.460   3.509
 8307TIP3    H124864   8.007   2.435   3.456
 8307TIP3    H224865   7.860   2.406   3.475
 8308TIP3   OH224866   2.033   4.539   5.839
 8308TIP3    H124867   1.994   4.494   5.913
 8308TIP3    H224868   1.958   4.569   5.787
 8309TIP3   OH224869   6.503   2.872   2.349
 8309TIP3    H124870   6.495   2.932   2.422
 8309TIP3    H224871   6.432   2.809   2.362
 8310TIP3   OH224872   3.261   3.330   1.524
 8310TIP3    H124873   3.198   3.263   1.499
 8310TIP3    H224874   3.208   3.410   1.535
 8311TIP3   OH224875   4.541   4.824   0.759
 8311TIP3    H124876   4.561   4.905   0.806
 8311TIP3    H224877   4.623   4.802   0.714
 8312TIP3   OH224878   4.688   3.388   3.179
 8312TIP3    H124879   4.615   3.442   3.147
 8312TIP3    H224880   4.734   3.446   3.240
 8313TIP3   OH224881   0.991   6.895   4.864
 8313TIP3    H124882   0.999   6.893   4.768
 8313TIP3    H224883   0.972   6.986   4.885
 8314TIP3   OH224884   4.878   2.491   5.205
 8314TIP3    H124885   4.970   2.511   5.187
 8314TIP3    H224886   4.856   2.421   5.143
 8315TIP3   OH224887   0.751   1.310   3.248
 8315TIP3    H124888   0.802   1.277   3.322
 8315TIP3    H224889   0.686   1.242   3.232
 8316TIP3   OH224890   7.276   6.046   0.537
 8316TIP3    H124891   7.325   5.971   0.503
 8316TIP3    H224892   7.339   6.092   0.593
 8317TIP3   OH224893   0.678   6.184   1.373
 8317TIP3    H124894   0.657   6.142   1.456
 8317TIP3    H224895   0.731   6.120   1.326
 8318TIP3   OH224896   4.330   4.541   0.523
 8318TIP3    H124897   4.400   4.605   0.511
 8318TIP3    H224898   4.279   4.546   0.442
 8319TIP3   OH224899   1.009   3.303   4.577
 8319TIP3    H124900   1.091   3.257   4.592
 8319TIP3    H224901   1.006   3.317   4.482
 8320TIP3   OH224902   3.278   1.143   2.206
 8320TIP3    H124903   3.212   1.211   2.220
 8320TIP3    H224904   3.230   1.071   2.166
 8321TIP3   OH224905   7.541   1.468   5.547
 8321TIP3    H124906   7.478   1.540   5.551
 8321TIP3    H224907   7.502   1.399   5.602
 8322TIP3   OH224908   6.974   3.786   2.916
 8322TIP3    H124909   6.978   3.690   2.921
 8322TIP3    H224910   6.893   3.803   2.868
 8323TIP3   OH224911   0.720   0.519   2.212
 8323TIP3    H124912   0.631   0.514   2.178
 8323TIP3    H224913   0.772   0.464   2.153
 8324TIP3   OH224914   3.221   4.330   1.013
 8324TIP3    H124915   3.256   4.246   0.985
 8324TIP3    H224916   3.298   4.378   1.046
 8325TIP3   OH224917   7.493   4.406   2.159
 8325TIP3    H124918   7.438   4.430   2.234
 8325TIP3    H224919   7.551   4.338   2.194
 8326TIP3   OH224920   4.250   0.725   6.133
 8326TIP3    H124921   4.225   0.706   6.224
 8326TIP3    H224922   4.225   0.647   6.085
 8327TIP3   OH224923   3.918   0.588   1.203
 8327TIP3    H124924   3.905   0.635   1.285
 8327TIP3    H224925   3.966   0.509   1.228
 8328TIP3   OH224926   2.469   5.325   4.760
 8328TIP3    H124927   2.439   5.265   4.692
 8328TIP3    H224928   2.401   5.320   4.828
 8329TIP3   OH224929   7.273   5.571   2.912
 8329TIP3    H124930   7.322   5.606   2.987
 8329TIP3    H224931   7.184   5.603   2.924
 8330TIP3   OH224932   1.876   6.037   5.446
 8330TIP3    H124933   1.800   6.006   5.396
 8330TIP3    H224934   1.898   6.121   5.407
 8331TIP3   OH224935   6.679   0.235   1.041
 8331TIP3    H124936   6.683   0.326   1.012
 8331TIP3    H224937   6.625   0.237   1.119
 8332TIP3   OH224938   1.400   0.242   1.881
 8332TIP3    H124939   1.410   0.302   1.954
 8332TIP3    H224940   1.463   0.172   1.897
 8333TIP3   OH224941   7.343   7.596   4.920
 8333TIP3    H124942   7.356   7.522   4.978
 8333TIP3    H224943   7.412   7.588   4.854
 8334TIP3   OH224944   0.976   7.515   4.933
 8334TIP3    H124945   1.045   7.507   5.000
 8334TIP3    H224946   0.905   7.559   4.979
 8335TIP3   OH224947   4.789   3.315   4.133
 8335TIP3    H124948   4.763   3.243   4.076
 8335TIP3    H224949   4.801   3.275   4.219
 8336TIP3   OH224950   6.321   2.229   0.438
 8336TIP3    H124951   6.333   2.307   0.491
 8336TIP3    H224952   6.323   2.156   0.500
 8337TIP3   OH224953   6.828   0.569   4.738
 8337TIP3    H124954   6.812   0.585   4.644
 8337TIP3    H224955   6.843   0.656   4.775
 8338TIP3   OH224956   7.430   4.210   1.985
 8338TIP3    H124957   7.431   4.294   2.032
 8338TIP3    H224958   7.418   4.145   2.054
 8339TIP3   OH224959   5.258   4.332   0.659
 8339TIP3    H124960   5.217   4.254   0.620
 8339TIP3    H224961   5.310   4.298   0.731
 8340TIP3   OH224962   5.186   2.108   5.827
 8340TIP3    H124963   5.093   2.129   5.838
 8340TIP3    H224964   5.217   2.170   5.762
 8341TIP3   OH224965   0.895   2.652   2.012
 8341TIP3    H124966   0.971   2.609   2.050
 8341TIP3    H224967   0.865   2.593   1.943
 8342TIP3   OH224968   2.680   6.306   3.041
 8342TIP3    H124969   2.653   6.281   3.129
 8342TIP3    H224970   2.743   6.377   3.055
 8343TIP3   OH224971   0.452   6.458   3.263
 8343TIP3    H124972   0.493   6.536   3.299
 8343TIP3    H224973   0.506   6.385   3.293
 8344TIP3   OH224974   4.796   5.285   1.479
 8344TIP3    H124975   4.760   5.275   1.391
 8344TIP3    H224976   4.730   5.336   1.527
 8345TIP3   OH224977   0.255   4.212   6.163
 8345TIP3    H124978   0.343   4.193   6.195
 8345TIP3    H224979   0.263   4.207   6.067
 8346TIP3   OH224980   1.195   3.362   3.053
 8346TIP3    H124981   1.284   3.396   3.040
 8346TIP3    H224982   1.139   3.422   3.004
 8347TIP3   OH224983   2.128   6.371   1.378
 8347TIP3    H124984   2.110   6.457   1.339
 8347TIP3    H224985   2.059   6.315   1.344
 8348TIP3   OH224986   4.953   3.826   4.809
 8348TIP3    H124987   4.957   3.852   4.717
 8348TIP3    H224988   4.863   3.796   4.821
 8349TIP3   OH224989   7.910   1.671   4.152
 8349TIP3    H124990   7.968   1.597   4.133
 8349TIP3    H224991   7.970   1.745   4.162
 8350TIP3   OH224992   0.698   5.325   2.021
 8350TIP3    H124993   0.683   5.243   1.974
 8350TIP3    H224994   0.740   5.299   2.103
 8351TIP3   OH224995   4.238   0.961   6.463
 8351TIP3    H124996   4.197   1.018   6.397
 8351TIP3    H224997   4.189   0.978   6.543
 8352TIP3   OH224998   5.505   1.730   5.200
 8352TIP3    H124999   5.470   1.786   5.130
 8352TIP3    H225000   5.428   1.701   5.249
 8353TIP3   OH225001   5.753   4.967   3.179
 8353TIP3    H125002   5.669   4.930   3.153
 8353TIP3    H225003   5.747   4.974   3.274
 8354TIP3   OH225004   0.221   3.119   1.709
 8354TIP3    H125005   0.181   3.176   1.644
 8354TIP3    H225006   0.148   3.072   1.749
 8355TIP3   OH225007   4.697   0.072   0.995
 8355TIP3    H125008   4.701   0.013   1.070
 8355TIP3    H225009   4.667   0.017   0.923
 8356TIP3   OH225010   0.391   4.356   3.146
 8356TIP3    H125011   0.326   4.426   3.155
 8356TIP3    H225012   0.346   4.287   3.097
 8357TIP3   OH225013   1.262   4.443   5.303
 8357TIP3    H125014   1.219   4.519   5.262
 8357TIP3    H225015   1.201   4.416   5.372
 8358TIP3   OH225016   1.416   4.317   4.185
 8358TIP3    H125017   1.483   4.325   4.117
 8358TIP3    H225018   1.372   4.234   4.166
 8359TIP3   OH225019   3.285   1.720   1.564
 8359TIP3    H125020   3.215   1.660   1.540
 8359TIP3    H225021   3.297   1.776   1.487
 8360TIP3   OH225022   8.005   6.750   6.691
 8360TIP3    H125023   8.000   6.786   6.780
 8360TIP3    H225024   7.981   6.657   6.702
 8361TIP3   OH225025   6.591   6.514   3.130
 8361TIP3    H125026   6.672   6.510   3.180
 8361TIP3    H225027   6.598   6.594   3.078
 8362TIP3   OH225028   3.795   3.284   4.495
 8362TIP3    H125029   3.873   3.259   4.446
 8362TIP3    H225030   3.723   3.237   4.452
 8363TIP3   OH225031   6.263   1.156   6.131
 8363TIP3    H125032   6.186   1.210   6.115
 8363TIP3    H225033   6.252   1.124   6.220
 8364TIP3   OH225034   7.194   1.145   6.104
 8364TIP3    H125035   7.260   1.088   6.066
 8364TIP3    H225036   7.148   1.089   6.167
 8365TIP3   OH225037   7.584   3.975   5.427
 8365TIP3    H125038   7.489   3.971   5.439
 8365TIP3    H225039   7.608   3.887   5.400
 8366TIP3   OH225040   1.367   5.473   6.659
 8366TIP3    H125041   1.310   5.492   6.584
 8366TIP3    H225042   1.446   5.523   6.642
 8367TIP3   OH225043   4.072   4.764   2.108
 8367TIP3    H125044   4.021   4.709   2.049
 8367TIP3    H225045   4.133   4.811   2.051
 8368TIP3   OH225046   0.599   5.979   3.876
 8368TIP3    H125047   0.558   6.024   3.950
 8368TIP3    H225048   0.693   5.993   3.888
 8369TIP3   OH225049   1.909   4.121   6.676
 8369TIP3    H125050   2.002   4.140   6.692
 8369TIP3    H225051   1.909   4.033   6.638
 8370TIP3   OH225052   8.237   0.719   5.019
 8370TIP3    H125053   8.297   0.769   4.963
 8370TIP3    H225054   8.152   0.731   4.978
 8371TIP3   OH225055   6.983   6.378   0.312
 8371TIP3    H125056   6.949   6.465   0.332
 8371TIP3    H225057   6.907   6.320   0.323
 8372TIP3   OH225058   3.427   7.088   4.287
 8372TIP3    H125059   3.503   7.053   4.240
 8372TIP3    H225060   3.353   7.038   4.251
 8373TIP3   OH225061   3.500   0.173   5.344
 8373TIP3    H125062   3.475   0.084   5.316
 8373TIP3    H225063   3.418   0.223   5.340
 8374TIP3   OH225064   3.063   5.436   2.120
 8374TIP3    H125065   3.069   5.517   2.172
 8374TIP3    H225066   2.969   5.426   2.104
 8375TIP3   OH225067   6.367   0.388   1.454
 8375TIP3    H125068   6.286   0.434   1.475
 8375TIP3    H225069   6.340   0.314   1.400
 8376TIP3   OH225070   4.162   6.449   2.293
 8376TIP3    H125071   4.217   6.398   2.353
 8376TIP3    H225072   4.118   6.383   2.240
 8377TIP3   OH225073   2.257   7.230   3.589
 8377TIP3    H125074   2.288   7.319   3.574
 8377TIP3    H225075   2.178   7.240   3.641
 8378TIP3   OH225076   3.032   0.700   2.488
 8378TIP3    H125077   3.118   0.680   2.452
 8378TIP3    H225078   3.039   0.675   2.580
 8379TIP3   OH225079   1.951   6.113   1.817
 8379TIP3    H125080   1.857   6.112   1.835
 8379TIP3    H225081   1.968   6.202   1.785
 8380TIP3   OH225082   7.101   1.402   3.124
 8380TIP3    H125083   7.014   1.368   3.143
 8380TIP3    H225084   7.095   1.440   3.036
 8381TIP3   OH225085   7.996   1.743   0.074
 8381TIP3    H125086   7.986   1.826   0.027
 8381TIP3    H225087   8.062   1.761   0.140
 8382TIP3   OH225088   6.297   0.502   6.214
 8382TIP3    H125089   6.207   0.470   6.216
 8382TIP3    H225090   6.316   0.525   6.305
 8383TIP3   OH225091   7.139   6.924   2.250
 8383TIP3    H125092   7.200   6.988   2.215
 8383TIP3    H225093   7.140   6.939   2.345
 8384TIP3   OH225094   1.052   4.812   3.281
 8384TIP3    H125095   1.079   4.899   3.252
 8384TIP3    H225096   1.134   4.764   3.290
 8385TIP3   OH225097   2.257   2.558   1.739
 8385TIP3    H125098   2.242   2.577   1.831
 8385TIP3    H225099   2.323   2.622   1.712
 8386TIP3   OH225100   6.362   6.506   4.942
 8386TIP3    H125101   6.361   6.486   4.848
 8386TIP3    H225102   6.382   6.599   4.946
 8387TIP3   OH225103   1.653   1.514   2.941
 8387TIP3    H125104   1.632   1.450   3.009
 8387TIP3    H225105   1.743   1.492   2.915
 8388TIP3   OH225106   1.749   3.218   4.710
 8388TIP3    H125107   1.662   3.218   4.670
 8388TIP3    H225108   1.733   3.192   4.801
 8389TIP3   OH225109   4.770   5.864   4.607
 8389TIP3    H125110   4.679   5.857   4.634
 8389TIP3    H225111   4.820   5.826   4.680
 8390TIP3   OH225112   2.176   4.087   3.062
 8390TIP3    H125113   2.239   4.125   3.000
 8390TIP3    H225114   2.123   4.028   3.009
 8391TIP3   OH225115   8.051   6.582   4.645
 8391TIP3    H125116   8.070   6.572   4.552
 8391TIP3    H225117   7.996   6.506   4.667
 8392TIP3   OH225118   6.246   5.951   0.067
 8392TIP3    H125119   6.322   5.984   0.117
 8392TIP3    H225120   6.230   6.019   0.001
 8393TIP3   OH225121   6.735   0.186   3.636
 8393TIP3    H125122   6.706   0.208   3.724
 8393TIP3    H225123   6.830   0.187   3.641
 8394TIP3   OH225124   1.463   2.412   1.236
 8394TIP3    H125125   1.382   2.375   1.272
 8394TIP3    H225126   1.433   2.480   1.176
 8395TIP3   OH225127   7.890   4.708   5.280
 8395TIP3    H125128   7.965   4.656   5.252
 8395TIP3    H225129   7.858   4.663   5.359
 8396TIP3   OH225130   7.576   1.181   3.910
 8396TIP3    H125131   7.539   1.126   3.979
 8396TIP3    H225132   7.610   1.118   3.846
 8397TIP3   OH225133   0.040   2.456   3.928
 8397TIP3    H125134   0.061   2.509   4.005
 8397TIP3    H225135   0.081   2.371   3.946
 8398TIP3   OH225136   2.751   1.471   4.327
 8398TIP3    H125137   2.772   1.453   4.235
 8398TIP3    H225138   2.783   1.561   4.342
 8399TIP3   OH225139   6.660   3.428   5.270
 8399TIP3    H125140   6.638   3.401   5.181
 8399TIP3    H225141   6.742   3.383   5.289
 8400TIP3   OH225142   1.766   3.275   2.837
 8400TIP3    H125143   1.674   3.272   2.809
 8400TIP3    H225144   1.761   3.264   2.932
 8401TIP3   OH225145   5.010   4.548   0.326
 8401TIP3    H125146   5.021   4.526   0.419
 8401TIP3    H225147   4.930   4.501   0.300
 8402TIP3   OH225148   5.424   0.352   0.067
 8402TIP3    H125149   5.393   0.283   0.126
 8402TIP3    H225150   5.380   0.432   0.098
 8403TIP3   OH225151   1.901   3.189   0.355
 8403TIP3    H125152   1.965   3.187   0.285
 8403TIP3    H225153   1.938   3.133   0.423
 8404TIP3   OH225154   3.098   7.718   4.803
 8404TIP3    H125155   3.075   7.807   4.776
 8404TIP3    H225156   3.191   7.710   4.783
 8405TIP3   OH225157   5.307   3.791   5.429
 8405TIP3    H125158   5.276   3.845   5.501
 8405TIP3    H225159   5.365   3.849   5.379
 8406TIP3   OH225160   3.567   6.539   1.698
 8406TIP3    H125161   3.652   6.499   1.711
 8406TIP3    H225162   3.505   6.481   1.743
 8407TIP3   OH225163   6.338   4.078   1.567
 8407TIP3    H125164   6.352   3.998   1.617
 8407TIP3    H225165   6.423   4.097   1.528
 8408TIP3   OH225166   2.174   6.624   6.519
 8408TIP3    H125167   2.211   6.653   6.435
 8408TIP3    H225168   2.204   6.690   6.582
 8409TIP3   OH225169   0.071   6.365   0.140
 8409TIP3    H125170   0.104   6.377   0.051
 8409TIP3    H225171   0.055   6.454   0.172
 8410TIP3   OH225172   2.402   1.173   5.311
 8410TIP3    H125173   2.323   1.189   5.260
 8410TIP3    H225174   2.403   1.242   5.377
 8411TIP3   OH225175   6.051   0.482   5.144
 8411TIP3    H125176   6.077   0.512   5.232
 8411TIP3    H225177   6.108   0.408   5.126
 8412TIP3   OH225178   8.081   0.501   4.672
 8412TIP3    H125179   8.066   0.581   4.622
 8412TIP3    H225180   8.176   0.487   4.667
 8413TIP3   OH225181   2.709   6.939   6.400
 8413TIP3    H125182   2.647   6.905   6.464
 8413TIP3    H225183   2.747   7.016   6.443
 8414TIP3   OH225184   2.607   2.812   3.121
 8414TIP3    H125185   2.525   2.816   3.072
 8414TIP3    H225186   2.582   2.829   3.212
 8415TIP3   OH225187   4.727   1.608   0.255
 8415TIP3    H125188   4.669   1.539   0.287
 8415TIP3    H225189   4.815   1.582   0.284
 8416TIP3   OH225190   7.634   0.869   2.472
 8416TIP3    H125191   7.595   0.950   2.439
 8416TIP3    H225192   7.684   0.897   2.550
 8417TIP3   OH225193   1.497   3.491   2.973
 8417TIP3    H125194   1.451   3.570   3.002
 8417TIP3    H225195   1.589   3.508   2.993
 8418TIP3   OH225196   6.785   6.090   5.129
 8418TIP3    H125197   6.794   6.074   5.222
 8418TIP3    H225198   6.858   6.044   5.089
 8419TIP3   OH225199   3.938   7.126   4.051
 8419TIP3    H125200   3.924   7.118   3.957
 8419TIP3    H225201   4.001   7.057   4.072
 8420TIP3   OH225202   5.077   5.727   1.009
 8420TIP3    H125203   5.006   5.755   0.952
 8420TIP3    H225204   5.073   5.788   1.083
 8421TIP3   OH225205   4.553   7.319   3.841
 8421TIP3    H125206   4.547   7.415   3.847
 8421TIP3    H225207   4.464   7.288   3.857
 8422TIP3   OH225208   7.249   3.067   5.281
 8422TIP3    H125209   7.258   2.994   5.341
 8422TIP3    H225210   7.199   3.032   5.207
 8423TIP3   OH225211   5.274   2.315   1.980
 8423TIP3    H125212   5.272   2.238   1.923
 8423TIP3    H225213   5.284   2.389   1.920
 8424TIP3   OH225214   7.759   1.235   2.039
 8424TIP3    H125215   7.777   1.276   1.955
 8424TIP3    H225216   7.676   1.190   2.027
 8425TIP3   OH225217   2.612   7.077   5.435
 8425TIP3    H125218   2.653   7.070   5.521
 8425TIP3    H225219   2.623   7.168   5.410
 8426TIP3   OH225220   3.581   5.581   5.868
 8426TIP3    H125221   3.525   5.651   5.834
 8426TIP3    H225222   3.532   5.500   5.852
 8427TIP3   OH225223   4.255   6.364   3.392
 8427TIP3    H125224   4.161   6.374   3.406
 8427TIP3    H225225   4.267   6.269   3.380
 8428TIP3   OH225226   8.257   6.758   2.634
 8428TIP3    H125227   8.324   6.804   2.685
 8428TIP3    H225228   8.219   6.827   2.579
 8429TIP3   OH225229   4.799   0.364   0.872
 8429TIP3    H125230   4.840   0.444   0.906
 8429TIP3    H225231   4.729   0.345   0.934
 8430TIP3   OH225232   0.247   5.932   3.424
 8430TIP3    H125233   0.163   5.943   3.380
 8430TIP3    H225234   0.297   6.010   3.400
 8431TIP3   OH225235   7.666   3.347   3.822
 8431TIP3    H125236   7.691   3.315   3.908
 8431TIP3    H225237   7.620   3.273   3.781
 8432TIP3   OH225238   0.878   6.000   4.836
 8432TIP3    H125239   0.847   5.994   4.926
 8432TIP3    H225240   0.854   6.088   4.808
 8433TIP3   OH225241   7.020   6.888   3.779
 8433TIP3    H125242   7.012   6.839   3.697
 8433TIP3    H225243   6.946   6.858   3.831
 8434TIP3   OH225244   5.346   3.391   2.453
 8434TIP3    H125245   5.327   3.424   2.366
 8434TIP3    H225246   5.376   3.301   2.438
 8435TIP3   OH225247   3.065   0.929   3.526
 8435TIP3    H125248   3.013   0.910   3.447
 8435TIP3    H225249   3.037   1.016   3.553
 8436TIP3   OH225250   6.695   4.264   3.819
 8436TIP3    H125251   6.762   4.328   3.841
 8436TIP3    H225252   6.617   4.316   3.798
 8437TIP3   OH225253   4.704   7.027   3.002
 8437TIP3    H125254   4.614   7.007   3.029
 8437TIP3    H225255   4.721   7.113   3.039
 8438TIP3   OH225256   0.838   3.952   5.208
 8438TIP3    H125257   0.761   3.902   5.182
 8438TIP3    H225258   0.872   3.907   5.285
 8439TIP3   OH225259   6.090   2.468   0.224
 8439TIP3    H125260   6.172   2.511   0.250
 8439TIP3    H225261   6.027   2.495   0.291
 8440TIP3   OH225262   6.433   3.590   0.470
 8440TIP3    H125263   6.382   3.509   0.459
 8440TIP3    H225264   6.479   3.600   0.387
 8441TIP3   OH225265   3.498   2.215   6.628
 8441TIP3    H125266   3.489   2.207   6.533
 8441TIP3    H225267   3.494   2.309   6.645
 8442TIP3   OH225268   2.161   5.289   4.419
 8442TIP3    H125269   2.129   5.250   4.501
 8442TIP3    H225270   2.162   5.383   4.438
 8443TIP3   OH225271   6.448   3.862   0.527
 8443TIP3    H125272   6.440   3.771   0.501
 8443TIP3    H225273   6.517   3.898   0.472
 8444TIP3   OH225274   4.246   3.102   2.056
 8444TIP3    H125275   4.213   3.125   1.969
 8444TIP3    H225276   4.311   3.169   2.075
 8445TIP3   OH225277   7.682   5.906   1.963
 8445TIP3    H125278   7.656   5.874   2.049
 8445TIP3    H225279   7.771   5.874   1.951
 8446TIP3   OH225280   6.347   2.520   4.290
 8446TIP3    H125281   6.271   2.566   4.255
 8446TIP3    H225282   6.328   2.428   4.274
 8447TIP3   OH225283   0.905   0.123   4.531
 8447TIP3    H125284   1.000   0.132   4.527
 8447TIP3    H225285   0.890   0.031   4.551
 8448TIP3   OH225286   0.738   4.886   4.273
 8448TIP3    H125287   0.651   4.916   4.247
 8448TIP3    H225288   0.761   4.939   4.349
 8449TIP3   OH225289   2.426   5.743   2.087
 8449TIP3    H125290   2.333   5.735   2.105
 8449TIP3    H225291   2.450   5.828   2.124
 8450TIP3   OH225292   4.226   6.275   1.636
 8450TIP3    H125293   4.219   6.268   1.541
 8450TIP3    H225294   4.309   6.320   1.651
 8451TIP3   OH225295   5.316   6.035   5.384
 8451TIP3    H125296   5.246   6.085   5.341
 8451TIP3    H225297   5.326   6.076   5.469
 8452TIP3   OH225298   3.530   0.566   5.935
 8452TIP3    H125299   3.568   0.640   5.888
 8452TIP3    H225300   3.466   0.529   5.874
 8453TIP3   OH225301   0.747   4.878   1.153
 8453TIP3    H125302   0.821   4.900   1.210
 8453TIP3    H225303   0.782   4.816   1.090
 8454TIP3   OH225304   4.314   4.334   2.391
 8454TIP3    H125305   4.378   4.339   2.319
 8454TIP3    H225306   4.359   4.284   2.459
 8455TIP3   OH225307   0.180   0.690   0.294
 8455TIP3    H125308   0.204   0.778   0.321
 8455TIP3    H225309   0.110   0.664   0.354
 8456TIP3   OH225310   1.900   3.357   2.108
 8456TIP3    H125311   1.808   3.358   2.083
 8456TIP3    H225312   1.944   3.318   2.033
 8457TIP3   OH225313   0.362   0.021   3.550
 8457TIP3    H125314   0.331   0.055   3.634
 8457TIP3    H225315   0.389  -0.069   3.568
 8458TIP3   OH225316   2.365   4.369   3.316
 8458TIP3    H125317   2.426   4.405   3.252
 8458TIP3    H225318   2.278   4.388   3.281
 8459TIP3   OH225319   0.276   1.798   2.195
 8459TIP3    H125320   0.261   1.890   2.216
 8459TIP3    H225321   0.234   1.785   2.110
 8460TIP3   OH225322   6.306   3.022   4.520
 8460TIP3    H125323   6.351   3.096   4.480
 8460TIP3    H225324   6.213   3.045   4.515
 8461TIP3   OH225325   6.404   5.448   1.603
 8461TIP3    H125326   6.495   5.475   1.616
 8461TIP3    H225327   6.409   5.355   1.583
 8462TIP3   OH225328   3.915   5.141   4.716
 8462TIP3    H125329   3.836   5.093   4.742
 8462TIP3    H225330   3.907   5.151   4.621
 8463TIP3   OH225331   6.209   0.472   6.631
 8463TIP3    H125332   6.226   0.557   6.673
 8463TIP3    H225333   6.212   0.491   6.537
 8464TIP3   OH225334   1.471   7.100   0.672
 8464TIP3    H125335   1.471   7.142   0.586
 8464TIP3    H225336   1.439   7.168   0.731
 8465TIP3   OH225337   8.136   3.478   3.813
 8465TIP3    H125338   8.090   3.561   3.799
 8465TIP3    H225339   8.196   3.496   3.885
 8466TIP3   OH225340   6.473   3.942   1.026
 8466TIP3    H125341   6.493   4.032   1.000
 8466TIP3    H225342   6.509   3.888   0.956
 8467TIP3   OH225343   1.798   6.922   3.894
 8467TIP3    H125344   1.742   6.845   3.906
 8467TIP3    H225345   1.811   6.957   3.982
 8468TIP3   OH225346   1.487   5.214   5.248
 8468TIP3    H125347   1.545   5.149   5.289
 8468TIP3    H225348   1.462   5.174   5.165
 8469TIP3   OH225349   7.795   3.757   0.906
 8469TIP3    H125350   7.755   3.759   0.993
 8469TIP3    H225351   7.883   3.792   0.919
 8470TIP3   OH225352   5.085   4.401   1.216
 8470TIP3    H125353   4.994   4.430   1.223
 8470TIP3    H225354   5.109   4.418   1.125
 8471TIP3   OH225355   1.030   7.077   0.537
 8471TIP3    H125356   1.071   7.163   0.523
 8471TIP3    H225357   1.035   7.063   0.631
 8472TIP3   OH225358   0.933   3.633   5.551
 8472TIP3    H125359   0.862   3.569   5.545
 8472TIP3    H225360   0.948   3.643   5.645
 8473TIP3   OH225361   1.715   6.932   6.738
 8473TIP3    H125362   1.723   6.839   6.718
 8473TIP3    H225363   1.657   6.936   6.814
 8474TIP3   OH225364   7.091   6.329   0.895
 8474TIP3    H125365   6.996   6.344   0.901
 8474TIP3    H225366   7.107   6.256   0.955
 8475TIP3   OH225367   3.587   6.607   3.917
 8475TIP3    H125368   3.569   6.620   4.010
 8475TIP3    H225369   3.594   6.695   3.881
 8476TIP3   OH225370   7.398   0.212   4.352
 8476TIP3    H125371   7.489   0.183   4.347
 8476TIP3    H225372   7.402   0.307   4.343
 8477TIP3   OH225373   1.242   6.683   0.326
 8477TIP3    H125374   1.200   6.769   0.321
 8477TIP3    H225375   1.280   6.670   0.238
 8478TIP3   OH225376   4.963   7.447   3.995
 8478TIP3    H125377   4.967   7.354   3.975
 8478TIP3    H225378   5.042   7.484   3.954
 8479TIP3   OH225379   6.859   6.332   6.345
 8479TIP3    H125380   6.870   6.301   6.255
 8479TIP3    H225381   6.948   6.354   6.374
 8480TIP3   OH225382   1.960   4.818   6.412
 8480TIP3    H125383   1.944   4.824   6.506
 8480TIP3    H225384   2.035   4.759   6.403
 8481TIP3   OH225385   0.145   7.205   3.843
 8481TIP3    H125386   0.115   7.220   3.754
 8481TIP3    H225387   0.175   7.291   3.873
 8482TIP3   OH225388   5.531   2.552   3.728
 8482TIP3    H125389   5.530   2.623   3.793
 8482TIP3    H225390   5.489   2.478   3.772
 8483TIP3   OH225391   8.198   7.055   4.180
 8483TIP3    H125392   8.116   7.098   4.155
 8483TIP3    H225393   8.237   7.027   4.097
 8484TIP3   OH225394   0.747   5.807   3.578
 8484TIP3    H125395   0.818   5.743   3.568
 8484TIP3    H225396   0.790   5.884   3.615
 8485TIP3   OH225397   1.951   3.785   3.479
 8485TIP3    H125398   1.905   3.866   3.500
 8485TIP3    H225399   2.044   3.810   3.478
 8486TIP3   OH225400   4.077   7.809   2.302
 8486TIP3    H125401   4.122   7.778   2.223
 8486TIP3    H225402   4.026   7.734   2.331
 8487TIP3   OH225403   2.136   5.343   5.489
 8487TIP3    H125404   2.087   5.384   5.418
 8487TIP3    H225405   2.125   5.403   5.563
 8488TIP3   OH225406   4.364   3.642   6.535
 8488TIP3    H125407   4.383   3.636   6.629
 8488TIP3    H225408   4.426   3.708   6.503
 8489TIP3   OH225409   6.340   0.506   1.197
 8489TIP3    H125410   6.412   0.546   1.247
 8489TIP3    H225411   6.359   0.412   1.199
 8490TIP3   OH225412   4.998   5.847   3.533
 8490TIP3    H125413   5.073   5.876   3.480
 8490TIP3    H225414   4.921   5.877   3.484
 8491TIP3   OH225415   7.686   0.482   0.232
 8491TIP3    H125416   7.680   0.404   0.286
 8491TIP3    H225417   7.609   0.534   0.256
 8492TIP3   OH225418   1.595   7.372   0.319
 8492TIP3    H125419   1.590   7.447   0.260
 8492TIP3    H225420   1.504   7.350   0.339
 8493TIP3   OH225421   5.663   7.764   3.248
 8493TIP3    H125422   5.738   7.757   3.308
 8493TIP3    H225423   5.662   7.680   3.201
 8494TIP3   OH225424   3.335   0.794   4.085
 8494TIP3    H125425   3.248   0.761   4.061
 8494TIP3    H225426   3.385   0.792   4.003
 8495TIP3   OH225427   0.477   3.731   4.405
 8495TIP3    H125428   0.399   3.734   4.349
 8495TIP3    H225429   0.531   3.804   4.374
 8496TIP3   OH225430   6.079   4.831   1.242
 8496TIP3    H125431   6.139   4.860   1.174
 8496TIP3    H225432   6.096   4.889   1.316
 8497TIP3   OH225433   4.390   0.296   3.874
 8497TIP3    H125434   4.402   0.228   3.940
 8497TIP3    H225435   4.348   0.251   3.801
 8498TIP3   OH225436   0.610   4.710   0.153
 8498TIP3    H125437   0.526   4.726   0.194
 8498TIP3    H225438   0.665   4.674   0.222
 8499TIP3   OH225439   4.862   5.618   2.790
 8499TIP3    H125440   4.916   5.544   2.814
 8499TIP3    H225441   4.899   5.692   2.838
 8500TIP3   OH225442   5.025   4.970   2.255
 8500TIP3    H125443   4.990   4.988   2.342
 8500TIP3    H225444   4.985   5.037   2.199
 8501TIP3   OH225445   5.236   1.259   4.901
 8501TIP3    H125446   5.286   1.241   4.821
 8501TIP3    H225447   5.178   1.184   4.911
 8502TIP3   OH225448   1.972   6.755   1.094
 8502TIP3    H125449   1.878   6.756   1.080
 8502TIP3    H225450   1.990   6.833   1.146
 8503TIP3   OH225451   7.380   2.834   4.097
 8503TIP3    H125452   7.349   2.853   4.185
 8503TIP3    H225453   7.386   2.738   4.093
 8504TIP3   OH225454   6.672   2.524   3.537
 8504TIP3    H125455   6.728   2.500   3.464
 8504TIP3    H225456   6.722   2.589   3.587
 8505TIP3   OH225457   2.782   2.676   6.623
 8505TIP3    H125458   2.858   2.657   6.568
 8505TIP3    H225459   2.784   2.770   6.637
 8506TIP3   OH225460   7.812   5.487   6.356
 8506TIP3    H125461   7.778   5.401   6.380
 8506TIP3    H225462   7.903   5.471   6.331
 8507TIP3   OH225463   0.816   2.946   0.215
 8507TIP3    H125464   0.807   2.892   0.293
 8507TIP3    H225465   0.879   2.900   0.160
 8508TIP3   OH225466   2.129   4.766   1.593
 8508TIP3    H125467   2.090   4.789   1.677
 8508TIP3    H225468   2.213   4.811   1.592
 8509TIP3   OH225469   2.568   2.144   5.798
 8509TIP3    H125470   2.574   2.239   5.786
 8509TIP3    H225471   2.645   2.121   5.848
 8510TIP3   OH225472   7.973   3.693   0.167
 8510TIP3    H125473   7.909   3.711   0.098
 8510TIP3    H225474   8.058   3.696   0.123
 8511TIP3   OH225475   3.764   1.601   6.505
 8511TIP3    H125476   3.697   1.541   6.539
 8511TIP3    H225477   3.761   1.676   6.565
 8512TIP3   OH225478   7.881   5.533   3.354
 8512TIP3    H125479   7.940   5.533   3.279
 8512TIP3    H225480   7.919   5.597   3.414
 8513TIP3   OH225481   6.214   1.643   0.529
 8513TIP3    H125482   6.243   1.627   0.619
 8513TIP3    H225483   6.185   1.558   0.497
 8514TIP3   OH225484   1.305   3.048   2.097
 8514TIP3    H125485   1.248   3.124   2.083
 8514TIP3    H225486   1.257   2.975   2.058
 8515TIP3   OH225487   7.556   2.700   1.517
 8515TIP3    H125488   7.463   2.691   1.500
 8515TIP3    H225489   7.581   2.616   1.556
 8516TIP3   OH225490   7.339   5.095   4.237
 8516TIP3    H125491   7.307   5.046   4.312
 8516TIP3    H225492   7.406   5.153   4.272
 8517TIP3   OH225493   8.170   4.262   6.497
 8517TIP3    H125494   8.250   4.309   6.518
 8517TIP3    H225495   8.102   4.329   6.497
 8518TIP3   OH225496   2.160   0.821   1.093
 8518TIP3    H125497   2.113   0.886   1.145
 8518TIP3    H225498   2.252   0.832   1.117
 8519TIP3   OH225499   0.920   3.296   2.689
 8519TIP3    H125500   0.872   3.261   2.614
 8519TIP3    H225501   1.004   3.324   2.653
 8520TIP3   OH225502   0.620   3.110   0.821
 8520TIP3    H125503   0.628   3.125   0.727
 8520TIP3    H225504   0.591   3.194   0.856
 8521TIP3   OH225505   3.442   5.997   6.175
 8521TIP3    H125506   3.524   6.024   6.216
 8521TIP3    H225507   3.399   6.078   6.149
 8522TIP3   OH225508   2.145   2.730   1.966
 8522TIP3    H125509   2.197   2.772   1.898
 8522TIP3    H225510   2.054   2.744   1.939
 8523TIP3   OH225511   1.195   5.446   2.875
 8523TIP3    H125512   1.158   5.534   2.865
 8523TIP3    H225513   1.197   5.411   2.786
 8524TIP3   OH225514   2.162   5.631   5.178
 8524TIP3    H125515   2.130   5.545   5.205
 8524TIP3    H225516   2.083   5.685   5.169
 8525TIP3   OH225517   6.833   5.320   2.287
 8525TIP3    H125518   6.739   5.310   2.270
 8525TIP3    H225519   6.843   5.297   2.380
 8526TIP3   OH225520   4.595   5.022   2.858
 8526TIP3    H125521   4.584   4.929   2.835
 8526TIP3    H225522   4.509   5.061   2.841
 8527TIP3   OH225523   4.342   3.999   6.698
 8527TIP3    H125524   4.273   4.049   6.741
 8527TIP3    H225525   4.418   4.057   6.700
 8528TIP3   OH225526   1.645   0.641   3.787
 8528TIP3    H125527   1.576   0.597   3.837
 8528TIP3    H225528   1.642   0.598   3.701
 8529TIP3   OH225529   0.922   0.552   1.997
 8529TIP3    H125530   0.931   0.620   1.931
 8529TIP3    H225531   1.011   0.527   2.019
 8530TIP3   OH225532   1.517   4.800   5.958
 8530TIP3    H125533   1.444   4.738   5.955
 8530TIP3    H225534   1.522   4.828   6.049
 8531TIP3   OH225535   3.301   1.909   1.360
 8531TIP3    H125536   3.284   1.930   1.268
 8531TIP3    H225537   3.389   1.944   1.377
 8532TIP3   OH225538   6.059   3.687   4.748
 8532TIP3    H125539   6.103   3.760   4.704
 8532TIP3    H225540   6.118   3.664   4.820
 8533TIP3   OH225541   5.365   3.690   4.534
 8533TIP3    H125542   5.459   3.699   4.548
 8533TIP3    H225543   5.335   3.638   4.609
 8534TIP3   OH225544   1.111   1.722   4.724
 8534TIP3    H125545   1.139   1.646   4.775
 8534TIP3    H225546   1.190   1.775   4.714
 8535TIP3   OH225547   7.181   6.828   0.600
 8535TIP3    H125548   7.177   6.766   0.673
 8535TIP3    H225549   7.089   6.850   0.583
 8536TIP3   OH225550   5.625   1.679   5.523
 8536TIP3    H125551   5.615   1.589   5.554
 8536TIP3    H225552   5.719   1.693   5.520
 8537TIP3   OH225553   2.938   4.578   3.970
 8537TIP3    H125554   2.912   4.491   4.000
 8537TIP3    H225555   2.913   4.637   4.041
 8538TIP3   OH225556   2.657   5.834   0.391
 8538TIP3    H125557   2.619   5.867   0.473
 8538TIP3    H225558   2.731   5.781   0.418
 8539TIP3   OH225559   3.260   2.456   3.327
 8539TIP3    H125560   3.182   2.413   3.361
 8539TIP3    H225561   3.231   2.503   3.249
 8540TIP3   OH225562   2.332   7.669   1.578
 8540TIP3    H125563   2.413   7.716   1.597
 8540TIP3    H225564   2.273   7.735   1.541
 8541TIP3   OH225565   2.338   3.293   6.006
 8541TIP3    H125566   2.280   3.368   6.019
 8541TIP3    H225567   2.416   3.330   5.964
 8542TIP3   OH225568   7.420   7.197   5.218
 8542TIP3    H125569   7.395   7.210   5.310
 8542TIP3    H225570   7.435   7.103   5.210
 8543TIP3   OH225571   5.764   3.241   6.521
 8543TIP3    H125572   5.713   3.255   6.600
 8543TIP3    H225573   5.703   3.259   6.449
 8544TIP3   OH225574   1.485   5.729   3.708
 8544TIP3    H125575   1.558   5.675   3.738
 8544TIP3    H225576   1.409   5.696   3.756
 8545TIP3   OH225577   1.995   3.632   2.417
 8545TIP3    H125578   2.057   3.645   2.488
 8545TIP3    H225579   2.026   3.690   2.347
 8546TIP3   OH225580  -0.009   1.357   3.432
 8546TIP3    H125581   0.036   1.280   3.467
 8546TIP3    H225582   0.057   1.426   3.434
 8547TIP3   OH225583   2.309   4.883   4.872
 8547TIP3    H125584   2.314   4.891   4.777
 8547TIP3    H225585   2.362   4.806   4.893
 8548TIP3   OH225586   4.732   1.896   3.144
 8548TIP3    H125587   4.693   1.980   3.167
 8548TIP3    H225588   4.775   1.866   3.224
 8549TIP3   OH225589   7.483   0.160   6.195
 8549TIP3    H125590   7.535   0.081   6.208
 8549TIP3    H225591   7.425   0.139   6.122
 8550TIP3   OH225592   6.136   4.481   0.036
 8550TIP3    H125593   6.046   4.456   0.060
 8550TIP3    H225594   6.124   4.558  -0.020
 8551TIP3   OH225595   1.975   6.645   3.753
 8551TIP3    H125596   1.980   6.651   3.849
 8551TIP3    H225597   1.882   6.631   3.735
 8552TIP3   OH225598   6.393   5.365   3.464
 8552TIP3    H125599   6.445   5.285   3.474
 8552TIP3    H225600   6.439   5.416   3.397
 8553TIP3   OH225601   2.255   5.812   3.442
 8553TIP3    H125602   2.163   5.793   3.422
 8553TIP3    H225603   2.304   5.760   3.378
 8554TIP3   OH225604   1.672   4.249   2.849
 8554TIP3    H125605   1.759   4.212   2.834
 8554TIP3    H225606   1.681   4.341   2.824
 8555TIP3   OH225607   2.543   5.932   3.813
 8555TIP3    H125608   2.569   5.842   3.830
 8555TIP3    H225609   2.626   5.980   3.808
 8556TIP3   OH225610   2.644   6.854   6.118
 8556TIP3    H125611   2.671   6.855   6.210
 8556TIP3    H225612   2.609   6.766   6.104
 8557TIP3   OH225613   0.314   6.232   5.192
 8557TIP3    H125614   0.254   6.188   5.132
 8557TIP3    H225615   0.348   6.306   5.143
 8558TIP3   OH225616   3.405   1.267   6.276
 8558TIP3    H125617   3.318   1.289   6.244
 8558TIP3    H225618   3.389   1.205   6.347
 8559TIP3   OH225619   7.298   6.027   1.574
 8559TIP3    H125620   7.254   5.943   1.560
 8559TIP3    H225621   7.343   6.017   1.657
 8560TIP3   OH225622   5.473   2.054   3.957
 8560TIP3    H125623   5.466   1.995   3.882
 8560TIP3    H225624   5.504   1.999   4.029
 8561TIP3   OH225625   0.847   2.438   2.824
 8561TIP3    H125626   0.789   2.363   2.839
 8561TIP3    H225627   0.926   2.416   2.873
 8562TIP3   OH225628   7.041   7.676   2.007
 8562TIP3    H125629   6.983   7.659   2.081
 8562TIP3    H225630   7.056   7.771   2.010
 8563TIP3   OH225631   6.161   3.893   4.561
 8563TIP3    H125632   6.227   3.962   4.550
 8563TIP3    H225633   6.121   3.885   4.475
 8564TIP3   OH225634   8.142   5.778   3.904
 8564TIP3    H125635   8.233   5.780   3.934
 8564TIP3    H225636   8.113   5.870   3.910
 8565TIP3   OH225637   1.856   7.697   0.774
 8565TIP3    H125638   1.850   7.775   0.720
 8565TIP3    H225639   1.909   7.636   0.723
 8566TIP3   OH225640   4.197   5.025   5.538
 8566TIP3    H125641   4.245   5.032   5.455
 8566TIP3    H225642   4.108   5.000   5.511
 8567TIP3   OH225643   0.060   4.635   4.660
 8567TIP3    H125644   0.085   4.606   4.747
 8567TIP3    H225645  -0.001   4.707   4.674
 8568TIP3   OH225646   6.377   1.533   0.759
 8568TIP3    H125647   6.432   1.562   0.686
 8568TIP3    H225648   6.397   1.594   0.830
 8569TIP3   OH225649   6.645   7.380   5.132
 8569TIP3    H125650   6.640   7.465   5.089
 8569TIP3    H225651   6.723   7.339   5.094
 8570TIP3   OH225652   1.782   4.837   1.810
 8570TIP3    H125653   1.796   4.752   1.769
 8570TIP3    H225654   1.870   4.873   1.823
 8571TIP3   OH225655   4.108   2.311   3.129
 8571TIP3    H125656   4.094   2.257   3.052
 8571TIP3    H225657   4.117   2.249   3.201
 8572TIP3   OH225658   6.830   4.399   4.554
 8572TIP3    H125659   6.870   4.481   4.524
 8572TIP3    H225660   6.823   4.408   4.649
 8573TIP3   OH225661   2.535   3.807   6.199
 8573TIP3    H125662   2.612   3.767   6.240
 8573TIP3    H225663   2.511   3.745   6.130
 8574TIP3   OH225664   3.555   1.209   2.316
 8574TIP3    H125665   3.476   1.234   2.365
 8574TIP3    H225666   3.607   1.161   2.380
 8575TIP3   OH225667   5.207   6.409   4.609
 8575TIP3    H125668   5.268   6.460   4.662
 8575TIP3    H225669   5.128   6.401   4.662
 8576TIP3   OH225670   5.815   6.778   4.980
 8576TIP3    H125671   5.784   6.847   4.920
 8576TIP3    H225672   5.909   6.791   4.984
 8577TIP3   OH225673   0.060   1.499   3.108
 8577TIP3    H125674   0.004   1.570   3.137
 8577TIP3    H225675   0.000   1.431   3.078
 8578TIP3   OH225676   1.317   0.345   4.015
 8578TIP3    H125677   1.401   0.374   3.979
 8578TIP3    H225678   1.336   0.324   4.107
 8579TIP3   OH225679   5.446   7.310   4.577
 8579TIP3    H125680   5.441   7.384   4.637
 8579TIP3    H225681   5.370   7.320   4.520
 8580TIP3   OH225682   3.202   4.058   4.001
 8580TIP3    H125683   3.292   4.072   4.030
 8580TIP3    H225684   3.197   3.964   3.985
 8581TIP3   OH225685   3.584   0.901   6.052
 8581TIP3    H125686   3.568   0.839   6.123
 8581TIP3    H225687   3.632   0.850   5.986
 8582TIP3   OH225688   0.494   6.170   5.840
 8582TIP3    H125689   0.453   6.133   5.762
 8582TIP3    H225690   0.422   6.208   5.890
 8583TIP3   OH225691   4.348   0.844   1.524
 8583TIP3    H125692   4.310   0.903   1.460
 8583TIP3    H225693   4.443   0.850   1.510
 8584TIP3   OH225694   5.035   1.694   6.526
 8584TIP3    H125695   4.949   1.701   6.485
 8584TIP3    H225696   5.044   1.775   6.576
 8585TIP3   OH225697   1.806   5.645   6.380
 8585TIP3    H125698   1.754   5.723   6.362
 8585TIP3    H225699   1.747   5.572   6.364
 8586TIP3   OH225700   6.425   5.082   1.247
 8586TIP3    H125701   6.458   5.109   1.161
 8586TIP3    H225702   6.377   5.002   1.231
 8587TIP3   OH225703   3.399   1.875   5.151
 8587TIP3    H125704   3.337   1.819   5.105
 8587TIP3    H225705   3.351   1.908   5.226
 8588TIP3   OH225706   4.527   7.400   2.538
 8588TIP3    H125707   4.587   7.367   2.471
 8588TIP3    H225708   4.479   7.323   2.567
 8589TIP3   OH225709   2.296   7.554   6.466
 8589TIP3    H125710   2.292   7.641   6.427
 8589TIP3    H225711   2.259   7.566   6.554
 8590TIP3   OH225712   2.574   6.230   6.390
 8590TIP3    H125713   2.576   6.263   6.300
 8590TIP3    H225714   2.603   6.305   6.443
 8591TIP3   OH225715   3.007   3.796   3.811
 8591TIP3    H125716   2.952   3.845   3.751
 8591TIP3    H225717   2.956   3.791   3.892
 8592TIP3   OH225718   2.721   4.568   5.679
 8592TIP3    H125719   2.665   4.587   5.604
 8592TIP3    H225720   2.660   4.547   5.750
 8593TIP3   OH225721   4.778   6.016   3.952
 8593TIP3    H125722   4.724   6.088   3.985
 8593TIP3    H225723   4.788   5.957   4.027
 8594TIP3   OH225724   6.964   5.915   5.555
 8594TIP3    H125725   6.961   5.856   5.631
 8594TIP3    H225726   6.881   5.900   5.510
 8595TIP3   OH225727   7.241   4.748   2.103
 8595TIP3    H125728   7.250   4.833   2.147
 8595TIP3    H225729   7.152   4.720   2.125
 8596TIP3   OH225730   3.313   7.358   2.105
 8596TIP3    H125731   3.386   7.411   2.073
 8596TIP3    H225732   3.236   7.399   2.066
 8597TIP3   OH225733   5.824   7.631   1.840
 8597TIP3    H125734   5.873   7.610   1.760
 8597TIP3    H225735   5.839   7.724   1.854
 8598TIP3   OH225736   2.095   7.120   0.278
 8598TIP3    H125737   2.161   7.184   0.252
 8598TIP3    H225738   2.012   7.161   0.256
 8599TIP3   OH225739   5.916   2.443   6.534
 8599TIP3    H125740   5.906   2.487   6.618
 8599TIP3    H225741   5.888   2.508   6.469
 8600TIP3   OH225742   7.071   5.852   6.574
 8600TIP3    H125743   7.007   5.891   6.514
 8600TIP3    H225744   7.152   5.900   6.556
 8601TIP3   OH225745   3.494   0.239   4.252
 8601TIP3    H125746   3.557   0.201   4.192
 8601TIP3    H225747   3.408   0.211   4.218
 8602TIP3   OH225748   4.196   0.112   6.125
 8602TIP3    H125749   4.152   0.193   6.152
 8602TIP3    H225750   4.128   0.045   6.133
 8603TIP3   OH225751   5.219   7.645   5.280
 8603TIP3    H125752   5.134   7.684   5.297
 8603TIP3    H225753   5.277   7.719   5.264
 8604TIP3   OH225754   7.793   5.894   4.929
 8604TIP3    H125755   7.782   5.970   4.987
 8604TIP3    H225756   7.757   5.821   4.979
 8605TIP3   OH225757   8.079   4.457   5.167
 8605TIP3    H125758   8.117   4.421   5.248
 8605TIP3    H225759   8.067   4.381   5.111
 8606TIP3   OH225760   6.774   4.420   0.646
 8606TIP3    H125761   6.717   4.478   0.595
 8606TIP3    H225762   6.772   4.457   0.734
 8607TIP3   OH225763   0.714   4.549   0.354
 8607TIP3    H125764   0.743   4.460   0.333
 8607TIP3    H225765   0.750   4.566   0.441
 8608TIP3   OH225766   7.902   2.361   2.329
 8608TIP3    H125767   7.964   2.434   2.336
 8608TIP3    H225768   7.944   2.289   2.376
 8609TIP3   OH225769   5.984   1.151   1.998
 8609TIP3    H125770   5.992   1.112   2.085
 8609TIP3    H225771   6.073   1.180   1.977
 8610TIP3   OH225772   6.452   7.279   3.096
 8610TIP3    H125773   6.434   7.245   3.184
 8610TIP3    H225774   6.374   7.256   3.046
 8611TIP3   OH225775   3.315   2.817   6.202
 8611TIP3    H125776   3.316   2.755   6.274
 8611TIP3    H225777   3.267   2.892   6.236
 8612TIP3   OH225778   4.633   4.803   3.532
 8612TIP3    H125779   4.710   4.749   3.547
 8612TIP3    H225780   4.575   4.748   3.479
 8613TIP3   OH225781   6.358   3.833   3.010
 8613TIP3    H125782   6.328   3.903   2.954
 8613TIP3    H225783   6.335   3.752   2.964
 8614TIP3   OH225784   2.533   4.978   0.111
 8614TIP3    H125785   2.598   4.908   0.121
 8614TIP3    H225786   2.557   5.020   0.028
 8615TIP3   OH225787   2.671   1.794   6.299
 8615TIP3    H125788   2.730   1.830   6.365
 8615TIP3    H225789   2.633   1.871   6.256
 8616TIP3   OH225790   3.822   6.446   1.691
 8616TIP3    H125791   3.851   6.475   1.778
 8616TIP3    H225792   3.872   6.366   1.674
 8617TIP3   OH225793   4.327   2.134   0.913
 8617TIP3    H125794   4.261   2.093   0.968
 8617TIP3    H225795   4.400   2.072   0.914
 8618TIP3   OH225796   5.245   1.345   4.459
 8618TIP3    H125797   5.238   1.418   4.521
 8618TIP3    H225798   5.225   1.268   4.511
 8619TIP3   OH225799   6.521   4.699   6.395
 8619TIP3    H125800   6.450   4.761   6.413
 8619TIP3    H225801   6.531   4.649   6.477
 8620TIP3   OH225802   2.804   6.769   0.300
 8620TIP3    H125803   2.852   6.822   0.363
 8620TIP3    H225804   2.712   6.776   0.327
 8621TIP3   OH225805   7.115   3.954   1.532
 8621TIP3    H125806   7.128   4.047   1.512
 8621TIP3    H225807   7.196   3.927   1.575
 8622TIP3   OH225808   5.831   1.514   3.796
 8622TIP3    H125809   5.786   1.458   3.732
 8622TIP3    H225810   5.761   1.570   3.831
 8623TIP3   OH225811   4.943   2.865   3.529
 8623TIP3    H125812   4.859   2.836   3.494
 8623TIP3    H225813   4.972   2.794   3.586
 8624TIP3   OH225814   1.521   5.365   4.339
 8624TIP3    H125815   1.469   5.392   4.263
 8624TIP3    H225816   1.546   5.275   4.319
 8625TIP3   OH225817   7.386   4.868   0.407
 8625TIP3    H125818   7.310   4.921   0.431
 8625TIP3    H225819   7.373   4.786   0.453
 8626TIP3   OH225820   1.085   4.111   3.014
 8626TIP3    H125821   1.155   4.158   2.969
 8626TIP3    H225822   1.008   4.166   3.002
 8627TIP3   OH225823   8.168   3.076   1.585
 8627TIP3    H125824   8.229   3.071   1.512
 8627TIP3    H225825   8.209   3.025   1.655
 8628TIP3   OH225826   7.131   0.253   5.587
 8628TIP3    H125827   7.095   0.246   5.498
 8628TIP3    H225828   7.055   0.273   5.642
 8629TIP3   OH225829  -0.010   3.863   3.042
 8629TIP3    H125830   0.050   3.935   3.024
 8629TIP3    H225831   0.036   3.785   3.012
 8630TIP3   OH225832   1.678   2.706   0.417
 8630TIP3    H125833   1.687   2.643   0.489
 8630TIP3    H225834   1.753   2.688   0.360
 8631TIP3   OH225835   5.737   5.015   4.335
 8631TIP3    H125836   5.679   5.090   4.322
 8631TIP3    H225837   5.719   4.958   4.260
 8632TIP3   OH225838   1.890   5.041   4.436
 8632TIP3    H125839   1.925   5.091   4.510
 8632TIP3    H225840   1.913   5.093   4.359
 8633TIP3   OH225841   4.817   0.614   6.704
 8633TIP3    H125842   4.869   0.642   6.779
 8633TIP3    H225843   4.728   0.604   6.738
 8634TIP3   OH225844   3.138   1.667   5.793
 8634TIP3    H125845   3.201   1.682   5.863
 8634TIP3    H225846   3.159   1.735   5.728
 8635TIP3   OH225847   3.463   2.217   0.789
 8635TIP3    H125848   3.491   2.146   0.847
 8635TIP3    H225849   3.465   2.296   0.845
 8636TIP3   OH225850   3.703   0.464   3.472
 8636TIP3    H125851   3.686   0.378   3.432
 8636TIP3    H225852   3.766   0.445   3.541
 8637TIP3   OH225853   2.727   6.724   2.911
 8637TIP3    H125854   2.685   6.692   2.832
 8637TIP3    H225855   2.727   6.819   2.901
 8638TIP3   OH225856   5.953   3.583   3.134
 8638TIP3    H125857   5.945   3.503   3.082
 8638TIP3    H225858   5.887   3.574   3.203
 8639TIP3   OH225859   7.889   2.339   5.220
 8639TIP3    H125860   7.866   2.338   5.314
 8639TIP3    H225861   7.960   2.275   5.212
 8640TIP3   OH225862   5.565   6.736   4.537
 8640TIP3    H125863   5.646   6.685   4.529
 8640TIP3    H225864   5.561   6.787   4.456
 8641TIP3   OH225865   5.526   6.597   3.934
 8641TIP3    H125866   5.510   6.683   3.895
 8641TIP3    H225867   5.542   6.539   3.859
 8642TIP3   OH225868   6.533   4.528   0.928
 8642TIP3    H125869   6.465   4.525   0.996
 8642TIP3    H225870   6.485   4.519   0.846
 8643TIP3   OH225871   3.672   4.760   1.405
 8643TIP3    H125872   3.755   4.735   1.365
 8643TIP3    H225873   3.667   4.709   1.485
 8644TIP3   OH225874   4.355   0.109   6.486
 8644TIP3    H125875   4.333   0.185   6.432
 8644TIP3    H225876   4.450   0.106   6.487
 8645TIP3   OH225877   4.153   7.009   4.714
 8645TIP3    H125878   4.124   7.090   4.671
 8645TIP3    H225879   4.135   7.024   4.807
 8646TIP3   OH225880   6.582   7.670   5.890
 8646TIP3    H125881   6.654   7.630   5.937
 8646TIP3    H225882   6.607   7.762   5.881
 8647TIP3   OH225883   1.138   4.321   3.395
 8647TIP3    H125884   1.050   4.322   3.357
 8647TIP3    H225885   1.184   4.251   3.348
 8648TIP3   OH225886   4.945   0.079   1.466
 8648TIP3    H125887   4.851   0.100   1.468
 8648TIP3    H225888   4.984   0.138   1.530
 8649TIP3   OH225889   7.748   4.060   1.886
 8649TIP3    H125890   7.777   4.137   1.836
 8649TIP3    H225891   7.677   4.023   1.834
 8650TIP3   OH225892   6.593   0.502   2.038
 8650TIP3    H125893   6.521   0.558   2.066
 8650TIP3    H225894   6.553   0.437   1.981
 8651TIP3   OH225895   4.986   2.120   4.047
 8651TIP3    H125896   5.061   2.147   4.099
 8651TIP3    H225897   5.008   2.032   4.016
 8652TIP3   OH225898   7.452   4.085   6.424
 8652TIP3    H125899   7.494   4.128   6.499
 8652TIP3    H225900   7.486   3.996   6.426
 8653TIP3   OH225901   6.132   0.521   4.634
 8653TIP3    H125902   6.178   0.487   4.711
 8653TIP3    H225903   6.160   0.463   4.562
 8654TIP3   OH225904   6.816   4.468   2.231
 8654TIP3    H125905   6.802   4.419   2.311
 8654TIP3    H225906   6.887   4.421   2.186
 8655TIP3   OH225907   7.510   0.582   2.788
 8655TIP3    H125908   7.420   0.586   2.758
 8655TIP3    H225909   7.510   0.627   2.873
 8656TIP3   OH225910   8.282   7.191   3.554
 8656TIP3    H125911   8.271   7.201   3.460
 8656TIP3    H225912   8.200   7.222   3.592
 8657TIP3   OH225913   6.171   7.110   1.099
 8657TIP3    H125914   6.199   7.056   1.024
 8657TIP3    H225915   6.249   7.113   1.155
 8658TIP3   OH225916   5.384   5.805   1.340
 8658TIP3    H125917   5.422   5.718   1.353
 8658TIP3    H225918   5.450   5.851   1.287
 8659TIP3   OH225919   1.953   7.778   1.266
 8659TIP3    H125920   1.903   7.697   1.279
 8659TIP3    H225921   1.941   7.827   1.347
 8660TIP3   OH225922   4.663   2.324   0.736
 8660TIP3    H125923   4.573   2.354   0.746
 8660TIP3    H225924   4.674   2.259   0.806
 8661TIP3   OH225925   8.067   4.716   2.073
 8661TIP3    H125926   8.148   4.690   2.117
 8661TIP3    H225927   7.998   4.697   2.136
 8662TIP3   OH225928   6.797   6.376   5.390
 8662TIP3    H125929   6.861   6.402   5.323
 8662TIP3    H225930   6.712   6.385   5.346
 8663TIP3   OH225931   2.877   2.630   5.972
 8663TIP3    H125932   2.791   2.672   5.965
 8663TIP3    H225933   2.938   2.695   5.935
 8664TIP3   OH225934   2.899   1.965   3.021
 8664TIP3    H125935   2.844   2.001   3.090
 8664TIP3    H225936   2.839   1.941   2.952
 8665TIP3   OH225937   4.651   7.632   0.104
 8665TIP3    H125938   4.589   7.598   0.039
 8665TIP3    H225939   4.654   7.565   0.172
 8666TIP3   OH225940   5.774   2.212   5.806
 8666TIP3    H125941   5.724   2.244   5.731
 8666TIP3    H225942   5.858   2.256   5.799
 8667TIP3   OH225943   4.387   1.994   3.981
 8667TIP3    H125944   4.378   2.028   3.892
 8667TIP3    H225945   4.368   1.901   3.974
 8668TIP3   OH225946   3.769   7.290   4.257
 8668TIP3    H125947   3.815   7.241   4.189
 8668TIP3    H225948   3.680   7.300   4.223
 8669TIP3   OH225949   5.609   7.710   0.033
 8669TIP3    H125950   5.649   7.726   0.119
 8669TIP3    H225951   5.518   7.691   0.053
 8670TIP3   OH225952   0.399   2.937   2.841
 8670TIP3    H125953   0.356   2.891   2.769
 8670TIP3    H225954   0.329   2.951   2.905
 8671TIP3   OH225955   6.992   5.952   3.003
 8671TIP3    H125956   6.914   5.971   3.054
 8671TIP3    H225957   6.968   5.973   2.913
 8672TIP3   OH225958   3.746   7.477   6.568
 8672TIP3    H125959   3.818   7.517   6.520
 8672TIP3    H225960   3.701   7.423   6.503
 8673TIP3   OH225961   0.286   3.662   1.672
 8673TIP3    H125962   0.271   3.738   1.728
 8673TIP3    H225963   0.216   3.601   1.696
 8674TIP3   OH225964   2.838   5.131   3.784
 8674TIP3    H125965   2.883   5.128   3.700
 8674TIP3    H225966   2.775   5.203   3.776
 8675TIP3   OH225967   1.035   0.011   4.807
 8675TIP3    H125968   1.055   0.104   4.821
 8675TIP3    H225969   1.018  -0.023   4.895
 8676TIP3   OH225970   2.551   1.759   4.271
 8676TIP3    H125971   2.560   1.854   4.269
 8676TIP3    H225972   2.593   1.732   4.353
 8677TIP3   OH225973   2.853   1.884   6.490
 8677TIP3    H125974   2.856   1.916   6.580
 8677TIP3    H225975   2.944   1.885   6.461
 8678TIP3   OH225976   5.029   1.543   4.997
 8678TIP3    H125977   5.081   1.481   5.048
 8678TIP3    H225978   5.060   1.531   4.907
 8679TIP3   OH225979   2.083   0.977   1.591
 8679TIP3    H125980   2.114   1.068   1.589
 8679TIP3    H225981   2.142   0.933   1.653
 8680TIP3   OH225982   1.813   5.240   5.961
 8680TIP3    H125983   1.839   5.179   5.893
 8680TIP3    H225984   1.771   5.312   5.914
 8681TIP3   OH225985   5.380   1.748   0.437
 8681TIP3    H125986   5.457   1.715   0.390
 8681TIP3    H225987   5.391   1.715   0.526
 8682TIP3   OH225988   3.183   7.110   6.028
 8682TIP3    H125989   3.217   7.064   6.105
 8682TIP3    H225990   3.155   7.040   5.969
 8683TIP3   OH225991   5.861   7.622   0.313
 8683TIP3    H125992   5.775   7.594   0.283
 8683TIP3    H225993   5.880   7.701   0.263
 8684TIP3   OH225994   7.566   7.103   4.209
 8684TIP3    H125995   7.635   7.044   4.240
 8684TIP3    H225996   7.572   7.178   4.268
 8685TIP3   OH225997   6.970   4.086   2.684
 8685TIP3    H125998   6.916   4.142   2.740
 8685TIP3    H225999   6.920   4.004   2.676
 8686TIP3   OH226000   5.938   6.769   2.268
 8686TIP3    H126001   5.977   6.828   2.332
 8686TIP3    H226002   5.981   6.791   2.186
 8687TIP3   OH226003   4.744   6.226   6.447
 8687TIP3    H126004   4.831   6.206   6.482
 8687TIP3    H226005   4.695   6.259   6.522
 8688TIP3   OH226006   4.666   0.074   1.538
 8688TIP3    H126007   4.620   0.138   1.591
 8688TIP3    H226008   4.624  -0.010   1.559
 8689TIP3   OH226009   1.473   1.958   1.650
 8689TIP3    H126010   1.516   1.956   1.564
 8689TIP3    H226011   1.477   1.867   1.680
 8690TIP3   OH226012   1.069   4.432   2.076
 8690TIP3    H126013   1.120   4.482   2.139
 8690TIP3    H226014   1.132   4.372   2.035
 8691TIP3   OH226015   1.075   7.700   4.470
 8691TIP3    H126016   1.012   7.670   4.404
 8691TIP3    H226017   1.038   7.670   4.553
 8692TIP3   OH226018   1.135   5.725   2.889
 8692TIP3    H126019   1.128   5.820   2.876
 8692TIP3    H226020   1.061   5.702   2.944
 8693TIP3   OH226021   4.557   2.961   0.393
 8693TIP3    H126022   4.533   3.053   0.379
 8693TIP3    H226023   4.542   2.919   0.308
 8694TIP3   OH226024   2.719   2.462   4.899
 8694TIP3    H126025   2.812   2.440   4.903
 8694TIP3    H226026   2.717   2.554   4.871
 8695TIP3   OH226027   1.948   4.391   2.419
 8695TIP3    H126028   1.946   4.450   2.343
 8695TIP3    H226029   1.963   4.449   2.493
 8696TIP3   OH226030   6.337   0.646   6.448
 8696TIP3    H126031   6.320   0.684   6.534
 8696TIP3    H226032   6.381   0.715   6.399
 8697TIP3   OH226033   4.660   4.341   3.144
 8697TIP3    H126034   4.664   4.357   3.049
 8697TIP3    H226035   4.574   4.372   3.170
 8698TIP3   OH226036   3.591   2.128   6.131
 8698TIP3    H126037   3.584   2.080   6.049
 8698TIP3    H226038   3.685   2.134   6.148
 8699TIP3   OH226039   6.794   3.190   2.268
 8699TIP3    H126040   6.738   3.134   2.215
 8699TIP3    H226041   6.863   3.132   2.300
 8700TIP3   OH226042   2.297   2.583   1.380
 8700TIP3    H126043   2.220   2.627   1.414
 8700TIP3    H226044   2.299   2.499   1.426
 8701TIP3   OH226045   5.838   6.152   5.536
 8701TIP3    H126046   5.770   6.196   5.588
 8701TIP3    H226047   5.883   6.096   5.599
 8702TIP3   OH226048   0.404   5.546   1.557
 8702TIP3    H126049   0.362   5.524   1.474
 8702TIP3    H226050   0.488   5.584   1.533
 8703TIP3   OH226051   7.158   3.718   1.746
 8703TIP3    H126052   7.134   3.804   1.780
 8703TIP3    H226053   7.078   3.666   1.750
 8704TIP3   OH226054   6.192   5.788   3.993
 8704TIP3    H126055   6.109   5.750   4.019
 8704TIP3    H226056   6.251   5.769   4.066
 8705TIP3   OH226057   3.114   0.221   1.705
 8705TIP3    H126058   3.099   0.128   1.690
 8705TIP3    H226059   3.096   0.262   1.621
 8706TIP3   OH226060   3.591   6.495   3.298
 8706TIP3    H126061   3.507   6.518   3.257
 8706TIP3    H226062   3.642   6.454   3.228
 8707TIP3   OH226063   7.323   4.424   1.521
 8707TIP3    H126064   7.301   4.409   1.613
 8707TIP3    H226065   7.400   4.369   1.506
 8708TIP3   OH226066   1.981   3.605   5.143
 8708TIP3    H126067   1.995   3.619   5.237
 8708TIP3    H226068   1.886   3.601   5.132
 8709TIP3   OH226069   2.491   3.785   2.032
 8709TIP3    H126070   2.552   3.853   2.062
 8709TIP3    H226071   2.457   3.746   2.112
 8710TIP3   OH226072   5.816   1.419   4.649
 8710TIP3    H126073   5.774   1.505   4.638
 8710TIP3    H226074   5.749   1.356   4.621
 8711TIP3   OH226075   0.494   3.376   1.876
 8711TIP3    H126076   0.540   3.458   1.890
 8711TIP3    H226077   0.401   3.399   1.878
 8712TIP3   OH226078   3.330   0.118   6.430
 8712TIP3    H126079   3.413   0.156   6.457
 8712TIP3    H226080   3.350   0.070   6.350
 8713TIP3   OH226081   3.408   4.639   5.800
 8713TIP3    H126082   3.460   4.589   5.863
 8713TIP3    H226083   3.465   4.646   5.723
 8714TIP3   OH226084   3.646   2.285   3.731
 8714TIP3    H126085   3.738   2.305   3.715
 8714TIP3    H226086   3.634   2.197   3.695
 8715TIP3   OH226087   5.147   4.201   6.618
 8715TIP3    H126088   5.150   4.295   6.601
 8715TIP3    H226089   5.215   4.186   6.683
 8716TIP3   OH226090   2.629   6.418   5.886
 8716TIP3    H126091   2.589   6.413   5.799
 8716TIP3    H226092   2.720   6.393   5.872
 8717TIP3   OH226093   6.046   5.303   0.547
 8717TIP3    H126094   6.098   5.282   0.625
 8717TIP3    H226095   6.071   5.237   0.483
 8718TIP3   OH226096   0.905   0.916   2.984
 8718TIP3    H126097   0.843   0.988   3.001
 8718TIP3    H226098   0.905   0.907   2.889
 8719TIP3   OH226099   4.343   2.498   3.998
 8719TIP3    H126100   4.290   2.576   4.012
 8719TIP3    H226101   4.331   2.447   4.079
 8720TIP3   OH226102   7.706   7.743   5.164
 8720TIP3    H126103   7.679   7.815   5.107
 8720TIP3    H226104   7.624   7.706   5.197
 8721TIP3   OH226105   6.783   7.540   1.590
 8721TIP3    H126106   6.855   7.596   1.619
 8721TIP3    H226107   6.823   7.453   1.579
 8722TIP3   OH226108   5.876   1.412   6.228
 8722TIP3    H126109   5.924   1.351   6.172
 8722TIP3    H226110   5.823   1.463   6.168
 8723TIP3   OH226111   5.846   3.231   2.006
 8723TIP3    H126112   5.823   3.156   2.060
 8723TIP3    H226113   5.763   3.276   1.990
 8724TIP3   OH226114   0.648   7.184   4.005
 8724TIP3    H126115   0.606   7.249   4.062
 8724TIP3    H226116   0.686   7.121   4.066
 8725TIP3   OH226117   2.786   2.572   3.406
 8725TIP3    H126118   2.784   2.581   3.311
 8725TIP3    H226119   2.747   2.487   3.423
 8726TIP3   OH226120   0.769   3.726   3.890
 8726TIP3    H126121   0.790   3.767   3.806
 8726TIP3    H226122   0.821   3.775   3.954
 8727TIP3   OH226123   7.227   4.574   0.793
 8727TIP3    H126124   7.254   4.493   0.750
 8727TIP3    H226125   7.288   4.584   0.867
 8728TIP3   OH226126   4.511   5.804   5.660
 8728TIP3    H126127   4.467   5.743   5.601
 8728TIP3    H226128   4.571   5.749   5.711
 8729TIP3   OH226129   3.181   6.924   2.648
 8729TIP3    H126130   3.133   6.888   2.722
 8729TIP3    H226131   3.143   6.880   2.571
 8730TIP3   OH226132   4.012   3.452   2.588
 8730TIP3    H126133   3.927   3.483   2.617
 8730TIP3    H226134   4.075   3.505   2.636
 8731TIP3   OH226135   3.023   5.153   4.938
 8731TIP3    H126136   2.962   5.081   4.923
 8731TIP3    H226137   2.973   5.232   4.917
 8732TIP3   OH226138   0.397   0.363   5.239
 8732TIP3    H126139   0.387   0.324   5.326
 8732TIP3    H226140   0.332   0.320   5.185
 8733TIP3   OH226141   5.728   1.684   0.627
 8733TIP3    H126142   5.814   1.643   0.615
 8733TIP3    H226143   5.671   1.641   0.564
 8734TIP3   OH226144   6.109   7.169   2.109
 8734TIP3    H126145   6.033   7.192   2.162
 8734TIP3    H226146   6.114   7.239   2.043
 8735TIP3   OH226147   4.027   1.192   4.240
 8735TIP3    H126148   3.966   1.256   4.277
 8735TIP3    H226149   3.979   1.153   4.167
 8736TIP3   OH226150   6.278   7.246   0.345
 8736TIP3    H126151   6.226   7.301   0.287
 8736TIP3    H226152   6.348   7.211   0.289
 8737TIP3   OH226153   7.070   5.067   4.829
 8737TIP3    H126154   6.997   5.034   4.882
 8737TIP3    H226155   7.139   5.084   4.893
 8738TIP3   OH226156   5.262   0.593   1.349
 8738TIP3    H126157   5.356   0.576   1.357
 8738TIP3    H226158   5.254   0.688   1.359
 8739TIP3   OH226159   7.838   3.450   3.631
 8739TIP3    H126160   7.790   3.422   3.553
 8739TIP3    H226161   7.803   3.396   3.702
 8740TIP3   OH226162   7.791   1.917   4.341
 8740TIP3    H126163   7.852   1.869   4.397
 8740TIP3    H226164   7.737   1.849   4.301
 8741TIP3   OH226165   3.910   4.007   0.539
 8741TIP3    H126166   3.911   4.102   0.551
 8741TIP3    H226167   3.998   3.985   0.507
 8742TIP3   OH226168   8.193   6.505   2.596
 8742TIP3    H126169   8.232   6.592   2.589
 8742TIP3    H226170   8.208   6.478   2.686
 8743TIP3   OH226171   3.483   6.223   4.213
 8743TIP3    H126172   3.566   6.257   4.248
 8743TIP3    H226173   3.417   6.287   4.241
 8744TIP3   OH226174   3.421   6.471   2.049
 8744TIP3    H126175   3.402   6.394   1.996
 8744TIP3    H226176   3.346   6.529   2.035
 8745TIP3   OH226177   0.789   0.552   6.754
 8745TIP3    H126178   0.708   0.535   6.705
 8745TIP3    H226179   0.786   0.646   6.774
 8746TIP3   OH226180   3.981   2.628   4.241
 8746TIP3    H126181   4.033   2.551   4.260
 8746TIP3    H226182   4.023   2.668   4.164
 8747TIP3   OH226183   0.933   7.408   3.518
 8747TIP3    H126184   0.844   7.441   3.534
 8747TIP3    H226185   0.941   7.332   3.576
 8748TIP3   OH226186   7.184   0.099   6.167
 8748TIP3    H126187   7.171   0.178   6.219
 8748TIP3    H226188   7.231   0.040   6.226
 8749TIP3   OH226189   5.461   7.345   0.555
 8749TIP3    H126190   5.503   7.382   0.633
 8749TIP3    H226191   5.481   7.251   0.559
 8750TIP3   OH226192   7.650   6.295   6.651
 8750TIP3    H126193   7.664   6.248   6.569
 8750TIP3    H226194   7.628   6.228   6.715
 8751TIP3   OH226195   2.195   2.300   6.282
 8751TIP3    H126196   2.101   2.284   6.269
 8751TIP3    H226197   2.235   2.213   6.277
 8752TIP3   OH226198   5.222   2.310   0.692
 8752TIP3    H126199   5.205   2.361   0.613
 8752TIP3    H226200   5.309   2.337   0.721
 8753TIP3   OH226201   7.289   6.327   2.280
 8753TIP3    H126202   7.268   6.240   2.247
 8753TIP3    H226203   7.333   6.311   2.364
 8754TIP3   OH226204   4.594   1.421   0.811
 8754TIP3    H126205   4.574   1.480   0.738
 8754TIP3    H226206   4.662   1.467   0.861
 8755TIP3   OH226207   0.964   5.546   6.752
 8755TIP3    H126208   1.040   5.515   6.702
 8755TIP3    H226209   0.950   5.480   6.819
 8756TIP3   OH226210   2.972   0.611   4.452
 8756TIP3    H126211   2.961   0.650   4.538
 8756TIP3    H226212   2.905   0.543   4.447
 8757TIP3   OH226213   4.035   4.571   4.809
 8757TIP3    H126214   3.962   4.627   4.836
 8757TIP3    H226215   3.998   4.483   4.806
 8758TIP3   OH226216   1.090   3.732   4.682
 8758TIP3    H126217   1.058   3.685   4.605
 8758TIP3    H226218   1.089   3.666   4.752
 8759TIP3   OH226219   6.794   3.267   4.107
 8759TIP3    H126220   6.817   3.312   4.188
 8759TIP3    H226221   6.878   3.233   4.074
 8760TIP3   OH226222   2.484   0.093   3.374
 8760TIP3    H126223   2.450   0.139   3.451
 8760TIP3    H226224   2.421   0.022   3.360
 8761TIP3   OH226225   7.834   6.404   1.931
 8761TIP3    H126226   7.876   6.444   2.007
 8761TIP3    H226227   7.825   6.312   1.954
 8762TIP3   OH226228   5.515   2.338   6.419
 8762TIP3    H126229   5.590   2.319   6.362
 8762TIP3    H226230   5.471   2.254   6.430
 8763TIP3   OH226231   2.329   5.814   5.001
 8763TIP3    H126232   2.411   5.850   5.034
 8763TIP3    H226233   2.276   5.890   4.979
 8764TIP3   OH226234   1.114   7.435   4.187
 8764TIP3    H126235   1.075   7.418   4.101
 8764TIP3    H226236   1.080   7.521   4.212
 8765TIP3   OH226237   5.648   2.156   4.270
 8765TIP3    H126238   5.657   2.218   4.198
 8765TIP3    H226239   5.593   2.086   4.235
 8766TIP3   OH226240   0.707   0.073   5.226
 8766TIP3    H126241   0.665   0.150   5.187
 8766TIP3    H226242   0.740   0.022   5.152
 8767TIP3   OH226243   3.277   5.381   3.100
 8767TIP3    H126244   3.226   5.423   3.169
 8767TIP3    H226245   3.318   5.306   3.143
 8768TIP3   OH226246   0.515   6.482   4.159
 8768TIP3    H126247   0.466   6.478   4.077
 8768TIP3    H226248   0.449   6.470   4.227
 8769TIP3   OH226249   5.904   5.078   3.542
 8769TIP3    H126250   5.879   5.002   3.593
 8769TIP3    H226251   6.000   5.077   3.541
 8770TIP3   OH226252   8.030   6.140   3.373
 8770TIP3    H126253   8.061   6.229   3.392
 8770TIP3    H226254   7.963   6.124   3.439
 8771TIP3   OH226255   8.082   1.808   0.916
 8771TIP3    H126256   8.034   1.874   0.866
 8771TIP3    H226257   8.149   1.776   0.855
 8772TIP3   OH226258   4.459   3.390   1.328
 8772TIP3    H126259   4.432   3.299   1.327
 8772TIP3    H226260   4.524   3.395   1.398
 8773TIP3   OH226261   0.692   0.784   5.478
 8773TIP3    H126262   0.622   0.750   5.534
 8773TIP3    H226263   0.696   0.877   5.497
 8774TIP3   OH226264   5.018   6.140   5.970
 8774TIP3    H126265   5.022   6.225   6.013
 8774TIP3    H226266   5.013   6.160   5.877
 8775TIP3   OH226267   3.396   1.801   0.423
 8775TIP3    H126268   3.419   1.844   0.505
 8775TIP3    H226269   3.479   1.792   0.376
 8776TIP3   OH226270   1.086   0.582   2.468
 8776TIP3    H126271   1.123   0.564   2.555
 8776TIP3    H226272   1.108   0.504   2.416
 8777TIP3   OH226273   0.548   3.236   5.169
 8777TIP3    H126274   0.484   3.178   5.210
 8777TIP3    H226275   0.526   3.323   5.203
 8778TIP3   OH226276   2.839   6.670   1.035
 8778TIP3    H126277   2.857   6.746   0.980
 8778TIP3    H226278   2.749   6.685   1.067
 8779TIP3   OH226279   7.952   0.089   2.524
 8779TIP3    H126280   8.036   0.135   2.519
 8779TIP3    H226281   7.889   0.155   2.553
 8780TIP3   OH226282   6.380   5.793   0.764
 8780TIP3    H126283   6.445   5.845   0.716
 8780TIP3    H226284   6.345   5.731   0.699
 8781TIP3   OH226285   1.844   3.249   1.135
 8781TIP3    H126286   1.879   3.225   1.049
 8781TIP3    H226287   1.804   3.169   1.168
 8782TIP3   OH226288   2.625   7.409   6.115
 8782TIP3    H126289   2.683   7.413   6.191
 8782TIP3    H226290   2.547   7.364   6.147
 8783TIP3   OH226291   5.047   7.410   2.451
 8783TIP3    H126292   4.970   7.464   2.436
 8783TIP3    H226293   5.022   7.351   2.522
 8784TIP3   OH226294   6.346   4.401   4.297
 8784TIP3    H126295   6.402   4.476   4.275
 8784TIP3    H226296   6.385   4.327   4.251
 8785TIP3   OH226297   1.050   0.865   0.220
 8785TIP3    H126298   0.960   0.889   0.241
 8785TIP3    H226299   1.072   0.797   0.283
 8786TIP3   OH226300   6.915   2.710   6.019
 8786TIP3    H126301   6.850   2.780   6.010
 8786TIP3    H226302   6.957   2.727   6.104
 8787TIP3   OH226303   5.652   1.756   1.151
 8787TIP3    H126304   5.677   1.674   1.194
 8787TIP3    H226305   5.666   1.739   1.058
 8788TIP3   OH226306   6.144   0.302   1.954
 8788TIP3    H126307   6.050   0.293   1.970
 8788TIP3    H226308   6.179   0.213   1.964
 8789TIP3   OH226309   6.458   6.752   4.888
 8789TIP3    H126310   6.460   6.839   4.848
 8789TIP3    H226311   6.485   6.767   4.978
 8790TIP3   OH226312   4.133   2.476   4.945
 8790TIP3    H126313   4.195   2.490   5.016
 8790TIP3    H226314   4.178   2.510   4.867
 8791TIP3   OH226315   3.657   7.713   4.126
 8791TIP3    H126316   3.646   7.808   4.132
 8791TIP3    H226317   3.570   7.680   4.102
 8792TIP3   OH226318   7.654   5.481   5.306
 8792TIP3    H126319   7.577   5.432   5.277
 8792TIP3    H226320   7.637   5.499   5.399
 8793TIP3   OH226321   8.282   4.305   1.285
 8793TIP3    H126322   8.189   4.325   1.275
 8793TIP3    H226323   8.327   4.383   1.252
 8794TIP3   OH226324   8.035   2.305   6.409
 8794TIP3    H126325   8.044   2.339   6.498
 8794TIP3    H226326   8.117   2.258   6.393
 8795TIP3   OH226327   4.500   2.306   4.808
 8795TIP3    H126328   4.497   2.350   4.893
 8795TIP3    H226329   4.493   2.213   4.828
 8796TIP3   OH226330   0.343   0.379   1.910
 8796TIP3    H126331   0.431   0.409   1.932
 8796TIP3    H226332   0.328   0.412   1.822
 8797TIP3   OH226333   4.939   5.646   3.087
 8797TIP3    H126334   4.904   5.574   3.138
 8797TIP3    H226335   5.031   5.623   3.074
 8798TIP3   OH226336   7.728   0.963   3.310
 8798TIP3    H126337   7.694   0.937   3.225
 8798TIP3    H226338   7.680   1.044   3.331
 8799TIP3   OH226339   0.387   6.252   2.106
 8799TIP3    H126340   0.372   6.162   2.078
 8799TIP3    H226341   0.301   6.284   2.133
 8800TIP3   OH226342   3.784   3.217   2.029
 8800TIP3    H126343   3.868   3.261   2.038
 8800TIP3    H226344   3.790   3.170   1.945
 8801TIP3   OH226345   0.940   3.769   3.656
 8801TIP3    H126346   1.024   3.753   3.698
 8801TIP3    H226347   0.961   3.825   3.581
 8802TIP3   OH226348   7.413   0.032   1.377
 8802TIP3    H126349   7.348  -0.039   1.379
 8802TIP3    H226350   7.380   0.096   1.440
 8803TIP3   OH226351   3.119   3.645   0.089
 8803TIP3    H126352   3.041   3.700   0.080
 8803TIP3    H226353   3.171   3.664   0.012
 8804TIP3   OH226354   4.555   1.546   6.328
 8804TIP3    H126355   4.646   1.528   6.354
 8804TIP3    H226356   4.561   1.626   6.275
 8805TIP3   OH226357   6.507   4.188   6.399
 8805TIP3    H126358   6.598   4.210   6.419
 8805TIP3    H226359   6.512   4.141   6.315
 8806TIP3   OH226360   7.069   2.239   1.919
 8806TIP3    H126361   7.024   2.208   1.998
 8806TIP3    H226362   7.007   2.220   1.848
 8807TIP3   OH226363   5.583   2.576   2.937
 8807TIP3    H126364   5.542   2.638   2.877
 8807TIP3    H226365   5.511   2.544   2.992
 8808TIP3   OH226366   6.925   1.144   0.116
 8808TIP3    H126367   6.988   1.095   0.063
 8808TIP3    H226368   6.941   1.116   0.206
 8809TIP3   OH226369   2.611   2.166   6.364
 8809TIP3    H126370   2.578   2.255   6.355
 8809TIP3    H226371   2.605   2.129   6.275
 8810TIP3   OH226372   7.309   6.467   5.400
 8810TIP3    H126373   7.322   6.457   5.306
 8810TIP3    H226374   7.397   6.481   5.435
 8811TIP3   OH226375   1.004   4.450   0.449
 8811TIP3    H126376   1.066   4.428   0.380
 8811TIP3    H226377   1.040   4.408   0.527
 8812TIP3   OH226378   0.820   6.287   6.448
 8812TIP3    H126379   0.865   6.316   6.528
 8812TIP3    H226380   0.860   6.202   6.428
 8813TIP3   OH226381   4.892   7.240   6.679
 8813TIP3    H126382   4.917   7.322   6.720
 8813TIP3    H226383   4.800   7.253   6.655
 8814TIP3   OH226384   6.885   4.360   4.244
 8814TIP3    H126385   6.970   4.363   4.200
 8814TIP3    H226386   6.905   4.324   4.331
 8815TIP3   OH226387   5.159   4.321   5.950
 8815TIP3    H126388   5.161   4.344   5.857
 8815TIP3    H226389   5.080   4.269   5.961
 8816TIP3   OH226390   8.174   6.591   5.894
 8816TIP3    H126391   8.247   6.574   5.953
 8816TIP3    H226392   8.119   6.654   5.940
 8817TIP3   OH226393   2.582   6.280   3.307
 8817TIP3    H126394   2.488   6.286   3.321
 8817TIP3    H226395   2.617   6.362   3.343
 8818TIP3   OH226396   0.567   7.804   6.162
 8818TIP3    H126397   0.553   7.712   6.185
 8818TIP3    H226398   0.607   7.801   6.075
 8819TIP3   OH226399   5.023   2.069   6.270
 8819TIP3    H126400   5.032   2.042   6.361
 8819TIP3    H226401   5.096   2.130   6.256
 8820TIP3   OH226402   7.845   4.371   6.768
 8820TIP3    H126403   7.805   4.434   6.708
 8820TIP3    H226404   7.936   4.400   6.775
 8821TIP3   OH226405   6.906   7.171   6.524
 8821TIP3    H126406   6.944   7.259   6.516
 8821TIP3    H226407   6.814   7.183   6.503
 8822TIP3   OH226408   4.994   3.079   3.405
 8822TIP3    H126409   4.966   3.006   3.460
 8822TIP3    H226410   5.009   3.041   3.319
 8823TIP3   OH226411   6.085   2.564   2.563
 8823TIP3    H126412   6.091   2.570   2.659
 8823TIP3    H226413   6.107   2.651   2.532
 8824TIP3   OH226414   3.612   4.525   6.005
 8824TIP3    H126415   3.701   4.549   5.977
 8824TIP3    H226416   3.614   4.535   6.100
 8825TIP3   OH226417   1.071   5.776   4.924
 8825TIP3    H126418   1.008   5.714   4.886
 8825TIP3    H226419   1.112   5.819   4.849
 8826TIP3   OH226420   4.604   2.584   5.713
 8826TIP3    H126421   4.682   2.592   5.658
 8826TIP3    H226422   4.583   2.491   5.713
 8827TIP3   OH226423   6.948   3.251   4.675
 8827TIP3    H126424   6.988   3.173   4.638
 8827TIP3    H226425   7.015   3.287   4.733
 8828TIP3   OH226426   1.173   4.728   4.053
 8828TIP3    H126427   1.230   4.723   4.130
 8828TIP3    H226428   1.214   4.669   3.990
 8829TIP3   OH226429   5.551   5.066   1.080
 8829TIP3    H126430   5.459   5.060   1.106
 8829TIP3    H226431   5.552   5.130   1.009
 8830TIP3   OH226432   6.120   2.800   0.072
 8830TIP3    H126433   6.083   2.868   0.128
 8830TIP3    H226434   6.188   2.759   0.125
 8831TIP3   OH226435   6.391   1.359   4.654
 8831TIP3    H126436   6.327   1.292   4.678
 8831TIP3    H226437   6.393   1.355   4.558
 8832TIP3   OH226438   6.378   5.185   4.327
 8832TIP3    H126439   6.473   5.196   4.334
 8832TIP3    H226440   6.367   5.121   4.257
 8833TIP3   OH226441   5.898   3.692   4.398
 8833TIP3    H126442   5.968   3.743   4.357
 8833TIP3    H226443   5.869   3.632   4.329
 8834TIP3   OH226444   7.732   2.913   3.743
 8834TIP3    H126445   7.788   2.854   3.693
 8834TIP3    H226446   7.723   2.870   3.828
 8835TIP3   OH226447   0.033   1.040   3.212
 8835TIP3    H126448   0.071   1.046   3.299
 8835TIP3    H226449  -0.056   1.075   3.222
 8836TIP3   OH226450   3.895   7.035   3.796
 8836TIP3    H126451   3.949   6.989   3.732
 8836TIP3    H226452   3.816   6.982   3.803
 8837TIP3   OH226453   3.748   2.678   1.310
 8837TIP3    H126454   3.707   2.760   1.283
 8837TIP3    H226455   3.800   2.651   1.234
 8838TIP3   OH226456   5.717   4.648   4.189
 8838TIP3    H126457   5.746   4.729   4.145
 8838TIP3    H226458   5.666   4.679   4.263
 8839TIP3   OH226459   4.940   4.460   2.787
 8839TIP3    H126460   4.916   4.512   2.864
 8839TIP3    H226461   5.036   4.456   2.789
 8840TIP3   OH226462   3.415   2.579   0.069
 8840TIP3    H126463   3.487   2.545   0.015
 8840TIP3    H226464   3.361   2.629   0.008
 8841TIP3   OH226465   1.753   6.960   1.377
 8841TIP3    H126466   1.826   6.976   1.436
 8841TIP3    H226467   1.676   6.956   1.435
 8842TIP3   OH226468   3.983   7.252   3.227
 8842TIP3    H126469   3.904   7.263   3.175
 8842TIP3    H226470   4.007   7.341   3.253
 8843TIP3   OH226471   0.600   0.798   5.813
 8843TIP3    H126472   0.580   0.868   5.875
 8843TIP3    H226473   0.638   0.728   5.867
 8844TIP3   OH226474   6.765   0.534   4.166
 8844TIP3    H126475   6.706   0.521   4.091
 8844TIP3    H226476   6.850   0.552   4.126
 8845TIP3   OH226477   4.936   2.984   5.702
 8845TIP3    H126478   4.852   3.027   5.683
 8845TIP3    H226479   4.924   2.946   5.789
 8846TIP3   OH226480   5.214   3.333   5.746
 8846TIP3    H126481   5.309   3.323   5.739
 8846TIP3    H226482   5.179   3.248   5.719
 8847TIP3   OH226483   0.370   4.009   6.590
 8847TIP3    H126484   0.364   3.989   6.497
 8847TIP3    H226485   0.290   3.971   6.628
 8848TIP3   OH226486   5.709   1.034   6.263
 8848TIP3    H126487   5.752   1.035   6.178
 8848TIP3    H226488   5.682   0.943   6.275
 8849TIP3   OH226489   0.465   1.133   1.213
 8849TIP3    H126490   0.372   1.139   1.232
 8849TIP3    H226491   0.496   1.224   1.214
 8850TIP3   OH226492   1.088   0.215   6.450
 8850TIP3    H126493   1.066   0.211   6.357
 8850TIP3    H226494   1.022   0.274   6.488
 8851TIP3   OH226495   1.270   3.661   4.953
 8851TIP3    H126496   1.213   3.737   4.943
 8851TIP3    H226497   1.220   3.600   5.007
 8852TIP3   OH226498   1.103   5.606   1.190
 8852TIP3    H126499   1.160   5.580   1.262
 8852TIP3    H226500   1.159   5.601   1.112
 8853TIP3   OH226501   5.430   0.315   6.705
 8853TIP3    H126502   5.466   0.335   6.791
 8853TIP3    H226503   5.503   0.331   6.644
 8854TIP3   OH226504   5.259   2.880   3.241
 8854TIP3    H126505   5.178   2.924   3.217
 8854TIP3    H226506   5.233   2.790   3.261
 8855TIP3   OH226507   2.573   7.751   2.928
 8855TIP3    H126508   2.619   7.668   2.926
 8855TIP3    H226509   2.519   7.752   2.849
 8856TIP3   OH226510   2.925   4.832   2.212
 8856TIP3    H126511   2.909   4.923   2.188
 8856TIP3    H226512   3.008   4.834   2.260
 8857TIP3   OH226513   2.318   1.051   1.193
 8857TIP3    H126514   2.400   1.094   1.169
 8857TIP3    H226515   2.278   1.110   1.256
 8858TIP3   OH226516   3.895   3.585   1.302
 8858TIP3    H126517   3.894   3.673   1.265
 8858TIP3    H226518   3.964   3.539   1.254
 8859TIP3   OH226519   0.392   5.937   6.638
 8859TIP3    H126520   0.470   5.896   6.600
 8859TIP3    H226521   0.427   6.008   6.692
 8860TIP3   OH226522   4.900   5.677   6.086
 8860TIP3    H126523   4.929   5.653   5.998
 8860TIP3    H226524   4.962   5.634   6.144
 8861TIP3   OH226525   3.587   5.363   3.556
 8861TIP3    H126526   3.661   5.315   3.594
 8861TIP3    H226527   3.607   5.369   3.463
 8862TIP3   OH226528   3.998   6.554   1.962
 8862TIP3    H126529   4.013   6.467   2.000
 8862TIP3    H226530   3.911   6.578   1.991
 8863TIP3   OH226531   0.660   6.689   3.403
 8863TIP3    H126532   0.673   6.623   3.471
 8863TIP3    H226533   0.730   6.752   3.418
 8864TIP3   OH226534   7.275   7.544   6.603
 8864TIP3    H126535   7.364   7.572   6.581
 8864TIP3    H226536   7.248   7.601   6.674
 8865TIP3   OH226537   2.702   0.173   2.174
 8865TIP3    H126538   2.755   0.185   2.095
 8865TIP3    H226539   2.747   0.223   2.241
 8866TIP3   OH226540   6.869   3.898   4.837
 8866TIP3    H126541   6.791   3.844   4.830
 8866TIP3    H226542   6.864   3.937   4.924
 8867TIP3   OH226543   1.088   1.926   2.817
 8867TIP3    H126544   1.004   1.955   2.853
 8867TIP3    H226545   1.143   1.911   2.894
 8868TIP3   OH226546   8.238   3.267   2.312
 8868TIP3    H126547   8.260   3.286   2.220
 8868TIP3    H226548   8.143   3.281   2.316
 8869TIP3   OH226549   3.421   3.250   3.036
 8869TIP3    H126550   3.452   3.227   2.949
 8869TIP3    H226551   3.476   3.198   3.096
 8870TIP3   OH226552   8.260   7.519   5.803
 8870TIP3    H126553   8.201   7.547   5.733
 8870TIP3    H226554   8.348   7.525   5.764
 8871TIP3   OH226555   4.485   2.265   4.527
 8871TIP3    H126556   4.509   2.265   4.620
 8871TIP3    H226557   4.421   2.194   4.519
 8872TIP3   OH226558   7.592   2.909   2.932
 8872TIP3    H126559   7.567   2.923   2.841
 8872TIP3    H226560   7.522   2.855   2.969
 8873TIP3   OH226561   4.223   3.709   0.916
 8873TIP3    H126562   4.211   3.618   0.890
 8873TIP3    H226563   4.144   3.732   0.965
 8874TIP3   OH226564   4.017   2.205   6.592
 8874TIP3    H126565   3.922   2.212   6.593
 8874TIP3    H226566   4.034   2.116   6.563
 8875TIP3   OH226567   7.921   5.564   2.056
 8875TIP3    H126568   7.928   5.656   2.082
 8875TIP3    H226569   7.949   5.515   2.133
 8876TIP3   OH226570   1.082   2.502   6.382
 8876TIP3    H126571   0.992   2.481   6.406
 8876TIP3    H226572   1.103   2.440   6.312
 8877TIP3   OH226573   2.041   2.021   6.794
 8877TIP3    H126574   2.037   1.925   6.791
 8877TIP3    H226575   2.061   2.047   6.704
 8878TIP3   OH226576   5.998   2.046   1.242
 8878TIP3    H126577   6.007   2.123   1.297
 8878TIP3    H226578   6.005   1.972   1.302
 8879TIP3   OH226579   6.646   0.636   5.473
 8879TIP3    H126580   6.693   0.693   5.412
 8879TIP3    H226581   6.563   0.618   5.429
 8880TIP3   OH226582   1.479   4.106   5.985
 8880TIP3    H126583   1.398   4.123   5.936
 8880TIP3    H226584   1.469   4.158   6.065
 8881TIP3   OH226585   4.484   6.209   2.310
 8881TIP3    H126586   4.454   6.129   2.355
 8881TIP3    H226587   4.434   6.211   2.229
 8882TIP3   OH226588   5.302   1.782   3.534
 8882TIP3    H126589   5.233   1.848   3.533
 8882TIP3    H226590   5.270   1.712   3.478
 8883TIP3   OH226591   7.915   3.920   1.621
 8883TIP3    H126592   7.939   3.849   1.561
 8883TIP3    H226593   7.920   3.999   1.568
 8884TIP3   OH226594   5.836   0.601   4.997
 8884TIP3    H126595   5.882   0.521   5.024
 8884TIP3    H226596   5.775   0.571   4.929
 8885TIP3   OH226597   0.909   5.124   3.089
 8885TIP3    H126598   1.001   5.105   3.108
 8885TIP3    H226599   0.907   5.219   3.075
 8886TIP3   OH226600   3.376   7.122   1.949
 8886TIP3    H126601   3.358   7.183   2.020
 8886TIP3    H226602   3.460   7.151   1.914
 8887TIP3   OH226603   0.187   7.775   4.393
 8887TIP3    H126604   0.177   7.683   4.366
 8887TIP3    H226605   0.206   7.821   4.312
 8888TIP3   OH226606   4.002   5.516   5.359
 8888TIP3    H126607   3.996   5.553   5.271
 8888TIP3    H226608   4.013   5.592   5.416
 8889TIP3   OH226609   5.424   5.035   4.620
 8889TIP3    H126610   5.428   4.970   4.550
 8889TIP3    H226611   5.331   5.055   4.629
 8890TIP3   OH226612   8.028   2.587   4.153
 8890TIP3    H126613   7.937   2.559   4.167
 8890TIP3    H226614   8.061   2.606   4.240
 8891TIP3   OH226615   5.808   2.133   3.330
 8891TIP3    H126616   5.731   2.179   3.297
 8891TIP3    H226617   5.855   2.104   3.252
 8892TIP3   OH226618   6.526   0.828   2.688
 8892TIP3    H126619   6.604   0.809   2.740
 8892TIP3    H226620   6.470   0.878   2.748
 8893TIP3   OH226621   5.292   6.421   2.065
 8893TIP3    H126622   5.201   6.410   2.038
 8893TIP3    H226623   5.293   6.398   2.158
 8894TIP3   OH226624   5.098   7.172   5.181
 8894TIP3    H126625   5.107   7.243   5.118
 8894TIP3    H226626   5.142   7.098   5.140
 8895TIP3   OH226627   7.411   6.602   5.813
 8895TIP3    H126628   7.410   6.593   5.908
 8895TIP3    H226629   7.484   6.547   5.784
 8896TIP3   OH226630   8.259   0.795   2.968
 8896TIP3    H126631   8.207   0.747   3.032
 8896TIP3    H226632   8.254   0.743   2.888
 8897TIP3   OH226633   4.393   0.144   1.450
 8897TIP3    H126634   4.302   0.175   1.455
 8897TIP3    H226635   4.441   0.199   1.512
 8898TIP3   OH226636   1.366   7.019   1.036
 8898TIP3    H126637   1.361   7.101   0.988
 8898TIP3    H226638   1.384   7.044   1.127
 8899TIP3   OH226639   4.079   4.205   3.815
 8899TIP3    H126640   4.066   4.166   3.902
 8899TIP3    H226641   4.159   4.163   3.783
 8900TIP3   OH226642   4.985   5.094   6.759
 8900TIP3    H126643   4.956   5.039   6.686
 8900TIP3    H226644   5.059   5.143   6.723
 8901TIP3   OH226645   0.828   6.641   5.269
 8901TIP3    H126646   0.843   6.547   5.278
 8901TIP3    H226647   0.747   6.657   5.317
 8902TIP3   OH226648   2.072   2.038   3.375
 8902TIP3    H126649   2.148   1.984   3.352
 8902TIP3    H226650   2.109   2.118   3.411
 8903TIP3   OH226651   1.271   1.073   4.297
 8903TIP3    H126652   1.345   1.071   4.237
 8903TIP3    H226653   1.247   1.166   4.302
 8904TIP3   OH226654   1.855   4.430   3.343
 8904TIP3    H126655   1.828   4.343   3.373
 8904TIP3    H226656   1.804   4.491   3.397
 8905TIP3   OH226657   5.044   0.244   1.246
 8905TIP3    H126658   4.997   0.208   1.171
 8905TIP3    H226659   5.053   0.169   1.305
 8906TIP3   OH226660   0.782   0.176   4.958
 8906TIP3    H126661   0.828   0.093   4.953
 8906TIP3    H226662   0.733   0.182   4.876
 8907TIP3   OH226663   3.208   2.289   3.910
 8907TIP3    H126664   3.285   2.255   3.957
 8907TIP3    H226665   3.219   2.256   3.821
 8908TIP3   OH226666   0.785   7.555   0.970
 8908TIP3    H126667   0.860   7.503   0.998
 8908TIP3    H226668   0.786   7.632   1.027
 8909TIP3   OH226669   5.062   0.223   2.465
 8909TIP3    H126670   5.136   0.265   2.510
 8909TIP3    H226671   5.017   0.295   2.421
 8910TIP3   OH226672   1.045   6.159   5.735
 8910TIP3    H126673   1.019   6.085   5.791
 8910TIP3    H226674   1.132   6.137   5.705
 8911TIP3   OH226675   6.606   4.392   5.626
 8911TIP3    H126676   6.554   4.355   5.555
 8911TIP3    H226677   6.655   4.464   5.585
 8912TIP3   OH226678   8.207   1.970   6.568
 8912TIP3    H126679   8.215   1.956   6.474
 8912TIP3    H226680   8.113   1.964   6.585
 8913TIP3   OH226681   7.190   0.389   3.161
 8913TIP3    H126682   7.209   0.478   3.192
 8913TIP3    H226683   7.198   0.394   3.066
 8914TIP3   OH226684   0.228   4.788   2.665
 8914TIP3    H126685   0.248   4.808   2.574
 8914TIP3    H226686   0.148   4.838   2.683
 8915TIP3   OH226687   2.936   4.107   4.312
 8915TIP3    H126688   2.913   4.130   4.222
 8915TIP3    H226689   3.030   4.091   4.310
 8916TIP3   OH226690   5.803   5.127   1.438
 8916TIP3    H126691   5.872   5.060   1.442
 8916TIP3    H226692   5.851   5.209   1.429
 8917TIP3   OH226693   6.445   6.473   6.594
 8917TIP3    H126694   6.463   6.524   6.672
 8917TIP3    H226695   6.460   6.534   6.521
 8918TIP3   OH226696   5.750   4.615   5.368
 8918TIP3    H126697   5.827   4.558   5.359
 8918TIP3    H226698   5.771   4.671   5.442
 8919TIP3   OH226699   7.000   4.931   1.737
 8919TIP3    H126700   6.905   4.926   1.747
 8919TIP3    H226701   7.014   4.924   1.643
 8920TIP3   OH226702   8.166   2.331   4.192
 8920TIP3    H126703   8.224   2.406   4.196
 8920TIP3    H226704   8.114   2.345   4.112
 8921TIP3   OH226705   6.041   2.408   5.253
 8921TIP3    H126706   6.027   2.471   5.323
 8921TIP3    H226707   5.967   2.348   5.260
 8922TIP3   OH226708   3.380   7.658   3.621
 8922TIP3    H126709   3.430   7.687   3.545
 8922TIP3    H226710   3.329   7.735   3.646
 8923TIP3   OH226711   0.650   5.356   3.733
 8923TIP3    H126712   0.678   5.447   3.732
 8923TIP3    H226713   0.711   5.313   3.794
 8924TIP3   OH226714   3.559   7.097   2.311
 8924TIP3    H126715   3.605   7.158   2.253
 8924TIP3    H226716   3.596   7.011   2.291
 8925TIP3   OH226717   0.643   1.608   2.555
 8925TIP3    H126718   0.648   1.634   2.647
 8925TIP3    H226719   0.627   1.514   2.558
 8926TIP3   OH226720   5.202   3.795   6.257
 8926TIP3    H126721   5.198   3.884   6.291
 8926TIP3    H226722   5.289   3.787   6.219
 8927TIP3   OH226723   0.688   7.801   5.926
 8927TIP3    H126724   0.781   7.791   5.943
 8927TIP3    H226725   0.660   7.716   5.892
 8928TIP3   OH226726   3.431   3.201   1.859
 8928TIP3    H126727   3.448   3.190   1.765
 8928TIP3    H226728   3.450   3.115   1.897
 8929TIP3   OH226729   7.178   1.907   2.814
 8929TIP3    H126730   7.175   1.913   2.719
 8929TIP3    H226731   7.238   1.835   2.832
 8930TIP3   OH226732   0.691   5.122   0.719
 8930TIP3    H126733   0.752   5.123   0.792
 8930TIP3    H226734   0.682   5.214   0.693
 8931TIP3   OH226735   4.111   2.813   5.144
 8931TIP3    H126736   4.119   2.873   5.071
 8931TIP3    H226737   4.199   2.777   5.156
 8932TIP3   OH226738   4.677   1.547   1.095
 8932TIP3    H126739   4.748   1.581   1.041
 8932TIP3    H226740   4.684   1.595   1.177
 8933TIP3   OH226741   4.998   4.371   3.847
 8933TIP3    H126742   5.038   4.454   3.873
 8933TIP3    H226743   4.909   4.395   3.821
 8934TIP3   OH226744   7.720   3.321   1.782
 8934TIP3    H126745   7.654   3.385   1.754
 8934TIP3    H226746   7.669   3.244   1.806
 8935TIP3   OH226747   0.071   3.371   2.976
 8935TIP3    H126748   0.163   3.388   2.957
 8935TIP3    H226749   0.069   3.282   3.009
 8936TIP3   OH226750   3.969   7.030   6.274
 8936TIP3    H126751   4.009   7.036   6.361
 8936TIP3    H226752   4.029   7.079   6.217
 8937TIP3   OH226753   0.614   5.347   4.370
 8937TIP3    H126754   0.688   5.288   4.386
 8937TIP3    H226755   0.609   5.354   4.275
 8938TIP3   OH226756   3.719   6.887   1.780
 8938TIP3    H126757   3.806   6.857   1.753
 8938TIP3    H226758   3.663   6.867   1.706
 8939TIP3   OH226759   6.466   2.056   1.405
 8939TIP3    H126760   6.470   2.081   1.313
 8939TIP3    H226761   6.472   1.960   1.404
 8940TIP3   OH226762   0.256   2.368   5.179
 8940TIP3    H126763   0.187   2.357   5.245
 8940TIP3    H226764   0.209   2.387   5.098
 8941TIP3   OH226765   2.662   3.151   6.463
 8941TIP3    H126766   2.638   3.190   6.547
 8941TIP3    H226767   2.598   3.186   6.401
 8942TIP3   OH226768   3.666   1.825   1.921
 8942TIP3    H126769   3.687   1.913   1.892
 8942TIP3    H226770   3.592   1.799   1.866
 8943TIP3   OH226771   1.285   5.647   6.400
 8943TIP3    H126772   1.347   5.659   6.328
 8943TIP3    H226773   1.223   5.581   6.368
 8944TIP3   OH226774   2.993   3.343   1.401
 8944TIP3    H126775   3.000   3.436   1.423
 8944TIP3    H226776   3.061   3.330   1.335
 8945TIP3   OH226777   3.388   1.248   5.778
 8945TIP3    H126778   3.408   1.193   5.854
 8945TIP3    H226779   3.465   1.304   5.768
 8946TIP3   OH226780   5.591   1.285   6.601
 8946TIP3    H126781   5.573   1.192   6.590
 8946TIP3    H226782   5.513   1.320   6.643
 8947TIP3   OH226783   7.791   4.780   0.940
 8947TIP3    H126784   7.768   4.805   0.851
 8947TIP3    H226785   7.778   4.685   0.942
 8948TIP3   OH226786   2.560   2.931   4.494
 8948TIP3    H126787   2.556   3.012   4.444
 8948TIP3    H226788   2.575   2.863   4.429
 8949TIP3   OH226789   6.144   1.946   2.842
 8949TIP3    H126790   6.070   1.894   2.809
 8949TIP3    H226791   6.201   1.883   2.885
 8950TIP3   OH226792   0.055   0.995   2.660
 8950TIP3    H126793   0.093   1.077   2.629
 8950TIP3    H226794  -0.020   1.021   2.713
 8951TIP3   OH226795   6.836   1.313   2.348
 8951TIP3    H126796   6.765   1.283   2.405
 8951TIP3    H226797   6.857   1.400   2.381
 8952TIP3   OH226798   6.157   1.174   0.852
 8952TIP3    H126799   6.193   1.086   0.868
 8952TIP3    H226800   6.153   1.214   0.939
 8953TIP3   OH226801   7.428   2.041   3.481
 8953TIP3    H126802   7.522   2.058   3.493
 8953TIP3    H226803   7.385   2.093   3.548
 8954TIP3   OH226804   1.490   6.478   3.883
 8954TIP3    H126805   1.472   6.407   3.945
 8954TIP3    H226806   1.528   6.433   3.807
 8955TIP3   OH226807   0.372   4.553   2.769
 8955TIP3    H126808   0.374   4.562   2.864
 8955TIP3    H226809   0.332   4.634   2.737
 8956TIP3   OH226810   1.761   6.905   3.268
 8956TIP3    H126811   1.842   6.956   3.260
 8956TIP3    H226812   1.791   6.817   3.289
 8957TIP3   OH226813   3.979   0.204   4.075
 8957TIP3    H126814   3.984   0.295   4.105
 8957TIP3    H226815   4.027   0.155   4.142
 8958TIP3   OH226816   5.760   3.915   6.013
 8958TIP3    H126817   5.683   3.969   6.032
 8958TIP3    H226818   5.815   3.923   6.090
 8959TIP3   OH226819   5.203   4.066   0.577
 8959TIP3    H126820   5.148   3.993   0.606
 8959TIP3    H226821   5.289   4.047   0.613
 8960TIP3   OH226822   4.254   1.403   0.027
 8960TIP3    H126823   4.183   1.438  -0.027
 8960TIP3    H226824   4.229   1.312   0.042
 8961TIP3   OH226825   3.902   4.509   0.784
 8961TIP3    H126826   3.988   4.507   0.826
 8961TIP3    H226827   3.899   4.593   0.739
 8962TIP3   OH226828   4.330   3.585   0.373
 8962TIP3    H126829   4.269   3.534   0.319
 8962TIP3    H226830   4.413   3.538   0.367
 8963TIP3   OH226831   6.496   2.035   5.679
 8963TIP3    H126832   6.510   2.019   5.773
 8963TIP3    H226833   6.533   1.958   5.636
 8964TIP3   OH226834   0.387   6.660   3.026
 8964TIP3    H126835   0.357   6.572   3.051
 8964TIP3    H226836   0.349   6.674   2.940
 8965TIP3   OH226837   4.007   0.850   0.681
 8965TIP3    H126838   4.019   0.827   0.589
 8965TIP3    H226839   3.999   0.766   0.726
 8966TIP3   OH226840   3.668   5.504   4.040
 8966TIP3    H126841   3.612   5.491   4.117
 8966TIP3    H226842   3.722   5.579   4.064
 8967TIP3   OH226843   4.725   3.674   5.872
 8967TIP3    H126844   4.796   3.656   5.933
 8967TIP3    H226845   4.668   3.598   5.878
 8968TIP3   OH226846   6.163   5.306   1.196
 8968TIP3    H126847   6.122   5.320   1.111
 8968TIP3    H226848   6.255   5.288   1.176
 8969TIP3   OH226849   7.025   1.858   5.913
 8969TIP3    H126850   6.945   1.850   5.862
 8969TIP3    H226851   7.021   1.786   5.976
 8970TIP3   OH226852   6.585   5.140   3.171
 8970TIP3    H126853   6.529   5.148   3.248
 8970TIP3    H226854   6.665   5.100   3.204
 8971TIP3   OH226855   0.224   7.173   3.329
 8971TIP3    H126856   0.206   7.147   3.419
 8971TIP3    H226857   0.245   7.266   3.335
 8972TIP3   OH226858   6.352   6.259   4.273
 8972TIP3    H126859   6.389   6.188   4.220
 8972TIP3    H226860   6.271   6.223   4.308
 8973TIP3   OH226861   4.985   3.861   5.844
 8973TIP3    H126862   4.949   3.800   5.778
 8973TIP3    H226863   5.071   3.825   5.864
 8974TIP3   OH226864   5.173   4.998   4.085
 8974TIP3    H126865   5.166   4.904   4.072
 8974TIP3    H226866   5.103   5.035   4.032
 8975TIP3   OH226867   7.868   1.477   2.898
 8975TIP3    H126868   7.813   1.552   2.875
 8975TIP3    H226869   7.836   1.450   2.984
 8976TIP3   OH226870   6.560   5.934   6.746
 8976TIP3    H126871   6.591   5.851   6.709
 8976TIP3    H226872   6.471   5.943   6.713
 8977TIP3   OH226873   0.261   4.595   3.053
 8977TIP3    H126874   0.174   4.562   3.074
 8977TIP3    H226875   0.272   4.671   3.110
 8978TIP3   OH226876   1.156   7.652   2.640
 8978TIP3    H126877   1.174   7.682   2.729
 8978TIP3    H226878   1.240   7.658   2.595
 8979TIP3   OH226879   6.266   0.442   3.764
 8979TIP3    H126880   6.280   0.524   3.717
 8979TIP3    H226881   6.199   0.462   3.829
 8980TIP3   OH226882   1.730   4.401   0.306
 8980TIP3    H126883   1.730   4.465   0.377
 8980TIP3    H226884   1.775   4.325   0.342
 8981TIP3   OH226885   4.810   1.743   1.528
 8981TIP3    H126886   4.811   1.701   1.613
 8981TIP3    H226887   4.759   1.823   1.541
 8982TIP3   OH226888   7.760   6.168   0.140
 8982TIP3    H126889   7.819   6.162   0.215
 8982TIP3    H226890   7.812   6.209   0.071
 8983TIP3   OH226891   4.483   6.780   3.826
 8983TIP3    H126892   4.576   6.773   3.801
 8983TIP3    H226893   4.468   6.705   3.883
 8984TIP3   OH226894   2.944   6.216   6.272
 8984TIP3    H126895   2.949   6.122   6.255
 8984TIP3    H226896   3.023   6.236   6.322
 8985TIP3   OH226897   1.225   5.086   5.636
 8985TIP3    H126898   1.289   5.057   5.700
 8985TIP3    H226899   1.205   5.008   5.584
 8986TIP3   OH226900   7.726   5.710   6.494
 8986TIP3    H126901   7.755   5.781   6.436
 8986TIP3    H226902   7.751   5.630   6.447
 8987TIP3   OH226903   6.186   3.378   6.322
 8987TIP3    H126904   6.107   3.413   6.282
 8987TIP3    H226905   6.251   3.379   6.252
 8988TIP3   OH226906   8.161   4.187   4.293
 8988TIP3    H126907   8.181   4.146   4.209
 8988TIP3    H226908   8.152   4.280   4.272
 8989TIP3   OH226909   6.607   7.233   0.537
 8989TIP3    H126910   6.628   7.293   0.609
 8989TIP3    H226911   6.621   7.146   0.574
 8990TIP3   OH226912   3.334   2.396   4.872
 8990TIP3    H126913   3.380   2.420   4.792
 8990TIP3    H226914   3.403   2.373   4.934
 8991TIP3   OH226915   6.170   4.506   0.311
 8991TIP3    H126916   6.081   4.541   0.318
 8991TIP3    H226917   6.190   4.509   0.218
 8992TIP3   OH226918   1.226   2.370   1.037
 8992TIP3    H126919   1.207   2.377   1.130
 8992TIP3    H226920   1.140   2.356   0.996
 8993TIP3   OH226921   2.933   1.981   3.984
 8993TIP3    H126922   3.006   2.005   4.041
 8993TIP3    H226923   2.902   2.065   3.950
 8994TIP3   OH226924   0.457   6.757   1.116
 8994TIP3    H126925   0.460   6.843   1.158
 8994TIP3    H226926   0.448   6.695   1.188
 8995TIP3   OH226927   6.750   7.734   3.336
 8995TIP3    H126928   6.705   7.649   3.338
 8995TIP3    H226929   6.702   7.785   3.271
 8996TIP3   OH226930   7.578   0.053   0.161
 8996TIP3    H126931   7.598   0.049   0.067
 8996TIP3    H226932   7.510  -0.013   0.173
 8997TIP3   OH226933   1.688   1.471   0.264
 8997TIP3    H126934   1.646   1.391   0.298
 8997TIP3    H226935   1.782   1.452   0.270
 8998TIP3   OH226936   0.457   1.927   6.711
 8998TIP3    H126937   0.387   1.891   6.656
 8998TIP3    H226938   0.442   2.022   6.709
 8999TIP3   OH226939   8.133   2.609   6.138
 8999TIP3    H126940   8.153   2.631   6.047
 8999TIP3    H226941   8.217   2.589   6.178
 9000TIP3   OH226942   6.941   1.709   5.208
 9000TIP3    H126943   6.941   1.653   5.286
 9000TIP3    H226944   6.888   1.785   5.234
 9001TIP3   OH226945   6.245   1.038   5.720
 9001TIP3    H126946   6.302   1.082   5.783
 9001TIP3    H226947   6.290   1.046   5.636
 9002TIP3   OH226948   1.813   3.573   3.452
 9002TIP3    H126949   1.729   3.612   3.427
 9002TIP3    H226950   1.872   3.648   3.463
 9003TIP3   OH226951   1.395   3.947   6.494
 9003TIP3    H126952   1.451   4.017   6.462
 9003TIP3    H226953   1.448   3.868   6.485
 9004TIP3   OH226954   4.299   0.169   2.149
 9004TIP3    H126955   4.352   0.214   2.214
 9004TIP3    H226956   4.209   0.179   2.179
 9005TIP3   OH226957   6.930   2.146   1.682
 9005TIP3    H126958   6.990   2.111   1.616
 9005TIP3    H226959   6.846   2.104   1.663
 9006TIP3   OH226960   0.028   0.051   3.766
 9006TIP3    H126961   0.084   0.125   3.790
 9006TIP3    H226962   0.009   0.065   3.673
 9007TIP3   OH226963   6.010   4.969   0.809
 9007TIP3    H126964   6.069   5.045   0.812
 9007TIP3    H226965   6.028   4.922   0.890
 9008TIP3   OH226966   1.493   1.669   6.621
 9008TIP3    H126967   1.528   1.655   6.709
 9008TIP3    H226968   1.448   1.753   6.626
 9009TIP3   OH226969   5.092   4.868   6.081
 9009TIP3    H126970   5.055   4.952   6.054
 9009TIP3    H226971   5.025   4.804   6.058
 9010TIP3   OH226972   5.523   1.115   2.503
 9010TIP3    H126973   5.613   1.085   2.493
 9010TIP3    H226974   5.502   1.099   2.595
 9011TIP3   OH226975   4.765   0.259   2.127
 9011TIP3    H126976   4.780   0.305   2.044
 9011TIP3    H226977   4.723   0.325   2.183
 9012TIP3   OH226978   4.447   6.742   2.974
 9012TIP3    H126979   4.431   6.686   3.049
 9012TIP3    H226980   4.468   6.828   3.012
 9013TIP3   OH226981   3.011   5.717   2.959
 9013TIP3    H126982   2.938   5.657   2.977
 9013TIP3    H226983   2.969   5.795   2.922
 9014TIP3   OH226984   0.475   2.305   3.959
 9014TIP3    H126985   0.501   2.239   3.896
 9014TIP3    H226986   0.382   2.318   3.944
 9015TIP3   OH226987   6.366   1.258   4.100
 9015TIP3    H126988   6.290   1.276   4.155
 9015TIP3    H226989   6.424   1.333   4.113
 9016TIP3   OH226990   0.482   2.763   6.028
 9016TIP3    H126991   0.446   2.816   5.957
 9016TIP3    H226992   0.557   2.813   6.060
 9017TIP3   OH226993   4.698   7.232   1.073
 9017TIP3    H126994   4.770   7.282   1.112
 9017TIP3    H226995   4.656   7.293   1.013
 9018TIP3   OH226996   6.922   5.490   5.624
 9018TIP3    H126997   6.900   5.520   5.536
 9018TIP3    H226998   7.011   5.522   5.639
 9019TIP3   OH226999   2.135   7.231   1.113
 9019TIP3    H127000   2.145   7.302   1.176
 9019TIP3    H227001   2.041   7.212   1.112
 9020TIP3   OH227002   4.199   4.460   0.777
 9020TIP3    H127003   4.285   4.457   0.735
 9020TIP3    H227004   4.175   4.553   0.775
 9021TIP3   OH227005   7.347   4.250   4.774
 9021TIP3    H127006   7.395   4.261   4.691
 9021TIP3    H227007   7.369   4.328   4.825
 9022TIP3   OH227008   4.029   6.890   2.508
 9022TIP3    H127009   3.978   6.951   2.455
 9022TIP3    H227010   4.018   6.805   2.465
 9023TIP3   OH227011   5.972   1.449   3.282
 9023TIP3    H127012   5.965   1.378   3.218
 9023TIP3    H227013   5.902   1.432   3.345
 9024TIP3   OH227014   4.609   5.666   0.767
 9024TIP3    H127015   4.637   5.619   0.845
 9024TIP3    H227016   4.526   5.625   0.742
 9025TIP3   OH227017   1.952   5.555   4.287
 9025TIP3    H127018   1.920   5.558   4.377
 9025TIP3    H227019   1.987   5.643   4.270
 9026TIP3   OH227020   5.713   7.398   3.418
 9026TIP3    H127021   5.768   7.324   3.445
 9026TIP3    H227022   5.764   7.442   3.350
 9027TIP3   OH227023   5.883   1.938   6.493
 9027TIP3    H127024   5.827   1.901   6.562
 9027TIP3    H227025   5.882   2.032   6.509
 9028TIP3   OH227026   7.632   4.866   0.004
 9028TIP3    H127027   7.589   4.846   0.087
 9028TIP3    H227028   7.685   4.944   0.022
 9029TIP3   OH227029   5.324   7.306   6.609
 9029TIP3    H127030   5.414   7.307   6.575
 9029TIP3    H227031   5.313   7.393   6.647
 9030TIP3   OH227032   0.493   3.313   2.578
 9030TIP3    H127033   0.544   3.297   2.657
 9030TIP3    H227034   0.405   3.330   2.609
 9031TIP3   OH227035   2.204   4.494   4.169
 9031TIP3    H127036   2.278   4.434   4.157
 9031TIP3    H227037   2.181   4.522   4.081
 9032TIP3   OH227038   4.297   4.782   4.211
 9032TIP3    H127039   4.261   4.702   4.173
 9032TIP3    H227040   4.222   4.823   4.256
 9033TIP3   OH227041   4.950   1.335   0.984
 9033TIP3    H127042   4.883   1.267   0.983
 9033TIP3    H227043   5.025   1.296   0.938
 9034TIP3   OH227044   3.254   1.653   2.277
 9034TIP3    H127045   3.339   1.625   2.243
 9034TIP3    H227046   3.267   1.660   2.372
 9035TIP3   OH227047   2.142   0.213   5.133
 9035TIP3    H127048   2.237   0.216   5.147
 9035TIP3    H227049   2.108   0.173   5.213
 9036TIP3   OH227050   1.616   0.102   5.365
 9036TIP3    H127051   1.674   0.168   5.402
 9036TIP3    H227052   1.648   0.019   5.402
 9037TIP3   OH227053   0.125   7.279   1.503
 9037TIP3    H127054   0.124   7.190   1.538
 9037TIP3    H227055   0.215   7.308   1.512
 9038TIP3   OH227056   3.930   3.438   6.222
 9038TIP3    H127057   3.892   3.383   6.153
 9038TIP3    H227058   3.968   3.376   6.284
 9039TIP3   OH227059   2.487   0.940   4.455
 9039TIP3    H127060   2.565   0.974   4.411
 9039TIP3    H227061   2.492   0.974   4.544
 9040TIP3   OH227062   6.410   4.506   5.757
 9040TIP3    H127063   6.471   4.578   5.769
 9040TIP3    H227064   6.465   4.432   5.729
 9041TIP3   OH227065   1.763   7.100   4.630
 9041TIP3    H127066   1.817   7.148   4.567
 9041TIP3    H227067   1.770   7.150   4.711
 9042TIP3   OH227068   5.099   3.813   1.755
 9042TIP3    H127069   5.091   3.799   1.850
 9042TIP3    H227070   5.024   3.868   1.733
 9043TIP3   OH227071   5.770   4.805   2.936
 9043TIP3    H127072   5.708   4.736   2.961
 9043TIP3    H227073   5.789   4.851   3.017
 9044TIP3   OH227074   8.246   3.344   2.036
 9044TIP3    H127075   8.260   3.306   1.949
 9044TIP3    H227076   8.248   3.438   2.021
 9045TIP3   OH227077   2.136   5.960   2.252
 9045TIP3    H127078   2.102   5.881   2.212
 9045TIP3    H227079   2.225   5.970   2.218
 9046TIP3   OH227080   4.123   5.844   3.000
 9046TIP3    H127081   4.095   5.760   2.964
 9046TIP3    H227082   4.218   5.838   3.006
 9047TIP3   OH227083   2.112   1.747   0.076
 9047TIP3    H127084   2.079   1.735   0.165
 9047TIP3    H227085   2.127   1.658   0.044
 9048TIP3   OH227086   4.891   2.431   6.029
 9048TIP3    H127087   4.923   2.443   5.939
 9048TIP3    H227088   4.919   2.342   6.052
 9049TIP3   OH227089   3.248   2.026   1.761
 9049TIP3    H127090   3.175   2.066   1.809
 9049TIP3    H227091   3.326   2.070   1.795
 9050TIP3   OH227092   6.742   5.510   6.301
 9050TIP3    H127093   6.659   5.522   6.346
 9050TIP3    H227094   6.768   5.599   6.276
 9051TIP3   OH227095   2.196   3.638   6.752
 9051TIP3    H127096   2.274   3.582   6.742
 9051TIP3    H227097   2.205   3.704   6.683
 9052TIP3   OH227098   2.788   7.747   6.232
 9052TIP3    H127099   2.700   7.728   6.199
 9052TIP3    H227100   2.846   7.732   6.158
 9053TIP3   OH227101   5.199   2.656   0.931
 9053TIP3    H127102   5.124   2.644   0.989
 9053TIP3    H227103   5.273   2.672   0.991
 9054TIP3   OH227104   8.206   7.627   1.811
 9054TIP3    H127105   8.209   7.557   1.745
 9054TIP3    H227106   8.256   7.593   1.885
 9055TIP3   OH227107   1.050   3.657   6.346
 9055TIP3    H127108   1.057   3.744   6.307
 9055TIP3    H227109   1.009   3.672   6.431
 9056TIP3   OH227110   3.233   5.478   5.726
 9056TIP3    H127111   3.273   5.502   5.810
 9056TIP3    H227112   3.167   5.412   5.749
 9057TIP3   OH227113   5.457   6.975   5.007
 9057TIP3    H127114   5.488   6.918   5.078
 9057TIP3    H227115   5.472   6.924   4.927
 9058TIP3   OH227116   6.153   6.523   3.841
 9058TIP3    H127117   6.166   6.524   3.746
 9058TIP3    H227118   6.211   6.455   3.873
 9059TIP3   OH227119   1.520   1.812   6.249
 9059TIP3    H127120   1.601   1.813   6.301
 9059TIP3    H227121   1.455   1.774   6.308
 9060TIP3   OH227122   4.350   3.924   2.794
 9060TIP3    H127123   4.308   3.918   2.879
 9060TIP3    H227124   4.414   3.995   2.804
 9061TIP3   OH227125   3.913   4.930   0.048
 9061TIP3    H127126   3.865   4.847   0.042
 9061TIP3    H227127   3.923   4.958  -0.043
 9062TIP3   OH227128   4.086   3.474   1.128
 9062TIP3    H127129   4.164   3.504   1.082
 9062TIP3    H227130   4.111   3.390   1.165
 9063TIP3   OH227131   2.352   4.958   4.234
 9063TIP3    H127132   2.354   5.030   4.171
 9063TIP3    H227133   2.258   4.942   4.249
 9064TIP3   OH227134   8.121   6.820   3.073
 9064TIP3    H127135   8.150   6.887   3.011
 9064TIP3    H227136   8.026   6.818   3.062
 9065TIP3   OH227137   5.728   6.115   2.344
 9065TIP3    H127138   5.662   6.113   2.413
 9065TIP3    H227139   5.679   6.104   2.262
 9066TIP3   OH227140   6.750   2.445   6.281
 9066TIP3    H127141   6.741   2.538   6.301
 9066TIP3    H227142   6.811   2.412   6.346
 9067TIP3   OH227143   7.357   1.818   0.095
 9067TIP3    H127144   7.446   1.787   0.075
 9067TIP3    H227145   7.315   1.743   0.137
 9068TIP3   OH227146   0.972   0.770   4.243
 9068TIP3    H127147   1.000   0.681   4.223
 9068TIP3    H227148   0.991   0.780   4.336
 9069TIP3   OH227149   3.995   3.432   4.174
 9069TIP3    H127150   4.043   3.485   4.238
 9069TIP3    H227151   4.036   3.346   4.178
 9070TIP3   OH227152   4.382   2.204   3.135
 9070TIP3    H127153   4.317   2.189   3.204
 9070TIP3    H227154   4.387   2.122   3.087
 9071TIP3   OH227155   7.312   2.805   5.437
 9071TIP3    H127156   7.370   2.729   5.440
 9071TIP3    H227157   7.257   2.796   5.515
 9072TIP3   OH227158   1.103   3.099   4.905
 9072TIP3    H127159   1.098   3.090   5.001
 9072TIP3    H227160   1.099   3.193   4.890
 9073TIP3   OH227161   5.582   2.488   1.948
 9073TIP3    H127162   5.624   2.402   1.953
 9073TIP3    H227163   5.648   2.549   1.981
 9074TIP3   OH227164   6.839   2.440   6.020
 9074TIP3    H127165   6.839   2.534   6.002
 9074TIP3    H227166   6.837   2.434   6.115
 9075TIP3   OH227167   6.927   2.627   4.571
 9075TIP3    H127168   6.983   2.581   4.508
 9075TIP3    H227169   6.988   2.668   4.631
 9076TIP3   OH227170   6.994   1.369   6.679
 9076TIP3    H127171   6.961   1.284   6.707
 9076TIP3    H227172   6.998   1.364   6.584
 9077TIP3   OH227173   4.790   6.024   0.688
 9077TIP3    H127174   4.884   6.035   0.700
 9077TIP3    H227175   4.770   6.073   0.607
 9078TIP3   OH227176   4.428   4.701   1.840
 9078TIP3    H127177   4.495   4.693   1.772
 9078TIP3    H227178   4.444   4.787   1.880
 9079TIP3   OH227179   8.162   4.864   4.688
 9079TIP3    H127180   8.108   4.939   4.663
 9079TIP3    H227181   8.241   4.902   4.726
 9080TIP3   OH227182   3.281   3.078   6.587
 9080TIP3    H127183   3.354   3.023   6.614
 9080TIP3    H227184   3.211   3.060   6.650
 9081TIP3   OH227185   0.415   5.490   5.210
 9081TIP3    H127186   0.438   5.495   5.118
 9081TIP3    H227187   0.479   5.546   5.254
 9082TIP3   OH227188   1.319   5.147   2.805
 9082TIP3    H127189   1.290   5.056   2.805
 9082TIP3    H227190   1.319   5.172   2.898
 9083TIP3   OH227191   0.854   6.112   1.015
 9083TIP3    H127192   0.931   6.068   0.979
 9083TIP3    H227193   0.787   6.043   1.018
 9084TIP3   OH227194   6.876   1.971   0.121
 9084TIP3    H127195   6.896   2.059   0.152
 9084TIP3    H227196   6.805   1.983   0.057
 9085TIP3   OH227197   0.836   7.637   3.738
 9085TIP3    H127198   0.893   7.588   3.796
 9085TIP3    H227199   0.801   7.572   3.677
 9086TIP3   OH227200   0.587   5.168   1.314
 9086TIP3    H127201   0.616   5.113   1.387
 9086TIP3    H227202   0.667   5.208   1.281
 9087TIP3   OH227203   7.984   6.798   5.970
 9087TIP3    H127204   7.905   6.791   6.024
 9087TIP3    H227205   7.951   6.814   5.881
 9088TIP3   OH227206   7.924   1.549   0.743
 9088TIP3    H127207   7.929   1.630   0.692
 9088TIP3    H227208   7.835   1.548   0.779
 9089TIP3   OH227209   4.242   7.181   5.118
 9089TIP3    H127210   4.173   7.192   5.053
 9089TIP3    H227211   4.210   7.112   5.176
 9090TIP3   OH227212   8.111   1.472   2.725
 9090TIP3    H127213   8.146   1.526   2.797
 9090TIP3    H227214   8.016   1.478   2.735
 9091TIP3   OH227215   2.093   4.090   2.467
 9091TIP3    H127216   2.012   4.040   2.460
 9091TIP3    H227217   2.099   4.138   2.384
 9092TIP3   OH227218   3.668   5.517   0.799
 9092TIP3    H127219   3.730   5.484   0.734
 9092TIP3    H227220   3.657   5.609   0.777
 9093TIP3   OH227221   7.795   3.947   5.929
 9093TIP3    H127222   7.791   3.997   6.011
 9093TIP3    H227223   7.859   3.878   5.946
 9094TIP3   OH227224   8.084   1.475   6.113
 9094TIP3    H127225   8.177   1.493   6.099
 9094TIP3    H227226   8.046   1.559   6.138
 9095TIP3   OH227227   5.934   4.654   1.591
 9095TIP3    H127228   5.895   4.700   1.665
 9095TIP3    H227229   5.976   4.577   1.630
 9096TIP3   OH227230   3.334   1.472   3.442
 9096TIP3    H127231   3.244   1.439   3.445
 9096TIP3    H227232   3.387   1.396   3.420
 9097TIP3   OH227233   7.273   0.631   0.901
 9097TIP3    H127234   7.221   0.688   0.957
 9097TIP3    H227235   7.264   0.544   0.939
 9098TIP3   OH227236   2.490   1.340   6.166
 9098TIP3    H127237   2.429   1.279   6.207
 9098TIP3    H227238   2.527   1.391   6.239
 9099TIP3   OH227239   1.089   2.308   6.196
 9099TIP3    H127240   1.043   2.269   6.271
 9099TIP3    H227241   1.051   2.266   6.120
 9100TIP3   OH227242   2.660   6.538   1.570
 9100TIP3    H127243   2.591   6.498   1.623
 9100TIP3    H227244   2.657   6.490   1.487
 9101TIP3   OH227245   1.699   1.835   1.480
 9101TIP3    H127246   1.680   1.810   1.390
 9101TIP3    H227247   1.734   1.924   1.474
 9102TIP3   OH227248   1.860   6.724   0.771
 9102TIP3    H127249   1.765   6.717   0.772
 9102TIP3    H227250   1.878   6.807   0.816
 9103TIP3   OH227251   5.504   7.497   2.155
 9103TIP3    H127252   5.551   7.414   2.166
 9103TIP3    H227253   5.537   7.533   2.073
 9104TIP3   OH227254   1.046   4.872   3.739
 9104TIP3    H127255   0.990   4.856   3.663
 9104TIP3    H227256   1.117   4.808   3.731
 9105TIP3   OH227257   4.606   5.677   4.116
 9105TIP3    H127258   4.526   5.659   4.067
 9105TIP3    H227259   4.621   5.598   4.167
 9106TIP3   OH227260   0.709   2.937   4.704
 9106TIP3    H127261   0.655   2.867   4.668
 9106TIP3    H227262   0.769   2.893   4.764
 9107TIP3   OH227263   3.733   2.893   4.523
 9107TIP3    H127264   3.658   2.882   4.464
 9107TIP3    H227265   3.715   2.833   4.596
 9108TIP3   OH227266   0.764   5.925   1.278
 9108TIP3    H127267   0.764   5.920   1.183
 9108TIP3    H227268   0.718   5.846   1.306
 9109TIP3   OH227269   5.255   6.973   1.236
 9109TIP3    H127270   5.285   6.959   1.146
 9109TIP3    H227271   5.232   7.066   1.240
 9110TIP3   OH227272   0.342   7.319   4.016
 9110TIP3    H127273   0.360   7.372   4.094
 9110TIP3    H227274   0.424   7.275   3.998
 9111TIP3   OH227275   1.484   6.637   6.423
 9111TIP3    H127276   1.420   6.615   6.356
 9111TIP3    H227277   1.540   6.703   6.381
 9112TIP3   OH227278   1.258   1.464   3.231
 9112TIP3    H127279   1.178   1.496   3.272
 9112TIP3    H227280   1.310   1.543   3.215
 9113TIP3   OH227281   5.236   1.755   6.164
 9113TIP3    H127282   5.169   1.800   6.113
 9113TIP3    H227283   5.317   1.803   6.145
 9114TIP3   OH227284   5.321   1.293   3.807
 9114TIP3    H127285   5.228   1.288   3.829
 9114TIP3    H227286   5.333   1.380   3.770
 9115TIP3   OH227287   3.259   3.037   1.303
 9115TIP3    H127288   3.178   3.041   1.355
 9115TIP3    H227289   3.274   2.944   1.290
 9116TIP3   OH227290   4.436   7.506   2.768
 9116TIP3    H127291   4.460   7.459   2.688
 9116TIP3    H227292   4.346   7.536   2.752
 9117TIP3   OH227293   4.946   1.548   1.686
 9117TIP3    H127294   4.979   1.624   1.734
 9117TIP3    H227295   4.979   1.559   1.597
 9118TIP3   OH227296   1.161   1.557   4.354
 9118TIP3    H127297   1.203   1.493   4.296
 9118TIP3    H227298   1.117   1.504   4.420
 9119TIP3   OH227299   1.196   6.309   4.798
 9119TIP3    H127300   1.191   6.280   4.707
 9119TIP3    H227301   1.165   6.234   4.849
 9120TIP3   OH227302   7.709   3.712   5.401
 9120TIP3    H127303   7.735   3.710   5.309
 9120TIP3    H227304   7.790   3.690   5.449
 9121TIP3   OH227305   6.901   3.047   6.599
 9121TIP3    H127306   6.923   2.958   6.627
 9121TIP3    H227307   6.880   3.093   6.681
 9122TIP3   OH227308   0.558   7.187   1.674
 9122TIP3    H127309   0.558   7.098   1.709
 9122TIP3    H227310   0.582   7.242   1.748
 9123TIP3   OH227311   6.371   2.666   0.317
 9123TIP3    H127312   6.432   2.592   0.326
 9123TIP3    H227313   6.426   2.739   0.288
 9124TIP3   OH227314   6.869   7.221   4.532
 9124TIP3    H127315   6.963   7.204   4.544
 9124TIP3    H227316   6.829   7.134   4.533
 9125TIP3   OH227317   8.202   6.540   4.864
 9125TIP3    H127318   8.165   6.605   4.924
 9125TIP3    H227319   8.153   6.552   4.783
 9126TIP3   OH227320   0.281   5.315   4.989
 9126TIP3    H127321   0.349   5.376   4.963
 9126TIP3    H227322   0.209   5.370   5.018
 9127TIP3   OH227323   0.629   1.368   5.405
 9127TIP3    H127324   0.629   1.464   5.399
 9127TIP3    H227325   0.541   1.346   5.434
 9128TIP3   OH227326   1.036   2.304   3.749
 9128TIP3    H127327   0.975   2.231   3.739
 9128TIP3    H227328   1.031   2.351   3.665
 9129TIP3   OH227329   7.802   3.137   5.525
 9129TIP3    H127330   7.761   3.217   5.492
 9129TIP3    H227331   7.729   3.078   5.544
 9130TIP3   OH227332   1.334   3.294   3.622
 9130TIP3    H127333   1.336   3.241   3.543
 9130TIP3    H227334   1.247   3.334   3.622
 9131TIP3   OH227335   1.692   0.708   5.744
 9131TIP3    H127336   1.721   0.775   5.682
 9131TIP3    H227337   1.635   0.651   5.692
 9132TIP3   OH227338   4.107   0.915   6.716
 9132TIP3    H127339   4.181   0.956   6.761
 9132TIP3    H227340   4.042   0.899   6.784
 9133TIP3   OH227341   2.850   1.770   5.989
 9133TIP3    H127342   2.836   1.682   6.024
 9133TIP3    H227343   2.919   1.807   6.044
 9134TIP3   OH227344   0.202   4.660   5.818
 9134TIP3    H127345   0.125   4.606   5.798
 9134TIP3    H227346   0.168   4.749   5.825
 9135TIP3   OH227347   4.838   6.063   5.082
 9135TIP3    H127348   4.806   6.021   5.162
 9135TIP3    H227349   4.766   6.052   5.020
 9136TIP3   OH227350   0.106   7.218   4.920
 9136TIP3    H127351   0.067   7.154   4.980
 9136TIP3    H227352   0.053   7.296   4.930
 9137TIP3   OH227353   6.810   2.875   4.666
 9137TIP3    H127354   6.809   2.783   4.640
 9137TIP3    H227355   6.726   2.909   4.636
 9138TIP3   OH227356   2.229   4.653   3.922
 9138TIP3    H127357   2.184   4.737   3.916
 9138TIP3    H227358   2.256   4.633   3.833
 9139TIP3   OH227359   4.222   0.245   3.405
 9139TIP3    H127360   4.132   0.277   3.404
 9139TIP3    H227361   4.228   0.187   3.328
 9140TIP3   OH227362   0.979   6.039   3.164
 9140TIP3    H127363   0.995   6.008   3.253
 9140TIP3    H227364   1.064   6.034   3.121
 9141TIP3   OH227365   0.018   3.855   0.187
 9141TIP3    H127366   0.075   3.885   0.116
 9141TIP3    H227367   0.047   3.905   0.263
 9142TIP3   OH227368   6.602   2.870   2.093
 9142TIP3    H127369   6.611   2.778   2.069
 9142TIP3    H227370   6.573   2.868   2.184
 9143TIP3   OH227371   0.894   3.324   3.388
 9143TIP3    H127372   0.902   3.388   3.459
 9143TIP3    H227373   0.870   3.375   3.311
 9144TIP3   OH227374   0.454   4.872   1.873
 9144TIP3    H127375   0.384   4.934   1.857
 9144TIP3    H227376   0.411   4.786   1.875
 9145TIP3   OH227377   7.039   0.829   1.811
 9145TIP3    H127378   7.094   0.767   1.859
 9145TIP3    H227379   6.956   0.783   1.797
 9146TIP3   OH227380   1.254   1.129   1.984
 9146TIP3    H127381   1.194   1.163   1.917
 9146TIP3    H227382   1.339   1.128   1.941
 9147TIP3   OH227383   3.202   1.513   6.324
 9147TIP3    H127384   3.244   1.456   6.389
 9147TIP3    H227385   3.275   1.548   6.273
 9148TIP3   OH227386   7.361   6.849   0.881
 9148TIP3    H127387   7.384   6.940   0.900
 9148TIP3    H227388   7.270   6.854   0.850
 9149TIP3   OH227389   3.264   3.704   3.810
 9149TIP3    H127390   3.310   3.723   3.892
 9149TIP3    H227391   3.172   3.697   3.835
 9150TIP3   OH227392   1.084   1.287   6.007
 9150TIP3    H127393   1.030   1.271   5.930
 9150TIP3    H227394   1.047   1.231   6.075
 9151TIP3   OH227395   5.789   3.224   0.121
 9151TIP3    H127396   5.826   3.267   0.199
 9151TIP3    H227397   5.717   3.171   0.155
 9152TIP3   OH227398   0.597   5.313   4.099
 9152TIP3    H127399   0.560   5.373   4.036
 9152TIP3    H227400   0.691   5.314   4.081
 9153TIP3   OH227401   5.047   3.935   0.313
 9153TIP3    H127402   5.043   3.943   0.408
 9153TIP3    H227403   5.080   4.019   0.283
 9154TIP3   OH227404   6.508   4.294   3.498
 9154TIP3    H127405   6.509   4.335   3.412
 9154TIP3    H227406   6.450   4.349   3.551
 9155TIP3   OH227407   0.976   0.563   0.744
 9155TIP3    H127408   0.919   0.489   0.724
 9155TIP3    H227409   1.046   0.559   0.679
 9156TIP3   OH227410   6.929   4.633   4.531
 9156TIP3    H127411   6.872   4.693   4.482
 9156TIP3    H227412   6.970   4.687   4.598
 9157TIP3   OH227413   5.347   6.139   3.762
 9157TIP3    H127414   5.336   6.191   3.841
 9157TIP3    H227415   5.276   6.075   3.765
 9158TIP3   OH227416   1.656   5.254   0.308
 9158TIP3    H127417   1.580   5.200   0.327
 9158TIP3    H227418   1.682   5.229   0.219
 9159TIP3   OH227419   7.626   3.153   1.535
 9159TIP3    H127420   7.630   3.234   1.585
 9159TIP3    H227421   7.535   3.147   1.506
 9160TIP3   OH227422   3.448   2.730   3.184
 9160TIP3    H127423   3.451   2.804   3.123
 9160TIP3    H227424   3.412   2.658   3.132
 9161TIP3   OH227425   6.418   3.201   3.318
 9161TIP3    H127426   6.480   3.251   3.266
 9161TIP3    H227427   6.332   3.237   3.293
 9162TIP3   OH227428   6.095   0.127   5.920
 9162TIP3    H127429   6.041   0.191   5.967
 9162TIP3    H227430   6.184   0.145   5.950
 9163TIP3   OH227431   6.537   1.669   0.565
 9163TIP3    H127432   6.571   1.631   0.484
 9163TIP3    H227433   6.552   1.763   0.555
 9164TIP3   OH227434   0.803   0.624   2.794
 9164TIP3    H127435   0.866   0.647   2.725
 9164TIP3    H227436   0.748   0.701   2.803
 9165TIP3   OH227437   0.655   1.623   1.264
 9165TIP3    H127438   0.670   1.687   1.195
 9165TIP3    H227439   0.733   1.628   1.319
 9166TIP3   OH227440   0.461   4.959   0.694
 9166TIP3    H127441   0.474   4.892   0.760
 9166TIP3    H227442   0.529   5.024   0.712
 9167TIP3   OH227443  -0.035   5.763   4.885
 9167TIP3    H127444   0.033   5.752   4.819
 9167TIP3    H227445   0.007   5.741   4.968
 9168TIP3   OH227446   3.638   1.096   6.451
 9168TIP3    H127447   3.677   1.014   6.481
 9168TIP3    H227448   3.546   1.075   6.435
 9169TIP3   OH227449   8.017   7.255   3.625
 9169TIP3    H127450   8.018   7.336   3.573
 9169TIP3    H227451   7.941   7.265   3.683
 9170TIP3   OH227452   7.591   7.802   3.233
 9170TIP3    H127453   7.513   7.754   3.204
 9170TIP3    H227454   7.560   7.855   3.307
 9171TIP3   OH227455   1.828   1.092   0.154
 9171TIP3    H127456   1.836   1.066   0.062
 9171TIP3    H227457   1.898   1.044   0.198
 9172TIP3   OH227458   6.784   5.901   0.023
 9172TIP3    H127459   6.702   5.927   0.065
 9172TIP3    H227460   6.758   5.875  -0.066
 9173TIP3   OH227461   5.394   1.795   0.099
 9173TIP3    H127462   5.448   1.851   0.155
 9173TIP3    H227463   5.455   1.760   0.034
 9174TIP3   OH227464   7.884   1.493   5.860
 9174TIP3    H127465   7.809   1.528   5.813
 9174TIP3    H227466   7.883   1.538   5.945
 9175TIP3   OH227467   4.040   3.096   6.409
 9175TIP3    H127468   3.961   3.068   6.455
 9175TIP3    H227469   4.048   3.189   6.429
 9176TIP3   OH227470   4.312   6.122   5.737
 9176TIP3    H127471   4.393   6.075   5.714
 9176TIP3    H227472   4.253   6.054   5.768
 9177TIP3   OH227473   3.933   0.120   5.013
 9177TIP3    H127474   3.864   0.104   4.949
 9177TIP3    H227475   3.920   0.211   5.040
 9178TIP3   OH227476   7.730   0.724   0.470
 9178TIP3    H127477   7.646   0.733   0.425
 9178TIP3    H227478   7.719   0.648   0.527
 9179TIP3   OH227479   1.250   4.746   6.041
 9179TIP3    H127480   1.215   4.814   6.099
 9179TIP3    H227481   1.224   4.664   6.082
 9180TIP3   OH227482   4.179   2.963   2.301
 9180TIP3    H127483   4.177   2.972   2.206
 9180TIP3    H227484   4.106   2.904   2.321
 9181TIP3   OH227485   5.166   6.950   3.732
 9181TIP3    H127486   5.252   6.909   3.729
 9181TIP3    H227487   5.179   7.036   3.692
 9182TIP3   OH227488   2.757   1.597   6.582
 9182TIP3    H127489   2.813   1.642   6.645
 9182TIP3    H227490   2.747   1.661   6.511
 9183TIP3   OH227491   6.312   5.987   1.688
 9183TIP3    H127492   6.368   5.995   1.765
 9183TIP3    H227493   6.355   6.039   1.620
 9184TIP3   OH227494   7.313   5.971   6.506
 9184TIP3    H127495   7.404   5.954   6.533
 9184TIP3    H227496   7.291   6.055   6.547
 9185TIP3   OH227497   2.631   2.684   3.863
 9185TIP3    H127498   2.630   2.589   3.877
 9185TIP3    H227499   2.708   2.699   3.809
 9186TIP3   OH227500   0.226   6.598   0.956
 9186TIP3    H127501   0.154   6.543   0.985
 9186TIP3    H227502   0.192   6.687   0.959
 9187TIP3   OH227503   6.905   5.879   4.705
 9187TIP3    H127504   6.821   5.920   4.685
 9187TIP3    H227505   6.957   5.891   4.626
 9188TIP3   OH227506   6.390   6.043   0.887
 9188TIP3    H127507   6.363   5.959   0.851
 9188TIP3    H227508   6.411   6.025   0.979
 9189TIP3   OH227509   4.012   2.181   6.104
 9189TIP3    H127510   3.958   2.190   6.183
 9189TIP3    H227511   4.092   2.231   6.124
 9190TIP3   OH227512   4.496   6.731   4.941
 9190TIP3    H127513   4.514   6.720   4.848
 9190TIP3    H227514   4.415   6.682   4.956
 9191TIP3   OH227515   5.576   6.470   0.173
 9191TIP3    H127516   5.594   6.389   0.219
 9191TIP3    H227517   5.508   6.447   0.110
 9192TIP3   OH227518   2.620   2.857   3.374
 9192TIP3    H127519   2.597   2.888   3.462
 9192TIP3    H227520   2.703   2.811   3.386
 9193TIP3   OH227521   6.721   5.849   1.286
 9193TIP3    H127522   6.735   5.761   1.321
 9193TIP3    H227523   6.763   5.907   1.349
 9194TIP3   OH227524   7.491   6.931   5.241
 9194TIP3    H127525   7.535   6.856   5.282
 9194TIP3    H227526   7.542   6.946   5.161
 9195TIP3   OH227527   2.567   2.747   4.305
 9195TIP3    H127528   2.479   2.708   4.302
 9195TIP3    H227529   2.625   2.679   4.271
 9196TIP3   OH227530   2.877   2.659   0.782
 9196TIP3    H127531   2.849   2.647   0.692
 9196TIP3    H227532   2.830   2.591   0.831
 9197TIP3   OH227533   6.553   5.231   2.757
 9197TIP3    H127534   6.521   5.304   2.809
 9197TIP3    H227535   6.598   5.174   2.820
 9198TIP3   OH227536   3.773   7.724   4.828
 9198TIP3    H127537   3.706   7.792   4.836
 9198TIP3    H227538   3.730   7.643   4.855
 9199TIP3   OH227539   0.883   1.463   2.028
 9199TIP3    H127540   0.943   1.462   2.102
 9199TIP3    H227541   0.886   1.552   1.994
 9200TIP3   OH227542   0.654   1.208   5.918
 9200TIP3    H127543   0.593   1.140   5.947
 9200TIP3    H227544   0.714   1.163   5.859
 9201TIP3   OH227545   4.105   0.210   1.533
 9201TIP3    H127546   4.086   0.138   1.593
 9201TIP3    H227547   4.131   0.282   1.590
 9202TIP3   OH227548   7.680   6.127   5.061
 9202TIP3    H127549   7.605   6.104   5.116
 9202TIP3    H227550   7.751   6.142   5.124
 9203TIP3   OH227551   1.038   0.679   6.211
 9203TIP3    H127552   1.076   0.633   6.286
 9203TIP3    H227553   1.108   0.737   6.181
 9204TIP3   OH227554   3.544   5.069   1.577
 9204TIP3    H127555   3.631   5.030   1.571
 9204TIP3    H227556   3.554   5.139   1.642
 9205TIP3   OH227557   4.399   3.734   3.635
 9205TIP3    H127558   4.439   3.812   3.673
 9205TIP3    H227559   4.349   3.694   3.707
 9206TIP3   OH227560   0.225   4.201   0.965
 9206TIP3    H127561   0.311   4.184   0.929
 9206TIP3    H227562   0.191   4.115   0.989
 9207TIP3   OH227563   7.767   3.869   3.194
 9207TIP3    H127564   7.679   3.861   3.232
 9207TIP3    H227565   7.791   3.779   3.171
 9208TIP3   OH227566   6.828   5.980   4.074
 9208TIP3    H127567   6.873   5.998   3.991
 9208TIP3    H227568   6.883   6.021   4.141
 9209TIP3   OH227569   5.564   5.221   4.108
 9209TIP3    H127570   5.575   5.312   4.082
 9209TIP3    H227571   5.535   5.226   4.199
 9210TIP3   OH227572   7.125   2.798   3.252
 9210TIP3    H127573   7.116   2.843   3.168
 9210TIP3    H227574   7.146   2.708   3.228
 9211TIP3   OH227575   6.690   6.994   3.345
 9211TIP3    H127576   6.614   6.954   3.303
 9211TIP3    H227577   6.664   7.085   3.359
 9212TIP3   OH227578   6.594   1.127   1.213
 9212TIP3    H127579   6.612   1.094   1.125
 9212TIP3    H227580   6.516   1.080   1.240
 9213TIP3   OH227581   4.699   3.788   0.987
 9213TIP3    H127582   4.645   3.712   0.969
 9213TIP3    H227583   4.741   3.769   1.071
 9214TIP3   OH227584   6.056   1.702   3.390
 9214TIP3    H127585   6.043   1.611   3.365
 9214TIP3    H227586   5.968   1.738   3.401
 9215TIP3   OH227587   6.930   0.974   1.114
 9215TIP3    H127588   6.952   1.055   1.068
 9215TIP3    H227589   6.940   0.995   1.207
 9216TIP3   OH227590   4.540   1.645   2.937
 9216TIP3    H127591   4.577   1.615   3.020
 9216TIP3    H227592   4.606   1.705   2.902
 9217TIP3   OH227593   1.466   2.040   1.344
 9217TIP3    H127594   1.479   2.051   1.249
 9217TIP3    H227595   1.547   2.073   1.383
 9218TIP3   OH227596   0.422   2.723   0.304
 9218TIP3    H127597   0.462   2.689   0.224
 9218TIP3    H227598   0.329   2.702   0.295
 9219TIP3   OH227599   5.783   2.758   6.585
 9219TIP3    H127600   5.843   2.714   6.646
 9219TIP3    H227601   5.818   2.735   6.498
 9220TIP3   OH227602   7.691   0.491   5.369
 9220TIP3    H127603   7.783   0.517   5.368
 9220TIP3    H227604   7.651   0.545   5.300
 9221TIP3   OH227605   8.231   2.430   0.237
 9221TIP3    H127606   8.298   2.362   0.248
 9221TIP3    H227607   8.148   2.384   0.249
 9222TIP3   OH227608   4.290   0.972   6.012
 9222TIP3    H127609   4.364   0.951   5.956
 9222TIP3    H227610   4.277   0.894   6.067
 9223TIP3   OH227611   0.389   1.844   4.295
 9223TIP3    H127612   0.466   1.875   4.342
 9223TIP3    H227613   0.381   1.752   4.319
 9224TIP3   OH227614   1.755   4.139   4.990
 9224TIP3    H127615   1.676   4.088   5.010
 9224TIP3    H227616   1.724   4.229   4.988
 9225TIP3   OH227617   6.840   3.145   1.297
 9225TIP3    H127618   6.755   3.164   1.258
 9225TIP3    H227619   6.847   3.049   1.296
 9226TIP3   OH227620   1.732   3.627   4.553
 9226TIP3    H127621   1.800   3.578   4.600
 9226TIP3    H227622   1.758   3.621   4.461
 9227TIP3   OH227623   0.787   1.703   1.858
 9227TIP3    H127624   0.826   1.770   1.914
 9227TIP3    H227625   0.832   1.711   1.775
 9228TIP3   OH227626   2.264   5.222   0.398
 9228TIP3    H127627   2.352   5.185   0.407
 9228TIP3    H227628   2.275   5.315   0.416
 9229TIP3   OH227629   0.292   2.277   1.618
 9229TIP3    H127630   0.371   2.250   1.665
 9229TIP3    H227631   0.221   2.229   1.660
 9230TIP3   OH227632   2.669   2.413   6.095
 9230TIP3    H127633   2.706   2.496   6.124
 9230TIP3    H227634   2.575   2.424   6.103
 9231TIP3   OH227635   7.164   2.989   5.865
 9231TIP3    H127636   7.253   3.015   5.886
 9231TIP3    H227637   7.120   2.984   5.950
 9232TIP3   OH227638   7.953   7.511   5.373
 9232TIP3    H127639   8.007   7.447   5.419
 9232TIP3    H227640   7.879   7.461   5.340
 9233TIP3   OH227641   4.659   4.391   1.806
 9233TIP3    H127642   4.652   4.297   1.821
 9233TIP3    H227643   4.591   4.410   1.741
 9234TIP3   OH227644   8.126   7.061   1.359
 9234TIP3    H127645   8.082   7.146   1.357
 9234TIP3    H227646   8.113   7.029   1.449
 9235TIP3   OH227647   7.492   5.972   1.782
 9235TIP3    H127648   7.513   5.901   1.721
 9235TIP3    H227649   7.567   5.974   1.842
 9236TIP3   OH227650   7.239   0.147   0.101
 9236TIP3    H127651   7.313   0.144   0.040
 9236TIP3    H227652   7.278   0.133   0.187
 9237TIP3   OH227653   6.894   2.863   0.160
 9237TIP3    H127654   6.975   2.814   0.150
 9237TIP3    H227655   6.900   2.932   0.093
 9238TIP3   OH227656   3.492   0.153   3.912
 9238TIP3    H127657   3.399   0.155   3.893
 9238TIP3    H227658   3.533   0.132   3.828
 9239TIP3   OH227659   8.092   7.181   0.841
 9239TIP3    H127660   8.082   7.189   0.746
 9239TIP3    H227661   8.019   7.231   0.877
 9240TIP3   OH227662   7.037   2.627   3.999
 9240TIP3    H127663   7.122   2.584   3.990
 9240TIP3    H227664   6.981   2.585   3.935
 9241TIP3   OH227665   1.221   2.336   3.227
 9241TIP3    H127666   1.181   2.260   3.185
 9241TIP3    H227667   1.166   2.410   3.199
 9242TIP3   OH227668   0.884   4.289   3.313
 9242TIP3    H127669   0.854   4.358   3.371
 9242TIP3    H227670   0.839   4.306   3.230
 9243TIP3   OH227671   8.156   4.902   6.329
 9243TIP3    H127672   8.221   4.833   6.343
 9243TIP3    H227673   8.074   4.864   6.362
 9244TIP3   OH227674   2.533   7.390   3.004
 9244TIP3    H127675   2.532   7.410   2.911
 9244TIP3    H227676   2.521   7.295   3.009
 9245TIP3   OH227677   6.416   3.705   6.505
 9245TIP3    H127678   6.327   3.695   6.471
 9245TIP3    H227679   6.407   3.703   6.600
 9246TIP3   OH227680   4.078   6.176   2.609
 9246TIP3    H127681   4.078   6.143   2.519
 9246TIP3    H227682   4.006   6.130   2.651
 9247TIP3   OH227683   1.865   6.858   6.425
 9247TIP3    H127684   1.913   6.814   6.355
 9247TIP3    H227685   1.814   6.789   6.467
 9248TIP3   OH227686   1.661   4.922   0.776
 9248TIP3    H127687   1.692   4.946   0.689
 9248TIP3    H227688   1.726   4.859   0.808
 9249TIP3   OH227689   1.983   0.125   5.355
 9249TIP3    H127690   2.026   0.128   5.440
 9249TIP3    H227691   1.940   0.040   5.352
 9250TIP3   OH227692   4.800   1.550   4.047
 9250TIP3    H127693   4.739   1.477   4.044
 9250TIP3    H227694   4.828   1.562   3.956
 9251TIP3   OH227695   7.983   5.451   4.413
 9251TIP3    H127696   7.931   5.455   4.493
 9251TIP3    H227697   8.073   5.441   4.444
 9252TIP3   OH227698   0.354   4.736   4.429
 9252TIP3    H127699   0.399   4.652   4.441
 9252TIP3    H227700   0.357   4.751   4.334
 9253TIP3   OH227701   5.244   5.181   6.106
 9253TIP3    H127702   5.295   5.206   6.029
 9253TIP3    H227703   5.167   5.137   6.071
 9254TIP3   OH227704   0.221   0.224   1.458
 9254TIP3    H127705   0.290   0.290   1.453
 9254TIP3    H227706   0.140   0.272   1.440
 9255TIP3   OH227707   0.086   3.798   0.746
 9255TIP3    H127708  -0.004   3.814   0.718
 9255TIP3    H227709   0.140   3.833   0.676
 9256TIP3   OH227710   5.356   1.613   2.585
 9256TIP3    H127711   5.401   1.545   2.534
 9256TIP3    H227712   5.301   1.564   2.646
 9257TIP3   OH227713   5.779   4.513   1.928
 9257TIP3    H127714   5.692   4.476   1.913
 9257TIP3    H227715   5.784   4.588   1.868
 9258TIP3   OH227716   6.456   4.748   5.389
 9258TIP3    H127717   6.366   4.780   5.377
 9258TIP3    H227718   6.449   4.653   5.382
 9259TIP3   OH227719   7.050   6.726   3.096
 9259TIP3    H127720   6.998   6.734   3.177
 9259TIP3    H227721   7.021   6.800   3.043
 9260TIP3   OH227722   4.749   4.797   5.248
 9260TIP3    H127723   4.706   4.785   5.333
 9260TIP3    H227724   4.694   4.749   5.187
 9261TIP3   OH227725   1.932   4.171   5.237
 9261TIP3    H127726   1.917   4.101   5.301
 9261TIP3    H227727   1.872   4.152   5.166
 9262TIP3   OH227728   4.923   4.882   5.667
 9262TIP3    H127729   4.914   4.845   5.580
 9262TIP3    H227730   5.018   4.884   5.683
 9263TIP3   OH227731   0.499   2.068   2.014
 9263TIP3    H127732   0.413   2.108   2.001
 9263TIP3    H227733   0.489   1.979   1.981
 9264TIP3   OH227734   1.144   6.454   0.464
 9264TIP3    H127735   1.159   6.536   0.416
 9264TIP3    H227736   1.112   6.483   0.550
 9265TIP3   OH227737   8.206   7.587   2.862
 9265TIP3    H127738   8.250   7.536   2.931
 9265TIP3    H227739   8.203   7.676   2.897
 9266TIP3   OH227740   0.068   1.489   0.490
 9266TIP3    H127741   0.007   1.496   0.416
 9266TIP3    H227742   0.012   1.476   0.566
 9267TIP3   OH227743   3.026   3.239   6.505
 9267TIP3    H127744   2.967   3.272   6.573
 9267TIP3    H227745   3.113   3.266   6.534
 9268TIP3   OH227746   4.711   4.679   6.722
 9268TIP3    H127747   4.705   4.626   6.643
 9268TIP3    H227748   4.696   4.769   6.693
 9269TIP3   OH227749   7.486   1.291   6.460
 9269TIP3    H127750   7.446   1.309   6.375
 9269TIP3    H227751   7.470   1.198   6.475
 9270TIP3   OH227752   4.195   2.820   3.741
 9270TIP3    H127753   4.145   2.802   3.661
 9270TIP3    H227754   4.273   2.866   3.711
 9271TIP3   OH227755   8.187   6.510   0.849
 9271TIP3    H127756   8.130   6.578   0.883
 9271TIP3    H227757   8.128   6.445   0.810
 9272TIP3   OH227758   2.183   1.196   0.844
 9272TIP3    H127759   2.221   1.247   0.773
 9272TIP3    H227760   2.258   1.150   0.883
 9273TIP3   OH227761   6.638   1.235   1.975
 9273TIP3    H127762   6.593   1.300   1.922
 9273TIP3    H227763   6.731   1.254   1.962
 9274TIP3   OH227764   0.785   5.635   4.835
 9274TIP3    H127765   0.786   5.632   4.930
 9274TIP3    H227766   0.710   5.690   4.813
 9275TIP3   OH227767   7.966   0.212   4.197
 9275TIP3    H127768   8.048   0.221   4.246
 9275TIP3    H227769   7.994   0.197   4.106
 9276TIP3   OH227770   1.876   1.580   1.268
 9276TIP3    H127771   1.817   1.513   1.302
 9276TIP3    H227772   1.885   1.559   1.175
 9277TIP3   OH227773   0.446   4.385   5.449
 9277TIP3    H127774   0.354   4.394   5.424
 9277TIP3    H227775   0.443   4.369   5.543
 9278TIP3   OH227776   6.396   3.359   2.556
 9278TIP3    H127777   6.415   3.351   2.463
 9278TIP3    H227778   6.375   3.452   2.568
 9279TIP3   OH227779   3.437   4.494   1.983
 9279TIP3    H127780   3.459   4.585   1.963
 9279TIP3    H227781   3.364   4.500   2.044
 9280TIP3   OH227782   0.479   1.061   3.419
 9280TIP3    H127783   0.557   1.015   3.386
 9280TIP3    H227784   0.425   1.075   3.341
 9281TIP3   OH227785   1.306   7.136   6.085
 9281TIP3    H127786   1.346   7.177   6.161
 9281TIP3    H227787   1.372   7.144   6.016
 9282TIP3   OH227788   0.462   1.642   5.167
 9282TIP3    H127789   0.392   1.704   5.188
 9282TIP3    H227790   0.479   1.655   5.074
 9283TIP3   OH227791   6.939   2.070   4.943
 9283TIP3    H127792   6.888   2.070   4.862
 9283TIP3    H227793   6.876   2.094   5.011
 9284TIP3   OH227794   2.867   6.344   2.212
 9284TIP3    H127795   2.954   6.370   2.243
 9284TIP3    H227796   2.826   6.426   2.183
 9285TIP3   OH227797   3.814   4.821   1.823
 9285TIP3    H127798   3.876   4.748   1.826
 9285TIP3    H227799   3.732   4.783   1.853
 9286TIP3   OH227800   7.078   7.158   3.833
 9286TIP3    H127801   7.003   7.204   3.795
 9286TIP3    H227802   7.053   7.066   3.831
 9287TIP3   OH227803   4.337   1.440   3.750
 9287TIP3    H127804   4.321   1.504   3.819
 9287TIP3    H227805   4.346   1.492   3.671
 9288TIP3   OH227806   2.754   5.989   1.611
 9288TIP3    H127807   2.730   5.921   1.675
 9288TIP3    H227808   2.845   5.967   1.588
 9289TIP3   OH227809   1.490   2.896   0.537
 9289TIP3    H127810   1.552   2.863   0.472
 9289TIP3    H227811   1.535   2.884   0.621
 9290TIP3   OH227812   1.170   6.878   6.066
 9290TIP3    H127813   1.193   6.971   6.069
 9290TIP3    H227814   1.113   6.865   6.142
 9291TIP3   OH227815   0.709   3.085   6.253
 9291TIP3    H127816   0.700   2.993   6.230
 9291TIP3    H227817   0.798   3.108   6.227
 9292TIP3   OH227818   1.018   1.306   4.009
 9292TIP3    H127819   1.105   1.313   3.971
 9292TIP3    H227820   1.011   1.214   4.036
 9293TIP3   OH227821   3.749   7.613   4.496
 9293TIP3    H127822   3.840   7.641   4.510
 9293TIP3    H227823   3.696   7.688   4.523
 9294TIP3   OH227824   4.675   2.475   1.645
 9294TIP3    H127825   4.606   2.541   1.647
 9294TIP3    H227826   4.696   2.465   1.553
 9295TIP3   OH227827   1.520   1.803   3.638
 9295TIP3    H127828   1.558   1.817   3.552
 9295TIP3    H227829   1.433   1.844   3.634
 9296TIP3   OH227830   2.270   7.508   6.135
 9296TIP3    H127831   2.294   7.461   6.216
 9296TIP3    H227832   2.251   7.597   6.164
 9297TIP3   OH227833   4.825   5.214   2.263
 9297TIP3    H127834   4.803   5.256   2.180
 9297TIP3    H227835   4.889   5.272   2.304
 9298TIP3   OH227836   5.619   7.833   4.673
 9298TIP3    H127837   5.580   7.758   4.716
 9298TIP3    H227838   5.643   7.801   4.586
 9299TIP3   OH227839   2.626   1.474   5.394
 9299TIP3    H127840   2.686   1.496   5.464
 9299TIP3    H227841   2.561   1.417   5.435
 9300TIP3   OH227842   6.328   1.159   0.080
 9300TIP3    H127843   6.301   1.093   0.145
 9300TIP3    H227844   6.246   1.199   0.051
 9301TIP3   OH227845   7.419   3.247   5.564
 9301TIP3    H127846   7.395   3.159   5.535
 9301TIP3    H227847   7.366   3.261   5.643
 9302TIP3   OH227848   3.362   0.013   0.701
 9302TIP3    H127849   3.270  -0.010   0.714
 9302TIP3    H227850   3.363   0.063   0.619
 9303TIP3   OH227851   4.922   2.205   4.771
 9303TIP3    H127852   4.939   2.261   4.695
 9303TIP3    H227853   4.846   2.153   4.746
 9304TIP3   OH227854   5.031   0.041   6.438
 9304TIP3    H127855   5.007   0.082   6.355
 9304TIP3    H227856   5.091   0.104   6.479
 9305TIP3   OH227857   5.111   0.450   5.180
 9305TIP3    H127858   5.090   0.485   5.267
 9305TIP3    H227859   5.037   0.395   5.157
 9306TIP3   OH227860   1.488   4.693   0.181
 9306TIP3    H127861   1.460   4.783   0.166
 9306TIP3    H227862   1.541   4.696   0.260
 9307TIP3   OH227863   0.228   7.438   2.823
 9307TIP3    H127864   0.266   7.489   2.752
 9307TIP3    H227865   0.183   7.366   2.779
 9308TIP3   OH227866   4.503   0.443   4.267
 9308TIP3    H127867   4.562   0.458   4.341
 9308TIP3    H227868   4.417   0.469   4.300
 9309TIP3   OH227869   2.186   2.097   3.027
 9309TIP3    H127870   2.258   2.128   2.972
 9309TIP3    H227871   2.145   2.177   3.061
 9310TIP3   OH227872   2.898   7.679   4.562
 9310TIP3    H127873   2.982   7.636   4.545
 9310TIP3    H227874   2.913   7.729   4.643
 9311TIP3   OH227875   5.831   4.093   4.142
 9311TIP3    H127876   5.800   4.183   4.136
 9311TIP3    H227877   5.920   4.100   4.176
 9312TIP3   OH227878   1.686   1.312   3.834
 9312TIP3    H127879   1.614   1.251   3.851
 9312TIP3    H227880   1.644   1.398   3.834
 9313TIP3   OH227881   5.203   3.769   0.190
 9313TIP3    H127882   5.124   3.812   0.222
 9313TIP3    H227883   5.264   3.840   0.173
 9314TIP3   OH227884   1.590   5.942   6.650
 9314TIP3    H127885   1.654   5.950   6.580
 9314TIP3    H227886   1.624   5.997   6.721
 9315TIP3   OH227887   6.949   0.778   4.341
 9315TIP3    H127888   6.974   0.715   4.272
 9315TIP3    H227889   6.902   0.847   4.294
 9316TIP3   OH227890   3.315   6.698   0.125
 9316TIP3    H127891   3.326   6.604   0.112
 9316TIP3    H227892   3.227   6.717   0.092
 9317TIP3   OH227893   3.893   3.804   4.372
 9317TIP3    H127894   3.837   3.871   4.331
 9317TIP3    H227895   3.967   3.853   4.407
 9318TIP3   OH227896   6.204   4.238   2.462
 9318TIP3    H127897   6.193   4.154   2.507
 9318TIP3    H227898   6.124   4.248   2.410
 9319TIP3   OH227899   6.365   3.959   5.228
 9319TIP3    H127900   6.454   3.934   5.205
 9319TIP3    H227901   6.318   3.876   5.233
 9320TIP3   OH227902   0.997   1.051   3.347
 9320TIP3    H127903   1.001   1.137   3.387
 9320TIP3    H227904   1.006   0.990   3.419
 9321TIP3   OH227905   2.735   0.612   1.757
 9321TIP3    H127906   2.710   0.643   1.844
 9321TIP3    H227907   2.831   0.610   1.759
 9322TIP3   OH227908   5.994   0.048   5.195
 9322TIP3    H127909   6.054   0.065   5.268
 9322TIP3    H227910   5.921   0.001   5.235
 9323TIP3   OH227911   7.140   7.631   2.871
 9323TIP3    H127912   7.044   7.636   2.868
 9323TIP3    H227913   7.164   7.591   2.787
 9324TIP3   OH227914   2.913   4.101   0.241
 9324TIP3    H127915   2.838   4.152   0.272
 9324TIP3    H227916   2.989   4.150   0.272
 9325TIP3   OH227917   8.003   1.155   4.112
 9325TIP3    H127918   8.000   1.114   4.199
 9325TIP3    H227919   8.096   1.152   4.089
 9326TIP3   OH227920   7.373   3.117   4.522
 9326TIP3    H127921   7.400   3.131   4.613
 9326TIP3    H227922   7.381   3.022   4.508
 9327TIP3   OH227923   5.047   0.405   2.233
 9327TIP3    H127924   5.065   0.492   2.268
 9327TIP3    H227925   5.127   0.380   2.186
 9328TIP3   OH227926   2.128   7.056   3.864
 9328TIP3    H127927   2.131   7.151   3.878
 9328TIP3    H227928   2.052   7.043   3.807
 9329TIP3   OH227929   8.143   0.896   3.946
 9329TIP3    H127930   8.099   0.856   4.022
 9329TIP3    H227931   8.107   0.851   3.870
 9330TIP3   OH227932   7.887   7.074   1.182
 9330TIP3    H127933   7.847   7.127   1.252
 9330TIP3    H227934   7.920   7.138   1.119
 9331TIP3   OH227935   4.537   1.888   4.542
 9331TIP3    H127936   4.570   1.883   4.452
 9331TIP3    H227937   4.454   1.841   4.540
 9332TIP3   OH227938   3.246   0.757   3.345
 9332TIP3    H127939   3.156   0.785   3.362
 9332TIP3    H227940   3.253   0.757   3.249
 9333TIP3   OH227941   2.091   1.851   5.996
 9333TIP3    H127942   2.027   1.790   5.959
 9333TIP3    H227943   2.105   1.819   6.085
 9334TIP3   OH227944   8.246   3.643   6.638
 9334TIP3    H127945   8.212   3.586   6.707
 9334TIP3    H227946   8.177   3.645   6.572
 9335TIP3   OH227947   2.545   2.423   6.410
 9335TIP3    H127948   2.546   2.503   6.359
 9335TIP3    H227949   2.456   2.417   6.445
 9336TIP3   OH227950   7.199   7.198   0.763
 9336TIP3    H127951   7.123   7.144   0.786
 9336TIP3    H227952   7.197   7.204   0.668
 9337TIP3   OH227953   7.159   4.668   1.764
 9337TIP3    H127954   7.091   4.620   1.812
 9337TIP3    H227955   7.134   4.760   1.774
 9338TIP3   OH227956   1.536   3.998   4.646
 9338TIP3    H127957   1.520   4.080   4.600
 9338TIP3    H227958   1.598   4.022   4.715
 9339TIP3   OH227959   5.742   0.719   6.243
 9339TIP3    H127960   5.724   0.636   6.287
 9339TIP3    H227961   5.691   0.715   6.162
 9340TIP3   OH227962   2.397   7.090   5.799
 9340TIP3    H127963   2.423   7.038   5.876
 9340TIP3    H227964   2.388   7.179   5.832
 9341TIP3   OH227965   3.982   1.752   5.277
 9341TIP3    H127966   3.910   1.725   5.221
 9341TIP3    H227967   4.003   1.673   5.328
 9342TIP3   OH227968   6.909   0.277   1.458
 9342TIP3    H127969   6.957   0.203   1.420
 9342TIP3    H227970   6.820   0.245   1.471
 9343TIP3   OH227971   0.761   5.603   3.750
 9343TIP3    H127972   0.837   5.618   3.805
 9343TIP3    H227973   0.739   5.689   3.715
 9344TIP3   OH227974   0.538   6.084   0.571
 9344TIP3    H127975   0.450   6.066   0.537
 9344TIP3    H227976   0.584   6.125   0.498
 9345TIP3   OH227977   7.621   0.781   0.127
 9345TIP3    H127978   7.692   0.717   0.133
 9345TIP3    H227979   7.650   0.854   0.181
 9346TIP3   OH227980   4.877   2.104   3.681
 9346TIP3    H127981   4.898   2.167   3.612
 9346TIP3    H227982   4.919   2.140   3.759
 9347TIP3   OH227983   0.269   0.255   4.645
 9347TIP3    H127984   0.355   0.225   4.617
 9347TIP3    H227985   0.213   0.178   4.638
 9348TIP3   OH227986   2.155   0.101   2.500
 9348TIP3    H127987   2.226   0.126   2.441
 9348TIP3    H227988   2.118   0.185   2.529
 9349TIP3   OH227989   4.850   5.424   6.606
 9349TIP3    H127990   4.904   5.351   6.577
 9349TIP3    H227991   4.895   5.502   6.574
 9350TIP3   OH227992   7.149   6.221   1.933
 9350TIP3    H127993   7.241   6.214   1.958
 9350TIP3    H227994   7.111   6.278   2.000
 9351TIP3   OH227995   1.178   5.953   3.961
 9351TIP3    H127996   1.165   5.909   3.877
 9351TIP3    H227997   1.225   6.033   3.939
 9352TIP3   OH227998   4.366   6.825   4.629
 9352TIP3    H127999   4.435   6.888   4.607
 9352TIP3    H228000   4.295   6.880   4.663
 9353TIP3   OH228001   3.727   3.113   6.552
 9353TIP3    H128002   3.645   3.072   6.525
 9353TIP3    H228003   3.719   3.204   6.523
 9354TIP3   OH228004   6.795   3.826   0.609
 9354TIP3    H128005   6.808   3.775   0.529
 9354TIP3    H228006   6.737   3.773   0.663
 9355TIP3   OH228007   6.071   7.592   2.522
 9355TIP3    H128008   6.055   7.632   2.436
 9355TIP3    H228009   6.137   7.525   2.505
 9356TIP3   OH228010   2.954   4.808   4.174
 9356TIP3    H128011   2.915   4.848   4.096
 9356TIP3    H228012   3.021   4.870   4.202
 9357TIP3   OH228013   2.402   5.333   2.670
 9357TIP3    H128014   2.376   5.418   2.635
 9357TIP3    H228015   2.365   5.331   2.758
 9358TIP3   OH228016   6.679   3.667   2.530
 9358TIP3    H128017   6.638   3.734   2.476
 9358TIP3    H228018   6.618   3.655   2.603
 9359TIP3   OH228019   4.215   1.338   5.556
 9359TIP3    H128020   4.275   1.343   5.482
 9359TIP3    H228021   4.164   1.258   5.540
 9360TIP3   OH228022   3.471   3.477   2.217
 9360TIP3    H128023   3.542   3.535   2.244
 9360TIP3    H228024   3.504   3.434   2.138
 9361TIP3   OH228025   4.639   0.605   0.814
 9361TIP3    H128026   4.668   0.541   0.749
 9361TIP3    H228027   4.633   0.687   0.767
 9362TIP3   OH228028   6.159   2.790   0.488
 9362TIP3    H128029   6.184   2.720   0.427
 9362TIP3    H228030   6.229   2.855   0.479
 9363TIP3   OH228031   1.763   2.512   0.599
 9363TIP3    H128032   1.745   2.483   0.688
 9363TIP3    H228033   1.700   2.463   0.545
 9364TIP3   OH228034   2.616   4.227   3.040
 9364TIP3    H128035   2.521   4.214   3.040
 9364TIP3    H228036   2.642   4.211   3.131
 9365TIP3   OH228037   6.562   5.128   1.497
 9365TIP3    H128038   6.505   5.102   1.425
 9365TIP3    H228039   6.529   5.081   1.573
 9366TIP3   OH228040   3.270   5.133   1.194
 9366TIP3    H128041   3.363   5.126   1.217
 9366TIP3    H228042   3.243   5.218   1.229
 9367TIP3   OH228043   4.769   3.402   2.255
 9367TIP3    H128044   4.765   3.414   2.160
 9367TIP3    H228045   4.678   3.405   2.283
 9368TIP3   OH228046   4.741   2.469   1.043
 9368TIP3    H128047   4.711   2.441   1.130
 9368TIP3    H228048   4.779   2.390   1.005
 9369TIP3   OH228049   4.026   6.679   0.280
 9369TIP3    H128050   4.109   6.723   0.260
 9369TIP3    H228051   4.039   6.643   0.368
 9370TIP3   OH228052   3.177   6.190   5.407
 9370TIP3    H128053   3.192   6.156   5.319
 9370TIP3    H228054   3.218   6.277   5.407
 9371TIP3   OH228055   3.532   0.699   6.276
 9371TIP3    H128056   3.456   0.680   6.331
 9371TIP3    H228057   3.602   0.644   6.313
 9372TIP3   OH228058   8.294   1.063   5.522
 9372TIP3    H128059   8.320   1.018   5.442
 9372TIP3    H228060   8.198   1.068   5.517
 9373TIP3   OH228061   1.718   6.041   2.473
 9373TIP3    H128062   1.755   6.121   2.510
 9373TIP3    H228063   1.663   6.005   2.543
 9374TIP3   OH228064   1.908   3.432   5.618
 9374TIP3    H128065   1.825   3.412   5.662
 9374TIP3    H228066   1.959   3.477   5.685
 9375TIP3   OH228067   4.061   5.223   3.650
 9375TIP3    H128068   4.108   5.165   3.590
 9375TIP3    H228069   4.126   5.288   3.677
 9376TIP3   OH228070   4.652   5.444   6.049
 9376TIP3    H128071   4.566   5.437   6.008
 9376TIP3    H228072   4.644   5.397   6.132
 9377TIP3   OH228073   3.908   5.723   1.000
 9377TIP3    H128074   3.943   5.643   1.039
 9377TIP3    H228075   3.917   5.709   0.906
 9378TIP3   OH228076   1.853   5.360   2.342
 9378TIP3    H128077   1.845   5.455   2.342
 9378TIP3    H228078   1.935   5.343   2.296
 9379TIP3   OH228079   0.278   4.152   4.493
 9379TIP3    H128080   0.255   4.237   4.530
 9379TIP3    H228081   0.312   4.173   4.406
 9380TIP3   OH228082   4.399   4.404   2.726
 9380TIP3    H128083   4.427   4.350   2.653
 9380TIP3    H228084   4.475   4.404   2.786
 9381TIP3   OH228085   7.459   0.254   1.205
 9381TIP3    H128086   7.370   0.248   1.239
 9381TIP3    H228087   7.498   0.168   1.223
 9382TIP3   OH228088   5.693   4.374   4.171
 9382TIP3    H128089   5.686   4.467   4.152
 9382TIP3    H228090   5.658   4.330   4.094
 9383TIP3   OH228091   2.944   1.860   2.629
 9383TIP3    H128092   2.996   1.927   2.674
 9383TIP3    H228093   2.932   1.894   2.540
 9384TIP3   OH228094   2.290   4.428   4.671
 9384TIP3    H128095   2.255   4.344   4.642
 9384TIP3    H228096   2.361   4.447   4.610
 9385TIP3   OH228097   7.064   0.342   4.386
 9385TIP3    H128098   7.071   0.309   4.296
 9385TIP3    H228099   6.973   0.369   4.395
 9386TIP3   OH228100   5.033   0.873   4.188
 9386TIP3    H128101   5.070   0.866   4.100
 9386TIP3    H228102   4.939   0.856   4.176
 9387TIP3   OH228103   0.917   2.999   4.289
 9387TIP3    H128104   0.974   2.968   4.219
 9387TIP3    H228105   0.970   2.992   4.368
 9388TIP3   OH228106   1.004   3.401   5.876
 9388TIP3    H128107   1.082   3.384   5.929
 9388TIP3    H228108   0.937   3.425   5.940
 9389TIP3   OH228109   3.289   6.035   5.815
 9389TIP3    H128110   3.344   6.088   5.872
 9389TIP3    H228111   3.210   6.018   5.867
 9390TIP3   OH228112   3.574   2.052   3.637
 9390TIP3    H128113   3.634   1.981   3.613
 9390TIP3    H228114   3.501   2.009   3.681
 9391TIP3   OH228115   2.235   2.392   5.223
 9391TIP3    H128116   2.305   2.326   5.231
 9391TIP3    H228117   2.161   2.344   5.187
 9392TIP3   OH228118   4.657   0.066   3.949
 9392TIP3    H128119   4.697   0.128   3.888
 9392TIP3    H228120   4.603   0.121   4.006
 9393TIP3   OH228121   4.299   2.968   0.136
 9393TIP3    H128122   4.330   2.894   0.084
 9393TIP3    H228123   4.368   3.034   0.127
 9394TIP3   OH228124   3.419   3.756   3.582
 9394TIP3    H128125   3.493   3.756   3.642
 9394TIP3    H228126   3.343   3.740   3.638
 9395TIP3   OH228127   7.812   5.284   3.119
 9395TIP3    H128128   7.802   5.197   3.158
 9395TIP3    H228129   7.898   5.282   3.077
 9396TIP3   OH228130   6.503   2.645   1.024
 9396TIP3    H128131   6.548   2.624   1.105
 9396TIP3    H228132   6.516   2.739   1.013
 9397TIP3   OH228133   3.984   6.289   3.750
 9397TIP3    H128134   4.048   6.284   3.820
 9397TIP3    H228135   3.911   6.338   3.787
 9398TIP3   OH228136   2.203   5.448   3.468
 9398TIP3    H128137   2.230   5.486   3.552
 9398TIP3    H228138   2.121   5.403   3.487
 9399TIP3   OH228139   5.884   3.472   4.232
 9399TIP3    H128140   5.810   3.413   4.247
 9399TIP3    H228141   5.961   3.415   4.235
 9400TIP3   OH228142   4.360   0.781   0.922
 9400TIP3    H128143   4.302   0.705   0.917
 9400TIP3    H228144   4.305   0.851   0.957
 9401TIP3   OH228145   4.749   1.050   4.218
 9401TIP3    H128146   4.666   1.087   4.249
 9401TIP3    H228147   4.807   1.055   4.294
 9402TIP3   OH228148   2.936   6.968   4.591
 9402TIP3    H128149   2.995   6.908   4.636
 9402TIP3    H228150   2.956   7.054   4.628
 9403TIP3   OH228151   3.937   4.231   1.079
 9403TIP3    H128152   4.030   4.242   1.059
 9403TIP3    H228153   3.931   4.144   1.117
 9404TIP3   OH228154   5.471   2.706   2.650
 9404TIP3    H128155   5.536   2.776   2.643
 9404TIP3    H228156   5.442   2.691   2.560
 9405TIP3   OH228157   5.545   4.677   4.398
 9405TIP3    H128158   5.509   4.761   4.371
 9405TIP3    H228159   5.474   4.614   4.385
 9406TIP3   OH228160   1.445   0.318   0.077
 9406TIP3    H128161   1.443   0.411   0.100
 9406TIP3    H228162   1.511   0.280   0.136
 9407TIP3   OH228163   2.020   1.611   2.192
 9407TIP3    H128164   2.106   1.576   2.215
 9407TIP3    H228165   1.984   1.642   2.275
 9408TIP3   OH228166   3.881   0.299   2.512
 9408TIP3    H128167   3.906   0.208   2.498
 9408TIP3    H228168   3.823   0.297   2.588
 9409TIP3   OH228169   7.692   3.969   3.580
 9409TIP3    H128170   7.634   3.896   3.601
 9409TIP3    H228171   7.636   4.031   3.533
 9410TIP3   OH228172   4.991   6.680   4.329
 9410TIP3    H128173   4.966   6.674   4.237
 9410TIP3    H228174   5.030   6.595   4.349
 9411TIP3   OH228175   4.791   1.879   5.247
 9411TIP3    H128176   4.829   1.890   5.335
 9411TIP3    H228177   4.865   1.853   5.192
 9412TIP3   OH228178   6.161   1.429   5.413
 9412TIP3    H128179   6.233   1.376   5.378
 9412TIP3    H228180   6.182   1.439   5.506
 9413TIP3   OH228181   7.932   2.874   0.982
 9413TIP3    H128182   8.010   2.888   1.036
 9413TIP3    H228183   7.966   2.870   0.892
 9414TIP3   OH228184   3.073   5.090   0.994
 9414TIP3    H128185   3.043   5.176   1.024
 9414TIP3    H228186   3.127   5.058   1.067
 9415TIP3   OH228187   7.570   7.165   0.507
 9415TIP3    H128188   7.509   7.092   0.497
 9415TIP3    H228189   7.655   7.124   0.523
 9416TIP3   OH228190   2.783   6.422   6.466
 9416TIP3    H128191   2.766   6.462   6.381
 9416TIP3    H228192   2.878   6.411   6.468
 9417TIP3   OH228193   3.026   0.012   3.676
 9417TIP3    H128194   3.025  -0.020   3.766
 9417TIP3    H228195   3.099   0.074   3.674
 9418TIP3   OH228196   0.925   7.251   2.727
 9418TIP3    H128197   0.851   7.278   2.782
 9418TIP3    H228198   0.885   7.199   2.657
 9419TIP3   OH228199   6.038   7.399   5.975
 9419TIP3    H128200   6.018   7.379   5.883
 9419TIP3    H228201   6.087   7.323   6.005
 9420TIP3   OH228202   6.650   0.148   0.412
 9420TIP3    H128203   6.732   0.161   0.460
 9420TIP3    H228204   6.668   0.182   0.324
 9421TIP3   OH228205   4.992   1.926   4.827
 9421TIP3    H128206   5.000   2.021   4.814
 9421TIP3    H228207   5.024   1.889   4.745
 9422TIP3   OH228208   7.517   2.643   1.234
 9422TIP3    H128209   7.524   2.675   1.324
 9422TIP3    H228210   7.604   2.659   1.196
 9423TIP3   OH228211   4.100   4.616   3.524
 9423TIP3    H128212   4.055   4.609   3.607
 9423TIP3    H228213   4.136   4.529   3.508
 9424TIP3   OH228214   2.259   4.118   1.784
 9424TIP3    H128215   2.323   4.189   1.774
 9424TIP3    H228216   2.304   4.041   1.751
 9425TIP3   OH228217   0.555   0.743   3.128
 9425TIP3    H128218   0.485   0.681   3.110
 9425TIP3    H228219   0.530   0.822   3.081
 9426TIP3   OH228220   0.221   6.985   4.295
 9426TIP3    H128221   0.228   7.021   4.384
 9426TIP3    H228222   0.309   6.995   4.259
 9427TIP3   OH228223   0.660   3.470   1.145
 9427TIP3    H128224   0.751   3.454   1.120
 9427TIP3    H228225   0.624   3.383   1.161
 9428TIP3   OH228226   7.153   1.581   4.594
 9428TIP3    H128227   7.084   1.515   4.605
 9428TIP3    H228228   7.119   1.659   4.638
 9429TIP3   OH228229   1.175   2.974   6.414
 9429TIP3    H128230   1.121   3.052   6.400
 9429TIP3    H228231   1.115   2.911   6.453
 9430TIP3   OH228232   7.895   7.696   1.922
 9430TIP3    H128233   7.988   7.680   1.936
 9430TIP3    H228234   7.870   7.755   1.993
 9431TIP3   OH228235   1.055   2.477   2.181
 9431TIP3    H128236   1.091   2.392   2.206
 9431TIP3    H228237   1.128   2.538   2.192
 9432TIP3   OH228238   1.438   2.716   0.175
 9432TIP3    H128239   1.429   2.622   0.158
 9432TIP3    H228240   1.520   2.724   0.222
 9433TIP3   OH228241   4.096   7.641   5.890
 9433TIP3    H128242   4.020   7.635   5.833
 9433TIP3    H228243   4.167   7.671   5.833
 9434TIP3   OH228244   6.130   4.877   6.617
 9434TIP3    H128245   6.083   4.940   6.673
 9434TIP3    H228246   6.176   4.932   6.553
 9435TIP3   OH228247   5.536   5.563   5.325
 9435TIP3    H128248   5.628   5.541   5.338
 9435TIP3    H228249   5.526   5.570   5.230
 9436TIP3   OH228250   2.580   3.866   0.783
 9436TIP3    H128251   2.536   3.911   0.855
 9436TIP3    H228252   2.520   3.795   0.758
 9437TIP3   OH228253   3.744   0.066   0.705
 9437TIP3    H128254   3.819   0.029   0.751
 9437TIP3    H228255   3.672   0.061   0.769
 9438TIP3   OH228256   4.103   1.851   6.314
 9438TIP3    H128257   4.062   1.841   6.228
 9438TIP3    H228258   4.170   1.783   6.316
 9439TIP3   OH228259   5.509   4.795   3.615
 9439TIP3    H128260   5.453   4.718   3.623
 9439TIP3    H228261   5.560   4.779   3.536
 9440TIP3   OH228262   0.074   2.490   5.956
 9440TIP3    H128263   0.137   2.464   5.888
 9440TIP3    H228264   0.125   2.490   6.037
 9441TIP3   OH228265   6.338   0.225   1.227
 9441TIP3    H128266   6.357   0.141   1.268
 9441TIP3    H228267   6.343   0.208   1.133
 9442TIP3   OH228268   2.593   6.067   4.252
 9442TIP3    H128269   2.541   6.122   4.193
 9442TIP3    H228270   2.538   5.991   4.269
 9443TIP3   OH228271   1.877   6.252   3.593
 9443TIP3    H128272   1.934   6.329   3.584
 9443TIP3    H228273   1.934   6.177   3.575
 9444TIP3   OH228274   3.405   1.576   5.384
 9444TIP3    H128275   3.440   1.578   5.474
 9444TIP3    H228276   3.445   1.652   5.342
 9445TIP3   OH228277   2.650   3.856   5.120
 9445TIP3    H128278   2.713   3.831   5.188
 9445TIP3    H228279   2.592   3.919   5.164
 9446TIP3   OH228280   4.413   6.707   5.240
 9446TIP3    H128281   4.367   6.636   5.286
 9446TIP3    H228282   4.387   6.696   5.148
 9447TIP3   OH228283   2.427   0.796   6.402
 9447TIP3    H128284   2.423   0.855   6.328
 9447TIP3    H228285   2.514   0.812   6.441
 9448TIP3   OH228286   3.440   2.588   4.556
 9448TIP3    H128287   3.488   2.657   4.601
 9448TIP3    H228288   3.465   2.508   4.602
 9449TIP3   OH228289   6.960   1.394   6.375
 9449TIP3    H128290   6.953   1.312   6.326
 9449TIP3    H228291   7.044   1.431   6.349
 9450TIP3   OH228292   8.110   0.978   1.775
 9450TIP3    H128293   8.174   1.044   1.749
 9450TIP3    H228294   8.104   0.985   1.870
 9451TIP3   OH228295   2.306   4.743   0.147
 9451TIP3    H128296   2.374   4.810   0.149
 9451TIP3    H228297   2.330   4.686   0.073
 9452TIP3   OH228298   0.083   6.192   1.658
 9452TIP3    H128299   0.080   6.096   1.657
 9452TIP3    H228300  -0.005   6.218   1.686
 9453TIP3   OH228301   6.870   2.398   3.380
 9453TIP3    H128302   6.965   2.399   3.387
 9453TIP3    H228303   6.850   2.467   3.317
 9454TIP3   OH228304   5.044   1.997   3.267
 9454TIP3    H128305   4.975   1.948   3.312
 9454TIP3    H228306   5.003   2.080   3.243
 9455TIP3   OH228307   2.119   1.250   1.956
 9455TIP3    H128308   2.045   1.210   2.003
 9455TIP3    H228309   2.176   1.176   1.935
 9456TIP3   OH228310   7.034   3.588   5.149
 9456TIP3    H128311   7.085   3.624   5.076
 9456TIP3    H228312   7.049   3.650   5.221
 9457TIP3   OH228313   4.648   5.991   4.865
 9457TIP3    H128314   4.618   5.903   4.887
 9457TIP3    H228315   4.586   6.021   4.798
 9458TIP3   OH228316   3.953   5.804   2.420
 9458TIP3    H128317   3.885   5.773   2.360
 9458TIP3    H228318   4.022   5.838   2.362
 9459TIP3   OH228319   1.944   7.668   2.676
 9459TIP3    H128320   2.009   7.736   2.657
 9459TIP3    H228321   1.997   7.592   2.702
 9460TIP3   OH228322   7.305   4.741   3.622
 9460TIP3    H128323   7.281   4.664   3.674
 9460TIP3    H228324   7.222   4.784   3.603
 9461TIP3   OH228325   0.346   4.241   1.708
 9461TIP3    H128326   0.309   4.324   1.737
 9461TIP3    H228327   0.394   4.263   1.628
 9462TIP3   OH228328   5.705   1.386   5.012
 9462TIP3    H128329   5.798   1.364   5.008
 9462TIP3    H228330   5.696   1.465   4.958
 9463TIP3   OH228331   3.737   0.958   2.499
 9463TIP3    H128332   3.646   0.931   2.489
 9463TIP3    H228333   3.788   0.877   2.492
 9464TIP3   OH228334   7.522   6.320   0.123
 9464TIP3    H128335   7.440   6.276   0.146
 9464TIP3    H228336   7.589   6.253   0.130
 9465TIP3   OH228337   7.815   4.979   6.644
 9465TIP3    H128338   7.726   5.006   6.624
 9465TIP3    H228339   7.838   4.916   6.575
 9466TIP3   OH228340   4.890   0.313   6.172
 9466TIP3    H128341   4.887   0.361   6.255
 9466TIP3    H228342   4.888   0.221   6.197
 9467TIP3   OH228343   0.526   6.533   2.753
 9467TIP3    H128344   0.587   6.530   2.826
 9467TIP3    H228345   0.464   6.602   2.777
 9468TIP3   OH228346   4.276   7.647   3.704
 9468TIP3    H128347   4.185   7.670   3.686
 9468TIP3    H228348   4.270   7.565   3.754
 9469TIP3   OH228349   0.998   2.611   2.679
 9469TIP3    H128350   0.938   2.537   2.688
 9469TIP3    H228351   1.078   2.583   2.725
 9470TIP3   OH228352   5.440   0.814   1.983
 9470TIP3    H128353   5.417   0.864   1.906
 9470TIP3    H228354   5.496   0.872   2.035
 9471TIP3   OH228355   1.363   5.040   0.568
 9471TIP3    H128356   1.387   4.949   0.554
 9471TIP3    H228357   1.269   5.043   0.548
 9472TIP3   OH228358   3.273   5.558   3.711
 9472TIP3    H128359   3.260   5.611   3.631
 9472TIP3    H228360   3.368   5.557   3.724
 9473TIP3   OH228361   3.053   1.140   5.990
 9473TIP3    H128362   3.045   1.122   6.084
 9473TIP3    H228363   3.109   1.070   5.956
 9474TIP3   OH228364   7.585   3.993   2.993
 9474TIP3    H128365   7.576   4.005   2.898
 9474TIP3    H228366   7.645   4.062   3.021
 9475TIP3   OH228367   0.878   3.036   2.750
 9475TIP3    H128368   0.795   3.023   2.796
 9475TIP3    H228369   0.888   3.131   2.745
 9476TIP3   OH228370   8.118   6.802   6.458
 9476TIP3    H128371   8.056   6.780   6.527
 9476TIP3    H228372   8.077   6.771   6.378
 9477TIP3   OH228373   3.075   2.878   4.237
 9477TIP3    H128374   3.138   2.821   4.282
 9477TIP3    H228375   3.040   2.823   4.166
 9478TIP3   OH228376   6.631   7.226   6.543
 9478TIP3    H128377   6.557   7.166   6.537
 9478TIP3    H228378   6.604   7.292   6.607
 9479TIP3   OH228379   2.996   6.309   3.707
 9479TIP3    H128380   3.009   6.266   3.622
 9479TIP3    H228381   3.083   6.335   3.735
 9480TIP3   OH228382   6.535   4.815   2.668
 9480TIP3    H128383   6.575   4.879   2.609
 9480TIP3    H228384   6.456   4.858   2.701
 9481TIP3   OH228385   1.281   5.698   5.071
 9481TIP3    H128386   1.197   5.728   5.036
 9481TIP3    H228387   1.299   5.617   5.024
 9482TIP3   OH228388   3.905   5.041   2.662
 9482TIP3    H128389   3.823   4.995   2.649
 9482TIP3    H228390   3.959   4.981   2.715
 9483TIP3   OH228391   5.703   7.313   5.870
 9483TIP3    H128392   5.774   7.249   5.868
 9483TIP3    H228393   5.698   7.347   5.781
 9484TIP3   OH228394   0.234   3.396   5.278
 9484TIP3    H128395   0.254   3.460   5.347
 9484TIP3    H228396   0.142   3.374   5.292
 9485TIP3   OH228397   6.813   6.949   1.622
 9485TIP3    H128398   6.789   6.897   1.699
 9485TIP3    H228399   6.901   6.918   1.599
 9486TIP3   OH228400   4.060   4.861   2.810
 9486TIP3    H128401   4.100   4.873   2.896
 9486TIP3    H228402   3.993   4.795   2.823
 9487TIP3   OH228403   6.417   7.191   0.029
 9487TIP3    H128404   6.407   7.174  -0.065
 9487TIP3    H228405   6.408   7.105   0.070
 9488TIP3   OH228406   4.153   3.582   3.763
 9488TIP3    H128407   4.090   3.511   3.751
 9488TIP3    H228408   4.136   3.614   3.852
 9489TIP3   OH228409   0.814   1.121   0.117
 9489TIP3    H128410   0.797   1.145   0.208
 9489TIP3    H228411   0.905   1.093   0.116
 9490TIP3   OH228412   0.027   0.409   5.190
 9490TIP3    H128413  -0.011   0.497   5.196
 9490TIP3    H228414  -0.002   0.376   5.106
 9491TIP3   OH228415   1.607   6.317   3.692
 9491TIP3    H128416   1.585   6.224   3.690
 9491TIP3    H228417   1.695   6.322   3.656
 9492TIP3   OH228418   8.129   4.520   1.483
 9492TIP3    H128419   8.212   4.535   1.436
 9492TIP3    H228420   8.063   4.519   1.414
 9493TIP3   OH228421   3.414   6.199   1.142
 9493TIP3    H128422   3.406   6.150   1.060
 9493TIP3    H228423   3.472   6.146   1.196
 9494TIP3   OH228424   3.148   7.116   6.771
 9494TIP3    H128425   3.216   7.050   6.782
 9494TIP3    H228426   3.088   7.079   6.706
 9495TIP3   OH228427   6.285   5.468   3.149
 9495TIP3    H128428   6.236   5.386   3.154
 9495TIP3    H228429   6.255   5.519   3.224
 9496TIP3   OH228430   8.046   4.267   6.014
 9496TIP3    H128431   8.097   4.273   5.933
 9496TIP3    H228432   8.093   4.325   6.075
 9497TIP3   OH228433   5.492   6.195   1.999
 9497TIP3    H128434   5.464   6.243   1.922
 9497TIP3    H228435   5.496   6.104   1.971
 9498TIP3   OH228436   1.774   1.955   4.287
 9498TIP3    H128437   1.680   1.939   4.281
 9498TIP3    H228438   1.797   1.926   4.375
 9499TIP3   OH228439   4.208   6.924   2.238
 9499TIP3    H128440   4.150   6.942   2.164
 9499TIP3    H228441   4.156   6.869   2.297
 9500TIP3   OH228442   0.147   1.809   2.468
 9500TIP3    H128443   0.138   1.780   2.377
 9500TIP3    H228444   0.223   1.761   2.501
 9501TIP3   OH228445   2.372   7.002   3.847
 9501TIP3    H128446   2.276   7.008   3.846
 9501TIP3    H228447   2.395   6.970   3.761
 9502TIP3   OH228448   4.821   3.073   4.233
 9502TIP3    H128449   4.733   3.036   4.235
 9502TIP3    H228450   4.855   3.052   4.146
 9503TIP3   OH228451   8.083   1.019   0.541
 9503TIP3    H128452   8.055   0.946   0.597
 9503TIP3    H228453   8.083   1.095   0.598
 9504TIP3   OH228454   2.267   6.638   2.508
 9504TIP3    H128455   2.246   6.702   2.441
 9504TIP3    H228456   2.183   6.598   2.531
 9505TIP3   OH228457   4.197   1.845   0.763
 9505TIP3    H128458   4.283   1.884   0.774
 9505TIP3    H228459   4.194   1.817   0.672
 9506TIP3   OH228460   6.364   3.461   5.344
 9506TIP3    H128461   6.452   3.456   5.307
 9506TIP3    H228462   6.375   3.441   5.437
 9507TIP3   OH228463   1.371   4.383   5.674
 9507TIP3    H128464   1.353   4.470   5.638
 9507TIP3    H228465   1.286   4.339   5.674
 9508TIP3   OH228466   6.024   5.482   5.179
 9508TIP3    H128467   6.057   5.571   5.185
 9508TIP3    H228468   6.093   5.429   5.221
 9509TIP3   OH228469   1.605   1.244   5.176
 9509TIP3    H128470   1.568   1.238   5.088
 9509TIP3    H228471   1.597   1.156   5.211
 9510TIP3   OH228472   6.928   7.146   0.676
 9510TIP3    H128473   6.897   7.235   0.665
 9510TIP3    H228474   6.880   7.113   0.753
 9511TIP3   OH228475   0.421   7.009   0.556
 9511TIP3    H128476   0.338   6.984   0.597
 9511TIP3    H228477   0.457   7.077   0.613
 9512TIP3   OH228478   1.463   4.513   5.903
 9512TIP3    H128479   1.429   4.454   5.836
 9512TIP3    H228480   1.420   4.485   5.984
 9513TIP3   OH228481   7.131   0.683   5.587
 9513TIP3    H128482   7.220   0.720   5.595
 9513TIP3    H228483   7.127   0.616   5.654
 9514TIP3   OH228484   3.609   1.524   1.013
 9514TIP3    H128485   3.672   1.517   0.940
 9514TIP3    H228486   3.664   1.538   1.090
 9515TIP3   OH228487   1.187   7.351   2.682
 9515TIP3    H128488   1.103   7.308   2.696
 9515TIP3    H228489   1.167   7.444   2.678
 9516TIP3   OH228490   1.351   1.446   6.548
 9516TIP3    H128491   1.367   1.539   6.563
 9516TIP3    H228492   1.279   1.444   6.485
 9517TIP3   OH228493   5.421   1.674   5.777
 9517TIP3    H128494   5.351   1.627   5.824
 9517TIP3    H228495   5.408   1.651   5.685
 9518TIP3   OH228496   0.204   7.414   4.675
 9518TIP3    H128497   0.217   7.396   4.768
 9518TIP3    H228498   0.282   7.379   4.633
 9519TIP3   OH228499   5.376   0.387   4.886
 9519TIP3    H128500   5.367   0.294   4.866
 9519TIP3    H228501   5.286   0.421   4.886
 9520TIP3   OH228502   4.920   3.444   0.322
 9520TIP3    H128503   4.864   3.470   0.249
 9520TIP3    H228504   4.975   3.374   0.287
 9521TIP3   OH228505   5.443   6.484   4.364
 9521TIP3    H128506   5.378   6.550   4.390
 9521TIP3    H228507   5.444   6.422   4.437
 9522TIP3   OH228508   0.313   7.501   4.303
 9522TIP3    H128509   0.406   7.496   4.324
 9522TIP3    H228510   0.277   7.418   4.334
 9523TIP3   OH228511   0.251   3.260   2.687
 9523TIP3    H128512   0.217   3.171   2.684
 9523TIP3    H228513   0.173   3.316   2.683
 9524TIP3   OH228514   1.003   5.693   6.144
 9524TIP3    H128515   0.936   5.733   6.199
 9524TIP3    H228516   1.025   5.611   6.189
 9525TIP3   OH228517   2.669   7.664   3.251
 9525TIP3    H128518   2.596   7.610   3.280
 9525TIP3    H228519   2.719   7.682   3.331
 9526TIP3   OH228520   5.886   5.313   1.240
 9526TIP3    H128521   5.976   5.303   1.270
 9526TIP3    H228522   5.893   5.345   1.151
 9527TIP3   OH228523   6.517   3.958   6.235
 9527TIP3    H128524   6.479   3.878   6.269
 9527TIP3    H228525   6.471   3.974   6.153
 9528TIP3   OH228526   6.182   6.313   1.809
 9528TIP3    H128527   6.229   6.310   1.726
 9528TIP3    H228528   6.090   6.323   1.784
 9529TIP3   OH228529   2.828   3.356   4.445
 9529TIP3    H128530   2.747   3.305   4.439
 9529TIP3    H228531   2.897   3.295   4.420
 9530TIP3   OH228532   2.323   2.657   4.242
 9530TIP3    H128533   2.292   2.686   4.156
 9530TIP3    H228534   2.260   2.693   4.304
 9531TIP3   OH228535   0.062   3.475   5.640
 9531TIP3    H128536  -0.010   3.438   5.589
 9531TIP3    H228537   0.063   3.568   5.618
 9532TIP3   OH228538   8.159   0.052   5.205
 9532TIP3    H128539   8.095   0.076   5.138
 9532TIP3    H228540   8.241   0.043   5.157
 9533TIP3   OH228541   5.194   3.764   0.786
 9533TIP3    H128542   5.153   3.745   0.871
 9533TIP3    H228543   5.126   3.810   0.737
 9534TIP3   OH228544   2.441   2.176   3.618
 9534TIP3    H128545   2.423   2.086   3.590
 9534TIP3    H228546   2.502   2.210   3.553
 9535TIP3   OH228547   0.915   0.631   1.005
 9535TIP3    H128548   0.932   0.718   1.042
 9535TIP3    H228549   0.949   0.635   0.916
 9536TIP3   OH228550   0.043   4.022   4.415
 9536TIP3    H128551  -0.022   4.078   4.372
 9536TIP3    H228552   0.110   4.083   4.447
 9537TIP3   OH228553   7.819   7.709   3.380
 9537TIP3    H128554   7.786   7.687   3.467
 9537TIP3    H228555   7.741   7.709   3.325
 9538TIP3   OH228556   7.299   0.378   0.988
 9538TIP3    H128557   7.394   0.367   0.980
 9538TIP3    H228558   7.277   0.338   1.072
 9539TIP3   OH228559   5.076   1.281   1.525
 9539TIP3    H128560   5.100   1.355   1.580
 9539TIP3    H228561   5.078   1.316   1.436
 9540TIP3   OH228562   5.302   1.613   5.533
 9540TIP3    H128563   5.332   1.685   5.477
 9540TIP3    H228564   5.226   1.577   5.488
 9541TIP3   OH228565   2.796   7.166   3.980
 9541TIP3    H128566   2.872   7.180   4.037
 9541TIP3    H228567   2.728   7.223   4.016
 9542TIP3   OH228568   7.448   7.447   2.938
 9542TIP3    H128569   7.365   7.400   2.938
 9542TIP3    H228570   7.512   7.383   2.907
 9543TIP3   OH228571   5.361   7.267   3.252
 9543TIP3    H128572   5.382   7.360   3.263
 9543TIP3    H228573   5.338   7.258   3.159
 9544TIP3   OH228574   4.597   7.608   1.805
 9544TIP3    H128575   4.634   7.561   1.731
 9544TIP3    H228576   4.598   7.545   1.877
 9545TIP3   OH228577   7.833   7.542   4.771
 9545TIP3    H128578   7.880   7.618   4.806
 9545TIP3    H228579   7.742   7.555   4.798
 9546TIP3   OH228580   4.250   5.759   1.327
 9546TIP3    H128581   4.310   5.830   1.302
 9546TIP3    H228582   4.163   5.791   1.300
 9547TIP3   OH228583   6.606   5.857   6.366
 9547TIP3    H128584   6.602   5.829   6.275
 9547TIP3    H228585   6.540   5.803   6.411
 9548TIP3   OH228586   0.646   5.858   2.281
 9548TIP3    H128587   0.672   5.908   2.204
 9548TIP3    H228588   0.594   5.786   2.246
 9549TIP3   OH228589   1.972   5.196   6.392
 9549TIP3    H128590   2.059   5.187   6.352
 9549TIP3    H228591   1.980   5.156   6.478
 9550TIP3   OH228592   1.497   3.298   4.335
 9550TIP3    H128593   1.512   3.309   4.429
 9550TIP3    H228594   1.522   3.382   4.297
 9551TIP3   OH228595   1.684   1.611   4.964
 9551TIP3    H128596   1.699   1.700   4.931
 9551TIP3    H228597   1.628   1.570   4.898
 9552TIP3   OH228598   1.095   7.522   6.324
 9552TIP3    H128599   1.179   7.551   6.291
 9552TIP3    H228600   1.114   7.488   6.412
 9553TIP3   OH228601   3.234   2.505   2.424
 9553TIP3    H128602   3.290   2.467   2.492
 9553TIP3    H228603   3.209   2.431   2.368
 9554TIP3   OH228604   5.089   5.128   4.904
 9554TIP3    H128605   5.079   5.152   4.996
 9554TIP3    H228606   5.084   5.033   4.903
 9555TIP3   OH228607   3.655   0.486   6.725
 9555TIP3    H128608   3.731   0.471   6.780
 9555TIP3    H228609   3.586   0.514   6.785
 9556TIP3   OH228610   0.795   1.973   5.101
 9556TIP3    H128611   0.848   1.901   5.136
 9556TIP3    H228612   0.722   1.931   5.057
 9557TIP3   OH228613   1.568   4.333   3.741
 9557TIP3    H128614   1.592   4.290   3.659
 9557TIP3    H228615   1.500   4.277   3.778
 9558TIP3   OH228616   0.706   6.908   6.029
 9558TIP3    H128617   0.715   6.901   5.934
 9558TIP3    H228618   0.670   6.823   6.055
 9559TIP3   OH228619   7.180   6.084   1.028
 9559TIP3    H128620   7.266   6.054   0.996
 9559TIP3    H228621   7.147   6.011   1.080
 9560TIP3   OH228622   0.371   6.356   1.297
 9560TIP3    H128623   0.395   6.344   1.389
 9560TIP3    H228624   0.276   6.372   1.299
 9561TIP3   OH228625   4.959   5.400   2.548
 9561TIP3    H128626   4.995   5.388   2.636
 9561TIP3    H228627   4.994   5.327   2.498
 9562TIP3   OH228628   7.112   0.783   5.937
 9562TIP3    H128629   7.168   0.852   5.972
 9562TIP3    H228630   7.024   0.819   5.940
 9563TIP3   OH228631   6.961   2.354   6.462
 9563TIP3    H128632   6.891   2.340   6.526
 9563TIP3    H228633   7.015   2.276   6.469
 9564TIP3   OH228634   4.631   0.745   1.041
 9564TIP3    H128635   4.640   0.688   0.964
 9564TIP3    H228636   4.544   0.783   1.033
 9565TIP3   OH228637   1.589   3.973   3.958
 9565TIP3    H128638   1.666   4.028   3.973
 9565TIP3    H228639   1.612   3.919   3.883
 9566TIP3   OH228640   7.718   5.859   5.779
 9566TIP3    H128641   7.717   5.768   5.810
 9566TIP3    H228642   7.697   5.853   5.686
 9567TIP3   OH228643   5.487   5.179   1.881
 9567TIP3    H128644   5.538   5.252   1.917
 9567TIP3    H228645   5.533   5.154   1.801
 9568TIP3   OH228646   2.087   1.102   5.000
 9568TIP3    H128647   2.050   1.043   5.066
 9568TIP3    H228648   2.026   1.176   4.997
 9569TIP3   OH228649   6.748   1.975   1.379
 9569TIP3    H128650   6.679   2.028   1.338
 9569TIP3    H228651   6.738   1.991   1.473
 9570TIP3   OH228652   4.722   7.639   2.608
 9570TIP3    H128653   4.751   7.566   2.664
 9570TIP3    H228654   4.649   7.678   2.655
 9571TIP3   OH228655   1.662   4.748   0.396
 9571TIP3    H128656   1.681   4.836   0.430
 9571TIP3    H228657   1.738   4.696   0.421
 9572TIP3   OH228658   1.316   4.092   4.028
 9572TIP3    H128659   1.225   4.117   4.014
 9572TIP3    H228660   1.352   4.084   3.940
 9573TIP3   OH228661   4.970   4.172   3.168
 9573TIP3    H128662   4.996   4.181   3.077
 9573TIP3    H228663   4.890   4.224   3.176
 9574TIP3   OH228664   7.381   2.976   0.416
 9574TIP3    H128665   7.428   3.059   0.407
 9574TIP3    H228666   7.342   2.979   0.503
 9575TIP3   OH228667   0.529   5.037   4.160
 9575TIP3    H128668   0.464   5.064   4.225
 9575TIP3    H228669   0.573   5.118   4.135
 9576TIP3   OH228670   6.751   1.076   2.226
 9576TIP3    H128671   6.785   1.163   2.246
 9576TIP3    H228672   6.719   1.083   2.136
 9577TIP3   OH228673   6.807   1.494   1.263
 9577TIP3    H128674   6.794   1.408   1.303
 9577TIP3    H228675   6.880   1.482   1.203
 9578TIP3   OH228676   3.015   7.366   0.418
 9578TIP3    H128677   2.967   7.307   0.361
 9578TIP3    H228678   3.001   7.331   0.506
 9579TIP3   OH228679   0.813   1.660   1.539
 9579TIP3    H128680   0.902   1.643   1.510
 9579TIP3    H228681   0.775   1.573   1.551
 9580TIP3   OH228682   3.475   4.196   5.527
 9580TIP3    H128683   3.406   4.138   5.495
 9580TIP3    H228684   3.538   4.137   5.569
 9581TIP3   OH228685   1.577   6.571   0.181
 9581TIP3    H128686   1.658   6.574   0.231
 9581TIP3    H228687   1.515   6.523   0.237
 9582TIP3   OH228688   1.184   6.728   1.517
 9582TIP3    H128689   1.138   6.645   1.505
 9582TIP3    H228690   1.117   6.795   1.505
 9583TIP3   OH228691   0.391   4.422   6.393
 9583TIP3    H128692   0.315   4.444   6.340
 9583TIP3    H228693   0.457   4.394   6.329
 9584TIP3   OH228694   5.280   4.955   6.504
 9584TIP3    H128695   5.290   4.860   6.511
 9584TIP3    H228696   5.319   4.977   6.420
 9585TIP3   OH228697   0.247   0.628   3.494
 9585TIP3    H128698   0.175   0.641   3.432
 9585TIP3    H228699   0.301   0.559   3.455
 9586TIP3   OH228700   2.470   3.028   1.895
 9586TIP3    H128701   2.488   3.052   1.804
 9586TIP3    H228702   2.542   2.970   1.920
 9587TIP3   OH228703   4.935   3.632   0.514
 9587TIP3    H128704   4.927   3.580   0.434
 9587TIP3    H228705   4.854   3.618   0.561
 9588TIP3   OH228706   2.681   3.412   3.978
 9588TIP3    H128707   2.728   3.372   3.906
 9588TIP3    H228708   2.629   3.341   4.016
 9589TIP3   OH228709   2.883   3.382   2.958
 9589TIP3    H128710   2.965   3.421   2.989
 9589TIP3    H228711   2.904   3.290   2.943
 9590TIP3   OH228712   1.855   2.804   2.784
 9590TIP3    H128713   1.881   2.713   2.774
 9590TIP3    H228714   1.766   2.808   2.749
 9591TIP3   OH228715   7.622   3.080   3.402
 9591TIP3    H128716   7.647   3.072   3.310
 9591TIP3    H228717   7.533   3.047   3.406
 9592TIP3   OH228718   0.282   6.579   4.248
 9592TIP3    H128719   0.220   6.620   4.187
 9592TIP3    H228720   0.295   6.646   4.316
 9593TIP3   OH228721   3.845   6.439   4.682
 9593TIP3    H128722   3.753   6.465   4.677
 9593TIP3    H228723   3.872   6.465   4.770
 9594TIP3   OH228724   2.809   1.303   6.328
 9594TIP3    H128725   2.793   1.304   6.423
 9594TIP3    H228726   2.789   1.392   6.299
 9595TIP3   OH228727   1.102   5.966   2.729
 9595TIP3    H128728   1.018   6.007   2.751
 9595TIP3    H228729   1.096   5.949   2.635
 9596TIP3   OH228730   5.848   6.064   0.950
 9596TIP3    H128731   5.762   6.105   0.962
 9596TIP3    H228732   5.883   6.056   1.039
 9597TIP3   OH228733   7.339   7.444   5.866
 9597TIP3    H128734   7.418   7.394   5.847
 9597TIP3    H228735   7.270   7.399   5.816
 9598TIP3   OH228736   2.390  -0.007   4.743
 9598TIP3    H128737   2.358   0.069   4.791
 9598TIP3    H228738   2.455   0.030   4.682
 9599TIP3   OH228739   6.055   6.577   2.034
 9599TIP3    H128740   6.073   6.670   2.047
 9599TIP3    H228741   6.093   6.556   1.949
 9600TIP3   OH228742   4.208   7.548   4.337
 9600TIP3    H128743   4.302   7.531   4.332
 9600TIP3    H228744   4.191   7.563   4.430
 9601TIP3   OH228745   6.684   3.420   3.897
 9601TIP3    H128746   6.767   3.441   3.853
 9601TIP3    H228747   6.704   3.346   3.953
 9602TIP3   OH228748   4.182   6.415   5.102
 9602TIP3    H128749   4.272   6.386   5.084
 9602TIP3    H228750   4.157   6.368   5.181
 9603TIP3   OH228751   4.084   0.237   0.404
 9603TIP3    H128752   4.053   0.291   0.477
 9603TIP3    H228753   4.053   0.149   0.424
 9604TIP3   OH228754   6.933   6.852   4.423
 9604TIP3    H128755   6.955   6.773   4.471
 9604TIP3    H228756   6.840   6.865   4.440
 9605TIP3   OH228757   2.178   0.087   0.325
 9605TIP3    H128758   2.228   0.105   0.246
 9605TIP3    H228759   2.229   0.019   0.370
 9606TIP3   OH228760   6.505   7.694   1.021
 9606TIP3    H128761   6.486   7.602   0.999
 9606TIP3    H228762   6.523   7.693   1.115
 9607TIP3   OH228763   3.241   6.525   2.588
 9607TIP3    H128764   3.281   6.496   2.506
 9607TIP3    H228765   3.314   6.528   2.650
 9608TIP3   OH228766   8.213   1.098   4.403
 9608TIP3    H128767   8.118   1.109   4.413
 9608TIP3    H228768   8.251   1.157   4.467
 9609TIP3   OH228769   3.756   2.310   2.958
 9609TIP3    H128770   3.776   2.360   2.878
 9609TIP3    H228771   3.778   2.220   2.936
 9610TIP3   OH228772   7.331   1.379   5.870
 9610TIP3    H128773   7.366   1.326   5.798
 9610TIP3    H228774   7.328   1.468   5.835
 9611TIP3   OH228775   8.000   2.455   1.049
 9611TIP3    H128776   8.017   2.544   1.018
 9611TIP3    H228777   8.075   2.404   1.018
 9612TIP3   OH228778   5.063   1.104   5.498
 9612TIP3    H128779   5.038   1.012   5.497
 9612TIP3    H228780   5.158   1.103   5.505
 9613TIP3   OH228781   5.403   6.836   4.292
 9613TIP3    H128782   5.483   6.872   4.253
 9613TIP3    H228783   5.358   6.793   4.219
 9614TIP3   OH228784   0.381   4.856   5.163
 9614TIP3    H128785   0.363   4.762   5.170
 9614TIP3    H228786   0.349   4.880   5.077
 9615TIP3   OH228787   1.127   0.045   5.239
 9615TIP3    H128788   1.074   0.111   5.284
 9615TIP3    H228789   1.206   0.038   5.292
 9616TIP3   OH228790   1.528   7.674   6.387
 9616TIP3    H128791   1.565   7.756   6.421
 9616TIP3    H228792   1.534   7.613   6.460
 9617TIP3   OH228793   7.192   1.936   3.114
 9617TIP3    H128794   7.286   1.934   3.134
 9617TIP3    H228795   7.186   1.901   3.025
 9618TIP3   OH228796   0.166   3.781   2.440
 9618TIP3    H128797   0.116   3.733   2.374
 9618TIP3    H228798   0.214   3.713   2.487
 9619TIP3   OH228799   4.137   7.698   0.323
 9619TIP3    H128800   4.175   7.786   0.334
 9619TIP3    H228801   4.060   7.711   0.268
 9620TIP3   OH228802   6.411   1.027   2.856
 9620TIP3    H128803   6.321   1.055   2.872
 9620TIP3    H228804   6.457   1.041   2.939
 9621TIP3   OH228805   6.369   3.000   0.432
 9621TIP3    H128806   6.437   3.053   0.474
 9621TIP3    H228807   6.358   3.039   0.345
 9622TIP3   OH228808   5.184   2.767   1.730
 9622TIP3    H128809   5.262   2.819   1.711
 9622TIP3    H228810   5.214   2.702   1.794
 9623TIP3   OH228811   1.513   3.991   1.580
 9623TIP3    H128812   1.482   3.903   1.597
 9623TIP3    H228813   1.596   3.997   1.627
 9624TIP3   OH228814   3.666   4.675   3.658
 9624TIP3    H128815   3.734   4.644   3.717
 9624TIP3    H228816   3.695   4.648   3.571
 9625TIP3   OH228817   4.799   0.651   4.630
 9625TIP3    H128818   4.729   0.588   4.644
 9625TIP3    H228819   4.879   0.603   4.651
 9626TIP3   OH228820   7.609   3.886   4.633
 9626TIP3    H128821   7.616   3.978   4.656
 9626TIP3    H228822   7.530   3.856   4.680
 9627TIP3   OH228823   2.373   6.365   0.283
 9627TIP3    H128824   2.438   6.424   0.245
 9627TIP3    H228825   2.302   6.422   0.312
 9628TIP3   OH228826   3.282   4.831   4.796
 9628TIP3    H128827   3.255   4.741   4.777
 9628TIP3    H228828   3.349   4.822   4.863
 9629TIP3   OH228829   7.203   1.157   2.896
 9629TIP3    H128830   7.267   1.099   2.853
 9629TIP3    H228831   7.193   1.119   2.983
 9630TIP3   OH228832   7.471   7.781   1.473
 9630TIP3    H128833   7.402   7.841   1.446
 9630TIP3    H228834   7.457   7.769   1.567
 9631TIP3   OH228835   7.176   2.302   0.090
 9631TIP3    H128836   7.246   2.238   0.104
 9631TIP3    H228837   7.207   2.356   0.018
 9632TIP3   OH228838   7.182   6.805   4.558
 9632TIP3    H128839   7.138   6.890   4.569
 9632TIP3    H228840   7.209   6.804   4.466
 9633TIP3   OH228841   1.809   3.308   3.367
 9633TIP3    H128842   1.716   3.287   3.357
 9633TIP3    H228843   1.811   3.403   3.382
 9634TIP3   OH228844   7.875   1.432   0.291
 9634TIP3    H128845   7.969   1.448   0.289
 9634TIP3    H228846   7.867   1.337   0.302
 9635TIP3   OH228847   7.891   7.463   3.907
 9635TIP3    H128848   7.880   7.554   3.879
 9635TIP3    H228849   7.832   7.413   3.851
 9636TIP3   OH228850   0.966   1.698   6.427
 9636TIP3    H128851   1.001   1.786   6.426
 9636TIP3    H228852   0.885   1.704   6.377
 9637TIP3   OH228853   2.875   4.251   2.709
 9637TIP3    H128854   2.874   4.223   2.617
 9637TIP3    H228855   2.786   4.281   2.726
 9638TIP3   OH228856   1.226   3.707   6.615
 9638TIP3    H128857   1.224   3.691   6.521
 9638TIP3    H228858   1.170   3.784   6.628
 9639TIP3   OH228859   3.322   4.588   4.360
 9639TIP3    H128860   3.248   4.589   4.420
 9639TIP3    H228861   3.399   4.593   4.417
 9640TIP3   OH228862   6.289   3.977   3.319
 9640TIP3    H128863   6.227   3.909   3.292
 9640TIP3    H228864   6.234   4.048   3.352
 9641TIP3   OH228865   2.427   4.977   5.238
 9641TIP3    H128866   2.422   5.041   5.308
 9641TIP3    H228867   2.507   4.999   5.190
 9642TIP3   OH228868   5.766   6.243   0.105
 9642TIP3    H128869   5.689   6.224   0.158
 9642TIP3    H228870   5.826   6.171   0.122
 9643TIP3   OH228871   7.046   7.212   1.098
 9643TIP3    H128872   6.995   7.270   1.154
 9643TIP3    H228873   7.130   7.257   1.087
 9644TIP3   OH228874   2.197   5.603   2.958
 9644TIP3    H128875   2.186   5.673   2.894
 9644TIP3    H228876   2.270   5.632   3.013
 9645TIP3   OH228877   3.784   2.111   0.535
 9645TIP3    H128878   3.764   2.085   0.445
 9645TIP3    H228879   3.806   2.029   0.579
 9646TIP3   OH228880   6.739   0.084   5.686
 9646TIP3    H128881   6.795   0.061   5.612
 9646TIP3    H228882   6.671   0.016   5.686
 9647TIP3   OH228883   8.082   1.430   4.086
 9647TIP3    H128884   8.018   1.360   4.076
 9647TIP3    H228885   8.162   1.396   4.046
 9648TIP3   OH228886   0.429   6.502   5.527
 9648TIP3    H128887   0.339   6.490   5.559
 9648TIP3    H228888   0.480   6.438   5.576
 9649TIP3   OH228889   7.168   3.485   4.197
 9649TIP3    H128890   7.245   3.430   4.186
 9649TIP3    H228891   7.196   3.572   4.167
 9650TIP3   OH228892   3.121   2.230   2.323
 9650TIP3    H128893   3.096   2.142   2.296
 9650TIP3    H228894   3.093   2.236   2.414
 9651TIP3   OH228895   5.316   6.436   0.708
 9651TIP3    H128896   5.396   6.448   0.656
 9651TIP3    H228897   5.275   6.359   0.671
 9652TIP3   OH228898   7.797   2.264   3.906
 9652TIP3    H128899   7.813   2.207   3.831
 9652TIP3    H228900   7.884   2.291   3.935
 9653TIP3   OH228901   4.807   2.981   2.782
 9653TIP3    H128902   4.790   2.921   2.709
 9653TIP3    H228903   4.902   2.994   2.781
 9654TIP3   OH228904   3.073   3.800   4.177
 9654TIP3    H128905   3.041   3.717   4.213
 9654TIP3    H228906   3.005   3.826   4.115
 9655TIP3   OH228907   1.520   6.691   3.054
 9655TIP3    H128908   1.488   6.614   3.008
 9655TIP3    H228909   1.442   6.732   3.091
 9656TIP3   OH228910   6.829   5.440   5.906
 9656TIP3    H128911   6.739   5.418   5.927
 9656TIP3    H228912   6.823   5.485   5.822
 9657TIP3   OH228913   7.282   0.524   1.786
 9657TIP3    H128914   7.267   0.573   1.705
 9657TIP3    H228915   7.245   0.437   1.768
 9658TIP3   OH228916   3.285   7.554   5.519
 9658TIP3    H128917   3.290   7.605   5.600
 9658TIP3    H228918   3.227   7.605   5.462
 9659TIP3   OH228919   3.036   6.078   4.429
 9659TIP3    H128920   3.060   6.004   4.485
 9659TIP3    H228921   3.098   6.074   4.356
 9660TIP3   OH228922   5.880   5.560   2.753
 9660TIP3    H128923   5.841   5.611   2.682
 9660TIP3    H228924   5.817   5.567   2.825
 9661TIP3   OH228925   0.617   5.536   2.232
 9661TIP3    H128926   0.604   5.464   2.170
 9661TIP3    H228927   0.712   5.540   2.245
 9662TIP3   OH228928   5.682   6.051   3.518
 9662TIP3    H128929   5.776   6.043   3.536
 9662TIP3    H228930   5.649   6.104   3.590
 9663TIP3   OH228931   1.048   2.814   5.673
 9663TIP3    H128932   1.126   2.861   5.643
 9663TIP3    H228933   1.027   2.754   5.601
 9664TIP3   OH228934   4.019   3.233   2.252
 9664TIP3    H128935   3.992   3.214   2.342
 9664TIP3    H228936   4.061   3.153   2.222
 9665TIP3   OH228937   3.128   0.126   2.310
 9665TIP3    H128938   3.078   0.045   2.322
 9665TIP3    H228939   3.214   0.097   2.281
 9666TIP3   OH228940   0.728   4.136   1.131
 9666TIP3    H128941   0.699   4.100   1.047
 9666TIP3    H228942   0.657   4.195   1.157
 9667TIP3   OH228943   7.318   1.636   3.179
 9667TIP3    H128944   7.382   1.706   3.193
 9667TIP3    H228945   7.245   1.658   3.237
 9668TIP3   OH228946   8.289   0.793   5.593
 9668TIP3    H128947   8.196   0.783   5.614
 9668TIP3    H228948   8.304   0.888   5.594
 9669TIP3   OH228949   1.150   3.101   5.176
 9669TIP3    H128950   1.162   3.017   5.220
 9669TIP3    H228951   1.164   3.167   5.244
 9670TIP3   OH228952   0.291   1.160   3.215
 9670TIP3    H128953   0.325   1.169   3.126
 9670TIP3    H228954   0.206   1.117   3.204
 9671TIP3   OH228955   6.297   3.643   4.488
 9671TIP3    H128956   6.296   3.617   4.396
 9671TIP3    H228957   6.231   3.713   4.494
 9672TIP3   OH228958   7.971   2.903   1.727
 9672TIP3    H128959   8.029   2.954   1.670
 9672TIP3    H228960   7.887   2.901   1.681
 9673TIP3   OH228961   6.630   1.217   2.494
 9673TIP3    H128962   6.620   1.233   2.588
 9673TIP3    H228963   6.590   1.131   2.480
 9674TIP3   OH228964   7.151   6.825   1.943
 9674TIP3    H128965   7.063   6.788   1.934
 9674TIP3    H228966   7.144   6.885   2.017
 9675TIP3   OH228967   6.678   6.212   4.035
 9675TIP3    H128968   6.663   6.117   4.033
 9675TIP3    H228969   6.683   6.233   4.128
 9676TIP3   OH228970   2.183   2.334   3.561
 9676TIP3    H128971   2.203   2.406   3.500
 9676TIP3    H228972   2.268   2.294   3.579
 9677TIP3   OH228973   0.711   3.868   1.732
 9677TIP3    H128974   0.623   3.852   1.764
 9677TIP3    H228975   0.766   3.869   1.810
 9678TIP3   OH228976   7.290   2.799   6.553
 9678TIP3    H128977   7.245   2.731   6.503
 9678TIP3    H228978   7.226   2.829   6.617
 9679TIP3   OH228979   2.935   2.268   2.112
 9679TIP3    H128980   2.910   2.356   2.139
 9679TIP3    H228981   2.999   2.240   2.179
 9680TIP3   OH228982   3.418   7.043   5.723
 9680TIP3    H128983   3.397   7.119   5.777
 9680TIP3    H228984   3.448   7.080   5.640
 9681TIP3   OH228985   4.302   0.257   5.439
 9681TIP3    H128986   4.319   0.270   5.346
 9681TIP3    H228987   4.208   0.236   5.443
 9682TIP3   OH228988   7.551   0.716   3.912
 9682TIP3    H128989   7.511   0.667   3.984
 9682TIP3    H228990   7.600   0.651   3.862
 9683TIP3   OH228991   0.834   5.258   1.275
 9683TIP3    H128992   0.880   5.199   1.335
 9683TIP3    H228993   0.878   5.342   1.286
 9684TIP3   OH228994   6.865   3.740   5.945
 9684TIP3    H128995   6.796   3.807   5.944
 9684TIP3    H228996   6.851   3.692   6.027
 9685TIP3   OH228997   7.340   4.686   5.128
 9685TIP3    H128998   7.373   4.736   5.053
 9685TIP3    H228999   7.410   4.692   5.194
 9686TIP3   OH229000   7.677   3.165   4.779
 9686TIP3    H129001   7.679   3.261   4.776
 9686TIP3    H229002   7.750   3.141   4.837
 9687TIP3   OH229003   7.797   6.730   5.604
 9687TIP3    H129004   7.823   6.658   5.661
 9687TIP3    H229005   7.865   6.796   5.616
 9688TIP3   OH229006   3.916   7.507   3.803
 9688TIP3    H129007   3.916   7.590   3.851
 9688TIP3    H229008   3.832   7.466   3.825
 9689TIP3   OH229009   3.893   1.148   4.582
 9689TIP3    H129010   3.968   1.134   4.641
 9689TIP3    H229011   3.910   1.090   4.508
 9690TIP3   OH229012   0.454   5.508   4.921
 9690TIP3    H129013   0.539   5.488   4.883
 9690TIP3    H229014   0.440   5.601   4.900
 9691TIP3   OH229015   2.079   1.666   3.820
 9691TIP3    H129016   2.052   1.711   3.900
 9691TIP3    H229017   2.172   1.645   3.835
 9692TIP3   OH229018   7.309   3.986   5.417
 9692TIP3    H129019   7.267   3.915   5.369
 9692TIP3    H229020   7.241   4.020   5.475
 9693TIP3   OH229021   2.859   6.564   2.604
 9693TIP3    H129022   2.824   6.634   2.549
 9693TIP3    H229023   2.787   6.502   2.612
 9694TIP3   OH229024   5.173   6.218   4.397
 9694TIP3    H129025   5.217   6.266   4.467
 9694TIP3    H229026   5.109   6.280   4.363
 9695TIP3   OH229027   4.935   5.471   0.489
 9695TIP3    H129028   4.942   5.538   0.420
 9695TIP3    H229029   4.841   5.456   0.498
 9696TIP3   OH229030   2.457   7.040   6.069
 9696TIP3    H129031   2.519   6.970   6.090
 9696TIP3    H229032   2.449   7.090   6.150
 9697TIP3   OH229033   0.717   0.737   5.192
 9697TIP3    H129034   0.722   0.754   5.286
 9697TIP3    H229035   0.693   0.644   5.185
 9698TIP3   OH229036   3.079   5.871   5.618
 9698TIP3    H129037   3.011   5.892   5.554
 9698TIP3    H229038   3.157   5.851   5.566
 9699TIP3   OH229039   3.114   1.905   4.180
 9699TIP3    H129040   3.116   1.885   4.273
 9699TIP3    H229041   3.051   1.842   4.144
 9700TIP3   OH229042   1.559   4.147   2.335
 9700TIP3    H129043   1.615   4.165   2.410
 9700TIP3    H229044   1.544   4.053   2.338
 9701TIP3   OH229045   5.420   0.877   3.728
 9701TIP3    H129046   5.326   0.878   3.711
 9701TIP3    H229047   5.458   0.927   3.656
 9702TIP3   OH229048   6.930   7.327   5.541
 9702TIP3    H129049   6.872   7.367   5.476
 9702TIP3    H229050   6.870   7.295   5.609
 9703TIP3   OH229051   5.661   2.552   6.081
 9703TIP3    H129052   5.628   2.536   5.993
 9703TIP3    H229053   5.604   2.620   6.116
 9704TIP3   OH229054   3.920   2.621   5.493
 9704TIP3    H129055   3.883   2.541   5.455
 9704TIP3    H229056   3.953   2.594   5.578
 9705TIP3   OH229057   6.459   5.746   3.843
 9705TIP3    H129058   6.505   5.680   3.895
 9705TIP3    H229059   6.366   5.733   3.864
 9706TIP3   OH229060   0.737   6.615   5.665
 9706TIP3    H129061   0.735   6.600   5.570
 9706TIP3    H229062   0.785   6.541   5.700
 9707TIP3   OH229063   1.410   7.662   2.510
 9707TIP3    H129064   1.467   7.597   2.470
 9707TIP3    H229065   1.470   7.722   2.555
 9708TIP3   OH229066   4.793   4.023   0.370
 9708TIP3    H129067   4.851   3.963   0.323
 9708TIP3    H229068   4.852   4.085   0.413
 9709TIP3   OH229069   7.570   1.926   3.936
 9709TIP3    H129070   7.637   1.993   3.945
 9709TIP3    H229071   7.589   1.884   3.852
 9710TIP3   OH229072   3.945   3.421   3.840
 9710TIP3    H129073   3.874   3.358   3.851
 9710TIP3    H229074   3.987   3.426   3.926
 9711TIP3   OH229075   6.550   1.270   3.649
 9711TIP3    H129076   6.568   1.319   3.729
 9711TIP3    H229077   6.455   1.277   3.638
 9712TIP3   OH229078   1.392   1.252   2.715
 9712TIP3    H129079   1.438   1.250   2.799
 9712TIP3    H229080   1.305   1.218   2.734
 9713TIP3   OH229081   3.606   0.284   1.912
 9713TIP3    H129082   3.675   0.330   1.863
 9713TIP3    H229083   3.556   0.238   1.844
 9714TIP3   OH229084   0.229   2.809   1.532
 9714TIP3    H129085   0.298   2.875   1.527
 9714TIP3    H229086   0.193   2.819   1.620
 9715TIP3   OH229087   3.804   1.461   4.870
 9715TIP3    H129088   3.831   1.536   4.923
 9715TIP3    H229089   3.822   1.487   4.780
 9716TIP3   OH229090   0.443   0.774   0.506
 9716TIP3    H129091   0.438   0.691   0.459
 9716TIP3    H229092   0.483   0.751   0.591
 9717TIP3   OH229093   1.747   4.522   5.397
 9717TIP3    H129094   1.667   4.538   5.348
 9717TIP3    H229095   1.761   4.602   5.447
 9718TIP3   OH229096   1.638   2.060   3.107
 9718TIP3    H129097   1.610   2.110   3.031
 9718TIP3    H229098   1.646   1.970   3.076
 9719TIP3   OH229099   0.579   2.466   0.859
 9719TIP3    H129100   0.508   2.454   0.923
 9719TIP3    H229101   0.544   2.431   0.777
 9720TIP3   OH229102   0.777   1.221   3.527
 9720TIP3    H129103   0.779   1.134   3.568
 9720TIP3    H229104   0.841   1.272   3.576
 9721TIP3   OH229105   3.759   0.789   5.865
 9721TIP3    H129106   3.771   0.795   5.770
 9721TIP3    H229107   3.823   0.851   5.901
 9722TIP3   OH229108   5.882   5.334   3.535
 9722TIP3    H129109   5.956   5.383   3.572
 9722TIP3    H229110   5.907   5.242   3.543
 9723TIP3   OH229111   0.292   4.873   2.405
 9723TIP3    H129112   0.308   4.799   2.347
 9723TIP3    H229113   0.259   4.943   2.347
 9724TIP3   OH229114   4.836   4.227   5.576
 9724TIP3    H129115   4.753   4.198   5.612
 9724TIP3    H229116   4.901   4.166   5.611
 9725TIP3   OH229117   2.997   0.875   1.880
 9725TIP3    H129118   2.916   0.914   1.847
 9725TIP3    H229119   2.999   0.787   1.845
 9726TIP3   OH229120   6.599   5.860   1.651
 9726TIP3    H129121   6.692   5.883   1.646
 9726TIP3    H229122   6.572   5.892   1.737
 9727TIP3   OH229123   2.154   1.751   3.542
 9727TIP3    H129124   2.168   1.767   3.636
 9727TIP3    H229125   2.229   1.793   3.500
 9728TIP3   OH229126   8.054   4.236   4.018
 9728TIP3    H129127   8.122   4.182   3.978
 9728TIP3    H229128   8.077   4.325   3.992
 9729TIP3   OH229129   4.724   2.258   2.378
 9729TIP3    H129130   4.773   2.211   2.311
 9729TIP3    H229131   4.691   2.336   2.333
 9730TIP3   OH229132   1.091   2.821   0.675
 9730TIP3    H129133   1.120   2.876   0.602
 9730TIP3    H229134   1.005   2.855   0.698
 9731TIP3   OH229135   0.664   4.655   6.145
 9731TIP3    H129136   0.752   4.679   6.115
 9731TIP3    H229137   0.637   4.586   6.085
 9732TIP3   OH229138   2.286   3.783   6.333
 9732TIP3    H129139   2.367   3.807   6.287
 9732TIP3    H229140   2.216   3.821   6.280
 9733TIP3   OH229141   1.442   5.582   0.615
 9733TIP3    H129142   1.396   5.585   0.532
 9733TIP3    H229143   1.499   5.505   0.609
 9734TIP3   OH229144   1.280   2.688   0.528
 9734TIP3    H129145   1.207   2.736   0.568
 9734TIP3    H229146   1.352   2.751   0.529
 9735TIP3   OH229147   0.021   2.278   1.395
 9735TIP3    H129148   0.066   2.195   1.412
 9735TIP3    H229149   0.007   2.316   1.482
 9736TIP3   OH229150   5.681   2.776   0.068
 9736TIP3    H129151   5.672   2.682   0.079
 9736TIP3    H229152   5.764   2.787   0.021
 9737TIP3   OH229153   4.409   1.707   3.782
 9737TIP3    H129154   4.504   1.711   3.794
 9737TIP3    H229155   4.377   1.659   3.858
 9738TIP3   OH229156   6.260   0.490   4.184
 9738TIP3    H129157   6.178   0.483   4.135
 9738TIP3    H229158   6.236   0.533   4.266
 9739TIP3   OH229159   7.710   6.769   6.054
 9739TIP3    H129160   7.630   6.730   6.091
 9739TIP3    H229161   7.680   6.818   5.978
 9740TIP3   OH229162   2.685   7.130   2.227
 9740TIP3    H129163   2.650   7.213   2.257
 9740TIP3    H229164   2.693   7.139   2.132
 9741TIP3   OH229165   3.951   0.120   2.925
 9741TIP3    H129166   3.907   0.037   2.943
 9741TIP3    H229167   3.907   0.184   2.981
 9742TIP3   OH229168   8.086   1.183   1.113
 9742TIP3    H129169   8.048   1.266   1.139
 9742TIP3    H229170   8.011   1.126   1.095
 9743TIP3   OH229171   6.868   7.577   2.205
 9743TIP3    H129172   6.814   7.535   2.138
 9743TIP3    H229173   6.806   7.629   2.256
 9744TIP3   OH229174   2.340   6.887   4.333
 9744TIP3    H129175   2.360   6.815   4.394
 9744TIP3    H229176   2.305   6.956   4.388
 9745TIP3   OH229177   0.204   0.880   5.265
 9745TIP3    H129178   0.260   0.804   5.257
 9745TIP3    H229179   0.118   0.845   5.288
 9746TIP3   OH229180   0.922   0.560   3.336
 9746TIP3    H129181   0.884   0.565   3.249
 9746TIP3    H229182   0.863   0.501   3.384
 9747TIP3   OH229183   3.584   5.490   6.216
 9747TIP3    H129184   3.498   5.450   6.230
 9747TIP3    H229185   3.568   5.562   6.156
 9748TIP3   OH229186   7.523   2.365   4.183
 9748TIP3    H129187   7.507   2.422   4.258
 9748TIP3    H229188   7.543   2.425   4.111
 9749TIP3   OH229189   4.719   0.341   3.129
 9749TIP3    H129190   4.755   0.416   3.083
 9749TIP3    H229191   4.796   0.291   3.158
 9750TIP3   OH229192   2.514   2.635   1.240
 9750TIP3    H129193   2.584   2.590   1.287
 9750TIP3    H229194   2.434   2.610   1.287
 9751TIP3   OH229195   0.897   6.298   3.160
 9751TIP3    H129196   0.805   6.289   3.186
 9751TIP3    H229197   0.930   6.208   3.159
 9752TIP3   OH229198   4.919   3.208   3.670
 9752TIP3    H129199   4.904   3.296   3.636
 9752TIP3    H229200   4.906   3.151   3.594
 9753TIP3   OH229201   6.312   1.056   1.094
 9753TIP3    H129202   6.238   1.007   1.131
 9753TIP3    H229203   6.336   1.006   1.015
 9754TIP3   OH229204   0.545   1.455   0.192
 9754TIP3    H129205   0.544   1.529   0.253
 9754TIP3    H229206   0.453   1.429   0.183
 9755TIP3   OH229207   1.416   1.558   5.555
 9755TIP3    H129208   1.346   1.623   5.546
 9755TIP3    H229209   1.370   1.478   5.584
 9756TIP3   OH229210   1.925   1.020   3.209
 9756TIP3    H129211   1.914   1.079   3.284
 9756TIP3    H229212   1.862   0.950   3.223
 9757TIP3   OH229213   5.574   3.609   3.712
 9757TIP3    H129214   5.547   3.696   3.682
 9757TIP3    H229215   5.517   3.549   3.664
 9758TIP3   OH229216   5.144   0.782   6.317
 9758TIP3    H129217   5.103   0.814   6.397
 9758TIP3    H229218   5.228   0.827   6.314
 9759TIP3   OH229219   2.441   5.371   4.419
 9759TIP3    H129220   2.502   5.372   4.346
 9759TIP3    H229221   2.403   5.283   4.418
 9760TIP3   OH229222   7.366   7.651   3.095
 9760TIP3    H129223   7.280   7.672   3.058
 9760TIP3    H229224   7.397   7.577   3.042
 9761TIP3   OH229225   4.968   6.704   6.680
 9761TIP3    H129226   5.051   6.690   6.633
 9761TIP3    H229227   4.912   6.632   6.653
 9762TIP3   OH229228   0.436   6.871   1.577
 9762TIP3    H129229   0.376   6.814   1.626
 9762TIP3    H229230   0.491   6.811   1.528
 9763TIP3   OH229231   0.947   4.593   6.479
 9763TIP3    H129232   0.893   4.533   6.427
 9763TIP3    H229233   0.902   4.600   6.563
 9764TIP3   OH229234   5.569   0.740   4.273
 9764TIP3    H129235   5.631   0.675   4.305
 9764TIP3    H229236   5.556   0.717   4.181
 9765TIP3   OH229237   6.669   3.271   0.386
 9765TIP3    H129238   6.678   3.187   0.431
 9765TIP3    H229239   6.646   3.332   0.456
 9766TIP3   OH229240   6.397   2.555   2.454
 9766TIP3    H129241   6.312   2.514   2.437
 9766TIP3    H229242   6.460   2.485   2.439
 9767TIP3   OH229243   5.405   3.093   2.578
 9767TIP3    H129244   5.394   3.104   2.672
 9767TIP3    H229245   5.316   3.078   2.545
 9768TIP3   OH229246   3.641   2.749   4.096
 9768TIP3    H129247   3.603   2.700   4.169
 9768TIP3    H229248   3.569   2.757   4.034
 9769TIP3   OH229249   3.769   7.051   0.301
 9769TIP3    H129250   3.689   7.102   0.316
 9769TIP3    H229251   3.835   7.096   0.354
 9770TIP3   OH229252   5.688   1.212   4.473
 9770TIP3    H129253   5.648   1.296   4.450
 9770TIP3    H229254   5.630   1.146   4.436
 9771TIP3   OH229255   3.400   7.254   6.249
 9771TIP3    H129256   3.436   7.250   6.161
 9771TIP3    H229257   3.363   7.342   6.256
 9772TIP3   OH229258   3.183   3.417   5.588
 9772TIP3    H129259   3.132   3.344   5.552
 9772TIP3    H229260   3.274   3.398   5.562
 9773TIP3   OH229261   5.294   0.802   0.842
 9773TIP3    H129262   5.231   0.740   0.877
 9773TIP3    H229263   5.287   0.878   0.899
 9774TIP3   OH229264   2.645   2.798   6.021
 9774TIP3    H129265   2.722   2.819   6.075
 9774TIP3    H229266   2.583   2.869   6.040
 9775TIP3   OH229267   3.212   0.458   0.829
 9775TIP3    H129268   3.173   0.405   0.760
 9775TIP3    H229269   3.303   0.470   0.802
 9776TIP3   OH229270   8.114   6.987   2.838
 9776TIP3    H129271   8.206   7.006   2.855
 9776TIP3    H229272   8.075   7.072   2.815
 9777TIP3   OH229273   0.402   1.092   5.356
 9777TIP3    H129274   0.360   1.008   5.340
 9777TIP3    H229275   0.471   1.098   5.290
 9778TIP3   OH229276   1.544   1.882   3.380
 9778TIP3    H129277   1.503   1.957   3.336
 9778TIP3    H229278   1.637   1.901   3.378
 9779TIP3   OH229279   4.835   7.599   2.359
 9779TIP3    H129280   4.887   7.668   2.318
 9779TIP3    H229281   4.798   7.640   2.437
 9780TIP3   OH229282   3.836   4.108   1.927
 9780TIP3    H129283   3.784   4.188   1.939
 9780TIP3    H229284   3.805   4.048   1.995
 9781TIP3   OH229285   7.059   4.818   3.097
 9781TIP3    H129286   7.106   4.876   3.037
 9781TIP3    H229287   6.968   4.821   3.066
 9782TIP3   OH229288   0.298   6.615   5.862
 9782TIP3    H129289   0.255   6.565   5.932
 9782TIP3    H229290   0.386   6.579   5.857
 9783TIP3   OH229291   5.282   0.486   1.768
 9783TIP3    H129292   5.245   0.567   1.803
 9783TIP3    H229293   5.351   0.514   1.709
 9784TIP3   OH229294   0.499   2.703   2.037
 9784TIP3    H129295   0.550   2.660   2.106
 9784TIP3    H229296   0.556   2.775   2.007
 9785TIP3   OH229297   3.789   3.987   3.959
 9785TIP3    H129298   3.754   4.040   3.888
 9785TIP3    H229299   3.852   3.929   3.916
 9786TIP3   OH229300   6.543   1.018   0.268
 9786TIP3    H129301   6.483   1.089   0.291
 9786TIP3    H229302   6.505   0.940   0.308
 9787TIP3   OH229303   3.023   1.336   0.533
 9787TIP3    H129304   3.087   1.268   0.513
 9787TIP3    H229305   3.069   1.397   0.590
 9788TIP3   OH229306   1.221   2.267   0.393
 9788TIP3    H129307   1.153   2.205   0.366
 9788TIP3    H229308   1.220   2.334   0.325
 9789TIP3   OH229309   1.533   0.931   3.134
 9789TIP3    H129310   1.456   0.875   3.122
 9789TIP3    H229311   1.607   0.870   3.128
 9790TIP3   OH229312   1.667   5.443   5.828
 9790TIP3    H129313   1.599   5.502   5.861
 9790TIP3    H229314   1.638   5.420   5.740
 9791TIP3   OH229315   4.391   3.837   0.051
 9791TIP3    H129316   4.384   3.795   0.136
 9791TIP3    H229317   4.475   3.884   0.053
 9792TIP3   OH229318   3.776   3.329   2.327
 9792TIP3    H129319   3.748   3.238   2.312
 9792TIP3    H229320   3.857   3.337   2.276
 9793TIP3   OH229321   2.202   4.142   1.170
 9793TIP3    H129322   2.127   4.083   1.169
 9793TIP3    H229323   2.165   4.229   1.183
 9794TIP3   OH229324   1.086   1.069   4.582
 9794TIP3    H129325   1.159   1.038   4.529
 9794TIP3    H229326   1.116   1.058   4.673
 9795TIP3   OH229327   8.009   3.642   3.578
 9795TIP3    H129328   7.969   3.556   3.591
 9795TIP3    H229329   8.013   3.680   3.666
 9796TIP3   OH229330   4.344   0.459   1.424
 9796TIP3    H129331   4.429   0.420   1.403
 9796TIP3    H229332   4.302   0.471   1.339
 9797TIP3   OH229333   1.064   7.025   4.324
 9797TIP3    H129334   1.134   7.026   4.259
 9797TIP3    H229335   1.003   7.093   4.294
 9798TIP3   OH229336   4.951   2.777   5.899
 9798TIP3    H129337   5.018   2.715   5.869
 9798TIP3    H229338   4.924   2.742   5.984
 9799TIP3   OH229339   1.918   2.779   6.457
 9799TIP3    H129340   1.824   2.772   6.441
 9799TIP3    H229341   1.924   2.831   6.538
 9800TIP3   OH229342   1.033   3.372   4.318
 9800TIP3    H129343   1.112   3.337   4.276
 9800TIP3    H229344   0.961   3.347   4.259
 9801TIP3   OH229345   5.183   5.758   1.790
 9801TIP3    H129346   5.206   5.675   1.746
 9801TIP3    H229347   5.104   5.787   1.745
 9802TIP3   OH229348   3.908   4.620   5.153
 9802TIP3    H129349   3.861   4.646   5.074
 9802TIP3    H229350   3.871   4.534   5.175
 9803TIP3   OH229351   5.271   2.203   3.523
 9803TIP3    H129352   5.324   2.265   3.473
 9803TIP3    H229353   5.282   2.120   3.477
 9804TIP3   OH229354   6.381   7.595   4.799
 9804TIP3    H129355   6.454   7.657   4.799
 9804TIP3    H229356   6.365   7.577   4.892
 9805TIP3   OH229357   2.850   6.880   0.042
 9805TIP3    H129358   2.811   6.823  -0.024
 9805TIP3    H229359   2.816   6.847   0.125
 9806TIP3   OH229360   2.947   0.826   3.313
 9806TIP3    H129361   2.876   0.865   3.263
 9806TIP3    H229362   2.916   0.739   3.337
 9807TIP3   OH229363   5.056   1.910   6.030
 9807TIP3    H129364   5.028   1.956   6.109
 9807TIP3    H229365   5.049   1.975   5.960
 9808TIP3   OH229366   1.533   6.133   3.089
 9808TIP3    H129367   1.587   6.055   3.082
 9808TIP3    H229368   1.520   6.145   3.183
 9809TIP3   OH229369   4.889   2.593   2.904
 9809TIP3    H129370   4.856   2.665   2.957
 9809TIP3    H229371   4.894   2.630   2.815
 9810TIP3   OH229372   1.352   1.694   1.742
 9810TIP3    H129373   1.415   1.715   1.811
 9810TIP3    H229374   1.392   1.622   1.694
 9811TIP3   OH229375   5.680   7.294   2.136
 9811TIP3    H129376   5.672   7.218   2.193
 9811TIP3    H229377   5.667   7.260   2.047
 9812TIP3   OH229378   6.077   4.127   4.344
 9812TIP3    H129379   6.042   4.155   4.428
 9812TIP3    H229380   6.168   4.156   4.345
 9813TIP3   OH229381   7.199   1.956   5.403
 9813TIP3    H129382   7.271   1.980   5.460
 9813TIP3    H229383   7.238   1.950   5.316
 9814TIP3   OH229384   6.921   0.362   2.488
 9814TIP3    H129385   6.917   0.280   2.536
 9814TIP3    H229386   7.006   0.359   2.443
 9815TIP3   OH229387   7.059   6.456   3.990
 9815TIP3    H129388   7.026   6.534   4.035
 9815TIP3    H229389   7.148   6.480   3.964
 9816TIP3   OH229390   2.004   0.353   4.522
 9816TIP3    H129391   2.040   0.264   4.527
 9816TIP3    H229392   2.071   0.403   4.476
 9817TIP3   OH229393   7.556   6.613   2.836
 9817TIP3    H129394   7.630   6.560   2.865
 9817TIP3    H229395   7.535   6.668   2.911
 9818TIP3   OH229396   2.592   3.927   4.270
 9818TIP3    H129397   2.604   3.970   4.186
 9818TIP3    H229398   2.680   3.923   4.308
 9819TIP3   OH229399   5.899   5.300   0.936
 9819TIP3    H129400   5.910   5.352   0.856
 9819TIP3    H229401   5.874   5.213   0.905
 9820TIP3   OH229402   3.788   7.329   2.505
 9820TIP3    H129403   3.842   7.364   2.576
 9820TIP3    H229404   3.703   7.373   2.515
 9821TIP3   OH229405   5.176   3.434   2.672
 9821TIP3    H129406   5.215   3.361   2.624
 9821TIP3    H229407   5.229   3.510   2.647
 9822TIP3   OH229408   5.459   6.920   3.076
 9822TIP3    H129409   5.373   6.903   3.116
 9822TIP3    H229410   5.474   6.844   3.021
 9823TIP3   OH229411   5.944   0.161   0.192
 9823TIP3    H129412   5.886   0.158   0.267
 9823TIP3    H229413   6.021   0.112   0.218
 9824TIP3   OH229414   6.729   2.836   5.371
 9824TIP3    H129415   6.775   2.767   5.322
 9824TIP3    H229416   6.767   2.832   5.458
 9825TIP3   OH229417   4.600   3.214   5.770
 9825TIP3    H129418   4.525   3.263   5.736
 9825TIP3    H229419   4.561   3.137   5.811
 9826TIP3   OH229420   2.074   7.793   6.659
 9826TIP3    H129421   2.118   7.867   6.619
 9826TIP3    H229422   2.046   7.739   6.584
 9827TIP3   OH229423   2.813   5.296   6.279
 9827TIP3    H129424   2.813   5.206   6.247
 9827TIP3    H229425   2.737   5.336   6.236
 9828TIP3   OH229426   0.937   3.418   1.090
 9828TIP3    H129427   0.956   3.398   1.182
 9828TIP3    H229428   0.953   3.336   1.043
 9829TIP3   OH229429   6.653   3.127   5.547
 9829TIP3    H129430   6.721   3.170   5.598
 9829TIP3    H229431   6.640   3.183   5.471
 9830TIP3   OH229432   2.045   5.729   5.946
 9830TIP3    H129433   2.045   5.810   5.997
 9830TIP3    H229434   1.981   5.673   5.990
 9831TIP3   OH229435   3.380   4.684   1.305
 9831TIP3    H129436   3.311   4.746   1.329
 9831TIP3    H229437   3.437   4.733   1.247
 9832TIP3   OH229438   0.008   5.299   5.566
 9832TIP3    H129439   0.093   5.322   5.528
 9832TIP3    H229440  -0.010   5.211   5.534
 9833TIP3   OH229441   1.261   6.744   4.590
 9833TIP3    H129442   1.296   6.734   4.502
 9833TIP3    H229443   1.305   6.677   4.642
 9834TIP3   OH229444   1.974   4.205   4.205
 9834TIP3    H129445   2.066   4.214   4.177
 9834TIP3    H229446   1.977   4.209   4.300
 9835TIP3   OH229447   0.821   6.024   2.801
 9835TIP3    H129448   0.855   6.088   2.737
 9835TIP3    H229449   0.758   6.074   2.853
 9836TIP3   OH229450   6.022   0.479   2.942
 9836TIP3    H129451   6.074   0.478   3.022
 9836TIP3    H229452   5.991   0.389   2.932
 9837TIP3   OH229453   7.444   0.446   3.808
 9837TIP3    H129454   7.413   0.356   3.797
 9837TIP3    H229455   7.534   0.445   3.775
 9838TIP3   OH229456   4.670   0.305   3.547
 9838TIP3    H129457   4.669   0.361   3.470
 9838TIP3    H229458   4.635   0.221   3.517
 9839TIP3   OH229459   4.859   4.279   1.437
 9839TIP3    H129460   4.926   4.221   1.400
 9839TIP3    H229461   4.886   4.294   1.527
 9840TIP3   OH229462   2.709   6.493   4.318
 9840TIP3    H129463   2.769   6.547   4.370
 9840TIP3    H229464   2.711   6.407   4.362
 9841TIP3   OH229465   5.788   2.365   1.631
 9841TIP3    H129466   5.743   2.380   1.548
 9841TIP3    H229467   5.773   2.445   1.682
 9842TIP3   OH229468   7.890   3.428   3.079
 9842TIP3    H129469   7.832   3.365   3.036
 9842TIP3    H229470   7.965   3.376   3.108
 9843TIP3   OH229471   5.301   6.132   3.336
 9843TIP3    H129472   5.276   6.208   3.389
 9843TIP3    H229473   5.352   6.169   3.264
 9844TIP3   OH229474   8.059   0.426   1.792
 9844TIP3    H129475   8.008   0.367   1.848
 9844TIP3    H229476   8.031   0.514   1.818
 9845TIP3   OH229477   4.549   2.310   6.409
 9845TIP3    H129478   4.484   2.240   6.414
 9845TIP3    H229479   4.629   2.266   6.379
 9846TIP3   OH229480   6.540   4.289   0.186
 9846TIP3    H129481   6.588   4.208   0.201
 9846TIP3    H229482   6.448   4.264   0.195
 9847TIP3   OH229483   5.043   1.171   6.584
 9847TIP3    H129484   5.007   1.207   6.665
 9847TIP3    H229485   5.131   1.141   6.609
 9848TIP3   OH229486   2.339   1.227   5.016
 9848TIP3    H129487   2.252   1.196   5.040
 9848TIP3    H229488   2.329   1.322   5.011
 9849TIP3   OH229489   3.489   4.779   0.669
 9849TIP3    H129490   3.509   4.758   0.578
 9849TIP3    H229491   3.393   4.773   0.674
 9850TIP3   OH229492   2.792   4.895   0.850
 9850TIP3    H129493   2.809   4.802   0.834
 9850TIP3    H229494   2.879   4.934   0.862
 9851TIP3   OH229495   3.911   2.387   5.940
 9851TIP3    H129496   3.937   2.307   5.985
 9851TIP3    H229497   3.883   2.446   6.011
 9852TIP3   OH229498   2.740   2.578   4.194
 9852TIP3    H129499   2.834   2.592   4.183
 9852TIP3    H229500   2.726   2.487   4.167
 9853TIP3   OH229501   0.361   1.070   6.283
 9853TIP3    H129502   0.295   1.126   6.242
 9853TIP3    H229503   0.321   1.042   6.365
 9854TIP3   OH229504   4.197   4.348   4.750
 9854TIP3    H129505   4.200   4.443   4.764
 9854TIP3    H229506   4.118   4.334   4.699
 9855TIP3   OH229507   2.261   6.262   3.705
 9855TIP3    H129508   2.179   6.299   3.673
 9855TIP3    H229509   2.271   6.180   3.655
 9856TIP3   OH229510   4.483   0.542   2.772
 9856TIP3    H129511   4.408   0.597   2.750
 9856TIP3    H229512   4.444   0.457   2.792
 9857TIP3   OH229513   6.475   2.354   3.406
 9857TIP3    H129514   6.537   2.407   3.458
 9857TIP3    H229515   6.389   2.381   3.438
 9858TIP3   OH229516   5.227   3.741   1.519
 9858TIP3    H129517   5.246   3.820   1.467
 9858TIP3    H229518   5.204   3.774   1.606
 9859TIP3   OH229519   7.993   7.592   0.102
 9859TIP3    H129520   7.961   7.591   0.011
 9859TIP3    H229521   8.081   7.555   0.097
 9860TIP3   OH229522   3.505   6.871   2.901
 9860TIP3    H129523   3.496   6.952   2.850
 9860TIP3    H229524   3.420   6.860   2.944
 9861TIP3   OH229525   4.225   3.452   1.793
 9861TIP3    H129526   4.194   3.499   1.716
 9861TIP3    H229527   4.291   3.510   1.832
 9862TIP3   OH229528   5.034   0.622   5.381
 9862TIP3    H129529   5.072   0.699   5.338
 9862TIP3    H229530   4.944   0.647   5.400
 9863TIP3   OH229531   1.972   3.060   2.864
 9863TIP3    H129532   1.931   2.974   2.848
 9863TIP3    H229533   1.902   3.123   2.845
 9864TIP3   OH229534   8.049   3.231   1.213
 9864TIP3    H129535   8.108   3.156   1.214
 9864TIP3    H229536   8.018   3.239   1.303
 9865TIP3   OH229537   5.158   7.529   0.594
 9865TIP3    H129538   5.253   7.541   0.600
 9865TIP3    H229539   5.141   7.521   0.500
 9866TIP3   OH229540   6.786   4.609   0.843
 9866TIP3    H129541   6.786   4.674   0.773
 9866TIP3    H229542   6.701   4.620   0.885
 9867TIP3   OH229543   7.552   1.511   3.401
 9867TIP3    H129544   7.467   1.543   3.369
 9867TIP3    H229545   7.532   1.475   3.487
 9868TIP3   OH229546   3.684   2.440   2.692
 9868TIP3    H129547   3.748   2.392   2.640
 9868TIP3    H229548   3.663   2.518   2.640
 9869TIP3   OH229549   1.524   0.862   0.753
 9869TIP3    H129550   1.529   0.882   0.660
 9869TIP3    H229551   1.467   0.786   0.758
 9870TIP3   OH229552   7.861   4.111   6.634
 9870TIP3    H129553   7.872   4.137   6.543
 9870TIP3    H229554   7.866   4.193   6.683
 9871TIP3   OH229555   8.149   0.455   5.790
 9871TIP3    H129556   8.117   0.366   5.803
 9871TIP3    H229557   8.187   0.480   5.875
 9872TIP3   OH229558   5.755   4.260   5.511
 9872TIP3    H129559   5.692   4.211   5.458
 9872TIP3    H229560   5.840   4.245   5.468
 9873TIP3   OH229561   6.958   1.476   5.451
 9873TIP3    H129562   6.906   1.439   5.380
 9873TIP3    H229563   7.040   1.428   5.448
 9874TIP3   OH229564   7.625   0.967   4.661
 9874TIP3    H129565   7.561   0.964   4.732
 9874TIP3    H229566   7.638   1.060   4.643
 9875TIP3   OH229567   2.656   7.762   6.483
 9875TIP3    H129568   2.606   7.843   6.477
 9875TIP3    H229569   2.724   7.769   6.417
 9876TIP3   OH229570   4.626   3.210   4.888
 9876TIP3    H129571   4.539   3.242   4.865
 9876TIP3    H229572   4.664   3.183   4.804
 9877TIP3   OH229573   5.534   2.985   0.483
 9877TIP3    H129574   5.543   3.062   0.427
 9877TIP3    H229575   5.446   2.952   0.465
 9878TIP3   OH229576   7.410   4.486   6.134
 9878TIP3    H129577   7.330   4.444   6.167
 9878TIP3    H229578   7.406   4.575   6.170
 9879TIP3   OH229579   6.081   7.191   6.414
 9879TIP3    H129580   6.114   7.157   6.498
 9879TIP3    H229581   6.095   7.285   6.419
 9880TIP3   OH229582   7.161   1.793   5.634
 9880TIP3    H129583   7.112   1.841   5.568
 9880TIP3    H229584   7.098   1.729   5.669
 9881TIP3   OH229585   6.435   4.332   1.253
 9881TIP3    H129586   6.353   4.283   1.252
 9881TIP3    H229587   6.443   4.362   1.344
 9882TIP3   OH229588   2.840   3.114   3.317
 9882TIP3    H129589   2.861   3.026   3.347
 9882TIP3    H229590   2.773   3.102   3.250
 9883TIP3   OH229591   2.991   5.976   1.496
 9883TIP3    H129592   3.041   5.947   1.420
 9883TIP3    H229593   3.027   6.062   1.518
 9884TIP3   OH229594   0.710   7.202   1.427
 9884TIP3    H129595   0.722   7.294   1.406
 9884TIP3    H229596   0.662   7.201   1.509
 9885TIP3   OH229597   5.057   4.444   6.211
 9885TIP3    H129598   5.093   4.488   6.134
 9885TIP3    H229599   5.052   4.352   6.186
 9886TIP3   OH229600   2.247   3.744   2.911
 9886TIP3    H129601   2.244   3.650   2.892
 9886TIP3    H229602   2.321   3.777   2.860
 9887TIP3   OH229603   1.648   7.038   0.971
 9887TIP3    H129604   1.557   7.037   1.001
 9887TIP3    H229605   1.653   7.112   0.910
 9888TIP3   OH229606   6.556   1.782   6.657
 9888TIP3    H129607   6.623   1.825   6.711
 9888TIP3    H229608   6.542   1.841   6.583
 9889TIP3   OH229609   6.916   1.835   1.958
 9889TIP3    H129610   6.847   1.770   1.945
 9889TIP3    H229611   6.989   1.786   1.995
 9890TIP3   OH229612   1.993   2.966   0.541
 9890TIP3    H129613   2.021   2.908   0.470
 9890TIP3    H229614   1.913   2.926   0.574
 9891TIP3   OH229615   7.970   1.916   4.727
 9891TIP3    H129616   7.897   1.969   4.693
 9891TIP3    H229617   8.048   1.968   4.707
 9892TIP3   OH229618   6.710   7.053   4.195
 9892TIP3    H129619   6.784   7.112   4.178
 9892TIP3    H229620   6.634   7.101   4.164
 9893TIP3   OH229621   3.474   0.824   0.060
 9893TIP3    H129622   3.427   0.743   0.043
 9893TIP3    H229623   3.470   0.872  -0.023
 9894TIP3   OH229624   2.423   0.105   4.283
 9894TIP3    H129625   2.333   0.082   4.261
 9894TIP3    H229626   2.436   0.071   4.372
 9895TIP3   OH229627   4.427   4.572   0.126
 9895TIP3    H129628   4.436   4.497   0.067
 9895TIP3    H229629   4.516   4.608   0.133
 9896TIP3   OH229630   1.552   0.172   4.670
 9896TIP3    H129631   1.469   0.217   4.650
 9896TIP3    H229632   1.536   0.081   4.645
 9897TIP3   OH229633   4.460   5.654   3.862
 9897TIP3    H129634   4.435   5.746   3.871
 9897TIP3    H229635   4.520   5.653   3.787
 9898TIP3   OH229636   7.896   2.686   3.655
 9898TIP3    H129637   7.927   2.613   3.600
 9898TIP3    H229638   7.943   2.675   3.738
 9899TIP3   OH229639   6.710   3.657   0.780
 9899TIP3    H129640   6.715   3.574   0.733
 9899TIP3    H229641   6.791   3.661   0.830
 9900TIP3   OH229642   5.581   1.362   3.218
 9900TIP3    H129643   5.620   1.432   3.271
 9900TIP3    H229644   5.656   1.320   3.176
 9901TIP3   OH229645   5.269   1.577   0.255
 9901TIP3    H129646   5.306   1.622   0.178
 9901TIP3    H229647   5.297   1.630   0.329
 9902TIP3   OH229648   0.261   7.323   0.862
 9902TIP3    H129649   0.318   7.400   0.859
 9902TIP3    H229650   0.282   7.281   0.946
 9903TIP3   OH229651   2.968   5.365   5.251
 9903TIP3    H129652   3.049   5.328   5.287
 9903TIP3    H229653   2.937   5.424   5.319
 9904TIP3   OH229654   4.283   2.870   4.535
 9904TIP3    H129655   4.258   2.780   4.511
 9904TIP3    H229656   4.216   2.897   4.598
 9905TIP3   OH229657   1.603   6.661   1.330
 9905TIP3    H129658   1.524   6.714   1.320
 9905TIP3    H229659   1.670   6.708   1.280
 9906TIP3   OH229660   6.750   0.010   3.275
 9906TIP3    H129661   6.711   0.091   3.308
 9906TIP3    H229662   6.842   0.014   3.301
 9907TIP3   OH229663   3.919   7.015   2.760
 9907TIP3    H129664   3.976   6.993   2.686
 9907TIP3    H229665   3.834   6.978   2.735
 9908TIP3   OH229666   5.834   2.906   2.918
 9908TIP3    H129667   5.779   2.898   2.996
 9908TIP3    H229668   5.915   2.947   2.950
 9909TIP3   OH229669   0.697   7.749   1.176
 9909TIP3    H129670   0.702   7.727   1.269
 9909TIP3    H229671   0.713   7.843   1.173
 9910TIP3   OH229672   3.707   6.696   4.508
 9910TIP3    H129673   3.651   6.632   4.553
 9910TIP3    H229674   3.722   6.765   4.573
 9911TIP3   OH229675   7.062   4.985   0.057
 9911TIP3    H129676   7.137   4.948   0.010
 9911TIP3    H229677   7.035   5.060   0.003
 9912TIP3   OH229678   6.643   1.059   0.885
 9912TIP3    H129679   6.736   1.058   0.863
 9912TIP3    H229680   6.601   1.018   0.809
 9913TIP3   OH229681   4.779   5.639   1.200
 9913TIP3    H129682   4.769   5.587   1.120
 9913TIP3    H229683   4.839   5.709   1.176
 9914TIP3   OH229684   2.906   2.876   5.626
 9914TIP3    H129685   2.826   2.880   5.574
 9914TIP3    H229686   2.966   2.938   5.583
 9915TIP3   OH229687   5.672   2.175   1.222
 9915TIP3    H129688   5.744   2.194   1.161
 9915TIP3    H229689   5.645   2.086   1.200
 9916TIP3   OH229690   0.566   2.244   5.368
 9916TIP3    H129691   0.517   2.162   5.360
 9916TIP3    H229692   0.560   2.283   5.281
 9917TIP3   OH229693   0.301   5.040   0.081
 9917TIP3    H129694   0.317   5.115   0.024
 9917TIP3    H229695   0.218   5.060   0.125
 9918TIP3   OH229696   0.371   7.493   0.581
 9918TIP3    H129697   0.289   7.537   0.559
 9918TIP3    H229698   0.397   7.531   0.665
 9919TIP3   OH229699   3.161   4.758   6.404
 9919TIP3    H129700   3.151   4.692   6.472
 9919TIP3    H229701   3.123   4.838   6.441
 9920TIP3   OH229702   3.619   0.648   5.358
 9920TIP3    H129703   3.676   0.721   5.336
 9920TIP3    H229704   3.531   0.684   5.356
 9921TIP3   OH229705   5.293   5.038   6.757
 9921TIP3    H129706   5.259   4.951   6.773
 9921TIP3    H229707   5.306   5.042   6.662
 9922TIP3   OH229708   4.707   3.895   5.133
 9922TIP3    H129709   4.676   3.952   5.203
 9922TIP3    H229710   4.669   3.932   5.053
 9923TIP3   OH229711   1.731   7.513   3.279
 9923TIP3    H129712   1.675   7.561   3.340
 9923TIP3    H229713   1.686   7.430   3.265
 9924TIP3   OH229714   5.705   0.765   1.201
 9924TIP3    H129715   5.780   0.749   1.144
 9924TIP3    H229716   5.629   0.744   1.148
 9925TIP3   OH229717   1.012   3.106   3.971
 9925TIP3    H129718   1.059   3.059   3.903
 9925TIP3    H229719   0.923   3.070   3.970
 9926TIP3   OH229720   7.101   5.173   3.329
 9926TIP3    H129721   7.068   5.261   3.313
 9926TIP3    H229722   7.194   5.178   3.307
 9927TIP3   OH229723   2.583   6.770   3.959
 9927TIP3    H129724   2.601   6.837   3.893
 9927TIP3    H229725   2.551   6.819   4.034
 9928TIP3   OH229726   0.293   6.375   6.479
 9928TIP3    H129727   0.302   6.291   6.434
 9928TIP3    H229728   0.258   6.434   6.413
 9929TIP3   OH229729   1.093   7.320   5.518
 9929TIP3    H129730   1.037   7.243   5.527
 9929TIP3    H229731   1.160   7.310   5.586
 9930TIP3   OH229732   2.579   4.185   4.666
 9930TIP3    H129733   2.641   4.213   4.599
 9930TIP3    H229734   2.508   4.144   4.617
 9931TIP3   OH229735   6.326   6.543   4.289
 9931TIP3    H129736   6.346   6.450   4.282
 9931TIP3    H229737   6.312   6.571   4.198
 9932TIP3   OH229738   6.272   2.657   5.255
 9932TIP3    H129739   6.299   2.712   5.182
 9932TIP3    H229740   6.332   2.678   5.326
 9933TIP3   OH229741   2.986   4.833   4.599
 9933TIP3    H129742   2.939   4.895   4.655
 9933TIP3    H229743   2.919   4.801   4.537
 9934TIP3   OH229744   1.581   7.167   6.603
 9934TIP3    H129745   1.658   7.125   6.641
 9934TIP3    H229746   1.534   7.096   6.560
 9935TIP3   OH229747   8.216   5.909   2.137
 9935TIP3    H129748   8.231   5.999   2.166
 9935TIP3    H229749   8.197   5.918   2.043
 9936TIP3   OH229750   3.208   1.027   4.152
 9936TIP3    H129751   3.242   0.947   4.112
 9936TIP3    H229752   3.204   1.090   4.080
 9937TIP3   OH229753   7.659   4.852   0.669
 9937TIP3    H129754   7.579   4.837   0.720
 9937TIP3    H229755   7.635   4.920   0.607
 9938TIP3   OH229756   0.860   5.953   3.969
 9938TIP3    H129757   0.917   6.017   4.011
 9938TIP3    H229758   0.899   5.868   3.990
 9939TIP3   OH229759   2.524   3.110   3.936
 9939TIP3    H129760   2.523   3.030   3.989
 9939TIP3    H229761   2.608   3.106   3.889
 9940TIP3   OH229762   2.335   3.642   1.135
 9940TIP3    H129763   2.285   3.561   1.132
 9940TIP3    H229764   2.360   3.659   1.044
 9941TIP3   OH229765   8.180   5.457   2.186
 9941TIP3    H129766   8.157   5.402   2.260
 9941TIP3    H229767   8.224   5.533   2.225
 9942TIP3   OH229768   0.417   6.069   3.245
 9942TIP3    H129769   0.383   6.054   3.157
 9942TIP3    H229770   0.374   6.149   3.274
 9943TIP3   OH229771   4.851   0.574   1.067
 9943TIP3    H129772   4.770   0.625   1.064
 9943TIP3    H229773   4.847   0.528   1.151
 9944TIP3   OH229774   7.918   4.074   4.372
 9944TIP3    H129775   7.908   3.992   4.323
 9944TIP3    H229776   8.009   4.098   4.359
 9945TIP3   OH229777   0.491   3.103   6.420
 9945TIP3    H129778   0.500   3.150   6.503
 9945TIP3    H229779   0.563   3.137   6.366
 9946TIP3   OH229780   6.289   3.055   1.532
 9946TIP3    H129781   6.256   3.120   1.470
 9946TIP3    H229782   6.379   3.082   1.549
 9947TIP3   OH229783   7.365   2.881   0.979
 9947TIP3    H129784   7.269   2.872   0.975
 9947TIP3    H229785   7.381   2.916   1.067
 9948TIP3   OH229786   7.231   7.193   2.392
 9948TIP3    H129787   7.161   7.211   2.454
 9948TIP3    H229788   7.309   7.182   2.446
 9949TIP3   OH229789   0.031   6.860   1.991
 9949TIP3    H129790  -0.056   6.824   1.974
 9949TIP3    H229791   0.039   6.861   2.086
 9950TIP3   OH229792   4.257   7.812   1.442
 9950TIP3    H129793   4.262   7.814   1.537
 9950TIP3    H229794   4.337   7.766   1.414
 9951TIP3   OH229795   4.939   6.527   5.424
 9951TIP3    H129796   4.850   6.543   5.453
 9951TIP3    H229797   4.959   6.600   5.365
 9952TIP3   OH229798   2.546   2.233   2.519
 9952TIP3    H129799   2.587   2.251   2.434
 9952TIP3    H229800   2.535   2.138   2.521
 9953TIP3   OH229801   5.099   4.582   4.022
 9953TIP3    H129802   5.172   4.520   4.032
 9953TIP3    H229803   5.136   4.653   3.969
 9954TIP3   OH229804   8.144   5.731   0.514
 9954TIP3    H129805   8.172   5.803   0.458
 9954TIP3    H229806   8.223   5.679   0.528
 9955TIP3   OH229807   3.729   2.864   5.544
 9955TIP3    H129808   3.821   2.877   5.564
 9955TIP3    H229809   3.704   2.786   5.594
 9956TIP3   OH229810   4.600   2.668   1.379
 9956TIP3    H129811   4.580   2.691   1.470
 9956TIP3    H229812   4.635   2.749   1.342
 9957TIP3   OH229813   7.576   0.953   3.059
 9957TIP3    H129814   7.524   1.033   3.060
 9957TIP3    H229815   7.665   0.983   3.043
 9958TIP3   OH229816   5.883   0.674   3.775
 9958TIP3    H129817   5.903   0.617   3.702
 9958TIP3    H229818   5.833   0.746   3.737
 9959TIP3   OH229819   4.950   4.019   1.676
 9959TIP3    H129820   4.859   4.048   1.679
 9959TIP3    H229821   5.001   4.099   1.683
 9960TIP3   OH229822   4.146   0.489   5.074
 9960TIP3    H129823   4.102   0.535   5.145
 9960TIP3    H229824   4.141   0.397   5.100
 9961TIP3   OH229825   3.663   7.613   5.611
 9961TIP3    H129826   3.654   7.594   5.517
 9961TIP3    H229827   3.643   7.529   5.654
 9962TIP3   OH229828   5.497   4.477   1.912
 9962TIP3    H129829   5.452   4.559   1.930
 9962TIP3    H229830   5.455   4.444   1.833
 9963TIP3   OH229831   7.784   3.486   2.404
 9963TIP3    H129832   7.740   3.424   2.345
 9963TIP3    H229833   7.764   3.455   2.492
 9964TIP3   OH229834   7.106   0.398   3.681
 9964TIP3    H129835   7.169   0.428   3.616
 9964TIP3    H229836   7.113   0.302   3.677
 9965TIP3   OH229837   0.659   0.857   2.190
 9965TIP3    H129838   0.669   0.811   2.274
 9965TIP3    H229839   0.748   0.879   2.164
 9966TIP3   OH229840   6.155   4.271   2.147
 9966TIP3    H129841   6.196   4.358   2.142
 9966TIP3    H229842   6.145   4.244   2.056
 9967TIP3   OH229843   7.501   3.045   5.858
 9967TIP3    H129844   7.550   3.126   5.850
 9967TIP3    H229845   7.558   2.979   5.819
 9968TIP3   OH229846   2.947   7.784   1.934
 9968TIP3    H129847   2.857   7.815   1.926
 9968TIP3    H229848   2.954   7.714   1.869
 9969TIP3   OH229849   3.515   3.069   4.143
 9969TIP3    H129850   3.441   3.080   4.083
 9969TIP3    H229851   3.592   3.076   4.087
 9970TIP3   OH229852   7.171   0.175   2.080
 9970TIP3    H129853   7.213   0.245   2.029
 9970TIP3    H229854   7.135   0.116   2.015
 9971TIP3   OH229855   2.763   4.963   0.487
 9971TIP3    H129856   2.835   5.013   0.525
 9971TIP3    H229857   2.790   4.946   0.397
 9972TIP3   OH229858   6.329   5.654   2.086
 9972TIP3    H129859   6.380   5.735   2.090
 9972TIP3    H229860   6.242   5.678   2.118
 9973TIP3   OH229861   4.662   3.816   5.655
 9973TIP3    H129862   4.741   3.786   5.609
 9973TIP3    H229863   4.671   3.781   5.744
 9974TIP3   OH229864   7.379   4.644   4.514
 9974TIP3    H129865   7.298   4.598   4.494
 9974TIP3    H229866   7.445   4.576   4.519
 9975TIP3   OH229867   1.759   1.825   1.753
 9975TIP3    H129868   1.735   1.795   1.665
 9975TIP3    H229869   1.837   1.775   1.775
 9976TIP3   OH229870   5.220   3.633   4.327
 9976TIP3    H129871   5.298   3.597   4.283
 9976TIP3    H229872   5.254   3.671   4.408
 9977TIP3   OH229873   5.151   1.731   1.761
 9977TIP3    H129874   5.232   1.781   1.750
 9977TIP3    H229875   5.137   1.727   1.856
 9978TIP3   OH229876   3.257   4.664   5.550
 9978TIP3    H129877   3.264   4.580   5.595
 9978TIP3    H229878   3.273   4.730   5.618
 9979TIP3   OH229879   6.142   6.436   4.457
 9979TIP3    H129880   6.196   6.469   4.385
 9979TIP3    H229881   6.155   6.341   4.455
 9980TIP3   OH229882   6.764   3.838   5.311
 9980TIP3    H129883   6.710   3.799   5.242
 9980TIP3    H229884   6.778   3.766   5.373
 9981TIP3   OH229885   3.482   3.199   1.226
 9981TIP3    H129886   3.416   3.135   1.255
 9981TIP3    H229887   3.516   3.236   1.307
 9982TIP3   OH229888   6.662   2.783   5.061
 9982TIP3    H129889   6.718   2.742   4.996
 9982TIP3    H229890   6.652   2.717   5.130
 9983TIP3   OH229891   1.053   5.186   6.369
 9983TIP3    H129892   1.138   5.182   6.325
 9983TIP3    H229893   1.061   5.126   6.443
 9984TIP3   OH229894   0.668   2.164   4.364
 9984TIP3    H129895   0.710   2.208   4.290
 9984TIP3    H229896   0.576   2.187   4.356
 9985TIP3   OH229897   5.986   5.705   4.457
 9985TIP3    H129898   5.896   5.672   4.462
 9985TIP3    H229899   6.029   5.669   4.535
 9986TIP3   OH229900   5.235   2.929   4.261
 9986TIP3    H129901   5.182   2.983   4.203
 9986TIP3    H229902   5.192   2.844   4.261
 9987TIP3   OH229903   2.989   0.589   1.831
 9987TIP3    H129904   3.049   0.537   1.884
 9987TIP3    H229905   3.016   0.573   1.741
 9988TIP3   OH229906   4.026   3.706   5.382
 9988TIP3    H129907   4.069   3.791   5.377
 9988TIP3    H229908   4.029   3.672   5.292
 9989TIP3   OH229909   1.846   5.323   6.617
 9989TIP3    H129910   1.764   5.290   6.654
 9989TIP3    H229911   1.853   5.278   6.532
 9990TIP3   OH229912   1.852   5.804   5.562
 9990TIP3    H129913   1.852   5.831   5.654
 9990TIP3    H229914   1.876   5.883   5.514
 9991TIP3   OH229915   1.671   4.123   4.259
 9991TIP3    H129916   1.719   4.164   4.188
 9991TIP3    H229917   1.706   4.163   4.339
 9992TIP3   OH229918   7.138   7.505   0.481
 9992TIP3    H129919   7.163   7.578   0.423
 9992TIP3    H229920   7.051   7.480   0.451
 9993TIP3   OH229921   4.028   4.308   4.094
 9993TIP3    H129922   3.978   4.314   4.175
 9993TIP3    H229923   3.967   4.335   4.026
 9994TIP3   OH229924   1.246   6.121   0.735
 9994TIP3    H129925   1.273   6.173   0.811
 9994TIP3    H229926   1.197   6.048   0.772
 9995TIP3   OH229927   3.644   2.101   4.103
 9995TIP3    H129928   3.710   2.125   4.169
 9995TIP3    H229929   3.689   2.037   4.048
 9996TIP3   OH229930   0.884   3.467   2.365
 9996TIP3    H129931   0.965   3.457   2.315
 9996TIP3    H229932   0.859   3.378   2.389
 9997TIP3   OH229933   0.133   0.750   3.196
 9997TIP3    H129934   0.143   0.829   3.144
 9997TIP3    H229935   0.054   0.765   3.249
 9998TIP3   OH229936   7.084   2.595   0.752
 9998TIP3    H129937   7.136   2.593   0.672
 9998TIP3    H229938   6.993   2.583   0.721
 9999TIP3   OH229939   7.214   0.446   4.590
 9999TIP3    H129940   7.187   0.538   4.583
 9999TIP3    H229941   7.156   0.399   4.530
10000TIP3   OH229942   1.941   5.806   5.078
10000TIP3    H129943   1.863   5.859   5.059
10000TIP3    H229944   2.013   5.851   5.035
10001TIP3   OH229945   8.266   7.146   2.056
10001TIP3    H129946   8.282   7.054   2.036
10001TIP3    H229947   8.216   7.179   1.982
10002TIP3   OH229948   8.267   1.036   0.336
10002TIP3    H129949   8.353   1.005   0.364
10002TIP3    H229950   8.211   1.025   0.413
10003TIP3   OH229951   2.973   1.605   2.512
10003TIP3    H129952   2.958   1.679   2.571
10003TIP3    H229953   3.068   1.595   2.509
10004TIP3   OH229954   8.005   3.359   6.128
10004TIP3    H129955   7.914   3.377   6.148
10004TIP3    H229956   8.049   3.360   6.213
10005TIP3   OH229957   0.201   5.372   2.400
10005TIP3    H129958   0.273   5.308   2.404
10005TIP3    H229959   0.216   5.420   2.319
10006TIP3   OH229960   7.837   5.112   1.364
10006TIP3    H129961   7.834   5.017   1.376
10006TIP3    H229962   7.745   5.140   1.366
10007TIP3   OH229963   5.061   1.785   3.038
10007TIP3    H129964   5.148   1.826   3.047
10007TIP3    H229965   5.000   1.855   3.059
10008TIP3   OH229966   2.001   0.165   6.481
10008TIP3    H129967   2.063   0.144   6.550
10008TIP3    H229968   1.916   0.171   6.526
10009TIP3   OH229969   1.314   7.065   1.571
10009TIP3    H129970   1.272   7.131   1.627
10009TIP3    H229971   1.276   6.982   1.600
10010TIP3   OH229972   3.319   4.144   6.208
10010TIP3    H129973   3.412   4.164   6.214
10010TIP3    H229974   3.308   4.106   6.120
10011TIP3   OH229975   6.239   7.643   1.791
10011TIP3    H129976   6.308   7.607   1.736
10011TIP3    H229977   6.271   7.731   1.814
10012TIP3   OH229978   6.469   7.157   5.063
10012TIP3    H129979   6.486   7.233   5.118
10012TIP3    H229980   6.455   7.194   4.975
10013TIP3   OH229981   6.403   2.808   5.078
10013TIP3    H129982   6.489   2.802   5.036
10013TIP3    H229983   6.347   2.849   5.012
10014TIP3   OH229984   6.161   0.942   3.976
10014TIP3    H129985   6.095   0.874   3.991
10014TIP3    H229986   6.232   0.897   3.931
10015TIP3   OH229987   0.891   0.354   1.723
10015TIP3    H129988   0.835   0.426   1.695
10015TIP3    H229989   0.874   0.283   1.660
10016TIP3   OH229990   6.104   5.840   2.994
10016TIP3    H129991   6.075   5.871   2.909
10016TIP3    H229992   6.025   5.804   3.036
10017TIP3   OH229993   3.475   4.788   2.509
10017TIP3    H129994   3.512   4.722   2.450
10017TIP3    H229995   3.385   4.760   2.522
10018TIP3   OH229996   1.318   3.618   5.657
10018TIP3    H129997   1.248   3.681   5.643
10018TIP3    H229998   1.274   3.538   5.684
10019TIP3   OH229999   5.115   7.022   0.551
10019TIP3    H130000   5.113   7.008   0.646
10019TIP3    H230001   5.038   6.975   0.518
10020TIP3   OH230002   5.081   0.813   4.814
10020TIP3    H130003   5.173   0.801   4.788
10020TIP3    H230004   5.063   0.742   4.874
10021TIP3   OH230005   2.285   3.434   1.454
10021TIP3    H130006   2.378   3.427   1.431
10021TIP3    H230007   2.283   3.491   1.531
10022TIP3   OH230008   5.342   4.831   0.105
10022TIP3    H130009   5.349   4.766   0.036
10022TIP3    H230010   5.312   4.782   0.182
10023TIP3   OH230011   3.679   6.664   2.925
10023TIP3    H130012   3.613   6.731   2.907
10023TIP3    H230013   3.755   6.691   2.874
10024TIP3   OH230014   6.714   7.287   3.465
10024TIP3    H130015   6.721   7.316   3.374
10024TIP3    H230016   6.706   7.368   3.515
10025TIP3   OH230017   1.528   2.980   2.502
10025TIP3    H130018   1.449   3.007   2.549
10025TIP3    H230019   1.564   3.061   2.467
10026TIP3   OH230020   0.609   6.722   2.179
10026TIP3    H130021   0.603   6.643   2.125
10026TIP3    H230022   0.521   6.733   2.215
10027TIP3   OH230023   4.911   2.118   5.873
10027TIP3    H130024   4.860   2.147   5.948
10027TIP3    H230025   4.880   2.172   5.800
10028TIP3   OH230026   0.799   2.544   5.766
10028TIP3    H130027   0.862   2.613   5.786
10028TIP3    H230028   0.801   2.536   5.671
10029TIP3   OH230029   3.515   0.298   6.566
10029TIP3    H130030   3.600   0.254   6.571
10029TIP3    H230031   3.528   0.380   6.613
10030TIP3   OH230032   8.013   0.280   0.941
10030TIP3    H130033   8.032   0.191   0.970
10030TIP3    H230034   8.042   0.282   0.849
10031TIP3   OH230035   0.287   2.962   1.063
10031TIP3    H130036   0.208   2.919   1.030
10031TIP3    H230037   0.359   2.904   1.039
10032TIP3   OH230038   7.509   2.255   5.440
10032TIP3    H130039   7.491   2.288   5.529
10032TIP3    H230040   7.580   2.193   5.452
10033TIP3   OH230041   6.960   3.490   0.091
10033TIP3    H130042   6.990   3.423   0.152
10033TIP3    H230043   7.010   3.474   0.011
10034TIP3   OH230044   0.330   5.760   1.710
10034TIP3    H130045   0.341   5.691   1.645
10034TIP3    H230046   0.295   5.715   1.787
10035TIP3   OH230047   3.383   5.074   0.334
10035TIP3    H130048   3.469   5.057   0.296
10035TIP3    H230049   3.402   5.110   0.421
10036TIP3   OH230050   7.125   4.953   0.400
10036TIP3    H130051   7.056   4.952   0.334
10036TIP3    H230052   7.088   4.905   0.474
10037TIP3   OH230053   6.437   6.847   0.254
10037TIP3    H130054   6.521   6.892   0.257
10037TIP3    H230055   6.449   6.778   0.188
10038TIP3   OH230056   0.068   7.470   2.014
10038TIP3    H130057   0.125   7.475   2.090
10038TIP3    H230058   0.106   7.401   1.960
10039TIP3   OH230059   1.995   7.100   3.375
10039TIP3    H130060   1.970   7.180   3.329
10039TIP3    H230061   2.002   7.126   3.467
10040TIP3   OH230062   4.684   5.512   4.530
10040TIP3    H130063   4.725   5.569   4.596
10040TIP3    H230064   4.598   5.492   4.566
10041TIP3   OH230065   0.025   2.266   4.686
10041TIP3    H130066   0.099   2.259   4.746
10041TIP3    H230067  -0.024   2.342   4.717
10042TIP3   OH230068   5.054   2.422   3.054
10042TIP3    H130069   4.990   2.477   3.009
10042TIP3    H230070   5.109   2.387   2.984
10043TIP3   OH230071   0.753   0.256   6.671
10043TIP3    H130072   0.781   0.172   6.636
10043TIP3    H230073   0.774   0.319   6.602
10044TIP3   OH230074   2.742   2.435   0.929
10044TIP3    H130075   2.650   2.457   0.910
10044TIP3    H230076   2.737   2.362   0.990
10045TIP3   OH230077   0.529   3.704   1.119
10045TIP3    H130078   0.574   3.767   1.176
10045TIP3    H230079   0.588   3.628   1.117
10046TIP3   OH230080   6.907   4.092   4.085
10046TIP3    H130081   6.907   3.997   4.096
10046TIP3    H230082   6.822   4.120   4.118
10047TIP3   OH230083   2.865   0.138   4.149
10047TIP3    H130084   2.807   0.119   4.223
10047TIP3    H230085   2.880   0.232   4.154
10048TIP3   OH230086   0.953   2.023   0.515
10048TIP3    H130087   1.036   1.979   0.529
10048TIP3    H230088   0.916   2.034   0.603
10049TIP3   OH230089   5.976   4.461   5.365
10049TIP3    H130090   6.034   4.439   5.438
10049TIP3    H230091   5.969   4.379   5.315
10050TIP3   OH230092   2.741   4.595   0.310
10050TIP3    H130093   2.675   4.647   0.356
10050TIP3    H230094   2.797   4.561   0.379
10051TIP3   OH230095   6.749   5.319   4.713
10051TIP3    H130096   6.757   5.233   4.753
10051TIP3    H230097   6.668   5.315   4.662
10052TIP3   OH230098   0.361   3.033   2.255
10052TIP3    H130099   0.394   3.113   2.294
10052TIP3    H230100   0.329   3.060   2.169
10053TIP3   OH230101   8.088   2.674   2.771
10053TIP3    H130102   8.100   2.698   2.863
10053TIP3    H230103   8.128   2.587   2.764
10054TIP3   OH230104   6.285   6.507   0.929
10054TIP3    H130105   6.200   6.465   0.932
10054TIP3    H230106   6.348   6.436   0.938
10055TIP3   OH230107   0.181   2.229   6.537
10055TIP3    H130108   0.166   2.204   6.628
10055TIP3    H230109   0.226   2.314   6.542
10056TIP3   OH230110   2.450   4.201   0.379
10056TIP3    H130111   2.363   4.181   0.343
10056TIP3    H230112   2.449   4.162   0.467
10057TIP3   OH230113   4.706   7.073   6.274
10057TIP3    H130114   4.647   7.000   6.296
10057TIP3    H230115   4.719   7.064   6.179
10058TIP3   OH230116   3.283   7.087   3.950
10058TIP3    H130117   3.266   7.039   3.869
10058TIP3    H230118   3.290   7.019   4.017
10059TIP3   OH230119   5.041   6.143   3.870
10059TIP3    H130120   5.086   6.068   3.831
10059TIP3    H230121   4.957   6.108   3.900
10060TIP3   OH230122   4.814   1.503   5.174
10060TIP3    H130123   4.739   1.520   5.116
10060TIP3    H230124   4.886   1.482   5.115
10061TIP3   OH230125   3.079   0.876   0.919
10061TIP3    H130126   3.163   0.836   0.899
10061TIP3    H230127   3.094   0.925   1.000
10062TIP3   OH230128   1.124   5.747   3.212
10062TIP3    H130129   1.190   5.758   3.281
10062TIP3    H230130   1.141   5.820   3.152
10063TIP3   OH230131   4.577   3.796   0.312
10063TIP3    H130132   4.488   3.831   0.316
10063TIP3    H230133   4.631   3.865   0.351
10064TIP3   OH230134   4.818   3.916   3.872
10064TIP3    H130135   4.886   3.975   3.838
10064TIP3    H230136   4.831   3.834   3.824
10065TIP3   OH230137   6.528   1.988   6.450
10065TIP3    H130138   6.570   1.996   6.364
10065TIP3    H230139   6.531   2.077   6.486
10066TIP3   OH230140   0.630   3.131   5.653
10066TIP3    H130141   0.691   3.187   5.606
10066TIP3    H230142   0.663   3.042   5.640
10067TIP3   OH230143   5.833   6.780   3.580
10067TIP3    H130144   5.872   6.810   3.662
10067TIP3    H230145   5.740   6.770   3.599
10068TIP3   OH230146   0.506   3.833   3.817
10068TIP3    H130147   0.457   3.818   3.736
10068TIP3    H230148   0.559   3.754   3.828
10069TIP3   OH230149   2.221   1.090   0.262
10069TIP3    H130150   2.177   1.073   0.179
10069TIP3    H230151   2.238   1.184   0.262
10070TIP3   OH230152   6.662   2.634   1.824
10070TIP3    H130153   6.610   2.619   1.903
10070TIP3    H230154   6.753   2.627   1.853
10071TIP3   OH230155   0.949   4.841   5.165
10071TIP3    H130156   0.992   4.848   5.080
10071TIP3    H230157   0.968   4.924   5.209
10072TIP3   OH230158   6.947   7.013   0.424
10072TIP3    H130159   6.931   7.094   0.375
10072TIP3    H230160   6.948   7.041   0.516
10073TIP3   OH230161   2.331   5.678   0.788
10073TIP3    H130162   2.388   5.680   0.865
10073TIP3    H230163   2.244   5.659   0.824
10074TIP3   OH230164   2.729   3.343   5.014
10074TIP3    H130165   2.722   3.423   4.962
10074TIP3    H230166   2.789   3.367   5.085
10075TIP3   OH230167   1.346   6.059   2.611
10075TIP3    H130168   1.318   6.150   2.619
10075TIP3    H230169   1.283   6.009   2.664
10076TIP3   OH230170   7.515   6.747   0.573
10076TIP3    H130171   7.432   6.786   0.548
10076TIP3    H230172   7.580   6.815   0.555
10077TIP3   OH230173   4.241   7.539   1.591
10077TIP3    H130174   4.208   7.526   1.503
10077TIP3    H230175   4.311   7.474   1.601
10078TIP3   OH230176   1.736   6.205   2.853
10078TIP3    H130177   1.736   6.208   2.949
10078TIP3    H230178   1.828   6.194   2.829
10079TIP3   OH230179   7.263   3.798   5.224
10079TIP3    H130180   7.319   3.728   5.191
10079TIP3    H230181   7.213   3.827   5.148
10080TIP3   OH230182   0.483   7.097   4.352
10080TIP3    H130183   0.513   7.083   4.442
10080TIP3    H230184   0.562   7.093   4.299
10081TIP3   OH230185   7.379   2.544   5.120
10081TIP3    H130186   7.341   2.459   5.097
10081TIP3    H230187   7.443   2.524   5.188
10082TIP3   OH230188   3.553   4.643   2.258
10082TIP3    H130189   3.633   4.681   2.223
10082TIP3    H230190   3.483   4.679   2.203
10083TIP3   OH230191   1.403   6.396   3.277
10083TIP3    H130192   1.433   6.375   3.188
10083TIP3    H230193   1.448   6.478   3.298
10084TIP3   OH230194   4.561   5.662   6.235
10084TIP3    H130195   4.636   5.617   6.195
10084TIP3    H230196   4.572   5.647   6.329
10085TIP3   OH230197   5.853   1.687   4.600
10085TIP3    H130198   5.893   1.677   4.513
10085TIP3    H230199   5.855   1.781   4.616
10086TIP3   OH230200   1.228   3.924   1.353
10086TIP3    H130201   1.295   3.871   1.396
10086TIP3    H230202   1.165   3.945   1.422
10087TIP3   OH230203   4.014   7.540   4.898
10087TIP3    H130204   4.036   7.456   4.939
10087TIP3    H230205   4.053   7.605   4.956
10088TIP3   OH230206   4.866   3.817   6.117
10088TIP3    H130207   4.945   3.838   6.068
10088TIP3    H230208   4.897   3.775   6.197
10089TIP3   OH230209   6.255   3.137   2.477
10089TIP3    H130210   6.194   3.170   2.410
10089TIP3    H230211   6.267   3.210   2.537
10090TIP3   OH230212   6.877   6.591   5.567
10090TIP3    H130213   6.905   6.629   5.484
10090TIP3    H230214   6.868   6.497   5.548
10091TIP3   OH230215   0.193   0.151   6.246
10091TIP3    H130216   0.099   0.154   6.230
10091TIP3    H230217   0.205   0.076   6.303
10092TIP3   OH230218   5.046   4.588   1.808
10092TIP3    H130219   5.033   4.628   1.722
10092TIP3    H230220   4.993   4.640   1.868
10093TIP3   OH230221   2.783   1.875   5.699
10093TIP3    H130222   2.828   1.949   5.658
10093TIP3    H230223   2.819   1.871   5.787
10094TIP3   OH230224   3.283   6.740   1.304
10094TIP3    H130225   3.221   6.668   1.317
10094TIP3    H230226   3.288   6.784   1.389
10095TIP3   OH230227   0.595   0.077   6.235
10095TIP3    H130228   0.518   0.046   6.283
10095TIP3    H230229   0.667   0.068   6.297
10096TIP3   OH230230   0.543   3.906   5.072
10096TIP3    H130231   0.503   3.890   4.987
10096TIP3    H230232   0.523   3.997   5.092
10097TIP3   OH230233   5.080   1.853   0.547
10097TIP3    H130234   5.075   1.852   0.642
10097TIP3    H230235   5.004   1.904   0.519
10098TIP3   OH230236   2.743   6.640   5.256
10098TIP3    H130237   2.794   6.708   5.213
10098TIP3    H230238   2.723   6.578   5.186
10099TIP3   OH230239   4.658   6.407   0.395
10099TIP3    H130240   4.687   6.456   0.318
10099TIP3    H230241   4.629   6.474   0.457
10100TIP3   OH230242   3.033   2.991   2.383
10100TIP3    H130243   3.005   3.018   2.295
10100TIP3    H230244   3.061   3.073   2.425
10101TIP3   OH230245   4.639   3.259   6.085
10101TIP3    H130246   4.690   3.320   6.138
10101TIP3    H230247   4.600   3.313   6.016
10102TIP3   OH230248   2.135   6.286   2.400
10102TIP3    H130249   2.146   6.248   2.313
10102TIP3    H230250   2.048   6.325   2.398
10103TIP3   OH230251   3.191   2.876   0.140
10103TIP3    H130252   3.280   2.872   0.105
10103TIP3    H230253   3.143   2.810   0.090
10104TIP3   OH230254   4.646   0.680   3.530
10104TIP3    H130255   4.623   0.621   3.458
10104TIP3    H230256   4.571   0.678   3.588
10105TIP3   OH230257   3.661   4.716   5.296
10105TIP3    H130258   3.627   4.628   5.312
10105TIP3    H230259   3.620   4.770   5.363
10106TIP3   OH230260   2.276   7.316   0.421
10106TIP3    H130261   2.338   7.245   0.408
10106TIP3    H230262   2.288   7.373   0.345
10107TIP3   OH230263   3.115   2.876   0.422
10107TIP3    H130264   3.211   2.873   0.415
10107TIP3    H230265   3.085   2.887   0.332
10108TIP3   OH230266   1.934   0.954   2.943
10108TIP3    H130267   1.933   0.991   3.031
10108TIP3    H230268   1.908   1.026   2.886
10109TIP3   OH230269   0.848   1.192   4.558
10109TIP3    H130270   0.932   1.146   4.557
10109TIP3    H230271   0.786   1.132   4.517
10110TIP3   OH230272   0.093   3.100   4.873
10110TIP3    H130273   0.083   3.030   4.810
10110TIP3    H230274   0.187   3.106   4.889
10111TIP3   OH230275   6.246   1.190   3.564
10111TIP3    H130276   6.268   1.176   3.656
10111TIP3    H230277   6.244   1.285   3.553
10112TIP3   OH230278   2.427   2.589   0.963
10112TIP3    H130279   2.468   2.653   1.021
10112TIP3    H230280   2.341   2.574   1.000
10113TIP3   OH230281   6.477   3.541   4.995
10113TIP3    H130282   6.531   3.468   5.024
10113TIP3    H230283   6.484   3.541   4.900
10114TIP3   OH230284   5.789   5.674   6.759
10114TIP3    H130285   5.721   5.741   6.758
10114TIP3    H230286   5.761   5.610   6.693
10115TIP3   OH230287   2.153   0.195   3.881
10115TIP3    H130288   2.177   0.285   3.858
10115TIP3    H230289   2.123   0.157   3.798
10116TIP3   OH230290   6.888   3.356   5.426
10116TIP3    H130291   6.852   3.326   5.510
10116TIP3    H230292   6.977   3.382   5.447
10117TIP3   OH230293   1.156   7.770   0.893
10117TIP3    H130294   1.220   7.824   0.941
10117TIP3    H230295   1.095   7.741   0.960
10118TIP3   OH230296   4.068   1.116   5.306
10118TIP3    H130297   4.127   1.089   5.376
10118TIP3    H230298   4.125   1.143   5.235
10119TIP3   OH230299   2.530   3.584   2.760
10119TIP3    H130300   2.459   3.551   2.815
10119TIP3    H230301   2.591   3.626   2.821
10120TIP3   OH230302   1.537   3.299   6.386
10120TIP3    H130303   1.571   3.377   6.341
10120TIP3    H230304   1.610   3.237   6.384
10121TIP3   OH230305   7.651   1.079   5.512
10121TIP3    H130306   7.707   1.040   5.580
10121TIP3    H230307   7.620   1.004   5.462
10122TIP3   OH230308   3.540   2.323   2.386
10122TIP3    H130309   3.529   2.229   2.371
10122TIP3    H230310   3.514   2.336   2.477
10123TIP3   OH230311   4.730   2.139   4.143
10123TIP3    H130312   4.688   2.193   4.077
10123TIP3    H230313   4.820   2.129   4.111
10124TIP3   OH230314   2.891   5.626   5.701
10124TIP3    H130315   2.842   5.708   5.699
10124TIP3    H230316   2.957   5.639   5.769
10125TIP3   OH230317   4.058   3.371   6.465
10125TIP3    H130318   4.072   3.345   6.557
10125TIP3    H230319   4.048   3.466   6.468
10126TIP3   OH230320   0.357   1.961   5.851
10126TIP3    H130321   0.419   1.999   5.788
10126TIP3    H230322   0.412   1.926   5.921
10127TIP3   OH230323   5.507   3.564   2.070
10127TIP3    H130324   5.558   3.628   2.119
10127TIP3    H230325   5.439   3.616   2.027
10128TIP3   OH230326   4.714   6.513   5.855
10128TIP3    H130327   4.738   6.421   5.869
10128TIP3    H230328   4.797   6.557   5.839
10129TIP3   OH230329   3.229   2.692   5.094
10129TIP3    H130330   3.273   2.614   5.061
10129TIP3    H230331   3.136   2.676   5.079
10130TIP3   OH230332   5.596   0.944   5.993
10130TIP3    H130333   5.513   0.991   5.998
10130TIP3    H230334   5.573   0.852   6.007
10131TIP3   OH230335   4.065   1.966   0.330
10131TIP3    H130336   4.067   1.994   0.421
10131TIP3    H230337   4.157   1.957   0.305
10132TIP3   OH230338   0.117   5.482   1.669
10132TIP3    H130339   0.158   5.543   1.730
10132TIP3    H230340   0.061   5.427   1.724
10133TIP3   OH230341   5.729   3.811   3.047
10133TIP3    H130342   5.822   3.799   3.063
10133TIP3    H230343   5.702   3.732   2.999
10134TIP3   OH230344   7.766   5.362   6.020
10134TIP3    H130345   7.793   5.341   6.110
10134TIP3    H230346   7.674   5.336   6.016
10135TIP3   OH230347   6.658   6.347   4.285
10135TIP3    H130348   6.629   6.416   4.226
10135TIP3    H230349   6.586   6.337   4.348
10136TIP3   OH230350   1.740   7.351   3.642
10136TIP3    H130351   1.697   7.436   3.631
10136TIP3    H230352   1.668   7.290   3.656
10137TIP3   OH230353   1.429   3.887   5.333
10137TIP3    H130354   1.448   3.873   5.426
10137TIP3    H230355   1.483   3.821   5.289
10138TIP3   OH230356   1.110   3.548   5.145
10138TIP3    H130357   1.135   3.554   5.237
10138TIP3    H230358   1.072   3.634   5.125
10139TIP3   OH230359   2.456   0.713   0.305
10139TIP3    H130360   2.370   0.676   0.284
10139TIP3    H230361   2.436   0.796   0.349
10140TIP3   OH230362   7.096   6.406   3.203
10140TIP3    H130363   7.136   6.319   3.208
10140TIP3    H230364   7.166   6.466   3.229
10141TIP3   OH230365   6.093   0.881   2.809
10141TIP3    H130366   6.122   0.872   2.900
10141TIP3    H230367   6.079   0.791   2.779
10142TIP3   OH230368   4.654   4.141   0.959
10142TIP3    H130369   4.617   4.147   0.871
10142TIP3    H230370   4.588   4.179   1.016
10143TIP3   OH230371   7.517   1.369   0.162
10143TIP3    H130372   7.461   1.440   0.128
10143TIP3    H230373   7.581   1.354   0.092
10144TIP3   OH230374   7.183   3.443   2.811
10144TIP3    H130375   7.105   3.456   2.756
10144TIP3    H230376   7.148   3.417   2.896
10145TIP3   OH230377   1.011   7.443   3.866
10145TIP3    H130378   0.989   7.353   3.840
10145TIP3    H230379   1.089   7.464   3.816
10146TIP3   OH230380   5.984   3.916   1.980
10146TIP3    H130381   5.927   3.908   1.903
10146TIP3    H230382   6.062   3.865   1.957
10147TIP3   OH230383   6.383   3.400   0.819
10147TIP3    H130384   6.316   3.421   0.754
10147TIP3    H230385   6.419   3.316   0.791
10148TIP3   OH230386   6.532   2.507   5.518
10148TIP3    H130387   6.474   2.431   5.530
10148TIP3    H230388   6.586   2.508   5.597
10149TIP3   OH230389   8.067   1.057   6.405
10149TIP3    H130390   8.122   1.022   6.476
10149TIP3    H230391   7.983   1.075   6.447
10150TIP3   OH230392   3.934   2.491   6.205
10150TIP3    H130393   4.023   2.525   6.212
10150TIP3    H230394   3.913   2.460   6.293
10151TIP3   OH230395   8.208   5.436   1.908
10151TIP3    H130396   8.200   5.442   2.003
10151TIP3    H230397   8.228   5.344   1.891
10152TIP3   OH230398   1.687   5.222   4.609
10152TIP3    H130399   1.777   5.212   4.578
10152TIP3    H230400   1.632   5.200   4.534
10153TIP3   OH230401   7.065   3.188   3.763
10153TIP3    H130402   7.083   3.282   3.767
10153TIP3    H230403   7.036   3.173   3.673
10154TIP3   OH230404   1.987   3.660   1.653
10154TIP3    H130405   1.956   3.573   1.678
10154TIP3    H230406   1.934   3.684   1.577
10155TIP3   OH230407   6.267   6.771   4.448
10155TIP3    H130408   6.315   6.714   4.388
10155TIP3    H230409   6.245   6.714   4.522
10156TIP3   OH230410   2.820   1.346   4.582
10156TIP3    H130411   2.906   1.309   4.562
10156TIP3    H230412   2.797   1.396   4.503
10157TIP3   OH230413   6.975   6.147   0.024
10157TIP3    H130414   6.929   6.206   0.084
10157TIP3    H230415   6.906   6.113  -0.033
10158TIP3   OH230416   2.034   5.251   0.204
10158TIP3    H130417   2.115   5.262   0.254
10158TIP3    H230418   1.972   5.311   0.244
10159TIP3   OH230419   5.497   2.815   2.230
10159TIP3    H130420   5.536   2.858   2.306
10159TIP3    H230421   5.441   2.882   2.191
10160TIP3   OH230422   4.792   7.258   3.085
10160TIP3    H130423   4.869   7.285   3.135
10160TIP3    H230424   4.718   7.299   3.130
10161TIP3   OH230425   0.358   3.735   3.572
10161TIP3    H130426   0.373   3.732   3.477
10161TIP3    H230427   0.263   3.738   3.581
10162TIP3   OH230428   0.872   7.687   0.006
10162TIP3    H130429   0.811   7.761   0.002
10162TIP3    H230430   0.851   7.643   0.089
10163TIP3   OH230431   2.495   4.359   0.623
10163TIP3    H130432   2.567   4.364   0.560
10163TIP3    H230433   2.492   4.267   0.649
10164TIP3   OH230434   5.685   6.480   0.944
10164TIP3    H130435   5.650   6.564   0.915
10164TIP3    H230436   5.671   6.421   0.870
10165TIP3   OH230437   1.345   4.512   0.730
10165TIP3    H130438   1.379   4.427   0.759
10165TIP3    H230439   1.417   4.573   0.745
10166TIP3   OH230440   1.858   2.250   2.681
10166TIP3    H130441   1.880   2.255   2.588
10166TIP3    H230442   1.939   2.274   2.726
10167TIP3   OH230443   4.580   1.593   3.222
10167TIP3    H130444   4.564   1.685   3.244
10167TIP3    H230445   4.675   1.587   3.211
10168TIP3   OH230446   2.925   0.478   6.031
10168TIP3    H130447   2.974   0.561   6.033
10168TIP3    H230448   2.960   0.431   5.956
10169TIP3   OH230449   5.661   5.291   2.610
10169TIP3    H130450   5.703   5.210   2.639
10169TIP3    H230451   5.621   5.328   2.689
10170TIP3   OH230452   5.406   1.561   4.203
10170TIP3    H130453   5.317   1.578   4.174
10170TIP3    H230454   5.404   1.471   4.235
10171TIP3   OH230455   3.220   5.308   5.473
10171TIP3    H130456   3.166   5.235   5.504
10171TIP3    H230457   3.227   5.367   5.548
10172TIP3   OH230458   2.214   2.579   0.284
10172TIP3    H130459   2.195   2.524   0.209
10172TIP3    H230460   2.166   2.539   0.357
10173TIP3   OH230461   7.770   0.624   4.649
10173TIP3    H130462   7.712   0.699   4.639
10173TIP3    H230463   7.798   0.603   4.560
10174TIP3   OH230464   3.145   4.538   6.731
10174TIP3    H130465   3.145   4.614   6.789
10174TIP3    H230466   3.237   4.517   6.719
10175TIP3   OH230467   3.714   3.950   3.543
10175TIP3    H130468   3.668   3.892   3.603
10175TIP3    H230469   3.798   3.907   3.528
10176TIP3   OH230470   0.833   6.738   2.343
10176TIP3    H130471   0.821   6.698   2.429
10176TIP3    H230472   0.760   6.705   2.291
10177TIP3   OH230473   7.503   1.967   0.755
10177TIP3    H130474   7.438   1.985   0.687
10177TIP3    H230475   7.551   1.891   0.722
10178TIP3   OH230476   2.420   3.500   3.166
10178TIP3    H130477   2.399   3.492   3.073
10178TIP3    H230478   2.515   3.499   3.169
10179TIP3   OH230479   1.236   0.445   1.575
10179TIP3    H130480   1.310   0.441   1.514
10179TIP3    H230481   1.267   0.500   1.647
10180TIP3   OH230482   5.255   6.046   2.563
10180TIP3    H130483   5.215   6.103   2.628
10180TIP3    H230484   5.210   6.068   2.481
10181TIP3   OH230485   7.743   4.449   2.612
10181TIP3    H130486   7.753   4.476   2.704
10181TIP3    H230487   7.825   4.404   2.593
10182TIP3   OH230488   5.835   7.791   4.129
10182TIP3    H130489   5.918   7.793   4.081
10182TIP3    H230490   5.843   7.716   4.188
10183TIP3   OH230491   5.555   2.227   4.986
10183TIP3    H130492   5.478   2.242   4.932
10183TIP3    H230493   5.587   2.314   5.008
10184TIP3   OH230494   6.552  -0.019   0.952
10184TIP3    H130495   6.571  -0.033   0.859
10184TIP3    H230496   6.581   0.070   0.969
10185TIP3   OH230497   4.539   0.077   2.897
10185TIP3    H130498   4.588   0.042   2.971
10185TIP3    H230499   4.585   0.044   2.819
10186TIP3   OH230500   3.252   3.916   5.479
10186TIP3    H130501   3.212   3.830   5.472
10186TIP3    H230502   3.233   3.944   5.569
10187TIP3   OH230503   1.464   1.506   0.886
10187TIP3    H130504   1.407   1.430   0.876
10187TIP3    H230505   1.464   1.524   0.980
10188TIP3   OH230506   2.722   4.551   5.035
10188TIP3    H130507   2.749   4.582   4.948
10188TIP3    H230508   2.758   4.615   5.096
10189TIP3   OH230509   0.696   4.862   0.469
10189TIP3    H130510   0.703   4.773   0.505
10189TIP3    H230511   0.745   4.917   0.531
10190TIP3   OH230512   3.078   4.141   3.771
10190TIP3    H130513   3.121   4.123   3.855
10190TIP3    H230514   2.995   4.094   3.776
10191TIP3   OH230515   1.896   7.607   6.539
10191TIP3    H130516   1.880   7.548   6.466
10191TIP3    H230517   1.838   7.577   6.609
10192TIP3   OH230518   7.265   0.053   3.508
10192TIP3    H130519   7.326  -0.015   3.538
10192TIP3    H230520   7.218   0.080   3.588
10193TIP3   OH230521   6.973   2.944   3.884
10193TIP3    H130522   7.020   3.023   3.859
10193TIP3    H230523   7.035   2.894   3.938
10194TIP3   OH230524   5.366   3.670   2.747
10194TIP3    H130525   5.315   3.634   2.819
10194TIP3    H230526   5.406   3.749   2.783
10195TIP3   OH230527   6.028   2.633   0.924
10195TIP3    H130528   6.015   2.717   0.968
10195TIP3    H230529   5.940   2.598   0.911
10196TIP3   OH230530   8.275   3.405   3.554
10196TIP3    H130531   8.254   3.420   3.647
10196TIP3    H230532   8.192   3.378   3.515
10197TIP3   OH230533   3.924   0.574   1.567
10197TIP3    H130534   3.968   0.650   1.528
10197TIP3    H230535   3.989   0.537   1.627
10198TIP3   OH230536   5.443   2.718   6.239
10198TIP3    H130537   5.479   2.805   6.256
10198TIP3    H230538   5.356   2.735   6.201
10199TIP3   OH230539   0.076   0.887   4.513
10199TIP3    H130540   0.064   0.934   4.431
10199TIP3    H230541   0.167   0.906   4.537
10200TIP3   OH230542   6.955   4.715   2.739
10200TIP3    H130543   6.865   4.734   2.768
10200TIP3    H230544   6.989   4.800   2.711
10201TIP3   OH230545   6.571   4.733   5.885
10201TIP3    H130546   6.665   4.717   5.879
10201TIP3    H230547   6.544   4.689   5.966
10202TIP3   OH230548   3.394   4.907   3.954
10202TIP3    H130549   3.382   4.896   3.860
10202TIP3    H230550   3.322   4.859   3.994
10203TIP3   OH230551   7.844   6.343   2.627
10203TIP3    H130552   7.792   6.402   2.682
10203TIP3    H230553   7.891   6.287   2.690
10204TIP3   OH230554   0.101   1.459   5.536
10204TIP3    H130555   0.094   1.502   5.450
10204TIP3    H230556   0.144   1.376   5.518
10205TIP3   OH230557   1.541   6.555   5.203
10205TIP3    H130558   1.499   6.509   5.276
10205TIP3    H230559   1.610   6.608   5.244
10206TIP3   OH230560   5.477   7.039   5.408
10206TIP3    H130561   5.472   7.127   5.371
10206TIP3    H230562   5.386   7.018   5.431
10207TIP3   OH230563   0.719   1.977   4.717
10207TIP3    H130564   0.735   2.056   4.665
10207TIP3    H230565   0.761   1.907   4.668
10208TIP3   OH230566   5.825   0.052   3.920
10208TIP3    H130567   5.776   0.107   3.981
10208TIP3    H230568   5.914   0.051   3.955
10209TIP3   OH230569   2.811   5.356   0.078
10209TIP3    H130570   2.868   5.302   0.024
10209TIP3    H230571   2.723   5.339   0.044
10210TIP3   OH230572   8.046   4.405   4.855
10210TIP3    H130573   8.045   4.499   4.840
10210TIP3    H230574   8.026   4.367   4.769
10211TIP3   OH230575   0.216   1.663   4.088
10211TIP3    H130576   0.285   1.651   4.153
10211TIP3    H230577   0.142   1.614   4.123
10212TIP3   OH230578   4.781   5.244   3.382
10212TIP3    H130579   4.711   5.179   3.383
10212TIP3    H230580   4.817   5.244   3.470
10213TIP3   OH230581   5.538   6.103   6.734
10213TIP3    H130582   5.573   6.112   6.646
10213TIP3    H230583   5.579   6.173   6.784
10214TIP3   OH230584   0.957   3.901   6.181
10214TIP3    H130585   0.948   3.809   6.157
10214TIP3    H230586   0.957   3.948   6.098
10215TIP3   OH230587   6.562   0.652   2.472
10215TIP3    H130588   6.484   0.603   2.500
10215TIP3    H230589   6.573   0.720   2.538
10216TIP3   OH230590   2.266   0.873   2.606
10216TIP3    H130591   2.185   0.860   2.656
10216TIP3    H230592   2.300   0.957   2.637
10217TIP3   OH230593   2.612   0.064   6.453
10217TIP3    H130594   2.681  -0.001   6.468
10217TIP3    H230595   2.538   0.034   6.505
10218TIP3   OH230596   2.955   2.651   5.014
10218TIP3    H130597   2.920   2.588   5.077
10218TIP3    H230598   2.903   2.730   5.027
10219TIP3   OH230599   1.562   1.358   3.140
10219TIP3    H130600   1.548   1.429   3.203
10219TIP3    H230601   1.567   1.279   3.193
10220TIP3   OH230602   7.539   5.307   0.472
10220TIP3    H130603   7.546   5.326   0.566
10220TIP3    H230604   7.596   5.372   0.430
10221TIP3   OH230605   7.014   7.726   0.203
10221TIP3    H130606   7.091   7.748   0.255
10221TIP3    H230607   6.961   7.670   0.260
10222TIP3   OH230608   4.326   1.980   1.507
10222TIP3    H130609   4.232   1.975   1.524
10222TIP3    H230610   4.365   1.985   1.595
10223TIP3   OH230611   2.621   4.574   1.050
10223TIP3    H130612   2.569   4.610   0.979
10223TIP3    H230613   2.647   4.487   1.020
10224TIP3   OH230614   5.396   3.741   4.839
10224TIP3    H130615   5.449   3.820   4.827
10224TIP3    H230616   5.444   3.690   4.904
10225TIP3   OH230617   7.227   5.789   4.680
10225TIP3    H130618   7.156   5.800   4.617
10225TIP3    H230619   7.299   5.840   4.644
10226TIP3   OH230620   7.389   3.804   4.414
10226TIP3    H130621   7.347   3.802   4.328
10226TIP3    H230622   7.442   3.884   4.413
10227TIP3   OH230623   0.916   3.968   6.456
10227TIP3    H130624   0.933   3.948   6.364
10227TIP3    H230625   0.830   4.011   6.455
10228TIP3   OH230626   4.960   5.289   3.980
10228TIP3    H130627   4.910   5.348   3.924
10228TIP3    H230628   5.003   5.229   3.918
10229TIP3   OH230629   4.293   2.745   3.427
10229TIP3    H130630   4.306   2.660   3.387
10229TIP3    H230631   4.200   2.749   3.447
10230TIP3   OH230632   4.762   2.984   0.817
10230TIP3    H130633   4.671   3.012   0.811
10230TIP3    H230634   4.758   2.890   0.834
10231TIP3   OH230635   6.460   5.402   0.633
10231TIP3    H130636   6.550   5.390   0.602
10231TIP3    H230637   6.470   5.422   0.726
10232TIP3   OH230638   1.313   6.127   2.355
10232TIP3    H130639   1.226   6.097   2.381
10232TIP3    H230640   1.362   6.130   2.437
10233TIP3   OH230641   5.782   5.727   3.991
10233TIP3    H130642   5.804   5.790   4.060
10233TIP3    H230643   5.687   5.734   3.981
10234TIP3   OH230644   0.970   7.793   0.413
10234TIP3    H130645   0.882   7.792   0.374
10234TIP3    H230646   0.957   7.830   0.500
10235TIP3   OH230647   2.175   3.599  -0.002
10235TIP3    H130648   2.221   3.590   0.082
10235TIP3    H230649   2.133   3.685   0.003
10236TIP3   OH230650   6.932   7.323   3.103
10236TIP3    H130651   6.945   7.232   3.133
10236TIP3    H230652   6.893   7.314   3.017
10237TIP3   OH230653   7.204   0.981   4.211
10237TIP3    H130654   7.200   0.907   4.150
10237TIP3    H230655   7.135   1.041   4.181
10238TIP3   OH230656   3.036   2.544   0.473
10238TIP3    H130657   2.954   2.592   0.483
10238TIP3    H230658   3.014   2.453   0.493
10239TIP3   OH230659   5.602   7.458   0.300
10239TIP3    H130660   5.588   7.549   0.328
10239TIP3    H230661   5.564   7.405   0.371
10240TIP3   OH230662   8.142   3.603   3.342
10240TIP3    H130663   8.077   3.662   3.304
10240TIP3    H230664   8.099   3.567   3.420
10241TIP3   OH230665   2.543   1.234   3.622
10241TIP3    H130666   2.582   1.191   3.546
10241TIP3    H230667   2.617   1.262   3.675
10242TIP3   OH230668   1.976   1.110   1.067
10242TIP3    H130669   2.070   1.119   1.083
10242TIP3    H230670   1.940   1.085   1.152
10243TIP3   OH230671   3.220   0.376   0.353
10243TIP3    H130672   3.274   0.451   0.324
10243TIP3    H230673   3.132   0.412   0.363
10244TIP3   OH230674   4.213   2.144   4.516
10244TIP3    H130675   4.166   2.162   4.598
10244TIP3    H230676   4.154   2.086   4.468
10245TIP3   OH230677   1.691   0.912   2.488
10245TIP3    H130678   1.668   0.920   2.581
10245TIP3    H230679   1.615   0.870   2.448
10246TIP3   OH230680   6.346   6.893   2.100
10246TIP3    H130681   6.256   6.888   2.068
10246TIP3    H230682   6.359   6.985   2.123
10247TIP3   OH230683   6.068   2.318   2.471
10247TIP3    H130684   6.105   2.325   2.383
10247TIP3    H230685   6.076   2.407   2.507
10248TIP3   OH230686   4.253   2.902   5.646
10248TIP3    H130687   4.262   2.807   5.637
10248TIP3    H230688   4.277   2.937   5.560
10249TIP3   OH230689   8.142   0.137   5.471
10249TIP3    H130690   8.149   0.101   5.382
10249TIP3    H230691   8.063   0.191   5.469
10250TIP3   OH230692   0.401   7.794   5.314
10250TIP3    H130693   0.361   7.741   5.383
10250TIP3    H230694   0.403   7.883   5.349
10251TIP3   OH230695   3.537   0.776   0.375
10251TIP3    H130696   3.471   0.813   0.316
10251TIP3    H230697   3.555   0.689   0.340
10252TIP3   OH230698  -0.029   2.191   6.334
10252TIP3    H130699   0.013   2.108   6.307
10252TIP3    H230700   0.045   2.248   6.357
10253TIP3   OH230701   0.719   1.290   0.336
10253TIP3    H130702   0.750   1.341   0.411
10253TIP3    H230703   0.671   1.353   0.283
10254TIP3   OH230704   6.717   3.994   5.973
10254TIP3    H130705   6.778   4.024   6.042
10254TIP3    H230706   6.712   4.068   5.913
10255TIP3   OH230707   3.298   3.671   2.017
10255TIP3    H130708   3.316   3.622   2.098
10255TIP3    H230709   3.385   3.692   1.983
10256TIP3   OH230710   0.119   0.680   6.342
10256TIP3    H130711   0.122   0.603   6.399
10256TIP3    H230712   0.146   0.752   6.398
10257TIP3   OH230713   1.973   5.015   0.769
10257TIP3    H130714   2.013   5.091   0.811
10257TIP3    H230715   1.978   5.034   0.675
10258TIP3   OH230716   5.310   5.082   0.450
10258TIP3    H130717   5.355   5.101   0.367
10258TIP3    H230718   5.305   5.166   0.495
10259TIP3   OH230719   2.257   4.869   5.971
10259TIP3    H130720   2.335   4.923   5.961
10259TIP3    H230721   2.191   4.928   6.007
10260TIP3   OH230722   3.664   6.758   3.199
10260TIP3    H130723   3.618   6.687   3.244
10260TIP3    H230724   3.646   6.742   3.106
10261TIP3   OH230725   6.315   1.731   2.011
10261TIP3    H130726   6.314   1.661   1.946
10261TIP3    H230727   6.404   1.728   2.047
10262TIP3   OH230728   6.430   2.168   3.801
10262TIP3    H130729   6.422   2.168   3.896
10262TIP3    H230730   6.448   2.259   3.778
10263TIP3   OH230731   7.961   5.202   0.840
10263TIP3    H130732   7.899   5.233   0.905
10263TIP3    H230733   7.906   5.169   0.768
10264TIP3   OH230734   0.168   4.134   5.502
10264TIP3    H130735   0.242   4.123   5.562
10264TIP3    H230736   0.123   4.049   5.504
10265TIP3   OH230737   4.192   7.475   3.923
10265TIP3    H130738   4.110   7.480   3.972
10265TIP3    H230739   4.243   7.550   3.954
10266TIP3   OH230740   7.914   0.680   3.534
10266TIP3    H130741   7.924   0.765   3.492
10266TIP3    H230742   7.956   0.619   3.473
10267TIP3   OH230743   6.934   5.489   1.817
10267TIP3    H130744   7.022   5.518   1.839
10267TIP3    H230745   6.921   5.409   1.868
10268TIP3   OH230746   8.079   2.635   6.488
10268TIP3    H130747   8.049   2.563   6.544
10268TIP3    H230748   8.038   2.619   6.404
10269TIP3   OH230749   0.673   1.329   4.760
10269TIP3    H130750   0.752   1.360   4.805
10269TIP3    H230751   0.706   1.291   4.679
10270TIP3   OH230752   3.185   5.665   3.440
10270TIP3    H130753   3.099   5.626   3.422
10270TIP3    H230754   3.247   5.595   3.420
10271TIP3   OH230755   0.441   5.250   0.265
10271TIP3    H130756   0.433   5.171   0.212
10271TIP3    H230757   0.513   5.232   0.325
10272TIP3   OH230758   1.227   4.420   2.583
10272TIP3    H130759   1.215   4.372   2.501
10272TIP3    H230760   1.150   4.478   2.588
10273TIP3   OH230761   2.362   0.848   3.752
10273TIP3    H130762   2.398   0.846   3.841
10273TIP3    H230763   2.409   0.778   3.706
10274TIP3   OH230764   5.835   7.511   2.647
10274TIP3    H130765   5.913   7.548   2.606
10274TIP3    H230766   5.770   7.507   2.577
10275TIP3   OH230767   1.301   0.788   3.044
10275TIP3    H130768   1.302   0.694   3.027
10275TIP3    H230769   1.210   0.807   3.067
10276TIP3   OH230770   4.536   4.783   4.372
10276TIP3    H130771   4.528   4.842   4.448
10276TIP3    H230772   4.491   4.829   4.301
10277TIP3   OH230773   5.813   4.544   0.877
10277TIP3    H130774   5.811   4.503   0.963
10277TIP3    H230775   5.722   4.567   0.859
10278TIP3   OH230776   6.151   1.279   1.439
10278TIP3    H130777   6.117   1.191   1.452
10278TIP3    H230778   6.132   1.299   1.347
10279TIP3   OH230779   3.334   4.085   0.941
10279TIP3    H130780   3.357   4.047   0.856
10279TIP3    H230781   3.411   4.069   0.996
10280TIP3   OH230782   4.287   5.467   6.409
10280TIP3    H130783   4.328   5.386   6.440
10280TIP3    H230784   4.320   5.535   6.467
10281TIP3   OH230785   5.842   0.641   0.586
10281TIP3    H130786   5.903   0.581   0.543
10281TIP3    H230787   5.756   0.613   0.554
10282TIP3   OH230788   2.442   0.661   4.669
10282TIP3    H130789   2.515   0.701   4.717
10282TIP3    H230790   2.404   0.734   4.619
10283TIP3   OH230791   6.586   0.095   5.283
10283TIP3    H130792   6.633   0.112   5.202
10283TIP3    H230793   6.633   0.022   5.324
10284TIP3   OH230794   5.701   1.952   1.919
10284TIP3    H130795   5.791   1.929   1.942
10284TIP3    H230796   5.699   1.952   1.824
10285TIP3   OH230797   2.835   4.231  -0.022
10285TIP3    H130798   2.749   4.232   0.021
10285TIP3    H230799   2.898   4.228   0.050
10286TIP3   OH230800   6.250   1.474   6.720
10286TIP3    H130801   6.339   1.476   6.684
10286TIP3    H230802   6.259   1.516   6.806
10287TIP3   OH230803   0.738   4.980   2.020
10287TIP3    H130804   0.761   4.897   1.977
10287TIP3    H230805   0.705   5.036   1.949
10288TIP3   OH230806   1.636   1.055   0.948
10288TIP3    H130807   1.585   1.023   0.873
10288TIP3    H230808   1.721   1.011   0.939
10289TIP3   OH230809   7.974   6.066   4.454
10289TIP3    H130810   8.008   6.002   4.391
10289TIP3    H230811   8.015   6.043   4.537
10290TIP3   OH230812   0.777   1.796   0.469
10290TIP3    H130813   0.838   1.868   0.451
10290TIP3    H230814   0.811   1.755   0.548
10291TIP3   OH230815   5.665   5.666   6.268
10291TIP3    H130816   5.658   5.721   6.346
10291TIP3    H230817   5.582   5.679   6.222
10292TIP3   OH230818   1.957   7.210   3.048
10292TIP3    H130819   2.026   7.270   3.074
10292TIP3    H230820   2.003   7.127   3.033
10293TIP3   OH230821   5.340   0.683   4.457
10293TIP3    H130822   5.294   0.600   4.448
10293TIP3    H230823   5.406   0.683   4.388
10294TIP3   OH230824   7.379   2.356   6.618
10294TIP3    H130825   7.421   2.309   6.689
10294TIP3    H230826   7.301   2.396   6.657
10295TIP3   OH230827   0.326   1.742   0.235
10295TIP3    H130828   0.286   1.811   0.288
10295TIP3    H230829   0.380   1.693   0.296
10296TIP3   OH230830   5.314   4.629   6.411
10296TIP3    H130831   5.328   4.566   6.341
10296TIP3    H230832   5.400   4.639   6.452
10297TIP3   OH230833   5.670   3.285   0.815
10297TIP3    H130834   5.703   3.299   0.904
10297TIP3    H230835   5.662   3.374   0.779
10298TIP3   OH230836   1.160   3.666   6.010
10298TIP3    H130837   1.069   3.695   6.007
10298TIP3    H230838   1.155   3.571   6.006
10299TIP3   OH230839   5.978   5.122   2.647
10299TIP3    H130840   6.001   5.196   2.704
10299TIP3    H230841   5.909   5.077   2.694
10300TIP3   OH230842   1.823   2.049   4.653
10300TIP3    H130843   1.814   2.124   4.594
10300TIP3    H230844   1.765   1.982   4.616
10301TIP3   OH230845   3.694   6.396   6.318
10301TIP3    H130846   3.786   6.370   6.310
10301TIP3    H230847   3.689   6.482   6.276
10302TIP3   OH230848   1.268   1.432   2.263
10302TIP3    H130849   1.279   1.447   2.357
10302TIP3    H230850   1.231   1.344   2.256
10303TIP3   OH230851   2.014   7.377   3.531
10303TIP3    H130852   1.922   7.355   3.546
10303TIP3    H230853   2.046   7.408   3.615
10304TIP3   OH230854   4.750   4.400   3.728
10304TIP3    H130855   4.745   4.389   3.633
10304TIP3    H230856   4.687   4.470   3.747
10305TIP3   OH230857   2.529   5.917   1.480
10305TIP3    H130858   2.595   5.934   1.546
10305TIP3    H230859   2.573   5.936   1.397
10306TIP3   OH230860   0.594   6.669   1.387
10306TIP3    H130861   0.664   6.673   1.452
10306TIP3    H230862   0.600   6.581   1.350
10307TIP3   OH230863   2.953   1.462   5.831
10307TIP3    H130864   2.991   1.549   5.822
10307TIP3    H230865   3.026   1.406   5.858
10308TIP3   OH230866   4.981   0.897   1.068
10308TIP3    H130867   4.938   0.841   1.004
10308TIP3    H230868   5.074   0.875   1.061
10309TIP3   OH230869   7.422   5.484   2.088
10309TIP3    H130870   7.465   5.401   2.066
10309TIP3    H230871   7.339   5.482   2.039
10310TIP3   OH230872   0.133   3.295   0.081
10310TIP3    H130873   0.221   3.267   0.104
10310TIP3    H230874   0.079   3.270   0.156
10311TIP3   OH230875   0.842   7.169   5.812
10311TIP3    H130876   0.918   7.140   5.863
10311TIP3    H230877   0.834   7.105   5.742
10312TIP3   OH230878   7.319   0.755   4.361
10312TIP3    H130879   7.306   0.838   4.315
10312TIP3    H230880   7.356   0.697   4.295
10313TIP3   OH230881   1.826   6.653   3.367
10313TIP3    H130882   1.914   6.619   3.355
10313TIP3    H230883   1.795   6.612   3.448
10314TIP3   OH230884   4.174   7.542   2.724
10314TIP3    H130885   4.123   7.622   2.731
10314TIP3    H230886   4.152   7.507   2.638
10315TIP3   OH230887   1.965   0.214   2.928
10315TIP3    H130888   1.877   0.177   2.932
10315TIP3    H230889   1.995   0.194   2.839
10316TIP3   OH230890   2.357   2.824   2.998
10316TIP3    H130891   2.322   2.892   2.940
10316TIP3    H230892   2.340   2.742   2.952
10317TIP3   OH230893   3.494   2.920   1.868
10317TIP3    H130894   3.489   2.957   1.780
10317TIP3    H230895   3.571   2.863   1.866
10318TIP3   OH230896   4.300   0.137   4.560
10318TIP3    H130897   4.216   0.091   4.548
10318TIP3    H230898   4.281   0.206   4.623
10319TIP3   OH230899   0.312   4.797  -0.013
10319TIP3    H130900   0.295   4.732   0.056
10319TIP3    H230901   0.307   4.881   0.032
10320TIP3   OH230902   3.951   0.918   4.408
10320TIP3    H130903   3.857   0.903   4.398
10320TIP3    H230904   3.977   0.961   4.326
10321TIP3   OH230905   6.095   6.468   5.020
10321TIP3    H130906   6.188   6.452   5.010
10321TIP3    H230907   6.089   6.532   5.091
10322TIP3   OH230908   3.861   2.344   2.502
10322TIP3    H130909   3.829   2.408   2.439
10322TIP3    H230910   3.837   2.259   2.464
10323TIP3   OH230911   1.973   7.412   3.261
10323TIP3    H130912   2.018   7.405   3.345
10323TIP3    H230913   1.882   7.430   3.285
10324TIP3   OH230914   2.304   5.925   0.374
10324TIP3    H130915   2.373   5.960   0.429
10324TIP3    H230916   2.349   5.868   0.312
10325TIP3   OH230917   8.182   6.050   5.481
10325TIP3    H130918   8.240   5.982   5.517
10325TIP3    H230919   8.143   6.009   5.404
10326TIP3   OH230920   1.545   1.989   2.452
10326TIP3    H130921   1.564   2.080   2.428
10326TIP3    H230922   1.557   1.987   2.547
10327TIP3   OH230923   1.814   7.315   3.944
10327TIP3    H130924   1.805   7.410   3.943
10327TIP3    H230925   1.725   7.283   3.931
10328TIP3   OH230926   1.063   3.011   4.512
10328TIP3    H130927   1.134   3.070   4.489
10328TIP3    H230928   1.091   2.970   4.594
10329TIP3   OH230929   7.747   2.902   5.844
10329TIP3    H130930   7.817   2.919   5.907
10329TIP3    H230931   7.790   2.904   5.759
10330TIP3   OH230932   7.873   0.253   5.391
10330TIP3    H130933   7.790   0.280   5.352
10330TIP3    H230934   7.896   0.324   5.451
10331TIP3   OH230935   3.494   4.217   1.331
10331TIP3    H130936   3.448   4.174   1.404
10331TIP3    H230937   3.447   4.300   1.320
10332TIP3   OH230938   1.124   3.849   2.872
10332TIP3    H130939   1.056   3.838   2.805
10332TIP3    H230940   1.101   3.931   2.916
10333TIP3   OH230941   7.419   4.369   0.729
10333TIP3    H130942   7.459   4.283   0.737
10333TIP3    H230943   7.471   4.414   0.662
10334TIP3   OH230944   0.755   4.279   4.209
10334TIP3    H130945   0.687   4.339   4.179
10334TIP3    H230946   0.825   4.336   4.240
10335TIP3   OH230947   1.700   6.526   0.485
10335TIP3    H130948   1.663   6.486   0.564
10335TIP3    H230949   1.794   6.505   0.490
10336TIP3   OH230950   3.141   3.651   4.469
10336TIP3    H130951   3.131   3.584   4.536
10336TIP3    H230952   3.069   3.634   4.408
10337TIP3   OH230953   0.833   2.394   0.598
10337TIP3    H130954   0.918   2.350   0.607
10337TIP3    H230955   0.830   2.422   0.507
10338TIP3   OH230956   5.680   4.922   1.260
10338TIP3    H130957   5.643   4.987   1.200
10338TIP3    H230958   5.750   4.968   1.305
10339TIP3   OH230959   7.261   5.352   2.742
10339TIP3    H130960   7.289   5.428   2.791
10339TIP3    H230961   7.191   5.313   2.794
10340TIP3   OH230962   1.118   0.156   3.605
10340TIP3    H130963   1.060   0.200   3.667
10340TIP3    H230964   1.204   0.195   3.621
10341TIP3   OH230965   4.627   1.363   4.638
10341TIP3    H130966   4.704   1.413   4.610
10341TIP3    H230967   4.553   1.422   4.623
10342TIP3   OH230968   6.374   5.632   6.762
10342TIP3    H130969   6.313   5.698   6.796
10342TIP3    H230970   6.319   5.570   6.715
10343TIP3   OH230971   4.946   6.619   4.049
10343TIP3    H130972   4.935   6.582   3.962
10343TIP3    H230973   5.028   6.668   4.045
10344TIP3   OH230974   2.942   2.930   0.662
10344TIP3    H130975   3.000   2.903   0.591
10344TIP3    H230976   2.910   2.847   0.699
10345TIP3   OH230977   1.511   2.541   4.382
10345TIP3    H130978   1.601   2.530   4.411
10345TIP3    H230979   1.511   2.516   4.290
10346TIP3   OH230980   6.989   3.621   0.685
10346TIP3    H130981   6.983   3.526   0.670
10346TIP3    H230982   6.917   3.658   0.635
10347TIP3   OH230983   4.224   3.895   3.423
10347TIP3    H130984   4.280   3.950   3.478
10347TIP3    H230985   4.285   3.851   3.363
10348TIP3   OH230986   4.729   2.275   6.654
10348TIP3    H130987   4.659   2.284   6.589
10348TIP3    H230988   4.716   2.349   6.713
10349TIP3   OH230989   0.245   1.934   3.261
10349TIP3    H130990   0.302   1.944   3.338
10349TIP3    H230991   0.265   2.011   3.208
10350TIP3   OH230992   0.746   3.702   4.262
10350TIP3    H130993   0.759   3.641   4.334
10350TIP3    H230994   0.712   3.781   4.304
10351TIP3   OH230995   4.054   1.813   3.066
10351TIP3    H130996   4.121   1.782   3.005
10351TIP3    H230997   4.069   1.762   3.145
10352TIP3   OH230998   4.867   5.261   3.644
10352TIP3    H130999   4.913   5.345   3.651
10352TIP3    H231000   4.933   5.200   3.612
10353TIP3   OH231001   3.280   5.500   4.894
10353TIP3    H131002   3.283   5.596   4.896
10353TIP3    H231003   3.275   5.478   4.801
10354TIP3   OH231004   3.800   4.586   4.489
10354TIP3    H131005   3.709   4.559   4.503
10354TIP3    H231006   3.829   4.617   4.574
10355TIP3   OH231007   5.003   7.028   6.323
10355TIP3    H131008   4.911   7.053   6.320
10355TIP3    H231009   5.033   7.056   6.409
10356TIP3   OH231010   7.313   1.981   6.377
10356TIP3    H131011   7.407   1.999   6.375
10356TIP3    H231012   7.292   1.951   6.289
10357TIP3   OH231013   1.867   2.081   5.807
10357TIP3    H131014   1.953   2.101   5.845
10357TIP3    H231015   1.841   2.000   5.850
10358TIP3   OH231016   4.928   1.207   6.344
10358TIP3    H131017   4.959   1.184   6.431
10358TIP3    H231018   4.945   1.130   6.290
10359TIP3   OH231019   6.286   4.347   6.486
10359TIP3    H131020   6.249   4.357   6.399
10359TIP3    H231021   6.367   4.298   6.472
10360TIP3   OH231022   5.680   3.887   5.448
10360TIP3    H131023   5.774   3.907   5.447
10360TIP3    H231024   5.675   3.793   5.436
10361TIP3   OH231025   0.064   4.702   6.373
10361TIP3    H131026   0.128   4.769   6.397
10361TIP3    H231027   0.112   4.641   6.317
10362TIP3   OH231028   3.808   0.665   6.583
10362TIP3    H131029   3.834   0.629   6.499
10362TIP3    H231030   3.747   0.600   6.619
10363TIP3   OH231031   8.252   3.009   6.199
10363TIP3    H131032   8.303   3.088   6.219
10363TIP3    H231033   8.298   2.939   6.244
10364TIP3   OH231034   8.187   4.482   4.483
10364TIP3    H131035   8.192   4.506   4.391
10364TIP3    H231036   8.243   4.546   4.528
10365TIP3   OH231037   7.741   4.630   5.031
10365TIP3    H131038   7.800   4.574   5.081
10365TIP3    H231039   7.769   4.719   5.052
10366TIP3   OH231040   8.288   6.058   3.615
10366TIP3    H131041   8.273   6.145   3.580
10366TIP3    H231042   8.243   5.999   3.554
10367TIP3   OH231043   3.795   7.272   3.601
10367TIP3    H131044   3.857   7.344   3.608
10367TIP3    H231045   3.849   7.193   3.607
10368TIP3   OH231046   6.064   4.402   1.273
10368TIP3    H131047   6.024   4.488   1.280
10368TIP3    H231048   6.086   4.379   1.363
10369TIP3   OH231049   2.310   6.826   0.473
10369TIP3    H131050   2.323   6.758   0.539
10369TIP3    H231051   2.238   6.879   0.507
10370TIP3   OH231052   2.658   5.807   1.772
10370TIP3    H131053   2.578   5.755   1.776
10370TIP3    H231054   2.721   5.759   1.826
10371TIP3   OH231055   6.007   1.229   6.062
10371TIP3    H131056   5.994   1.258   5.972
10371TIP3    H231057   5.941   1.161   6.075
10372TIP3   OH231058   5.241   4.469   6.622
10372TIP3    H131059   5.258   4.520   6.543
10372TIP3    H231060   5.271   4.524   6.694
10373TIP3   OH231061   2.169   7.382   0.103
10373TIP3    H131062   2.231   7.310   0.092
10373TIP3    H231063   2.210   7.456   0.060
10374TIP3   OH231064   7.835   1.258   3.390
10374TIP3    H131065   7.832   1.232   3.482
10374TIP3    H231066   7.905   1.205   3.352
10375TIP3   OH231067   7.978   1.915   3.195
10375TIP3    H131068   8.062   1.896   3.153
10375TIP3    H231069   7.980   2.009   3.211
10376TIP3   OH231070   0.717   3.623   0.726
10376TIP3    H131071   0.723   3.718   0.737
10376TIP3    H231072   0.635   3.600   0.771
10377TIP3   OH231073   4.226   0.193   5.171
10377TIP3    H131074   4.231   0.194   5.075
10377TIP3    H231075   4.164   0.122   5.190
10378TIP3   OH231076   3.177   7.602   4.489
10378TIP3    H131077   3.248   7.666   4.489
10378TIP3    H231078   3.168   7.576   4.397
10379TIP3   OH231079   3.686   5.796   1.478
10379TIP3    H131080   3.711   5.832   1.563
10379TIP3    H231081   3.711   5.864   1.416
10380TIP3   OH231082   4.850   6.658   0.498
10380TIP3    H131083   4.825   6.723   0.433
10380TIP3    H231084   4.937   6.628   0.469
10381TIP3   OH231085   0.036   4.837   0.434
10381TIP3    H131086   0.007   4.925   0.460
10381TIP3    H231087   0.041   4.788   0.516
10382TIP3   OH231088   2.040   3.236   4.971
10382TIP3    H131089   2.110   3.301   4.968
10382TIP3    H231090   1.981   3.267   5.039
10383TIP3   OH231091   5.532   3.451   2.652
10383TIP3    H131092   5.485   3.523   2.693
10383TIP3    H231093   5.487   3.437   2.569
10384TIP3   OH231094   5.908   2.693   1.462
10384TIP3    H131095   5.875   2.779   1.487
10384TIP3    H231096   5.891   2.638   1.538
10385TIP3   OH231097   5.387   5.904   4.503
10385TIP3    H131098   5.346   5.968   4.561
10385TIP3    H231099   5.361   5.931   4.415
10386TIP3   OH231100   7.152   1.718   0.655
10386TIP3    H131101   7.148   1.762   0.570
10386TIP3    H231102   7.179   1.787   0.716
10387TIP3   OH231103   5.038   0.005   0.125
10387TIP3    H131104   5.105   0.058   0.169
10387TIP3    H231105   4.956   0.049   0.144
10388TIP3   OH231106   5.924   7.021   6.693
10388TIP3    H131107   6.015   7.046   6.679
10388TIP3    H231108   5.898   6.979   6.610
10389TIP3   OH231109   1.597   7.151   3.931
10389TIP3    H131110   1.614   7.078   3.873
10389TIP3    H231111   1.507   7.178   3.912
10390TIP3   OH231112   8.085   0.704   2.754
10390TIP3    H131113   8.008   0.754   2.727
10390TIP3    H231114   8.119   0.668   2.672
10391TIP3   OH231115   7.842   3.707   1.769
10391TIP3    H131116   7.904   3.672   1.833
10391TIP3    H231117   7.873   3.796   1.751
10392TIP3   OH231118   3.662   7.314   6.377
10392TIP3    H131119   3.657   7.307   6.282
10392TIP3    H231120   3.583   7.270   6.408
10393TIP3   OH231121   3.269   6.376   3.564
10393TIP3    H131122   3.211   6.327   3.506
10393TIP3    H231123   3.345   6.318   3.577
10394TIP3   OH231124   6.866   3.742  -0.004
10394TIP3    H131125   6.899   3.820   0.040
10394TIP3    H231126   6.905   3.669   0.044
10395TIP3   OH231127   1.230   0.157   2.872
10395TIP3    H131128   1.165   0.173   2.803
10395TIP3    H231129   1.184   0.178   2.953
10396TIP3   OH231130   2.557   7.363   2.278
10396TIP3    H131131   2.496   7.393   2.211
10396TIP3    H231132   2.527   7.404   2.359
10397TIP3   OH231133   5.178   6.712   6.512
10397TIP3    H131134   5.215   6.794   6.544
10397TIP3    H231135   5.155   6.730   6.421
10398TIP3   OH231136   7.961   6.555   2.450
10398TIP3    H131137   7.910   6.484   2.489
10398TIP3    H231138   8.046   6.552   2.494
10399TIP3   OH231139   6.567   3.179   0.740
10399TIP3    H131140   6.519   3.096   0.734
10399TIP3    H231141   6.625   3.168   0.815
10400TIP3   OH231142   5.685   4.733   1.087
10400TIP3    H131143   5.769   4.694   1.109
10400TIP3    H231144   5.676   4.807   1.147
10401TIP3   OH231145   1.886   2.792   3.056
10401TIP3    H131146   1.885   2.817   2.964
10401TIP3    H231147   1.889   2.874   3.104
10402TIP3   OH231148   3.280   4.665   4.100
10402TIP3    H131149   3.293   4.650   4.194
10402TIP3    H231150   3.205   4.610   4.078
10403TIP3   OH231151   2.647   1.504   5.986
10403TIP3    H131152   2.590   1.448   6.039
10403TIP3    H231153   2.721   1.523   6.042
10404TIP3   OH231154   5.606   6.070   3.244
10404TIP3    H131155   5.624   6.061   3.337
10404TIP3    H231156   5.692   6.076   3.203
10405TIP3   OH231157   3.358   6.041   3.179
10405TIP3    H131158   3.360   6.114   3.117
10405TIP3    H231159   3.321   5.968   3.129
10406TIP3   OH231160   3.885   4.638   1.558
10406TIP3    H131161   3.875   4.579   1.632
10406TIP3    H231162   3.943   4.591   1.497
10407TIP3   OH231163   0.469   3.212   1.625
10407TIP3    H131164   0.499   3.251   1.707
10407TIP3    H231165   0.379   3.184   1.643
10408TIP3   OH231166   6.992   1.278   5.069
10408TIP3    H131167   6.950   1.192   5.069
10408TIP3    H231168   6.938   1.331   5.128
10409TIP3   OH231169   4.286   0.489   1.918
10409TIP3    H131170   4.329   0.404   1.928
10409TIP3    H231171   4.237   0.501   2.000
10410TIP3   OH231172   0.170   1.404   2.878
10410TIP3    H131173   0.190   1.470   2.811
10410TIP3    H231174   0.139   1.454   2.953
10411TIP3   OH231175   6.352   1.994   5.998
10411TIP3    H131176   6.414   1.922   6.003
10411TIP3    H231177   6.310   1.995   6.083
10412TIP3   OH231178   2.253   5.349   3.212
10412TIP3    H131179   2.277   5.400   3.290
10412TIP3    H231180   2.229   5.263   3.247
10413TIP3   OH231181   7.941   1.999   4.990
10413TIP3    H131182   8.018   2.054   4.979
10413TIP3    H231183   7.951   1.930   4.925
10414TIP3   OH231184   3.601   0.795   3.338
10414TIP3    H131185   3.569   0.830   3.255
10414TIP3    H231186   3.695   0.781   3.323
10415TIP3   OH231187   5.121   4.223   4.633
10415TIP3    H131188   5.079   4.239   4.548
10415TIP3    H231189   5.202   4.178   4.611
10416TIP3   OH231190   3.714   5.151   1.068
10416TIP3    H131191   3.671   5.093   1.005
10416TIP3    H231192   3.684   5.120   1.154
10417TIP3   OH231193   1.383   0.955   2.200
10417TIP3    H131194   1.446   1.026   2.215
10417TIP3    H231195   1.429   0.894   2.142
10418TIP3   OH231196   0.203   5.330   0.484
10418TIP3    H131197   0.190   5.340   0.389
10418TIP3    H231198   0.296   5.345   0.497
10419TIP3   OH231199   1.642   4.070   1.953
10419TIP3    H131200   1.674   4.073   1.863
10419TIP3    H231201   1.681   4.148   1.994
10420TIP3   OH231202   5.269   4.661   0.311
10420TIP3    H131203   5.194   4.601   0.311
10420TIP3    H231204   5.243   4.732   0.370
10421TIP3   OH231205   5.161   1.896   0.216
10421TIP3    H131206   5.092   1.903   0.150
10421TIP3    H231207   5.235   1.858   0.169
10422TIP3   OH231208   0.875   5.874   5.309
10422TIP3    H131209   0.802   5.878   5.371
10422TIP3    H231210   0.875   5.959   5.266
10423TIP3   OH231211   1.287   2.982   0.974
10423TIP3    H131212   1.244   2.945   0.897
10423TIP3    H231213   1.278   3.076   0.965
10424TIP3   OH231214   5.926   0.539   3.509
10424TIP3    H131215   5.861   0.510   3.445
10424TIP3    H231216   5.994   0.472   3.506
10425TIP3   OH231217   1.837   0.307   5.156
10425TIP3    H131218   1.879   0.293   5.241
10425TIP3    H231219   1.812   0.400   5.157
10426TIP3   OH231220   3.613   2.355   3.205
10426TIP3    H131221   3.517   2.356   3.206
10426TIP3    H231222   3.636   2.362   3.112
10427TIP3   OH231223   2.984   4.495   2.555
10427TIP3    H131224   3.051   4.440   2.515
10427TIP3    H231225   2.931   4.434   2.606
10428TIP3   OH231226   2.174   7.007   1.960
10428TIP3    H131227   2.195   6.945   2.030
10428TIP3    H231228   2.092   7.048   1.988
10429TIP3   OH231229   4.650   5.475   3.282
10429TIP3    H131230   4.677   5.398   3.332
10429TIP3    H231231   4.674   5.549   3.338
10430TIP3   OH231232   2.746   5.435   0.500
10430TIP3    H131233   2.711   5.406   0.585
10430TIP3    H231234   2.762   5.354   0.452
10431TIP3   OH231235   6.587   0.912   5.939
10431TIP3    H131236   6.680   0.892   5.926
10431TIP3    H231237   6.558   0.848   6.004
10432TIP3   OH231238   2.298   4.002   4.101
10432TIP3    H131239   2.242   3.983   4.026
10432TIP3    H231240   2.343   3.919   4.118
10433TIP3   OH231241   8.204   7.780   1.104
10433TIP3    H131242   8.232   7.756   1.192
10433TIP3    H231243   8.247   7.864   1.087
10434TIP3   OH231244   3.879   2.890   6.638
10434TIP3    H131245   3.912   2.842   6.562
10434TIP3    H231246   3.845   2.972   6.603
10435TIP3   OH231247   3.284   6.843   3.095
10435TIP3    H131248   3.312   6.880   3.179
10435TIP3    H231249   3.222   6.774   3.118
10436TIP3   OH231250   7.700   1.661   1.334
10436TIP3    H131251   7.617   1.615   1.319
10436TIP3    H231252   7.676   1.753   1.337
10437TIP3   OH231253   7.192   4.309   5.904
10437TIP3    H131254   7.127   4.239   5.898
10437TIP3    H231255   7.196   4.331   5.997
10438TIP3   OH231256   3.804   0.413   4.861
10438TIP3    H131257   3.812   0.397   4.955
10438TIP3    H231258   3.779   0.506   4.855
10439TIP3   OH231259   2.750   5.836   3.098
10439TIP3    H131260   2.787   5.885   3.024
10439TIP3    H231261   2.675   5.888   3.125
10440TIP3   OH231262   1.856   6.862   4.194
10440TIP3    H131263   1.937   6.869   4.245
10440TIP3    H231264   1.853   6.770   4.167
10441TIP3   OH231265   0.290   3.504   0.017
10441TIP3    H131266   0.233   3.431   0.040
10441TIP3    H231267   0.312   3.545   0.100
10442TIP3   OH231268   7.567   4.023   4.334
10442TIP3    H131269   7.563   3.957   4.265
10442TIP3    H231270   7.658   4.024   4.361
10443TIP3   OH231271   0.612   5.322   4.755
10443TIP3    H131272   0.622   5.270   4.835
10443TIP3    H231273   0.701   5.334   4.723
10444TIP3   OH231274   2.349   3.197   0.096
10444TIP3    H131275   2.391   3.277   0.126
10444TIP3    H231276   2.358   3.199   0.001
10445TIP3   OH231277   7.241   2.308   4.188
10445TIP3    H131278   7.217   2.348   4.104
10445TIP3    H231279   7.335   2.322   4.195
10446TIP3   OH231280   0.162   3.934   5.899
10446TIP3    H131281   0.187   3.879   5.973
10446TIP3    H231282   0.080   3.896   5.867
10447TIP3   OH231283   2.950   7.806   2.473
10447TIP3    H131284   2.886   7.789   2.403
10447TIP3    H231285   3.016   7.737   2.462
10448TIP3   OH231286   7.006   7.056   2.626
10448TIP3    H131287   7.007   7.149   2.648
10448TIP3    H231288   6.929   7.045   2.571
10449TIP3   OH231289   3.739   6.356   4.257
10449TIP3    H131290   3.798   6.306   4.313
10449TIP3    H231291   3.744   6.445   4.290
10450TIP3   OH231292   6.128   1.004   5.356
10450TIP3    H131293   6.103   1.051   5.277
10450TIP3    H231294   6.048   0.958   5.382
10451TIP3   OH231295   1.574   4.121   0.485
10451TIP3    H131296   1.491   4.135   0.439
10451TIP3    H231297   1.616   4.050   0.438
10452TIP3   OH231298   0.741   0.640   6.424
10452TIP3    H131299   0.708   0.698   6.356
10452TIP3    H231300   0.667   0.585   6.447
10453TIP3   OH231301   3.235   4.008   4.327
10453TIP3    H131302   3.269   4.092   4.296
10453TIP3    H231303   3.252   3.947   4.255
10454TIP3   OH231304   4.323   4.255   5.570
10454TIP3    H131305   4.294   4.170   5.605
10454TIP3    H231306   4.419   4.250   5.573
10455TIP3   OH231307   7.500   4.498   0.300
10455TIP3    H131308   7.551   4.420   0.278
10455TIP3    H231309   7.416   4.485   0.255
10456TIP3   OH231310   7.524   2.252   0.295
10456TIP3    H131311   7.438   2.217   0.272
10456TIP3    H231312   7.515   2.283   0.384
10457TIP3   OH231313   8.153   3.443   5.465
10457TIP3    H131314   8.059   3.463   5.466
10457TIP3    H231315   8.196   3.527   5.449
10458TIP3   OH231316   0.794   1.438   1.048
10458TIP3    H131317   0.703   1.415   1.066
10458TIP3    H231318   0.793   1.534   1.042
10459TIP3   OH231319   7.958   1.915   6.637
10459TIP3    H131320   7.885   1.853   6.635
10459TIP3    H231321   7.922   1.994   6.677
10460TIP3   OH231322   0.927   6.589   2.577
10460TIP3    H131323   0.960   6.556   2.493
10460TIP3    H231324   0.853   6.533   2.598
10461TIP3   OH231325   2.977   0.618   0.996
10461TIP3    H131326   3.020   0.703   0.988
10461TIP3    H231327   3.041   0.555   0.964
10462TIP3   OH231328   4.071   3.969   4.490
10462TIP3    H131329   4.068   3.943   4.582
10462TIP3    H231330   4.083   4.064   4.493
10463TIP3   OH231331   7.773   2.734   5.373
10463TIP3    H131332   7.708   2.666   5.360
10463TIP3    H231333   7.840   2.716   5.307
10464TIP3   OH231334   6.502   7.462   0.397
10464TIP3    H131335   6.489   7.404   0.472
10464TIP3    H231336   6.595   7.483   0.400
10465TIP3   OH231337   7.504   5.484   3.785
10465TIP3    H131338   7.503   5.464   3.692
10465TIP3    H231339   7.596   5.481   3.810
10466TIP3   OH231340   5.533   3.585   6.429
10466TIP3    H131341   5.603   3.616   6.370
10466TIP3    H231342   5.488   3.665   6.456
10467TIP3   OH231343   0.252   6.234   4.127
10467TIP3    H131344   0.203   6.302   4.080
10467TIP3    H231345   0.186   6.170   4.153
10468TIP3   OH231346   3.021   0.516   3.621
10468TIP3    H131347   2.983   0.506   3.708
10468TIP3    H231348   2.945   0.517   3.562
10469TIP3   OH231349   2.623   5.224   2.502
10469TIP3    H131350   2.541   5.257   2.538
10469TIP3    H231351   2.678   5.210   2.578
10470TIP3   OH231352   3.707   4.361   0.885
10470TIP3    H131353   3.780   4.414   0.856
10470TIP3    H231354   3.696   4.382   0.978
10471TIP3   OH231355   7.964   7.014   5.440
10471TIP3    H131356   7.997   6.946   5.381
10471TIP3    H231357   8.019   7.091   5.422
10472TIP3   OH231358   3.587   7.143   3.758
10472TIP3    H131359   3.530   7.220   3.765
10472TIP3    H231360   3.669   7.178   3.723
10473TIP3   OH231361   6.595   3.834   4.843
10473TIP3    H131362   6.549   3.916   4.827
10473TIP3    H231363   6.599   3.791   4.757
10474TIP3   OH231364   7.572   4.741   6.445
10474TIP3    H131365   7.546   4.815   6.500
10474TIP3    H231366   7.657   4.766   6.409
10475TIP3   OH231367   4.313   1.349   2.232
10475TIP3    H131368   4.333   1.320   2.321
10475TIP3    H231369   4.394   1.333   2.183
10476TIP3   OH231370   6.521   0.432   2.981
10476TIP3    H131371   6.588   0.460   2.919
10476TIP3    H231372   6.440   0.433   2.930
10477TIP3   OH231373   5.462   4.866   2.844
10477TIP3    H131374   5.515   4.936   2.881
10477TIP3    H231375   5.394   4.910   2.794
10478TIP3   OH231376   0.735   7.161   3.155
10478TIP3    H131377   0.807   7.207   3.199
10478TIP3    H231378   0.667   7.155   3.221
10479TIP3   OH231379   6.316   2.253   0.016
10479TIP3    H131380   6.403   2.280   0.045
10479TIP3    H231381   6.295   2.176   0.068
10480TIP3   OH231382   5.604   7.029   5.690
10480TIP3    H131383   5.525   7.063   5.648
10480TIP3    H231384   5.660   7.002   5.617
10481TIP3   OH231385   7.574   1.531   1.604
10481TIP3    H131386   7.573   1.623   1.577
10481TIP3    H231387   7.498   1.521   1.660
10482TIP3   OH231388   2.664   2.236   4.701
10482TIP3    H131389   2.670   2.323   4.661
10482TIP3    H231390   2.753   2.217   4.731
10483TIP3   OH231391   7.161   5.126   1.889
10483TIP3    H131392   7.132   5.063   1.823
10483TIP3    H231393   7.083   5.144   1.941
10484TIP3   OH231394   5.009   7.724   2.617
10484TIP3    H131395   4.979   7.728   2.526
10484TIP3    H231396   5.096   7.764   2.615
10485TIP3   OH231397   2.729   6.117   0.840
10485TIP3    H131398   2.741   6.198   0.890
10485TIP3    H231399   2.784   6.129   0.763
10486TIP3   OH231400   7.943   2.655   4.552
10486TIP3    H131401   7.917   2.722   4.489
10486TIP3    H231402   7.870   2.592   4.550
10487TIP3   OH231403   1.077   1.574   5.989
10487TIP3    H131404   1.066   1.498   6.045
10487TIP3    H231405   1.005   1.568   5.925
10488TIP3   OH231406   4.445   6.630   2.578
10488TIP3    H131407   4.481   6.674   2.501
10488TIP3    H231408   4.380   6.691   2.613
10489TIP3   OH231409   3.569   1.961   0.887
10489TIP3    H131410   3.509   1.896   0.923
10489TIP3    H231411   3.626   1.912   0.828
10490TIP3   OH231412   6.547   2.286   4.205
10490TIP3    H131413   6.628   2.295   4.154
10490TIP3    H231414   6.536   2.372   4.247
10491TIP3   OH231415   6.795   7.645   1.341
10491TIP3    H131416   6.721   7.697   1.309
10491TIP3    H231417   6.757   7.591   1.411
10492TIP3   OH231418   1.811   1.700   0.896
10492TIP3    H131419   1.726   1.693   0.852
10492TIP3    H231420   1.874   1.663   0.835
10493TIP3   OH231421   6.317   0.333   2.814
10493TIP3    H131422   6.307   0.238   2.804
10493TIP3    H231423   6.236   0.362   2.854
10494TIP3   OH231424   4.241   7.700   0.013
10494TIP3    H131425   4.284   7.784   0.028
10494TIP3    H231426   4.148   7.719   0.017
10495TIP3   OH231427   7.683   0.819   1.378
10495TIP3    H131428   7.709   0.774   1.298
10495TIP3    H231429   7.643   0.901   1.349
10496TIP3   OH231430   3.111   4.022   2.980
10496TIP3    H131431   3.094   4.104   2.934
10496TIP3    H231432   3.026   3.995   3.014
10497TIP3   OH231433   6.865   2.671   0.557
10497TIP3    H131434   6.799   2.620   0.604
10497TIP3    H231435   6.870   2.630   0.471
10498TIP3   OH231436   0.630   1.682   5.758
10498TIP3    H131437   0.646   1.589   5.738
10498TIP3    H231438   0.669   1.729   5.684
10499TIP3   OH231439   3.124   7.236   2.327
10499TIP3    H131440   3.211   7.205   2.349
10499TIP3    H231441   3.138   7.318   2.281
10500TIP3   OH231442   6.526   1.239   2.757
10500TIP3    H131443   6.474   1.158   2.761
10500TIP3    H231444   6.480   1.300   2.813
10501TIP3   OH231445   6.675   4.493   0.338
10501TIP3    H131446   6.629   4.526   0.415
10501TIP3    H231447   6.617   4.426   0.302
10502TIP3   OH231448   7.351   6.549   6.612
10502TIP3    H131449   7.440   6.524   6.636
10502TIP3    H231450   7.340   6.518   6.522
10503TIP3   OH231451   0.425   4.909   1.543
10503TIP3    H131452   0.371   4.858   1.604
10503TIP3    H231453   0.514   4.874   1.555
10504TIP3   OH231454   0.194   6.486   0.438
10504TIP3    H131455   0.203   6.519   0.527
10504TIP3    H231456   0.165   6.561   0.387
10505TIP3   OH231457   7.702   0.893   2.740
10505TIP3    H131458   7.790   0.931   2.742
10505TIP3    H231459   7.716   0.800   2.721
10506TIP3   OH231460   7.144   1.774   6.411
10506TIP3    H131461   7.211   1.842   6.419
10506TIP3    H231462   7.161   1.715   6.484
10507TIP3   OH231463   5.874   3.588   0.869
10507TIP3    H131464   5.854   3.620   0.781
10507TIP3    H231465   5.790   3.593   0.915
10508TIP3   OH231466   4.456   3.348   0.069
10508TIP3    H131467   4.461   3.409  -0.004
10508TIP3    H231468   4.531   3.290   0.056
10509TIP3   OH231469   1.555   3.804   4.292
10509TIP3    H131470   1.547   3.787   4.386
10509TIP3    H231471   1.533   3.722   4.250
10510TIP3   OH231472   3.608   5.135   4.203
10510TIP3    H131473   3.581   5.103   4.288
10510TIP3    H231474   3.526   5.148   4.155
10511TIP3   OH231475   5.653   6.934   4.243
10511TIP3    H131476   5.732   6.880   4.247
10511TIP3    H231477   5.686   7.023   4.232
10512TIP3   OH231478   2.684   6.205   5.004
10512TIP3    H131479   2.617   6.153   5.047
10512TIP3    H231480   2.751   6.141   4.978
10513TIP3   OH231481   2.839   7.689   3.024
10513TIP3    H131482   2.857   7.595   3.011
10513TIP3    H231483   2.757   7.691   3.072
10514TIP3   OH231484   3.409   3.552   1.738
10514TIP3    H131485   3.321   3.516   1.739
10514TIP3    H231486   3.422   3.580   1.647
10515TIP3   OH231487   0.103   3.609   1.138
10515TIP3    H131488   0.108   3.557   1.058
10515TIP3    H231489   0.030   3.669   1.123
10516TIP3   OH231490   6.282   6.716   3.333
10516TIP3    H131491   6.201   6.761   3.356
10516TIP3    H231492   6.319   6.688   3.417
10517TIP3   OH231493   2.278   2.124   0.501
10517TIP3    H131494   2.374   2.133   0.499
10517TIP3    H231495   2.245   2.210   0.477
10518TIP3   OH231496   6.914   2.935   4.926
10518TIP3    H131497   6.868   2.963   4.846
10518TIP3    H231498   6.861   2.970   4.997
10519TIP3   OH231499   7.805   6.503   1.460
10519TIP3    H131500   7.748   6.492   1.383
10519TIP3    H231501   7.771   6.439   1.523
10520TIP3   OH231502   5.253   0.965   1.089
10520TIP3    H131503   5.252   1.056   1.062
10520TIP3    H231504   5.329   0.958   1.148
10521TIP3   OH231505   5.042   3.514   3.556
10521TIP3    H131506   5.091   3.433   3.542
10521TIP3    H231507   5.078   3.549   3.637
10522TIP3   OH231508   1.931   0.510   5.432
10522TIP3    H131509   2.008   0.513   5.489
10522TIP3    H231510   1.965   0.530   5.345
10523TIP3   OH231511   7.454   7.649   6.042
10523TIP3    H131512   7.506   7.576   6.077
10523TIP3    H231513   7.391   7.607   5.983
10524TIP3   OH231514   7.052   0.555   5.824
10524TIP3    H131515   7.088   0.481   5.872
10524TIP3    H231516   7.075   0.632   5.876
10525TIP3   OH231517   0.806   3.056   5.156
10525TIP3    H131518   0.893   3.017   5.154
10525TIP3    H231519   0.788   3.069   5.249
10526TIP3   OH231520   1.084   1.181   0.039
10526TIP3    H131521   1.110   1.101  -0.006
10526TIP3    H231522   1.092   1.250  -0.027
10527TIP3   OH231523   5.322   5.909   0.885
10527TIP3    H131524   5.311   5.996   0.846
10527TIP3    H231525   5.244   5.897   0.939
10528TIP3   OH231526   4.200   1.829   5.115
10528TIP3    H131527   4.176   1.910   5.071
10528TIP3    H231528   4.123   1.807   5.168
10529TIP3   OH231529   5.978   2.704   1.928
10529TIP3    H131530   6.002   2.617   1.958
10529TIP3    H231531   5.895   2.722   1.970
10530TIP3   OH231532   0.196   7.697   3.435
10530TIP3    H131533   0.163   7.736   3.354
10530TIP3    H231534   0.213   7.772   3.492
10531TIP3   OH231535   0.526   2.438   5.617
10531TIP3    H131536   0.532   2.476   5.705
10531TIP3    H231537   0.581   2.495   5.563
10532TIP3   OH231538   1.018   1.650   6.685
10532TIP3    H131539   0.977   1.666   6.600
10532TIP3    H231540   1.059   1.734   6.708
10533TIP3   OH231541   6.863   1.982   6.330
10533TIP3    H131542   6.955   1.994   6.352
10533TIP3    H231543   6.826   1.937   6.405
10534TIP3   OH231544   2.423   3.853   1.774
10534TIP3    H131545   2.372   3.779   1.741
10534TIP3    H231546   2.462   3.821   1.855
10535TIP3   OH231547   5.761   3.712   5.163
10535TIP3    H131548   5.829   3.719   5.229
10535TIP3    H231549   5.753   3.800   5.126
10536TIP3   OH231550   2.308   1.152   5.776
10536TIP3    H131551   2.334   1.226   5.831
10536TIP3    H231552   2.390   1.118   5.741
10537TIP3   OH231553   5.777   5.554   4.367
10537TIP3    H131554   5.697   5.605   4.385
10537TIP3    H231555   5.762   5.470   4.410
10538TIP3   OH231556   4.167   7.722   0.693
10538TIP3    H131557   4.221   7.758   0.764
10538TIP3    H231558   4.221   7.654   0.654
10539TIP3   OH231559   6.224   5.341   5.275
10539TIP3    H131560   6.220   5.317   5.182
10539TIP3    H231561   6.268   5.267   5.316
10540TIP3   OH231562   0.691   6.147   5.398
10540TIP3    H131563   0.670   6.235   5.367
10540TIP3    H231564   0.781   6.154   5.430
10541TIP3   OH231565   5.381   2.666   1.926
10541TIP3    H131566   5.444   2.729   1.893
10541TIP3    H231567   5.433   2.589   1.950
10542TIP3   OH231568   2.018   0.225   4.136
10542TIP3    H131569   2.075   0.218   4.060
10542TIP3    H231570   2.042   0.308   4.177
10543TIP3   OH231571   3.002   4.405   2.090
10543TIP3    H131572   2.978   4.373   2.003
10543TIP3    H231573   2.947   4.482   2.103
10544TIP3   OH231574   4.398   0.688   4.638
10544TIP3    H131575   4.353   0.666   4.719
10544TIP3    H231576   4.327   0.699   4.574
10545TIP3   OH231577   5.553   5.511   2.233
10545TIP3    H131578   5.530   5.557   2.314
10545TIP3    H231579   5.605   5.575   2.184
10546TIP3   OH231580   6.177   6.617   4.663
10546TIP3    H131581   6.117   6.611   4.737
10546TIP3    H231582   6.156   6.541   4.608
10547TIP3   OH231583   4.011   7.724   3.593
10547TIP3    H131584   4.001   7.819   3.590
10547TIP3    H231585   3.922   7.690   3.597
10548TIP3   OH231586   6.430   1.130   5.923
10548TIP3    H131587   6.486   1.052   5.926
10548TIP3    H231588   6.372   1.121   5.998
10549TIP3   OH231589   7.867   1.065   1.383
10549TIP3    H131590   7.917   1.146   1.390
10549TIP3    H231591   7.913   1.004   1.441
10550TIP3   OH231592   2.481   0.710   2.579
10550TIP3    H131593   2.554   0.765   2.608
10550TIP3    H231594   2.403   0.764   2.592
10551TIP3   OH231595   6.559   0.729   4.884
10551TIP3    H131596   6.507   0.809   4.898
10551TIP3    H231597   6.649   0.761   4.873
10552TIP3   OH231598   2.039   6.034   3.558
10552TIP3    H131599   2.119   6.015   3.608
10552TIP3    H231600   2.019   5.953   3.512
10553TIP3   OH231601   0.163   3.757   6.104
10553TIP3    H131602   0.198   3.793   6.186
10553TIP3    H231603   0.095   3.696   6.131
10554TIP3   OH231604   7.810   7.124   2.412
10554TIP3    H131605   7.814   7.055   2.477
10554TIP3    H231606   7.880   7.185   2.437
10555TIP3   OH231607   7.852   1.070   6.156
10555TIP3    H131608   7.862   1.110   6.242
10555TIP3    H231609   7.925   1.104   6.104
10556TIP3   OH231610   0.645   5.025   6.165
10556TIP3    H131611   0.691   5.108   6.150
10556TIP3    H231612   0.715   4.960   6.173
10557TIP3   OH231613   3.017   3.931   1.929
10557TIP3    H131614   2.993   3.839   1.936
10557TIP3    H231615   3.108   3.934   1.958
10558TIP3   OH231616   6.068   3.232   0.795
10558TIP3    H131617   6.137   3.267   0.739
10558TIP3    H231618   5.988   3.242   0.743
10559TIP3   OH231619   1.494   2.102   4.552
10559TIP3    H131620   1.421   2.164   4.558
10559TIP3    H231621   1.571   2.156   4.535
10560TIP3   OH231622   7.088   5.649   6.059
10560TIP3    H131623   7.181   5.645   6.082
10560TIP3    H231624   7.047   5.698   6.130
10561TIP3   OH231625   4.680   5.605   5.809
10561TIP3    H131626   4.773   5.627   5.804
10561TIP3    H231627   4.679   5.513   5.835
10562TIP3   OH231628   3.186   5.505   4.038
10562TIP3    H131629   3.258   5.568   4.039
10562TIP3    H231630   3.117   5.547   4.089
10563TIP3   OH231631   5.532   3.095   5.970
10563TIP3    H131632   5.534   3.169   5.909
10563TIP3    H231633   5.486   3.026   5.921
10564TIP3   OH231634   3.965   2.590   6.771
10564TIP3    H131635   4.039   2.607   6.712
10564TIP3    H231636   3.977   2.499   6.799
10565TIP3   OH231637   7.179   7.495   1.314
10565TIP3    H131638   7.152   7.568   1.370
10565TIP3    H231639   7.097   7.451   1.290
10566TIP3   OH231640   6.306   4.755   1.528
10566TIP3    H131641   6.246   4.822   1.494
10566TIP3    H231642   6.256   4.674   1.527
10567TIP3   OH231643   0.715   0.398   5.506
10567TIP3    H131644   0.636   0.431   5.548
10567TIP3    H231645   0.721   0.307   5.536
10568TIP3   OH231646   7.481   1.279   4.873
10568TIP3    H131647   7.565   1.320   4.892
10568TIP3    H231648   7.422   1.353   4.856
10569TIP3   OH231649   7.359   6.041   5.083
10569TIP3    H131650   7.303   6.079   5.015
10569TIP3    H231651   7.345   5.946   5.074
10570TIP3   OH231652   4.197   1.239   5.022
10570TIP3    H131653   4.265   1.258   4.958
10570TIP3    H231654   4.194   1.318   5.077
10571TIP3   OH231655   1.198   4.669   6.426
10571TIP3    H131656   1.255   4.629   6.491
10571TIP3    H231657   1.110   4.639   6.450
10572TIP3   OH231658   2.354   1.262   2.419
10572TIP3    H131659   2.389   1.203   2.486
10572TIP3    H231660   2.368   1.215   2.336
10573TIP3   OH231661   2.436   0.893   1.640
10573TIP3    H131662   2.441   0.812   1.691
10573TIP3    H231663   2.370   0.876   1.573
10574TIP3   OH231664   2.680   4.799   6.080
10574TIP3    H131665   2.769   4.772   6.103
10574TIP3    H231666   2.643   4.723   6.035
10575TIP3   OH231667   3.207   2.211   0.679
10575TIP3    H131668   3.290   2.245   0.713
10575TIP3    H231669   3.225   2.192   0.586
10576TIP3   OH231670   3.574   0.345   0.431
10576TIP3    H131671   3.584   0.408   0.360
10576TIP3    H231672   3.658   0.300   0.436
10577TIP3   OH231673   4.407   7.138   6.076
10577TIP3    H131674   4.481   7.198   6.082
10577TIP3    H231675   4.344   7.183   6.019
10578TIP3   OH231676  -0.032   2.701   0.150
10578TIP3    H131677   0.009   2.617   0.169
10578TIP3    H231678   0.040   2.764   0.149
10579TIP3   OH231679   7.564   4.793   4.874
10579TIP3    H131680   7.559   4.804   4.779
10579TIP3    H231681   7.579   4.699   4.886
10580TIP3   OH231682   0.594   2.308   2.444
10580TIP3    H131683   0.639   2.253   2.380
10580TIP3    H231684   0.636   2.393   2.437
10581TIP3   OH231685   7.431   4.336   4.082
10581TIP3    H131686   7.452   4.267   4.145
10581TIP3    H231687   7.448   4.417   4.129
10582TIP3   OH231688   6.765   2.151   2.802
10582TIP3    H131689   6.809   2.071   2.829
10582TIP3    H231690   6.724   2.129   2.719
10583TIP3   OH231691   5.785   3.966   1.474
10583TIP3    H131692   5.786   3.885   1.423
10583TIP3    H231693   5.693   3.981   1.493
10584TIP3   OH231694   7.754   2.386   4.387
10584TIP3    H131695   7.743   2.462   4.330
10584TIP3    H231696   7.674   2.382   4.438
10585TIP3   OH231697   6.458   5.413   3.757
10585TIP3    H131698   6.521   5.478   3.727
10585TIP3    H231699   6.391   5.412   3.688
10586TIP3   OH231700   7.003   0.640   2.156
10586TIP3    H131701   6.982   0.731   2.131
10586TIP3    H231702   7.094   0.628   2.131
10587TIP3   OH231703   3.118   6.659   1.532
10587TIP3    H131704   3.203   6.616   1.525
10587TIP3    H231705   3.098   6.659   1.625
10588TIP3   OH231706   7.313   0.784   6.420
10588TIP3    H131707   7.298   0.811   6.329
10588TIP3    H231708   7.300   0.863   6.472
10589TIP3   OH231709   6.648   5.651   6.677
10589TIP3    H131710   6.566   5.621   6.717
10589TIP3    H231711   6.637   5.636   6.584
10590TIP3   OH231712   2.311   2.588   3.195
10590TIP3    H131713   2.318   2.681   3.172
10590TIP3    H231714   2.332   2.585   3.288
10591TIP3   OH231715   7.239   4.286   5.135
10591TIP3    H131716   7.206   4.312   5.221
10591TIP3    H231717   7.177   4.220   5.105
10592TIP3   OH231718   8.153   4.163   2.228
10592TIP3    H131719   8.064   4.179   2.260
10592TIP3    H231720   8.183   4.248   2.196
10593TIP3   OH231721   5.034   4.205   0.300
10593TIP3    H131722   5.106   4.218   0.361
10593TIP3    H231723   4.973   4.276   0.320
10594TIP3   OH231724   5.844   3.209   4.026
10594TIP3    H131725   5.815   3.243   4.110
10594TIP3    H231726   5.814   3.274   3.962
10595TIP3   OH231727   7.444   6.210   0.709
10595TIP3    H131728   7.522   6.264   0.695
10595TIP3    H231729   7.410   6.239   0.794
10596TIP3   OH231730   2.109   6.783   3.984
10596TIP3    H131731   2.171   6.737   3.927
10596TIP3    H231732   2.110   6.873   3.953
10597TIP3   OH231733   8.114   4.251   0.337
10597TIP3    H131734   8.063   4.324   0.303
10597TIP3    H231735   8.088   4.176   0.283
10598TIP3   OH231736   4.774   7.201   1.855
10598TIP3    H131737   4.854   7.247   1.833
10598TIP3    H231738   4.797   7.108   1.848
10599TIP3   OH231739   5.091   3.836   4.147
10599TIP3    H131740   5.029   3.904   4.173
10599TIP3    H231741   5.078   3.766   4.211
10600TIP3   OH231742   5.135   0.926   3.903
10600TIP3    H131743   5.089   0.995   3.855
10600TIP3    H231744   5.208   0.971   3.944
10601TIP3   OH231745   6.286   1.258   2.066
10601TIP3    H131746   6.355   1.271   2.131
10601TIP3    H231747   6.332   1.262   1.982
10602TIP3   OH231748   2.258   0.944   0.693
10602TIP3    H131749   2.337   0.998   0.685
10602TIP3    H231750   2.283   0.873   0.753
10603TIP3   OH231751   5.916   3.366   2.957
10603TIP3    H131752   5.821   3.352   2.946
10603TIP3    H231753   5.956   3.297   2.905
10604TIP3   OH231754   1.688   6.078   5.663
10604TIP3    H131755   1.754   6.051   5.600
10604TIP3    H231756   1.715   6.038   5.745
10605TIP3   OH231757   3.134   3.603   0.687
10605TIP3    H131758   3.201   3.613   0.620
10605TIP3    H231759   3.168   3.651   0.763
10606TIP3   OH231760   6.454   1.309   1.014
10606TIP3    H131761   6.449   1.226   1.063
10606TIP3    H231762   6.460   1.282   0.923
10607TIP3   OH231763   2.712   0.134   4.398
10607TIP3    H131764   2.758   0.051   4.413
10607TIP3    H231765   2.649   0.140   4.470
10608TIP3   OH231766   6.768   3.133   1.551
10608TIP3    H131767   6.836   3.129   1.618
10608TIP3    H231768   6.815   3.124   1.468
10609TIP3   OH231769   5.583   0.446   2.483
10609TIP3    H131770   5.497   0.407   2.468
10609TIP3    H231771   5.573   0.538   2.456
10610TIP3   OH231772   7.801   6.389   3.750
10610TIP3    H131773   7.818   6.410   3.658
10610TIP3    H231774   7.769   6.299   3.748
10611TIP3   OH231775   2.634   1.933   3.880
10611TIP3    H131776   2.666   1.968   3.797
10611TIP3    H231777   2.702   1.873   3.910
10612TIP3   OH231778   1.966   4.544   2.973
10612TIP3    H131779   1.888   4.564   3.026
10612TIP3    H231780   2.039   4.550   3.035
10613TIP3   OH231781   6.481   6.553   1.441
10613TIP3    H131782   6.476   6.612   1.516
10613TIP3    H231783   6.542   6.485   1.468
10614TIP3   OH231784   7.686   0.461   3.434
10614TIP3    H131785   7.657   0.371   3.448
10614TIP3    H231786   7.639   0.489   3.355
10615TIP3   OH231787   7.312   6.277   4.175
10615TIP3    H131788   7.401   6.243   4.181
10615TIP3    H231789   7.264   6.230   4.244
10616TIP3   OH231790   2.677   0.673   0.044
10616TIP3    H131791   2.699   0.766   0.045
10616TIP3    H231792   2.758   0.629   0.017
10617TIP3   OH231793   4.498   2.271   2.606
10617TIP3    H131794   4.434   2.216   2.652
10617TIP3    H231795   4.583   2.231   2.626
10618TIP3   OH231796   2.105   3.447   3.777
10618TIP3    H131797   2.145   3.371   3.819
10618TIP3    H231798   2.136   3.442   3.686
10619TIP3   OH231799   2.557   4.750   0.412
10619TIP3    H131800   2.550   4.729   0.505
10619TIP3    H231801   2.520   4.838   0.405
10620TIP3   OH231802   1.554   4.525   1.395
10620TIP3    H131803   1.613   4.460   1.356
10620TIP3    H231804   1.555   4.598   1.334
10621TIP3   OH231805   2.484   4.706   4.612
10621TIP3    H131806   2.399   4.747   4.600
10621TIP3    H231807   2.476   4.621   4.569
10622TIP3   OH231808   3.035   5.564   1.697
10622TIP3    H131809   2.987   5.609   1.766
10622TIP3    H231810   3.093   5.630   1.660
10623TIP3   OH231811   7.617   4.622   3.874
10623TIP3    H131812   7.552   4.686   3.904
10623TIP3    H231813   7.666   4.599   3.953
10624TIP3   OH231814   6.513   5.961   3.319
10624TIP3    H131815   6.444   5.917   3.269
10624TIP3    H231816   6.466   6.014   3.384
10625TIP3   OH231817   1.463   4.327   6.167
10625TIP3    H131818   1.534   4.386   6.142
10625TIP3    H231819   1.396   4.385   6.203
10626TIP3   OH231820   0.859   2.166   4.594
10626TIP3    H131821   0.895   2.248   4.626
10626TIP3    H231822   0.857   2.176   4.499
10627TIP3   OH231823   1.157   7.065   3.228
10627TIP3    H131824   1.120   7.020   3.304
10627TIP3    H231825   1.086   7.066   3.164
10628TIP3   OH231826   7.450   1.008   4.881
10628TIP3    H131827   7.362   0.998   4.843
10628TIP3    H231828   7.470   1.101   4.872
10629TIP3   OH231829   3.949   7.140   2.375
10629TIP3    H131830   3.938   7.093   2.292
10629TIP3    H231831   3.870   7.192   2.384
10630TIP3   OH231832   7.720   1.755   6.680
10630TIP3    H131833   7.641   1.807   6.696
10630TIP3    H231834   7.689   1.676   6.636
10631TIP3   OH231835   3.473   0.548   3.406
10631TIP3    H131836   3.490   0.637   3.375
10631TIP3    H231837   3.561   0.512   3.423
10632TIP3   OH231838   4.532   5.131   0.243
10632TIP3    H131839   4.623   5.144   0.216
10632TIP3    H231840   4.505   5.050   0.200
10633TIP3   OH231841   0.499   4.110   2.476
10633TIP3    H131842   0.572   4.086   2.534
10633TIP3    H231843   0.475   4.199   2.503
10634TIP3   OH231844   5.813   6.506   5.092
10634TIP3    H131845   5.895   6.512   5.044
10634TIP3    H231846   5.756   6.571   5.050
10635TIP3   OH231847   1.009   7.017   3.933
10635TIP3    H131848   0.930   6.964   3.920
10635TIP3    H231849   1.081   6.953   3.935
10636TIP3   OH231850   0.506   3.941   0.461
10636TIP3    H131851   0.533   3.932   0.370
10636TIP3    H231852   0.547   4.023   0.490
10637TIP3   OH231853   7.849   3.939   5.622
10637TIP3    H131854   7.767   3.967   5.582
10637TIP3    H231855   7.889   3.881   5.557
10638TIP3   OH231856   4.799   1.300   1.333
10638TIP3    H131857   4.890   1.326   1.318
10638TIP3    H231858   4.747   1.370   1.292
10639TIP3   OH231859   7.019   0.306   0.127
10639TIP3    H131860   7.098   0.254   0.120
10639TIP3    H231861   7.045   0.394   0.099
10640TIP3   OH231862   4.550   3.280   4.357
10640TIP3    H131863   4.547   3.249   4.448
10640TIP3    H231864   4.599   3.212   4.311
10641TIP3   OH231865   6.120   0.167   1.572
10641TIP3    H131866   6.103   0.082   1.531
10641TIP3    H231867   6.207   0.157   1.612
10642TIP3   OH231868   6.124   4.309   5.837
10642TIP3    H131869   6.066   4.280   5.907
10642TIP3    H231870   6.153   4.228   5.794
10643TIP3   OH231871   2.037   1.115   6.337
10643TIP3    H131872   2.033   1.162   6.254
10643TIP3    H231873   1.983   1.168   6.397
10644TIP3   OH231874   3.890   7.706   3.986
10644TIP3    H131875   3.953   7.664   4.044
10644TIP3    H231876   3.805   7.687   4.026
10645TIP3   OH231877   8.263   2.215   3.385
10645TIP3    H131878   8.223   2.147   3.439
10645TIP3    H231879   8.289   2.283   3.447
10646TIP3   OH231880   1.658   3.498   6.249
10646TIP3    H131881   1.672   3.590   6.227
10646TIP3    H231882   1.743   3.468   6.280
10647TIP3   OH231883   2.092   5.479   4.059
10647TIP3    H131884   2.054   5.492   4.146
10647TIP3    H231885   2.179   5.519   4.065
10648TIP3   OH231886   2.789   4.490   3.246
10648TIP3    H131887   2.860   4.506   3.308
10648TIP3    H231888   2.726   4.560   3.263
10649TIP3   OH231889   4.550   5.325   0.987
10649TIP3    H131890   4.561   5.264   0.914
10649TIP3    H231891   4.457   5.321   1.009
10650TIP3   OH231892   0.312   2.419   0.943
10650TIP3    H131893   0.337   2.329   0.924
10650TIP3    H231894   0.270   2.414   1.029
10651TIP3   OH231895   6.798   2.220   4.461
10651TIP3    H131896   6.835   2.158   4.523
10651TIP3    H231897   6.846   2.205   4.379
10652TIP3   OH231898   7.700   3.388   4.997
10652TIP3    H131899   7.782   3.351   4.964
10652TIP3    H231900   7.702   3.370   5.091
10653TIP3   OH231901   1.717   7.474   2.082
10653TIP3    H131902   1.753   7.562   2.078
10653TIP3    H231903   1.643   7.475   2.021
10654TIP3   OH231904   1.943   2.375   5.468
10654TIP3    H131905   1.906   2.336   5.389
10654TIP3    H231906   1.925   2.469   5.459
10655TIP3   OH231907   1.980   0.598   3.222
10655TIP3    H131908   1.973   0.505   3.241
10655TIP3    H231909   2.057   0.605   3.165
10656TIP3   OH231910   3.501   5.767   4.239
10656TIP3    H131911   3.477   5.693   4.296
10656TIP3    H231912   3.509   5.841   4.298
10657TIP3   OH231913   3.283   3.038   4.570
10657TIP3    H131914   3.304   2.989   4.491
10657TIP3    H231915   3.269   2.971   4.638
10658TIP3   OH231916   3.870   1.404   0.245
10658TIP3    H131917   3.935   1.334   0.240
10658TIP3    H231918   3.787   1.358   0.255
10659TIP3   OH231919   3.474   6.643   4.155
10659TIP3    H131920   3.457   6.574   4.219
10659TIP3    H231921   3.395   6.646   4.101
10660TIP3   OH231922   0.748   6.938   2.036
10660TIP3    H131923   0.689   6.955   1.963
10660TIP3    H231924   0.704   6.870   2.087
10661TIP3   OH231925   1.032   4.355   1.395
10661TIP3    H131926   0.957   4.392   1.348
10661TIP3    H231927   1.109   4.387   1.346
10662TIP3   OH231928   0.389   2.558   1.796
10662TIP3    H131929   0.423   2.472   1.820
10662TIP3    H231930   0.387   2.606   1.879
10663TIP3   OH231931   4.116   0.701   1.429
10663TIP3    H131932   4.154   0.614   1.439
10663TIP3    H231933   4.189   0.761   1.442
10664TIP3   OH231934   4.019   0.495   4.095
10664TIP3    H131935   3.989   0.534   4.013
10664TIP3    H231936   4.114   0.510   4.095
10665TIP3   OH231937   5.581   7.527   6.034
10665TIP3    H131938   5.535   7.544   5.952
10665TIP3    H231939   5.672   7.554   6.017
10666TIP3   OH231940   8.147   7.429   4.003
10666TIP3    H131941   8.067   7.460   3.962
10666TIP3    H231942   8.173   7.353   3.950
10667TIP3   OH231943   5.158   6.812   4.004
10667TIP3    H131944   5.170   6.885   4.064
10667TIP3    H231945   5.142   6.853   3.919
10668TIP3   OH231946   0.058   1.736   0.670
10668TIP3    H131947   0.112   1.731   0.748
10668TIP3    H231948   0.038   1.645   0.648
10669TIP3   OH231949   7.840   4.894   3.514
10669TIP3    H131950   7.865   4.849   3.434
10669TIP3    H231951   7.921   4.933   3.547
10670TIP3   OH231952   1.062   2.597   4.208
10670TIP3    H131953   1.082   2.554   4.125
10670TIP3    H231954   1.079   2.690   4.192
10671TIP3   OH231955   2.627   6.515   3.468
10671TIP3    H131956   2.653   6.606   3.486
10671TIP3    H231957   2.637   6.471   3.553
10672TIP3   OH231958   6.098   4.150   4.876
10672TIP3    H131959   6.162   4.107   4.933
10672TIP3    H231960   6.080   4.233   4.919
10673TIP3   OH231961   2.193   7.369   2.639
10673TIP3    H131962   2.171   7.415   2.720
10673TIP3    H231963   2.112   7.369   2.589
10674TIP3   OH231964   4.017   0.076   4.550
10674TIP3    H131965   3.937   0.029   4.527
10674TIP3    H231966   3.986   0.155   4.595
10675TIP3   OH231967   5.092   5.131   4.604
10675TIP3    H131968   5.032   5.106   4.675
10675TIP3    H231969   5.037   5.131   4.526
10676TIP3   OH231970   3.255   3.186   0.938
10676TIP3    H131971   3.205   3.211   0.860
10676TIP3    H231972   3.344   3.217   0.920
10677TIP3   OH231973   2.774   7.641   5.194
10677TIP3    H131974   2.865   7.652   5.223
10677TIP3    H231975   2.729   7.720   5.226
10678TIP3   OH231976   5.670   6.109   4.309
10678TIP3    H131977   5.582   6.112   4.273
10678TIP3    H231978   5.715   6.182   4.267
10679TIP3   OH231979   5.635   2.513   4.943
10679TIP3    H131980   5.615   2.580   4.878
10679TIP3    H231981   5.717   2.474   4.914
10680TIP3   OH231982   7.934   5.893   1.873
10680TIP3    H131983   7.943   5.808   1.830
10680TIP3    H231984   8.019   5.936   1.859
10681TIP3   OH231985   5.006   2.540   4.209
10681TIP3    H131986   5.067   2.490   4.155
10681TIP3    H231987   5.049   2.546   4.294
10682TIP3   OH231988   7.399   6.347   4.813
10682TIP3    H131989   7.390   6.408   4.740
10682TIP3    H231990   7.485   6.306   4.799
10683TIP3   OH231991   7.710   2.909   0.476
10683TIP3    H131992   7.710   2.847   0.549
10683TIP3    H231993   7.621   2.944   0.475
10684TIP3   OH231994   0.939   6.207   2.567
10684TIP3    H131995   0.885   6.283   2.544
10684TIP3    H231996   0.923   6.145   2.496
10685TIP3   OH231997   1.812   4.861   4.022
10685TIP3    H131998   1.750   4.829   4.087
10685TIP3    H231999   1.793   4.955   4.015
10686TIP3   OH232000   0.551   3.279   6.140
10686TIP3    H132001   0.604   3.202   6.160
10686TIP3    H232002   0.543   3.278   6.045
10687TIP3   OH232003   6.943   3.153   2.903
10687TIP3    H132004   6.882   3.225   2.916
10687TIP3    H232005   6.948   3.142   2.808
10688TIP3   OH232006   2.143   3.641   4.071
10688TIP3    H132007   2.225   3.688   4.085
10688TIP3    H232008   2.168   3.548   4.074
10689TIP3   OH232009   7.504   0.349   0.530
10689TIP3    H132010   7.538   0.301   0.454
10689TIP3    H232011   7.420   0.308   0.549
10690TIP3   OH232012   5.117   5.530   5.228
10690TIP3    H132013   5.072   5.544   5.311
10690TIP3    H232014   5.208   5.552   5.246
10691TIP3   OH232015   0.184   2.668   5.404
10691TIP3    H132016   0.247   2.624   5.347
10691TIP3    H232017   0.172   2.754   5.365
10692TIP3   OH232018   2.296   4.707   3.386
10692TIP3    H132019   2.216   4.671   3.349
10692TIP3    H232020   2.356   4.713   3.311
10693TIP3   OH232021   4.516   3.565   3.454
10693TIP3    H132022   4.606   3.592   3.435
10693TIP3    H232023   4.493   3.615   3.533
10694TIP3   OH232024   0.780   0.110   1.840
10694TIP3    H132025   0.711   0.166   1.806
10694TIP3    H232026   0.846   0.171   1.873
10695TIP3   OH232027   1.563   1.851   5.364
10695TIP3    H132028   1.526   1.778   5.314
10695TIP3    H232029   1.600   1.909   5.297
10696TIP3   OH232030   4.369   4.069   3.813
10696TIP3    H132031   4.351   4.063   3.907
10696TIP3    H232032   4.464   4.059   3.807
10697TIP3   OH232033   4.996   5.966   0.452
10697TIP3    H132034   5.007   6.040   0.393
10697TIP3    H232035   4.947   5.902   0.401
10698TIP3   OH232036   7.071   2.265   4.620
10698TIP3    H132037   6.998   2.271   4.681
10698TIP3    H232038   7.065   2.344   4.567
10699TIP3   OH232039   8.000   4.328   2.566
10699TIP3    H132040   8.023   4.391   2.499
10699TIP3    H232041   8.081   4.315   2.616
10700TIP3   OH232042   6.002   6.887   0.764
10700TIP3    H132043   5.950   6.930   0.832
10700TIP3    H232044   6.092   6.917   0.780
10701TIP3   OH232045   1.264   4.498   3.895
10701TIP3    H132046   1.234   4.424   3.947
10701TIP3    H232047   1.360   4.494   3.901
10702TIP3   OH232048   0.905   1.786   3.568
10702TIP3    H132049   0.840   1.726   3.605
10702TIP3    H232050   0.940   1.739   3.492
10703TIP3   OH232051   5.500   5.428   0.412
10703TIP3    H132052   5.571   5.482   0.447
10703TIP3    H232053   5.440   5.417   0.486
10704TIP3   OH232054   7.955   2.094   4.175
10704TIP3    H132055   7.980   2.102   4.267
10704TIP3    H232056   7.860   2.083   4.176
10705TIP3   OH232057   8.046   3.242   0.776
10705TIP3    H132058   8.022   3.149   0.773
10705TIP3    H232059   7.967   3.285   0.809
10706TIP3   OH232060   3.401   6.519   2.328
10706TIP3    H132061   3.466   6.462   2.370
10706TIP3    H232062   3.388   6.481   2.241
10707TIP3   OH232063   1.249   6.238   2.110
10707TIP3    H132064   1.186   6.188   2.059
10707TIP3    H232065   1.276   6.178   2.180
10708TIP3   OH232066   2.343   5.225   3.607
10708TIP3    H132067   2.329   5.190   3.695
10708TIP3    H232068   2.279   5.296   3.599
10709TIP3   OH232069   8.193   2.157   4.910
10709TIP3    H132070   8.157   2.221   4.848
10709TIP3    H232071   8.287   2.176   4.913
10710TIP3   OH232072   3.428   3.546   3.161
10710TIP3    H132073   3.423   3.479   3.094
10710TIP3    H232074   3.475   3.618   3.119
10711TIP3   OH232075   1.773   0.717   6.009
10711TIP3    H132076   1.726   0.712   5.926
10711TIP3    H232077   1.807   0.806   6.013
10712TIP3   OH232078   4.220   3.908   5.034
10712TIP3    H132079   4.188   3.978   5.091
10712TIP3    H232080   4.315   3.906   5.048
10713TIP3   OH232081   4.980   6.174   3.425
10713TIP3    H132082   4.901   6.197   3.472
10713TIP3    H232083   5.040   6.141   3.492
10714TIP3   OH232084   4.414   5.773   2.159
10714TIP3    H132085   4.442   5.685   2.136
10714TIP3    H232086   4.491   5.814   2.198
10715TIP3   OH232087   2.687   6.782   0.614
10715TIP3    H132088   2.617   6.797   0.677
10715TIP3    H232089   2.704   6.869   0.577
10716TIP3   OH232090   0.479   2.675   2.488
10716TIP3    H132091   0.438   2.759   2.512
10716TIP3    H232092   0.567   2.699   2.461
10717TIP3   OH232093   6.889   5.423   4.174
10717TIP3    H132094   6.927   5.364   4.239
10717TIP3    H232095   6.945   5.414   4.097
10718TIP3   OH232096   1.435   1.502   2.036
10718TIP3    H132097   1.502   1.565   2.061
10718TIP3    H232098   1.404   1.466   2.119
10719TIP3   OH232099   3.073   0.798   0.151
10719TIP3    H132100   3.016   0.844   0.213
10719TIP3    H232101   3.034   0.817   0.065
10720TIP3   OH232102   6.245   5.208   1.731
10720TIP3    H132103   6.170   5.206   1.670
10720TIP3    H232104   6.214   5.259   1.806
10721TIP3   OH232105   7.712   1.829   3.206
10721TIP3    H132106   7.780   1.897   3.208
10721TIP3    H232107   7.753   1.754   3.249
10722TIP3   OH232108   3.114   6.070   0.097
10722TIP3    H132109   3.091   6.132   0.166
10722TIP3    H232110   3.033   6.022   0.079
10723TIP3   OH232111   2.288   1.443   3.925
10723TIP3    H132112   2.255   1.403   3.844
10723TIP3    H232113   2.311   1.368   3.980
10724TIP3   OH232114   5.029   2.837   3.912
10724TIP3    H132115   4.961   2.792   3.863
10724TIP3    H232116   5.109   2.823   3.861
10725TIP3   OH232117   6.596   1.910   0.939
10725TIP3    H132118   6.606   1.945   0.851
10725TIP3    H232119   6.557   1.824   0.927
10726TIP3   OH232120   7.822   0.489   1.163
10726TIP3    H132121   7.811   0.399   1.131
10726TIP3    H232122   7.917   0.502   1.167
10727TIP3   OH232123   5.247   5.765   5.583
10727TIP3    H132124   5.154   5.744   5.576
10727TIP3    H232125   5.289   5.682   5.602
10728TIP3   OH232126   3.376   5.195   3.522
10728TIP3    H132127   3.355   5.275   3.473
10728TIP3    H232128   3.457   5.217   3.569
10729TIP3   OH232129   4.716   2.631   2.002
10729TIP3    H132130   4.642   2.607   1.947
10729TIP3    H232131   4.778   2.672   1.942
10730TIP3   OH232132   0.886   3.183   2.106
10730TIP3    H132133   0.864   3.142   2.190
10730TIP3    H232134   0.802   3.195   2.062
10731TIP3   OH232135   4.456   6.069   1.116
10731TIP3    H132136   4.478   6.091   1.025
10731TIP3    H232137   4.477   5.976   1.125
10732TIP3   OH232138   6.409   1.334   2.989
10732TIP3    H132139   6.468   1.275   3.035
10732TIP3    H232140   6.358   1.376   3.058
10733TIP3   OH232141   2.621   0.892   1.364
10733TIP3    H132142   2.670   0.964   1.404
10733TIP3    H232143   2.624   0.910   1.270
10734TIP3   OH232144   0.716   2.240   5.641
10734TIP3    H132145   0.771   2.255   5.717
10734TIP3    H232146   0.653   2.312   5.642
10735TIP3   OH232147   8.215   5.440   1.367
10735TIP3    H132148   8.170   5.360   1.341
10735TIP3    H232149   8.291   5.409   1.417
10736TIP3   OH232150   0.206   7.458   6.588
10736TIP3    H132151   0.140   7.472   6.520
10736TIP3    H232152   0.230   7.365   6.579
10737TIP3   OH232153   7.878   6.985   3.525
10737TIP3    H132154   7.815   7.041   3.570
10737TIP3    H232155   7.883   6.906   3.578
10738TIP3   OH232156   0.753   3.829   1.252
10738TIP3    H132157   0.758   3.906   1.308
10738TIP3    H232158   0.786   3.758   1.306
10739TIP3   OH232159   1.948   5.898   3.128
10739TIP3    H132160   1.928   5.918   3.036
10739TIP3    H232161   1.947   5.982   3.172
10740TIP3   OH232162   4.563   6.188   2.612
10740TIP3    H132163   4.493   6.209   2.675
10740TIP3    H232164   4.547   6.097   2.587
10741TIP3   OH232165   5.503   4.036   1.228
10741TIP3    H132166   5.569   4.007   1.166
10741TIP3    H232167   5.497   4.131   1.215
10742TIP3   OH232168   2.133   6.722   1.673
10742TIP3    H132169   2.142   6.655   1.742
10742TIP3    H232170   2.041   6.718   1.649
10743TIP3   OH232171   6.104   6.319   0.535
10743TIP3    H132172   6.175   6.295   0.595
10743TIP3    H232173   6.108   6.253   0.466
10744TIP3   OH232174   2.293   3.489   6.386
10744TIP3    H132175   2.266   3.575   6.354
10744TIP3    H232176   2.334   3.506   6.471
10745TIP3   OH232177   6.217   2.284   2.224
10745TIP3    H132178   6.255   2.361   2.182
10745TIP3    H232179   6.211   2.219   2.153
10746TIP3   OH232180   0.292   0.179   3.861
10746TIP3    H132181   0.350   0.244   3.820
10746TIP3    H232182   0.229   0.232   3.911
10747TIP3   OH232183   0.135   1.966   4.456
10747TIP3    H132184   0.154   1.904   4.527
10747TIP3    H232185   0.218   1.975   4.409
10748TIP3   OH232186   2.259   5.532   6.150
10748TIP3    H132187   2.191   5.589   6.185
10748TIP3    H232188   2.213   5.457   6.113
10749TIP3   OH232189   6.543   6.716   2.171
10749TIP3    H132190   6.500   6.632   2.182
10749TIP3    H232191   6.473   6.775   2.143
10750TIP3   OH232192   0.903   4.210   6.730
10750TIP3    H132193   0.962   4.265   6.782
10750TIP3    H232194   0.900   4.127   6.777
10751TIP3   OH232195   5.469   0.102   5.274
10751TIP3    H132196   5.420   0.176   5.311
10751TIP3    H232197   5.535   0.143   5.218
10752TIP3   OH232198   2.078   3.341   5.389
10752TIP3    H132199   2.140   3.414   5.383
10752TIP3    H232200   2.013   3.370   5.453
10753TIP3   OH232201   5.930   6.265   1.764
10753TIP3    H132202   5.858   6.285   1.704
10753TIP3    H232203   5.889   6.213   1.834
10754TIP3   OH232204   5.816   5.466   4.074
10754TIP3    H132205   5.786   5.473   4.164
10754TIP3    H232206   5.792   5.549   4.034
10755TIP3   OH232207   7.847   4.321   5.047
10755TIP3    H132208   7.827   4.233   5.016
10755TIP3    H232209   7.912   4.354   4.984
10756TIP3   OH232210   1.964   7.726   4.665
10756TIP3    H132211   1.921   7.642   4.649
10756TIP3    H232212   2.024   7.736   4.592
10757TIP3   OH232213   5.842   7.165   0.220
10757TIP3    H132214   5.852   7.121   0.304
10757TIP3    H232215   5.896   7.244   0.227
10758TIP3   OH232216   6.827   7.569   6.028
10758TIP3    H132217   6.919   7.546   6.012
10758TIP3    H232218   6.829   7.662   6.049
10759TIP3   OH232219   0.717   4.740   2.864
10759TIP3    H132220   0.631   4.777   2.884
10759TIP3    H232221   0.701   4.681   2.790
10760TIP3   OH232222   1.657   3.891   2.634
10760TIP3    H132223   1.618   3.911   2.549
10760TIP3    H232224   1.596   3.928   2.698
10761TIP3   OH232225   1.354   1.420   5.240
10761TIP3    H132226   1.433   1.389   5.285
10761TIP3    H232227   1.293   1.347   5.247
10762TIP3   OH232228   2.213   0.754   0.038
10762TIP3    H132229   2.217   0.713   0.124
10762TIP3    H232230   2.126   0.793   0.034
10763TIP3   OH232231   0.645   2.154   6.067
10763TIP3    H132232   0.599   2.070   6.073
10763TIP3    H232233   0.629   2.196   6.152
10764TIP3   OH232234   0.034   0.420   4.565
10764TIP3    H132235   0.102   0.370   4.611
10764TIP3    H232236   0.082   0.490   4.520
10765TIP3   OH232237   4.003   1.383   1.133
10765TIP3    H132238   4.009   1.448   1.063
10765TIP3    H232239   3.976   1.433   1.210
10766TIP3   OH232240   3.879   1.697   0.201
10766TIP3    H132241   3.873   1.604   0.224
10766TIP3    H232242   3.900   1.697   0.108
10767TIP3   OH232243   4.869   6.166   1.054
10767TIP3    H132244   4.916   6.194   0.976
10767TIP3    H232245   4.826   6.245   1.087
10768TIP3   OH232246   5.714   6.965   4.796
10768TIP3    H132247   5.639   6.992   4.743
10768TIP3    H232248   5.758   7.047   4.819
10769TIP3   OH232249   7.309   1.414   6.724
10769TIP3    H132250   7.230   1.372   6.690
10769TIP3    H232251   7.358   1.343   6.766
10770TIP3   OH232252   2.507   1.071   4.702
10770TIP3    H132253   2.506   1.041   4.793
10770TIP3    H232254   2.463   1.157   4.705
10771TIP3   OH232255   3.159   2.690   5.362
10771TIP3    H132256   3.070   2.662   5.342
10771TIP3    H232257   3.182   2.749   5.290
10772TIP3   OH232258   0.794   0.832   6.646
10772TIP3    H132259   0.709   0.871   6.668
10772TIP3    H232260   0.773   0.770   6.576
10773TIP3   OH232261   5.399   3.601   1.340
10773TIP3    H132262   5.346   3.564   1.269
10773TIP3    H232263   5.335   3.641   1.399
10774TIP3   OH232264   6.028   0.135   4.560
10774TIP3    H132265   5.939   0.114   4.586
10774TIP3    H232266   6.053   0.063   4.501
10775TIP3   OH232267   2.513   2.515   0.478
10775TIP3    H132268   2.475   2.601   0.461
10775TIP3    H232269   2.482   2.493   0.566
10776TIP3   OH232270   3.498   2.569   3.443
10776TIP3    H132271   3.427   2.520   3.401
10776TIP3    H232272   3.498   2.654   3.399
10777TIP3   OH232273   2.723   5.525   1.092
10777TIP3    H132274   2.639   5.556   1.057
10777TIP3    H232275   2.788   5.578   1.047
10778TIP3   OH232276   7.961   1.816   2.814
10778TIP3    H132277   7.913   1.893   2.843
10778TIP3    H232278   8.028   1.850   2.754
10779TIP3   OH232279   3.781   4.395   5.204
10779TIP3    H132280   3.691   4.410   5.176
10779TIP3    H232281   3.778   4.397   5.299
10780TIP3   OH232282   2.217   2.556   4.587
10780TIP3    H132283   2.189   2.640   4.551
10780TIP3    H232284   2.312   2.555   4.574
10781TIP3   OH232285   7.610   2.673   5.071
10781TIP3    H132286   7.546   2.604   5.050
10781TIP3    H232287   7.592   2.695   5.163
10782TIP3   OH232288   6.363   6.173   5.971
10782TIP3    H132289   6.304   6.140   6.039
10782TIP3    H232290   6.310   6.236   5.922
10783TIP3   OH232291   6.438   7.415   1.024
10783TIP3    H132292   6.406   7.404   1.113
10783TIP3    H232293   6.391   7.349   0.973
10784TIP3   OH232294   3.681   4.386   6.436
10784TIP3    H132295   3.759   4.365   6.488
10784TIP3    H232296   3.661   4.477   6.458
10785TIP3   OH232297   6.213   3.808   1.971
10785TIP3    H132298   6.239   3.850   2.053
10785TIP3    H232299   6.223   3.714   1.988
10786TIP3   OH232300   4.836   5.817   0.872
10786TIP3    H132301   4.769   5.757   0.838
10786TIP3    H232302   4.821   5.899   0.824
10787TIP3   OH232303   2.361   0.917   3.079
10787TIP3    H132304   2.287   0.925   3.139
10787TIP3    H232305   2.390   1.007   3.064
10788TIP3   OH232306   7.154   2.758   2.885
10788TIP3    H132307   7.145   2.824   2.953
10788TIP3    H232308   7.105   2.793   2.810
10789TIP3   OH232309   3.879   4.535   5.952
10789TIP3    H132310   3.880   4.527   5.857
10789TIP3    H232311   3.907   4.449   5.983
10790TIP3   OH232312   6.699   3.561   1.896
10790TIP3    H132313   6.638   3.562   1.822
10790TIP3    H232314   6.784   3.539   1.858
10791TIP3   OH232315   2.136   1.598   3.208
10791TIP3    H132316   2.042   1.577   3.213
10791TIP3    H232317   2.153   1.646   3.289
10792TIP3   OH232318   7.855   0.551   1.457
10792TIP3    H132319   7.832   0.521   1.369
10792TIP3    H232320   7.785   0.517   1.513
10793TIP3   OH232321   7.134   4.083   1.145
10793TIP3    H132322   7.039   4.081   1.143
10793TIP3    H232323   7.156   4.155   1.205
10794TIP3   OH232324   5.372   1.372   6.726
10794TIP3    H132325   5.329   1.329   6.800
10794TIP3    H232326   5.309   1.365   6.654
10795TIP3   OH232327   5.655   6.615   3.333
10795TIP3    H132328   5.573   6.582   3.297
10795TIP3    H232329   5.636   6.705   3.358
10796TIP3   OH232330   5.393   0.632   5.658
10796TIP3    H132331   5.410   0.558   5.599
10796TIP3    H232332   5.398   0.594   5.745
10797TIP3   OH232333   3.862   5.998   2.601
10797TIP3    H132334   3.908   5.936   2.545
10797TIP3    H232335   3.909   5.996   2.684
10798TIP3   OH232336   4.186   6.240   3.953
10798TIP3    H132337   4.217   6.161   3.996
10798TIP3    H232338   4.169   6.301   4.025
10799TIP3   OH232339   3.083   4.189   1.176
10799TIP3    H132340   3.111   4.233   1.096
10799TIP3    H232341   3.151   4.210   1.240
10800TIP3   OH232342   0.192   5.143   0.721
10800TIP3    H132343   0.246   5.135   0.800
10800TIP3    H232344   0.202   5.234   0.694
10801TIP3   OH232345   5.824   5.835   3.108
10801TIP3    H132346   5.865   5.922   3.100
10801TIP3    H232347   5.778   5.823   3.025
10802TIP3   OH232348   4.510   6.930   5.615
10802TIP3    H132349   4.503   6.939   5.520
10802TIP3    H232350   4.457   6.854   5.636
10803TIP3   OH232351   5.214   3.740   5.939
10803TIP3    H132352   5.173   3.691   6.010
10803TIP3    H232353   5.305   3.752   5.967
10804TIP3   OH232354   4.152   5.517   1.894
10804TIP3    H132355   4.130   5.530   1.986
10804TIP3    H232356   4.153   5.605   1.856
10805TIP3   OH232357   4.534   3.503   6.226
10805TIP3    H132358   4.563   3.488   6.316
10805TIP3    H232359   4.444   3.469   6.223
10806TIP3   OH232360   1.944   2.081   6.444
10806TIP3    H132361   2.021   2.080   6.500
10806TIP3    H232362   1.967   2.141   6.373
10807TIP3   OH232363   0.494   7.084   6.741
10807TIP3    H132364   0.422   7.123   6.791
10807TIP3    H232365   0.457   7.067   6.654
10808TIP3   OH232366   5.601   5.893   4.675
10808TIP3    H132367   5.535   5.922   4.612
10808TIP3    H232368   5.684   5.906   4.630
10809TIP3   OH232369   2.131   4.532   2.751
10809TIP3    H132370   2.079   4.506   2.828
10809TIP3    H232371   2.170   4.450   2.720
10810TIP3   OH232372   2.485   6.182   5.181
10810TIP3    H132373   2.460   6.103   5.229
10810TIP3    H232374   2.436   6.176   5.099
10811TIP3   OH232375   5.988   4.418   3.366
10811TIP3    H132376   5.944   4.345   3.323
10811TIP3    H232377   6.024   4.380   3.447
10812TIP3   OH232378   6.418   0.698   0.906
10812TIP3    H132379   6.467   0.711   0.987
10812TIP3    H232380   6.474   0.643   0.852
10813TIP3   OH232381   4.567   6.112   0.825
10813TIP3    H132382   4.658   6.091   0.803
10813TIP3    H232383   4.515   6.072   0.756
10814TIP3   OH232384   3.020   2.911   3.860
10814TIP3    H132385   3.035   2.818   3.877
10814TIP3    H232386   3.066   2.928   3.778
10815TIP3   OH232387   3.027   6.739   3.874
10815TIP3    H132388   2.947   6.689   3.861
10815TIP3    H232389   3.010   6.824   3.832
10816TIP3   OH232390   6.587   7.698   0.558
10816TIP3    H132391   6.658   7.654   0.512
10816TIP3    H232392   6.532   7.734   0.487
10817TIP3   OH232393   2.839   0.385   4.241
10817TIP3    H132394   2.877   0.468   4.212
10817TIP3    H232395   2.764   0.411   4.294
10818TIP3   OH232396   0.546   1.873   4.960
10818TIP3    H132397   0.509   1.794   4.920
10818TIP3    H232398   0.593   1.916   4.888
10819TIP3   OH232399   6.462   5.508   0.890
10819TIP3    H132400   6.470   5.454   0.969
10819TIP3    H232401   6.511   5.587   0.911
10820TIP3   OH232402   6.936   1.853   3.140
10820TIP3    H132403   7.029   1.871   3.129
10820TIP3    H232404   6.913   1.889   3.225
10821TIP3   OH232405   3.229   7.016   0.296
10821TIP3    H132406   3.304   6.994   0.241
10821TIP3    H232407   3.173   7.070   0.241
10822TIP3   OH232408   1.152   7.610   5.520
10822TIP3    H132409   1.067   7.650   5.505
10822TIP3    H232410   1.150   7.586   5.613
10823TIP3   OH232411   5.641   7.481   3.672
10823TIP3    H132412   5.677   7.461   3.586
10823TIP3    H232413   5.710   7.529   3.717
10824TIP3   OH232414   7.844   5.892   5.225
10824TIP3    H132415   7.929   5.847   5.224
10824TIP3    H232416   7.853   5.960   5.292
10825TIP3   OH232417   4.067   4.893   4.828
10825TIP3    H132418   3.992   4.844   4.860
10825TIP3    H232419   4.054   4.981   4.862
10826TIP3   OH232420   6.129   2.544   1.435
10826TIP3    H132421   6.196   2.568   1.371
10826TIP3    H232422   6.058   2.607   1.421
10827TIP3   OH232423   7.393   1.382   4.184
10827TIP3    H132424   7.299   1.403   4.180
10827TIP3    H232425   7.428   1.412   4.101
10828TIP3   OH232426   7.112   4.603   2.949
10828TIP3    H132427   7.086   4.676   3.005
10828TIP3    H232428   7.062   4.617   2.868
10829TIP3   OH232429   3.198   5.116   4.702
10829TIP3    H132430   3.130   5.141   4.765
10829TIP3    H232431   3.253   5.055   4.751
10830TIP3   OH232432   7.396   4.318   5.447
10830TIP3    H132433   7.402   4.245   5.510
10830TIP3    H232434   7.445   4.287   5.370
10831TIP3   OH232435   7.744   2.564   6.592
10831TIP3    H132436   7.750   2.652   6.627
10831TIP3    H232437   7.668   2.566   6.534
10832TIP3   OH232438   7.817   4.248   0.628
10832TIP3    H132439   7.788   4.162   0.657
10832TIP3    H232440   7.737   4.296   0.610
10833TIP3   OH232441   3.049   1.027   2.103
10833TIP3    H132442   3.027   0.964   2.033
10833TIP3    H232443   3.064   1.109   2.057
10834TIP3   OH232444   5.775   0.924   3.133
10834TIP3    H132445   5.766   0.887   3.045
10834TIP3    H232446   5.843   0.871   3.175
10835TIP3   OH232447   3.322   0.805   0.810
10835TIP3    H132448   3.336   0.884   0.758
10835TIP3    H232449   3.388   0.744   0.778
10836TIP3   OH232450   5.188   0.427   2.607
10836TIP3    H132451   5.261   0.406   2.666
10836TIP3    H232452   5.227   0.486   2.542
10837TIP3   OH232453   3.231   6.681   4.456
10837TIP3    H132454   3.250   6.730   4.536
10837TIP3    H232455   3.158   6.623   4.480
10838TIP3   OH232456   1.867   4.282   0.773
10838TIP3    H132457   1.907   4.359   0.813
10838TIP3    H232458   1.932   4.250   0.711
10839TIP3   OH232459   8.040   7.340   5.963
10839TIP3    H132460   8.104   7.408   5.942
10839TIP3    H232461   7.981   7.381   6.026
10840TIP3   OH232462   0.925   1.809   5.687
10840TIP3    H132463   0.945   1.889   5.737
10840TIP3    H232464   0.876   1.841   5.611
10841TIP3   OH232465   2.324   6.308   3.347
10841TIP3    H132466   2.279   6.226   3.325
10841TIP3    H232467   2.267   6.377   3.313
10842TIP3   OH232468   6.782   0.331   4.374
10842TIP3    H132469   6.765   0.386   4.297
10842TIP3    H232470   6.740   0.377   4.446
10843TIP3   OH232471   3.720   3.578   5.729
10843TIP3    H132472   3.754   3.663   5.757
10843TIP3    H232473   3.790   3.540   5.676
10844TIP3   OH232474   7.691   1.872   0.380
10844TIP3    H132475   7.701   1.952   0.329
10844TIP3    H232476   7.725   1.803   0.323
10845TIP3   OH232477   5.902   0.862   5.761
10845TIP3    H132478   5.956   0.783   5.749
10845TIP3    H232479   5.813   0.828   5.771
10846TIP3   OH232480   7.214   7.079   5.760
10846TIP3    H132481   7.298   7.036   5.743
10846TIP3    H232482   7.149   7.020   5.723
10847TIP3   OH232483   5.855   2.816   0.289
10847TIP3    H132484   5.799   2.797   0.213
10847TIP3    H232485   5.903   2.894   0.264
10848TIP3   OH232486   4.387   3.306   4.852
10848TIP3    H132487   4.422   3.395   4.857
10848TIP3    H232488   4.302   3.311   4.896
10849TIP3   OH232489   6.278   0.349   5.090
10849TIP3    H132490   6.351   0.397   5.052
10849TIP3    H232491   6.265   0.274   5.031
10850TIP3   OH232492   7.683   4.864   2.938
10850TIP3    H132493   7.669   4.882   3.031
10850TIP3    H232494   7.597   4.877   2.898
10851TIP3   OH232495   1.366   1.483   4.574
10851TIP3    H132496   1.372   1.390   4.599
10851TIP3    H232497   1.272   1.500   4.570
10852TIP3   OH232498   1.990   2.891   2.358
10852TIP3    H132499   2.058   2.862   2.297
10852TIP3    H232500   1.991   2.987   2.350
10853TIP3   OH232501   0.681   2.871   1.495
10853TIP3    H132502   0.753   2.849   1.435
10853TIP3    H232503   0.721   2.868   1.582
10854TIP3   OH232504   7.928   5.390   1.077
10854TIP3    H132505   7.953   5.482   1.084
10854TIP3    H232506   7.833   5.392   1.067
10855TIP3   OH232507   3.270   5.545   1.082
10855TIP3    H132508   3.362   5.520   1.090
10855TIP3    H232509   3.250   5.588   1.165
10856TIP3   OH232510   7.571   6.741   1.646
10856TIP3    H132511   7.567   6.711   1.555
10856TIP3    H232512   7.508   6.813   1.650
10857TIP3   OH232513   5.380   7.551   5.760
10857TIP3    H132514   5.288   7.539   5.785
10857TIP3    H232515   5.414   7.463   5.748
10858TIP3   OH232516   4.885   7.760   6.288
10858TIP3    H132517   4.846   7.674   6.301
10858TIP3    H232518   4.976   7.742   6.265
10859TIP3   OH232519   3.084   3.917   4.540
10859TIP3    H132520   3.100   3.828   4.508
10859TIP3    H232521   3.137   3.973   4.483
10860TIP3   OH232522   5.399   1.851   1.745
10860TIP3    H132523   5.396   1.946   1.738
10860TIP3    H232524   5.459   1.834   1.817
10861TIP3   OH232525   5.872   2.560   5.500
10861TIP3    H132526   5.794   2.613   5.483
10861TIP3    H232527   5.928   2.616   5.553
10862TIP3   OH232528   4.972   3.574   4.968
10862TIP3    H132529   5.047   3.542   5.019
10862TIP3    H232530   5.011   3.629   4.900
10863TIP3   OH232531   6.909   4.534   1.370
10863TIP3    H132532   6.846   4.592   1.413
10863TIP3    H232533   6.879   4.528   1.280
10864TIP3   OH232534   5.689   5.638   1.785
10864TIP3    H132535   5.751   5.568   1.806
10864TIP3    H232536   5.745   5.710   1.755
10865TIP3   OH232537   2.402   3.673   5.735
10865TIP3    H132538   2.400   3.762   5.769
10865TIP3    H232539   2.429   3.619   5.809
10866TIP3   OH232540   1.659   4.350   4.025
10866TIP3    H132541   1.701   4.435   4.035
10866TIP3    H232542   1.716   4.301   3.966
10867TIP3   OH232543   3.063   4.307   3.161
10867TIP3    H132544   3.024   4.279   3.078
10867TIP3    H232545   3.085   4.399   3.148
10868TIP3   OH232546   0.714   0.125   0.579
10868TIP3    H132547   0.781   0.092   0.520
10868TIP3    H232548   0.692   0.050   0.635
10869TIP3   OH232549   4.414   5.418   5.399
10869TIP3    H132550   4.461   5.353   5.451
10869TIP3    H232551   4.323   5.389   5.401
10870TIP3   OH232552   5.841   7.572   5.145
10870TIP3    H132553   5.808   7.485   5.165
10870TIP3    H232554   5.791   7.631   5.201
10871TIP3   OH232555   0.849   2.240   1.428
10871TIP3    H132556   0.803   2.183   1.489
10871TIP3    H232557   0.934   2.257   1.470
10872TIP3   OH232558   2.090   0.839   4.293
10872TIP3    H132559   2.057   0.794   4.215
10872TIP3    H232560   2.106   0.929   4.264
10873TIP3   OH232561   7.594   7.389   2.338
10873TIP3    H132562   7.574   7.368   2.429
10873TIP3    H232563   7.594   7.485   2.335
10874TIP3   OH232564   2.601   6.743   4.230
10874TIP3    H132565   2.627   6.651   4.228
10874TIP3    H232566   2.522   6.745   4.284
10875TIP3   OH232567   4.115   1.245   3.560
10875TIP3    H132568   4.161   1.240   3.477
10875TIP3    H232569   4.024   1.223   3.539
10876TIP3   OH232570   1.303   0.382   6.235
10876TIP3    H132571   1.372   0.388   6.302
10876TIP3    H232572   1.271   0.472   6.227
10877TIP3   OH232573   7.309   1.360   5.249
10877TIP3    H132574   7.279   1.449   5.232
10877TIP3    H232575   7.251   1.328   5.318
10878TIP3   OH232576   5.472   5.890   2.229
10878TIP3    H132577   5.442   5.840   2.153
10878TIP3    H232578   5.422   5.971   2.226
10879TIP3   OH232579   4.034   2.669   0.620
10879TIP3    H132580   4.047   2.623   0.538
10879TIP3    H232581   4.112   2.723   0.630
10880TIP3   OH232582   4.641   2.878   6.176
10880TIP3    H132583   4.611   2.803   6.124
10880TIP3    H232584   4.690   2.932   6.113
10881TIP3   OH232585   5.989   1.115   5.151
10881TIP3    H132586   5.949   1.057   5.086
10881TIP3    H232587   5.998   1.199   5.105
10882TIP3   OH232588   1.318   7.598   4.327
10882TIP3    H132589   1.402   7.583   4.371
10882TIP3    H232590   1.260   7.631   4.396
10883TIP3   OH232591   3.614   0.677   1.887
10883TIP3    H132592   3.523   0.656   1.911
10883TIP3    H232593   3.650   0.595   1.854
10884TIP3   OH232594   1.225   2.048   2.458
10884TIP3    H132595   1.270   2.073   2.539
10884TIP3    H232596   1.234   2.124   2.401
10885TIP3   OH232597   2.399   7.487   2.085
10885TIP3    H132598   2.306   7.478   2.108
10885TIP3    H232599   2.404   7.451   1.996
10886TIP3   OH232600   4.027   5.587   6.657
10886TIP3    H132601   4.047   5.502   6.620
10886TIP3    H232602   4.046   5.577   6.751
10887TIP3   OH232603   6.600   2.516   0.375
10887TIP3    H132604   6.687   2.555   0.362
10887TIP3    H232605   6.591   2.510   0.470
10888TIP3   OH232606   0.714   4.191   4.798
10888TIP3    H132607   0.760   4.199   4.882
10888TIP3    H232608   0.623   4.213   4.818
10889TIP3   OH232609   3.187   6.736   6.467
10889TIP3    H132610   3.276   6.750   6.435
10889TIP3    H232611   3.182   6.791   6.546
10890TIP3   OH232612   4.606   4.832   2.214
10890TIP3    H132613   4.544   4.795   2.151
10890TIP3    H232614   4.692   4.808   2.179
10891TIP3   OH232615   2.812   6.598   4.554
10891TIP3    H132616   2.762   6.679   4.564
10891TIP3    H232617   2.804   6.554   4.638
10892TIP3   OH232618   1.899   3.471   6.382
10892TIP3    H132619   1.967   3.422   6.335
10892TIP3    H232620   1.941   3.497   6.464
10893TIP3   OH232621   3.411   3.451   5.185
10893TIP3    H132622   3.406   3.359   5.157
10893TIP3    H232623   3.491   3.455   5.237
10894TIP3   OH232624   3.511   5.920   4.628
10894TIP3    H132625   3.581   5.923   4.692
10894TIP3    H232626   3.543   5.974   4.555
10895TIP3   OH232627   4.333   7.683   4.017
10895TIP3    H132628   4.366   7.637   4.094
10895TIP3    H232629   4.291   7.761   4.052
10896TIP3   OH232630   5.861   0.716   1.556
10896TIP3    H132631   5.826   0.630   1.580
10896TIP3    H232632   5.884   0.707   1.464
10897TIP3   OH232633   1.951   2.618   3.416
10897TIP3    H132634   1.943   2.593   3.324
10897TIP3    H232635   2.026   2.678   3.418
10898TIP3   OH232636   2.755   2.053   3.677
10898TIP3    H132637   2.765   2.130   3.621
10898TIP3    H232638   2.838   2.006   3.669
10899TIP3   OH232639   3.101   6.458   2.310
10899TIP3    H132640   3.173   6.504   2.266
10899TIP3    H232641   3.145   6.395   2.367
10900TIP3   OH232642   5.435   1.132   2.771
10900TIP3    H132643   5.458   1.224   2.756
10900TIP3    H232644   5.341   1.127   2.752
10901TIP3   OH232645   0.668   2.132   2.230
10901TIP3    H132646   0.708   2.049   2.258
10901TIP3    H232647   0.620   2.110   2.150
10902TIP3   OH232648   5.184   5.531   0.092
10902TIP3    H132649   5.268   5.497   0.125
10902TIP3    H232650   5.201   5.623   0.074
10903TIP3   OH232651   1.561   0.167   5.686
10903TIP3    H132652   1.571   0.179   5.592
10903TIP3    H232653   1.645   0.195   5.723
10904TIP3   OH232654   8.091   5.655   6.522
10904TIP3    H132655   8.067   5.747   6.530
10904TIP3    H232656   8.026   5.618   6.462
10905TIP3   OH232657   1.592   0.468   3.104
10905TIP3    H132658   1.505   0.501   3.126
10905TIP3    H232659   1.623   0.428   3.186
10906TIP3   OH232660   1.981   0.963   5.244
10906TIP3    H132661   1.984   1.020   5.321
10906TIP3    H232662   2.029   0.884   5.272
10907TIP3   OH232663   4.456   4.059   6.423
10907TIP3    H132664   4.468   4.096   6.510
10907TIP3    H232665   4.508   4.115   6.365
10908TIP3   OH232666   2.737   1.332   6.605
10908TIP3    H132667   2.650   1.320   6.642
10908TIP3    H232668   2.747   1.427   6.597
10909TIP3   OH232669   5.406   6.048   6.399
10909TIP3    H132670   5.328   6.003   6.429
10909TIP3    H232671   5.401   6.135   6.441
10910TIP3   OH232672   5.651   4.760   4.888
10910TIP3    H132673   5.604   4.679   4.868
10910TIP3    H232674   5.718   4.767   4.820
10911TIP3   OH232675   1.267   4.819   5.764
10911TIP3    H132676   1.216   4.832   5.844
10911TIP3    H232677   1.356   4.803   5.795
10912TIP3   OH232678   4.027   5.989   4.537
10912TIP3    H132679   4.008   5.931   4.463
10912TIP3    H232680   4.066   6.067   4.497
10913TIP3   OH232681   7.298   5.070   5.339
10913TIP3    H132682   7.393   5.068   5.323
10913TIP3    H232683   7.279   4.983   5.375
10914TIP3   OH232684   4.856   6.945   1.904
10914TIP3    H132685   4.818   6.867   1.944
10914TIP3    H232686   4.950   6.932   1.912
10915TIP3   OH232687   1.328   7.625   6.237
10915TIP3    H132688   1.370   7.572   6.169
10915TIP3    H232689   1.397   7.641   6.301
10916TIP3   OH232690   0.837   2.619   3.737
10916TIP3    H132691   0.776   2.681   3.697
10916TIP3    H232692   0.784   2.543   3.758
10917TIP3   OH232693   2.337   3.890   0.357
10917TIP3    H132694   2.291   3.880   0.440
10917TIP3    H232695   2.293   3.963   0.313
10918TIP3   OH232696   8.070   5.886   5.833
10918TIP3    H132697   8.009   5.936   5.888
10918TIP3    H232698   8.125   5.839   5.895
10919TIP3   OH232699   7.423   3.178   2.803
10919TIP3    H132700   7.366   3.126   2.746
10919TIP3    H232701   7.427   3.264   2.761
10920TIP3   OH232702   6.440   7.362   1.286
10920TIP3    H132703   6.514   7.306   1.265
10920TIP3    H232704   6.381   7.306   1.336
10921TIP3   OH232705   7.225   2.210   0.850
10921TIP3    H132706   7.167   2.260   0.907
10921TIP3    H232707   7.313   2.232   0.879
10922TIP3   OH232708   2.765   3.675   0.907
10922TIP3    H132709   2.694   3.731   0.875
10922TIP3    H232710   2.845   3.721   0.881
10923TIP3   OH232711   4.250   6.294   3.008
10923TIP3    H132712   4.242   6.205   3.043
10923TIP3    H232713   4.165   6.334   3.025
10924TIP3   OH232714   2.946   2.307   0.573
10924TIP3    H132715   3.018   2.249   0.595
10924TIP3    H232716   2.894   2.258   0.509
10925TIP3   OH232717   3.499   0.744   4.753
10925TIP3    H132718   3.455   0.660   4.742
10925TIP3    H232719   3.460   0.781   4.832
10926TIP3   OH232720   0.511   6.761   0.467
10926TIP3    H132721   0.467   6.844   0.486
10926TIP3    H232722   0.530   6.766   0.373
10927TIP3   OH232723   3.871   7.121   4.737
10927TIP3    H132724   3.823   7.058   4.683
10927TIP3    H232725   3.835   7.206   4.711
10928TIP3   OH232726   5.495   6.450   6.694
10928TIP3    H132727   5.536   6.470   6.778
10928TIP3    H232728   5.405   6.426   6.717
10929TIP3   OH232729   3.520   3.714   1.172
10929TIP3    H132730   3.428   3.734   1.185
10929TIP3    H232731   3.564   3.753   1.247
10930TIP3   OH232732   6.375   1.269   0.696
10930TIP3    H132733   6.316   1.244   0.767
10930TIP3    H232734   6.389   1.363   0.708
10931TIP3   OH232735   5.354   1.618   4.768
10931TIP3    H132736   5.337   1.710   4.791
10931TIP3    H232737   5.381   1.578   4.851
10932TIP3   OH232738   3.582   5.863   3.999
10932TIP3    H132739   3.560   5.956   3.999
10932TIP3    H232740   3.550   5.830   4.083
10933TIP3   OH232741   5.549   7.203   6.073
10933TIP3    H132742   5.467   7.252   6.081
10933TIP3    H232743   5.595   7.246   6.001
10934TIP3   OH232744   7.120   2.062   4.450
10934TIP3    H132745   7.114   2.117   4.372
10934TIP3    H232746   7.112   2.122   4.524
10935TIP3   OH232747   7.867   6.540   5.828
10935TIP3    H132748   7.916   6.463   5.857
10935TIP3    H232749   7.907   6.613   5.875
10936TIP3   OH232750   7.448   1.877   3.228
10936TIP3    H132751   7.437   1.928   3.309
10936TIP3    H232752   7.543   1.873   3.215
10937TIP3   OH232753   0.696   2.237   3.553
10937TIP3    H132754   0.780   2.196   3.573
10937TIP3    H232755   0.642   2.165   3.521
10938TIP3   OH232756   7.877   5.659   0.364
10938TIP3    H132757   7.970   5.663   0.383
10938TIP3    H232758   7.857   5.742   0.320
10939TIP3   OH232759   7.389   5.636   6.728
10939TIP3    H132760   7.311   5.683   6.757
10939TIP3    H232761   7.394   5.559   6.784
10940TIP3   OH232762   4.538   3.761   4.567
10940TIP3    H132763   4.456   3.800   4.537
10940TIP3    H232764   4.552   3.685   4.510
10941TIP3   OH232765   4.863   1.318   5.456
10941TIP3    H132766   4.941   1.265   5.471
10941TIP3    H232767   4.846   1.310   5.362
10942TIP3   OH232768   4.165   2.554   3.019
10942TIP3    H132769   4.165   2.458   3.024
10942TIP3    H232770   4.092   2.575   2.962
10943TIP3   OH232771   1.727   4.507   2.225
10943TIP3    H132772   1.643   4.511   2.270
10943TIP3    H232773   1.763   4.595   2.233
10944TIP3   OH232774   6.506   1.783   5.135
10944TIP3    H132775   6.488   1.836   5.213
10944TIP3    H232776   6.527   1.847   5.067
10945TIP3   OH232777   3.573   3.454   3.613
10945TIP3    H132778   3.535   3.490   3.533
10945TIP3    H232779   3.653   3.504   3.627
10946TIP3   OH232780   4.516   6.889   4.257
10946TIP3    H132781   4.568   6.810   4.243
10946TIP3    H232782   4.491   6.917   4.169
10947TIP3   OH232783   3.210   0.764   3.050
10947TIP3    H132784   3.150   0.692   3.031
10947TIP3    H232785   3.154   0.834   3.086
10948TIP3   OH232786   7.418   2.739   3.079
10948TIP3    H132787   7.384   2.693   3.002
10948TIP3    H232788   7.428   2.670   3.145
10949TIP3   OH232789   7.352   0.855   5.623
10949TIP3    H132790   7.404   0.857   5.703
10949TIP3    H232791   7.416   0.852   5.552
10950TIP3   OH232792   0.894   5.684   4.228
10950TIP3    H132793   0.976   5.719   4.262
10950TIP3    H232794   0.833   5.691   4.301
10951TIP3   OH232795   8.230   4.396   2.111
10951TIP3    H132796   8.270   4.482   2.122
10951TIP3    H232797   8.257   4.369   2.023
10952TIP3   OH232798   4.421   7.761   1.957
10952TIP3    H132799   4.486   7.710   1.909
10952TIP3    H232800   4.468   7.794   2.034
10953TIP3   OH232801   6.274   5.261   2.929
10953TIP3    H132802   6.261   5.182   2.876
10953TIP3    H232803   6.192   5.309   2.920
10954TIP3   OH232804   6.760   6.434   5.831
10954TIP3    H132805   6.713   6.401   5.908
10954TIP3    H232806   6.788   6.355   5.785
10955TIP3   OH232807   6.702   2.997   0.468
10955TIP3    H132808   6.794   2.994   0.493
10955TIP3    H232809   6.661   2.927   0.518
10956TIP3   OH232810   0.968   3.190   6.108
10956TIP3    H132811   0.999   3.277   6.132
10956TIP3    H232812   1.046   3.144   6.080
10957TIP3   OH232813   7.750   0.762   6.288
10957TIP3    H132814   7.779   0.774   6.198
10957TIP3    H232815   7.705   0.843   6.310
10958TIP3   OH232816   3.780   0.800   2.082
10958TIP3    H132817   3.722   0.750   2.025
10958TIP3    H232818   3.865   0.798   2.039
10959TIP3   OH232819   7.093   2.699   0.121
10959TIP3    H132820   7.183   2.684   0.149
10959TIP3    H232821   7.074   2.626   0.062
10960TIP3   OH232822   7.797   7.009   4.353
10960TIP3    H132823   7.799   6.924   4.307
10960TIP3    H232824   7.864   7.001   4.420
10961TIP3   OH232825   0.783   5.469   0.964
10961TIP3    H132826   0.732   5.550   0.974
10961TIP3    H232827   0.718   5.404   0.939
10962TIP3   OH232828   7.662   2.141   4.105
10962TIP3    H132829   7.712   2.181   4.034
10962TIP3    H232830   7.612   2.214   4.143
10963TIP3   OH232831   7.090   4.062   5.594
10963TIP3    H132832   7.064   4.140   5.643
10963TIP3    H232833   7.028   3.994   5.621
10964TIP3   OH232834   5.745   1.307   2.074
10964TIP3    H132835   5.755   1.369   2.146
10964TIP3    H232836   5.809   1.238   2.092
10965TIP3   OH232837   0.850   3.475   3.899
10965TIP3    H132838   0.800   3.450   3.821
10965TIP3    H232839   0.828   3.567   3.913
10966TIP3   OH232840   0.631   7.760   2.400
10966TIP3    H132841   0.688   7.825   2.441
10966TIP3    H232842   0.688   7.712   2.340
10967TIP3   OH232843   0.852   4.050   1.989
10967TIP3    H132844   0.829   3.959   2.009
10967TIP3    H232845   0.790   4.101   2.041
10968TIP3   OH232846   0.013   5.227   3.617
10968TIP3    H132847  -0.046   5.296   3.647
10968TIP3    H232848   0.089   5.233   3.675
10969TIP3   OH232849   2.699   4.330   0.447
10969TIP3    H132850   2.779   4.380   0.463
10969TIP3    H232851   2.667   4.361   0.363
10970TIP3   OH232852   7.349   0.876   6.176
10970TIP3    H132853   7.437   0.907   6.198
10970TIP3    H232854   7.363   0.793   6.132
10971TIP3   OH232855   0.495   7.070   2.243
10971TIP3    H132856   0.413   7.095   2.200
10971TIP3    H232857   0.485   6.976   2.260
10972TIP3   OH232858   6.391   6.161   3.484
10972TIP3    H132859   6.311   6.161   3.536
10972TIP3    H232860   6.408   6.254   3.465
10973TIP3   OH232861   4.385   1.560   5.931
10973TIP3    H132862   4.315   1.520   5.880
10973TIP3    H232863   4.461   1.557   5.873
10974TIP3   OH232864   3.219   6.587   4.031
10974TIP3    H132865   3.171   6.636   3.965
10974TIP3    H232866   3.152   6.544   4.083
10975TIP3   OH232867   1.722   0.349   5.500
10975TIP3    H132868   1.789   0.398   5.452
10975TIP3    H232869   1.755   0.343   5.589
10976TIP3   OH232870   4.689   7.801   4.785
10976TIP3    H132871   4.778   7.767   4.790
10976TIP3    H232872   4.672   7.838   4.871
10977TIP3   OH232873   4.117   2.834   6.329
10977TIP3    H132874   4.108   2.928   6.345
10977TIP3    H232875   4.202   2.811   6.366
10978TIP3   OH232876   7.833   5.500   0.602
10978TIP3    H132877   7.839   5.560   0.676
10978TIP3    H232878   7.866   5.550   0.528
10979TIP3   OH232879   7.181   6.500   1.596
10979TIP3    H132880   7.257   6.525   1.649
10979TIP3    H232881   7.210   6.422   1.549
10980TIP3   OH232882   2.714   6.423   3.709
10980TIP3    H132883   2.793   6.369   3.708
10980TIP3    H232884   2.725   6.479   3.786
10981TIP3   OH232885   3.070   1.243   2.370
10981TIP3    H132886   3.061   1.150   2.390
10981TIP3    H232887   3.143   1.272   2.425
10982TIP3   OH232888   2.987   3.982   1.014
10982TIP3    H132889   3.047   4.043   1.058
10982TIP3    H232890   2.912   4.036   0.989
10983TIP3   OH232891   6.411   6.031   4.150
10983TIP3    H132892   6.430   6.045   4.057
10983TIP3    H232893   6.374   5.943   4.155
10984TIP3   OH232894   2.416   3.092   0.737
10984TIP3    H132895   2.479   3.021   0.734
10984TIP3    H232896   2.424   3.136   0.652
10985TIP3   OH232897   4.571   4.777   5.451
10985TIP3    H132898   4.493   4.797   5.400
10985TIP3    H232899   4.552   4.693   5.494
10986TIP3   OH232900   4.413   3.257   3.552
10986TIP3    H132901   4.330   3.287   3.590
10986TIP3    H232902   4.469   3.335   3.553
10987TIP3   OH232903   6.483   1.052   5.531
10987TIP3    H132904   6.526   1.060   5.446
10987TIP3    H232905   6.516   0.969   5.567
10988TIP3   OH232906   2.771   5.806   4.756
10988TIP3    H132907   2.698   5.743   4.756
10988TIP3    H232908   2.849   5.752   4.764
10989TIP3   OH232909   2.668   1.305   0.616
10989TIP3    H132910   2.638   1.385   0.573
10989TIP3    H232911   2.607   1.237   0.584
10990TIP3   OH232912   4.009   1.516   1.366
10990TIP3    H132913   4.010   1.455   1.440
10990TIP3    H232914   4.051   1.595   1.400
10991TIP3   OH232915   7.748   0.753   1.094
10991TIP3    H132916   7.699   0.735   1.014
10991TIP3    H232917   7.785   0.668   1.119
10992TIP3   OH232918   1.944   0.692   4.800
10992TIP3    H132919   1.866   0.741   4.776
10992TIP3    H232920   1.987   0.672   4.716
10993TIP3   OH232921   5.878   3.486   4.620
10993TIP3    H132922   5.943   3.541   4.663
10993TIP3    H232923   5.852   3.536   4.543
10994TIP3   OH232924   3.816   7.135   1.681
10994TIP3    H132925   3.766   7.053   1.688
10994TIP3    H232926   3.904   7.107   1.657
10995TIP3   OH232927   5.762   4.410   1.151
10995TIP3    H132928   5.805   4.330   1.182
10995TIP3    H232929   5.788   4.477   1.214
10996TIP3   OH232930   5.639   4.303   0.469
10996TIP3    H132931   5.690   4.372   0.425
10996TIP3    H232932   5.692   4.224   0.460
10997TIP3   OH232933   0.800   1.033   1.732
10997TIP3    H132934   0.720   1.031   1.786
10997TIP3    H232935   0.832   1.123   1.740
10998TIP3   OH232936   7.141   2.952   5.061
10998TIP3    H132937   7.060   2.939   5.011
10998TIP3    H232938   7.145   2.878   5.121
10999TIP3   OH232939   3.323   2.463   5.300
10999TIP3    H132940   3.239   2.508   5.310
10999TIP3    H232941   3.380   2.505   5.365
11000TIP3   OH232942   4.744   2.126   6.365
11000TIP3    H132943   4.835   2.143   6.388
11000TIP3    H232944   4.726   2.039   6.400
11001TIP3   OH232945   3.872   1.035   1.319
11001TIP3    H132946   3.818   1.062   1.244
11001TIP3    H232947   3.932   0.971   1.282
11002TIP3   OH232948   7.064   3.204   4.375
11002TIP3    H132949   7.054   3.140   4.305
11002TIP3    H232950   7.052   3.154   4.456
11003TIP3   OH232951   1.271   4.072   6.172
11003TIP3    H132952   1.304   3.982   6.177
11003TIP3    H232953   1.252   4.095   6.263
11004TIP3   OH232954   2.964   5.069   6.114
11004TIP3    H132955   2.909   5.019   6.053
11004TIP3    H232956   3.048   5.077   6.070
11005TIP3   OH232957   6.931   6.265   2.977
11005TIP3    H132958   6.901   6.342   3.026
11005TIP3    H232959   6.920   6.193   3.038
11006TIP3   OH232960   0.409   0.536   0.366
11006TIP3    H132961   0.340   0.582   0.319
11006TIP3    H232962   0.401   0.445   0.337
11007TIP3   OH232963   5.985   2.667   2.847
11007TIP3    H132964   5.919   2.730   2.877
11007TIP3    H232965   6.060   2.721   2.823
11008TIP3   OH232966   6.260   5.957   6.666
11008TIP3    H132967   6.167   5.976   6.653
11008TIP3    H232968   6.300   5.973   6.580
11009TIP3   OH232969   5.192   6.132   2.848
11009TIP3    H132970   5.112   6.080   2.839
11009TIP3    H232971   5.163   6.215   2.887
11010TIP3   OH232972   8.068   6.747   4.236
11010TIP3    H132973   8.116   6.745   4.154
11010TIP3    H232974   8.102   6.823   4.283
11011TIP3   OH232975   6.794   3.945   3.473
11011TIP3    H132976   6.871   3.948   3.417
11011TIP3    H232977   6.732   4.004   3.431
11012TIP3   OH232978   7.357   4.820   5.498
11012TIP3    H132979   7.405   4.740   5.478
11012TIP3    H232980   7.411   4.866   5.562
11013TIP3   OH232981   2.032   0.074   4.823
11013TIP3    H132982   1.998  -0.015   4.825
11013TIP3    H232983   2.087   0.077   4.744
11014TIP3   OH232984   3.513   3.048   1.616
11014TIP3    H132985   3.529   3.137   1.584
11014TIP3    H232986   3.596   3.003   1.603
11015TIP3   OH232987   1.981   2.431   1.890
11015TIP3    H132988   1.919   2.391   1.830
11015TIP3    H232989   2.024   2.499   1.838
11016TIP3   OH232990   3.225   6.839   5.748
11016TIP3    H132991   3.302   6.895   5.745
11016TIP3    H232992   3.151   6.899   5.747
11017TIP3   OH232993   2.127   2.587   3.694
11017TIP3    H132994   2.213   2.629   3.689
11017TIP3    H232995   2.066   2.659   3.708
11018TIP3   OH232996   2.249   7.820   6.080
11018TIP3    H132997   2.342   7.804   6.096
11018TIP3    H232998   2.234   7.794   5.990
11019TIP3   OH232999   7.484   5.407   4.753
11019TIP3    H133000   7.516   5.329   4.706
11019TIP3    H233001   7.506   5.480   4.695
11020TIP3   OH233002   1.027   3.846   2.333
11020TIP3    H133003   1.045   3.932   2.295
11020TIP3    H233004   1.063   3.783   2.271
11021TIP3   OH233005   1.146   6.588   5.835
11021TIP3    H133006   1.076   6.547   5.885
11021TIP3    H233007   1.110   6.671   5.805
11022TIP3   OH233008   7.095   7.074   5.381
11022TIP3    H133009   7.021   7.032   5.425
11022TIP3    H233010   7.112   7.152   5.433
11023TIP3   OH233011   7.680   3.293   2.229
11023TIP3    H133012   7.637   3.358   2.173
11023TIP3    H233013   7.612   3.226   2.243
11024TIP3   OH233014   2.074   5.653   6.321
11024TIP3    H133015   2.105   5.737   6.288
11024TIP3    H233016   1.981   5.667   6.339
11025TIP3   OH233017   7.660   0.163   3.151
11025TIP3    H133018   7.696   0.230   3.208
11025TIP3    H233019   7.724   0.153   3.081
11026TIP3   OH233020   0.390   6.187   3.803
11026TIP3    H133021   0.321   6.128   3.829
11026TIP3    H233022   0.471   6.137   3.815
11027TIP3   OH233023   2.537   3.196   4.361
11027TIP3    H133024   2.517   3.289   4.344
11027TIP3    H233025   2.556   3.160   4.275
11028TIP3   OH233026   0.660   0.894   1.098
11028TIP3    H133027   0.589   0.950   1.130
11028TIP3    H233028   0.734   0.916   1.154
11029TIP3   OH233029   5.403   6.502   4.740
11029TIP3    H133030   5.423   6.585   4.784
11029TIP3    H233031   5.486   6.455   4.738
11030TIP3   OH233032   7.839   2.317   5.480
11030TIP3    H133033   7.811   2.227   5.464
11030TIP3    H233034   7.777   2.350   5.545
11031TIP3   OH233035   0.248   1.793   5.227
11031TIP3    H133036   0.180   1.726   5.228
11031TIP3    H233037   0.207   1.870   5.266
11032TIP3   OH233038   2.891   7.580   6.426
11032TIP3    H133039   2.872   7.651   6.365
11032TIP3    H233040   2.818   7.518   6.414
11033TIP3   OH233041   1.785   5.459   0.749
11033TIP3    H133042   1.783   5.449   0.654
11033TIP3    H233043   1.771   5.553   0.764
11034TIP3   OH233044   4.846   3.306   4.480
11034TIP3    H133045   4.867   3.384   4.530
11034TIP3    H233046   4.931   3.269   4.456
11035TIP3   OH233047   4.042   2.697   3.547
11035TIP3    H133048   4.008   2.697   3.458
11035TIP3    H233049   4.069   2.606   3.563
11036TIP3   OH233050   7.899   2.712   6.252
11036TIP3    H133051   7.976   2.700   6.196
11036TIP3    H233052   7.835   2.649   6.219
11037TIP3   OH233053   7.733   6.383   2.249
11037TIP3    H133054   7.701   6.298   2.277
11037TIP3    H233055   7.684   6.446   2.302
11038TIP3   OH233056   6.226   7.372   4.674
11038TIP3    H133057   6.275   7.444   4.714
11038TIP3    H233058   6.293   7.315   4.637
11039TIP3   OH233059   5.969   7.605   0.570
11039TIP3    H133060   5.925   7.618   0.486
11039TIP3    H233061   5.970   7.510   0.582
11040TIP3   OH233062   7.087   5.957   1.345
11040TIP3    H133063   7.060   5.947   1.254
11040TIP3    H233064   7.008   5.986   1.391
11041TIP3   OH233065   0.895   4.293   2.714
11041TIP3    H133066   0.800   4.303   2.724
11041TIP3    H233067   0.921   4.368   2.660
11042TIP3   OH233068   5.539   5.772   3.905
11042TIP3    H133069   5.584   5.856   3.895
11042TIP3    H233070   5.462   5.779   3.849
11043TIP3   OH233071   4.991   1.093   3.762
11043TIP3    H133072   4.922   1.094   3.828
11043TIP3    H233073   4.970   1.167   3.705
11044TIP3   OH233074   7.039   3.481   6.700
11044TIP3    H133075   7.052   3.557   6.758
11044TIP3    H233076   6.963   3.436   6.737
11045TIP3   OH233077   1.243   3.783   2.475
11045TIP3    H133078   1.159   3.815   2.442
11045TIP3    H233079   1.223   3.751   2.563
11046TIP3   OH233080   3.703   4.020   6.291
11046TIP3    H133081   3.658   4.093   6.248
11046TIP3    H233082   3.637   3.950   6.293
11047TIP3   OH233083   4.525   1.733   6.118
11047TIP3    H133084   4.603   1.764   6.072
11047TIP3    H233085   4.494   1.659   6.066
11048TIP3   OH233086   3.768   5.446   5.653
11048TIP3    H133087   3.777   5.490   5.568
11048TIP3    H233088   3.754   5.518   5.715
11049TIP3   OH233089   6.541   1.518   6.738
11049TIP3    H133090   6.491   1.532   6.819
11049TIP3    H233091   6.560   1.606   6.706
11050TIP3   OH233092   0.877   6.540   4.730
11050TIP3    H133093   0.963   6.550   4.772
11050TIP3    H233094   0.897   6.518   4.639
11051TIP3   OH233095   4.860   3.676   4.439
11051TIP3    H133096   4.894   3.618   4.507
11051TIP3    H233097   4.904   3.760   4.455
11052TIP3   OH233098   8.033   3.138   2.108
11052TIP3    H133099   8.006   3.217   2.061
11052TIP3    H233100   8.128   3.137   2.100
11053TIP3   OH233101   7.168   4.934   6.322
11053TIP3    H133102   7.128   4.965   6.241
11053TIP3    H233103   7.197   5.013   6.367
11054TIP3   OH233104   0.146   2.460   0.462
11054TIP3    H133105   0.116   2.473   0.552
11054TIP3    H233106   0.075   2.492   0.408
11055TIP3   OH233107   7.326   1.002   1.310
11055TIP3    H133108   7.414   1.034   1.326
11055TIP3    H233109   7.326   0.911   1.342
11056TIP3   OH233110   7.080   2.532   6.705
11056TIP3    H133111   7.118   2.561   6.787
11056TIP3    H233112   6.985   2.535   6.721
11057TIP3   OH233113   4.094   4.856   1.261
11057TIP3    H133114   4.090   4.951   1.259
11057TIP3    H233115   4.105   4.833   1.353
11058TIP3   OH233116   5.402   4.927   4.857
11058TIP3    H133117   5.433   4.969   4.776
11058TIP3    H233118   5.326   4.876   4.830
11059TIP3   OH233119   6.531   1.461   4.135
11059TIP3    H133120   6.525   1.554   4.113
11059TIP3    H233121   6.553   1.459   4.228
11060TIP3   OH233122   4.004   7.781   4.411
11060TIP3    H133123   3.994   7.874   4.429
11060TIP3    H233124   3.993   7.739   4.497
11061TIP3   OH233125   5.726   4.006   0.136
11061TIP3    H133126   5.756   3.916   0.141
11061TIP3    H233127   5.717   4.024   0.043
11062TIP3   OH233128   2.297   3.263   3.860
11062TIP3    H133129   2.371   3.210   3.890
11062TIP3    H233130   2.270   3.222   3.778
11063TIP3   OH233131   4.493   3.102   0.834
11063TIP3    H133132   4.438   3.156   0.890
11063TIP3    H233133   4.445   3.020   0.825
11064TIP3   OH233134   0.239   4.394   4.624
11064TIP3    H133135   0.162   4.449   4.641
11064TIP3    H233136   0.299   4.451   4.575
11065TIP3   OH233137   1.235   1.374   5.708
11065TIP3    H133138   1.245   1.434   5.782
11065TIP3    H233139   1.144   1.345   5.712
11066TIP3   OH233140   2.140   5.404   1.497
11066TIP3    H133141   2.204   5.450   1.444
11066TIP3    H233142   2.073   5.470   1.518
11067TIP3   OH233143   5.968   5.351   6.047
11067TIP3    H133144   5.996   5.264   6.074
11067TIP3    H233145   5.924   5.338   5.963
11068TIP3   OH233146   2.561   1.628   1.345
11068TIP3    H133147   2.603   1.688   1.406
11068TIP3    H233148   2.496   1.683   1.299
11069TIP3   OH233149   5.285   5.231   0.969
11069TIP3    H133150   5.362   5.283   0.945
11069TIP3    H233151   5.297   5.212   1.062
11070TIP3   OH233152   2.263   0.009   3.050
11070TIP3    H133153   2.181   0.007   3.099
11070TIP3    H233154   2.250   0.074   2.981
11071TIP3   OH233155   4.402   1.466   4.871
11071TIP3    H133156   4.316   1.507   4.862
11071TIP3    H233157   4.391   1.377   4.837
11072TIP3   OH233158   4.509   4.889   1.400
11072TIP3    H133159   4.504   4.972   1.448
11072TIP3    H233160   4.602   4.865   1.406
11073TIP3   OH233161   4.285   0.738   2.695
11073TIP3    H133162   4.224   0.665   2.706
11073TIP3    H233163   4.229   0.816   2.688
11074TIP3   OH233164   5.119   2.704   1.439
11074TIP3    H133165   5.154   2.696   1.528
11074TIP3    H233166   5.089   2.795   1.433
11075TIP3   OH233167   7.050   5.758   2.081
11075TIP3    H133168   7.125   5.787   2.132
11075TIP3    H233169   6.979   5.749   2.144
11076TIP3   OH233170   2.799   1.197   0.046
11076TIP3    H133171   2.805   1.211   0.141
11076TIP3    H233172   2.705   1.184   0.030
11077TIP3   OH233173   3.502   3.804   5.530
11077TIP3    H133174   3.538   3.856   5.602
11077TIP3    H233175   3.423   3.851   5.503
11078TIP3   OH233176   1.414   5.057   2.547
11078TIP3    H133177   1.431   5.055   2.641
11078TIP3    H233178   1.354   4.985   2.532
11079TIP3   OH233179   3.108   4.400   5.847
11079TIP3    H133180   3.060   4.477   5.815
11079TIP3    H233181   3.175   4.385   5.780
11080TIP3   OH233182   0.433   0.852   4.745
11080TIP3    H133183   0.427   0.921   4.678
11080TIP3    H233184   0.383   0.779   4.708
11081TIP3   OH233185   4.631   6.438   3.746
11081TIP3    H133186   4.577   6.472   3.675
11081TIP3    H233187   4.570   6.394   3.804
11082TIP3   OH233188   0.508   4.293   3.959
11082TIP3    H133189   0.454   4.343   3.898
11082TIP3    H233190   0.501   4.341   4.042
11083TIP3   OH233191   4.421   6.960   5.342
11083TIP3    H133192   4.441   6.887   5.284
11083TIP3    H233193   4.326   6.967   5.341
11084TIP3   OH233194   3.483   0.982   5.661
11084TIP3    H133195   3.443   1.019   5.740
11084TIP3    H233196   3.492   1.056   5.601
11085TIP3   OH233197   4.470   1.357   2.741
11085TIP3    H133198   4.432   1.318   2.662
11085TIP3    H233199   4.453   1.451   2.732
11086TIP3   OH233200   5.584   1.462   5.236
11086TIP3    H133201   5.623   1.430   5.155
11086TIP3    H233202   5.566   1.555   5.219
11087TIP3   OH233203   1.677   2.561   2.293
11087TIP3    H133204   1.730   2.495   2.249
11087TIP3    H233205   1.712   2.644   2.264
11088TIP3   OH233206   5.805   5.862   4.266
11088TIP3    H133207   5.736   5.796   4.277
11088TIP3    H233208   5.762   5.945   4.283
11089TIP3   OH233209   6.569   3.952   0.771
11089TIP3    H133210   6.533   3.906   0.695
11089TIP3    H233211   6.625   4.021   0.734
11090TIP3   OH233212   1.889   4.775   4.460
11090TIP3    H133213   1.883   4.871   4.461
11090TIP3    H233214   1.799   4.746   4.478
11091TIP3   OH233215   6.492   4.054   3.627
11091TIP3    H133216   6.457   4.118   3.689
11091TIP3    H233217   6.524   4.107   3.554
11092TIP3   OH233218   6.300   6.767   2.501
11092TIP3    H133219   6.351   6.699   2.546
11092TIP3    H233220   6.362   6.839   2.488
11093TIP3   OH233221   3.842   1.236   3.520
11093TIP3    H133222   3.778   1.299   3.490
11093TIP3    H233223   3.838   1.240   3.615
11094TIP3   OH233224   2.078   2.419   0.529
11094TIP3    H133225   2.027   2.344   0.498
11094TIP3    H233226   2.069   2.416   0.624
11095TIP3   OH233227   3.846   7.407   1.627
11095TIP3    H133228   3.867   7.418   1.535
11095TIP3    H233229   3.831   7.313   1.637
11096TIP3   OH233230   1.336   0.925   4.504
11096TIP3    H133231   1.325   0.996   4.441
11096TIP3    H233232   1.392   0.862   4.459
11097TIP3   OH233233   5.944   1.184   1.706
11097TIP3    H133234   5.852   1.196   1.684
11097TIP3    H233235   5.944   1.161   1.799
11098TIP3   OH233236   6.646   7.180   1.244
11098TIP3    H133237   6.712   7.228   1.295
11098TIP3    H233238   6.694   7.146   1.168
11099TIP3   OH233239   5.123   3.262   0.252
11099TIP3    H133240   5.102   3.171   0.231
11099TIP3    H233241   5.176   3.258   0.331
11100TIP3   OH233242   4.297   7.058   5.803
11100TIP3    H133243   4.332   7.017   5.724
11100TIP3    H233244   4.294   6.988   5.868
11101TIP3   OH233245   1.748   5.103   6.219
11101TIP3    H133246   1.826   5.118   6.272
11101TIP3    H233247   1.771   5.136   6.132
11102TIP3   OH233248   0.637   0.642   0.985
11102TIP3    H133249   0.731   0.629   0.998
11102TIP3    H233250   0.620   0.730   1.017
11103TIP3   OH233251   5.778   5.666   0.296
11103TIP3    H133252   5.863   5.638   0.264
11103TIP3    H233253   5.766   5.617   0.378
11104TIP3   OH233254   2.653   3.613   4.976
11104TIP3    H133255   2.747   3.630   4.974
11104TIP3    H233256   2.617   3.683   5.031
11105TIP3   OH233257   0.351   7.109   4.852
11105TIP3    H133258   0.422   7.164   4.821
11105TIP3    H233259   0.272   7.161   4.837
11106TIP3   OH233260   6.729   6.143   1.034
11106TIP3    H133261   6.725   6.228   0.988
11106TIP3    H233262   6.784   6.160   1.111
11107TIP3   OH233263   3.732   2.819   1.585
11107TIP3    H133264   3.688   2.737   1.562
11107TIP3    H233265   3.825   2.796   1.589
11108TIP3   OH233266   4.392   5.643   6.563
11108TIP3    H133267   4.453   5.717   6.561
11108TIP3    H233268   4.351   5.649   6.650
11109TIP3   OH233269   0.369   1.179   2.928
11109TIP3    H133270   0.377   1.166   2.833
11109TIP3    H233271   0.298   1.244   2.937
11110TIP3   OH233272   3.209   5.061   1.563
11110TIP3    H133273   3.148   5.132   1.586
11110TIP3    H233274   3.291   5.106   1.541
11111TIP3   OH233275   3.776   6.669   1.092
11111TIP3    H133276   3.767   6.677   0.997
11111TIP3    H233277   3.823   6.586   1.105
11112TIP3   OH233278   3.617   1.809   4.759
11112TIP3    H133279   3.689   1.747   4.774
11112TIP3    H233280   3.600   1.847   4.845
11113TIP3   OH233281   5.296   0.426   4.408
11113TIP3    H133282   5.332   0.350   4.453
11113TIP3    H233283   5.217   0.393   4.365
11114TIP3   OH233284   1.440   3.249   4.658
11114TIP3    H133285   1.413   3.335   4.690
11114TIP3    H233286   1.429   3.190   4.733
11115TIP3   OH233287   6.122   2.181   0.254
11115TIP3    H133288   6.201   2.190   0.307
11115TIP3    H233289   6.109   2.268   0.215
11116TIP3   OH233290   0.252   3.036   3.654
11116TIP3    H133291   0.201   2.973   3.601
11116TIP3    H233292   0.291   3.095   3.589
11117TIP3   OH233293   4.318   6.136   4.952
11117TIP3    H133294   4.357   6.221   4.972
11117TIP3    H233295   4.378   6.097   4.888
11118TIP3   OH233296   0.833   4.761   1.906
11118TIP3    H133297   0.919   4.724   1.884
11118TIP3    H233298   0.785   4.689   1.947
11119TIP3   OH233299   1.695   6.416   6.371
11119TIP3    H133300   1.637   6.421   6.295
11119TIP3    H233301   1.766   6.477   6.352
11120TIP3   OH233302   6.478   2.110   2.925
11120TIP3    H133303   6.560   2.158   2.914
11120TIP3    H233304   6.504   2.023   2.955
11121TIP3   OH233305   4.986   3.452   3.972
11121TIP3    H133306   4.914   3.395   3.999
11121TIP3    H233307   5.049   3.446   4.044
11122TIP3   OH233308   4.634   2.447   6.136
11122TIP3    H133309   4.711   2.450   6.080
11122TIP3    H233310   4.575   2.384   6.093
11123TIP3   OH233311   1.332   7.115   2.639
11123TIP3    H133312   1.263   7.181   2.636
11123TIP3    H233313   1.409   7.160   2.606
11124TIP3   OH233314   6.132   7.571   5.655
11124TIP3    H133315   6.105   7.481   5.668
11124TIP3    H233316   6.196   7.588   5.724
11125TIP3   OH233317   3.605   3.415   1.957
11125TIP3    H133318   3.673   3.351   1.977
11125TIP3    H233319   3.534   3.363   1.920
11126TIP3   OH233320   4.604   0.341   6.169
11126TIP3    H133321   4.566   0.269   6.119
11126TIP3    H233322   4.690   0.356   6.129
11127TIP3   OH233323   0.396   5.752   3.789
11127TIP3    H133324   0.389   5.846   3.804
11127TIP3    H233325   0.430   5.745   3.700
11128TIP3   OH233326   0.670   7.324   1.869
11128TIP3    H133327   0.764   7.308   1.873
11128TIP3    H233328   0.639   7.303   1.957
11129TIP3   OH233329   5.017   3.337   3.115
11129TIP3    H133330   4.972   3.412   3.077
11129TIP3    H233331   4.955   3.265   3.109
11130TIP3   OH233332   6.936   6.038   2.015
11130TIP3    H133333   6.986   5.984   2.076
11130TIP3    H233334   7.002   6.076   1.957
11131TIP3   OH233335   3.433   0.742   4.323
11131TIP3    H133336   3.407   0.775   4.237
11131TIP3    H233337   3.511   0.689   4.306
11132TIP3   OH233338   3.005   6.694   2.828
11132TIP3    H133339   2.956   6.680   2.747
11132TIP3    H233340   2.938   6.715   2.893
11133TIP3   OH233341   2.611   6.999   0.869
11133TIP3    H133342   2.550   7.060   0.910
11133TIP3    H233343   2.555   6.934   0.827
11134TIP3   OH233344   7.281   1.964   4.723
11134TIP3    H133345   7.335   1.969   4.645
11134TIP3    H233346   7.228   1.884   4.710
11135TIP3   OH233347   0.139   0.354   3.656
11135TIP3    H133348   0.181   0.311   3.582
11135TIP3    H233349   0.209   0.407   3.695
11136TIP3   OH233350   8.125   0.011   4.494
11136TIP3    H133351   8.213   0.002   4.530
11136TIP3    H233352   8.126   0.098   4.453
11137TIP3   OH233353   7.232   5.151   0.261
11137TIP3    H133354   7.148   5.177   0.222
11137TIP3    H233355   7.210   5.080   0.321
11138TIP3   OH233356   2.869   7.471   1.476
11138TIP3    H133357   2.908   7.407   1.416
11138TIP3    H233358   2.780   7.440   1.489
11139TIP3   OH233359   5.857   4.855   3.681
11139TIP3    H133360   5.821   4.779   3.635
11139TIP3    H233361   5.782   4.895   3.724
11140TIP3   OH233362   4.312   5.273   5.701
11140TIP3    H133363   4.240   5.336   5.694
11140TIP3    H233364   4.371   5.310   5.766
11141TIP3   OH233365   4.916   7.178   3.985
11141TIP3    H133366   4.907   7.097   3.936
11141TIP3    H233367   4.850   7.172   4.055
11142TIP3   OH233368   7.998   5.400   1.527
11142TIP3    H133369   8.079   5.418   1.480
11142TIP3    H233370   7.931   5.398   1.459
11143TIP3   OH233371   3.293   1.386   4.310
11143TIP3    H133372   3.351   1.377   4.386
11143TIP3    H233373   3.217   1.434   4.344
11144TIP3   OH233374   6.939   7.558   6.734
11144TIP3    H133375   7.006   7.511   6.686
11144TIP3    H233376   6.969   7.649   6.733
11145TIP3   OH233377   0.244   6.719   3.677
11145TIP3    H133378   0.260   6.691   3.587
11145TIP3    H233379   0.298   6.797   3.688
11146TIP3   OH233380   7.966   5.808   2.172
11146TIP3    H133381   7.926   5.894   2.183
11146TIP3    H233382   8.059   5.826   2.161
11147TIP3   OH233383   0.271   0.819   6.175
11147TIP3    H133384   0.228   0.902   6.159
11147TIP3    H233385   0.204   0.765   6.217
11148TIP3   OH233386   2.952   3.356   3.278
11148TIP3    H133387   3.034   3.309   3.293
11148TIP3    H233388   2.885   3.287   3.275
11149TIP3   OH233389   8.009   0.972   0.808
11149TIP3    H133390   8.002   1.000   0.899
11149TIP3    H233391   8.010   1.053   0.758
11150TIP3   OH233392   1.981   6.141   0.087
11150TIP3    H133393   1.896   6.144   0.131
11150TIP3    H233394   2.045   6.143   0.158
11151TIP3   OH233395   1.782   0.782   4.167
11151TIP3    H133396   1.702   0.746   4.129
11151TIP3    H233397   1.782   0.874   4.141
11152TIP3   OH233398   5.394   0.974   0.098
11152TIP3    H133399   5.478   0.935   0.124
11152TIP3    H233400   5.416   1.030   0.024
11153TIP3   OH233401   5.633   6.535   4.179
11153TIP3    H133402   5.553   6.526   4.231
11153TIP3    H233403   5.604   6.574   4.097
11154TIP3   OH233404   1.325   7.250   6.385
11154TIP3    H133405   1.363   7.168   6.415
11154TIP3    H233406   1.246   7.261   6.438
11155TIP3   OH233407   0.770   0.043   6.440
11155TIP3    H133408   0.846  -0.009   6.414
11155TIP3    H233409   0.712  -0.019   6.484
11156TIP3   OH233410   2.635   6.062   0.205
11156TIP3    H133411   2.644   6.122   0.279
11156TIP3    H233412   2.678   5.981   0.235
11157TIP3   OH233413   7.854   3.754   2.371
11157TIP3    H133414   7.793   3.791   2.435
11157TIP3    H233415   7.842   3.659   2.379
11158TIP3   OH233416   2.670   3.609   3.737
11158TIP3    H133417   2.731   3.536   3.748
11158TIP3    H233418   2.595   3.571   3.692
11159TIP3   OH233419   0.974   5.691   3.901
11159TIP3    H133420   1.055   5.714   3.855
11159TIP3    H233421   1.003   5.645   3.979
11160TIP3   OH233422   6.779   5.690   2.859
11160TIP3    H133423   6.826   5.765   2.822
11160TIP3    H233424   6.759   5.635   2.783
11161TIP3   OH233425   0.852   1.362   6.329
11161TIP3    H133426   0.881   1.283   6.283
11161TIP3    H233427   0.835   1.425   6.260
11162TIP3   OH233428   5.551   0.928   5.041
11162TIP3    H133429   5.538   1.023   5.041
11162TIP3    H233430   5.644   0.917   5.022
11163TIP3   OH233431   6.223   5.678   3.617
11163TIP3    H133432   6.184   5.716   3.696
11163TIP3    H233433   6.218   5.748   3.552
11164TIP3   OH233434   3.495   5.366   4.969
11164TIP3    H133435   3.419   5.417   4.942
11164TIP3    H233436   3.486   5.356   5.064
11165TIP3   OH233437   5.974   3.888   2.783
11165TIP3    H133438   5.904   3.832   2.750
11165TIP3    H233439   5.952   3.975   2.750
11166TIP3   OH233440   6.216   4.546   5.967
11166TIP3    H133441   6.176   4.486   5.904
11166TIP3    H233442   6.300   4.571   5.928
11167TIP3   OH233443   7.770   0.829   1.646
11167TIP3    H133444   7.723   0.812   1.564
11167TIP3    H233445   7.853   0.867   1.618
11168TIP3   OH233446   1.592   2.233   2.109
11168TIP3    H133447   1.518   2.186   2.071
11168TIP3    H233448   1.592   2.318   2.064
11169TIP3   OH233449   8.033   1.526   5.323
11169TIP3    H133450   8.002   1.594   5.383
11169TIP3    H233451   8.007   1.557   5.236
11170TIP3   OH233452   7.270   0.938   0.795
11170TIP3    H133453   7.205   0.868   0.792
11170TIP3    H233454   7.291   0.947   0.888
11171TIP3   OH233455   3.393   7.143   4.806
11171TIP3    H133456   3.340   7.199   4.749
11171TIP3    H233457   3.350   7.148   4.891
11172TIP3   OH233458   0.655   6.622   6.133
11172TIP3    H133459   0.738   6.634   6.180
11172TIP3    H233460   0.659   6.531   6.102
11173TIP3   OH233461   0.180   5.560   2.715
11173TIP3    H133462   0.271   5.585   2.730
11173TIP3    H233463   0.154   5.609   2.637
11174TIP3   OH233464   4.847   7.043   3.427
11174TIP3    H133465   4.869   6.961   3.472
11174TIP3    H233466   4.753   7.039   3.413
11175TIP3   OH233467   3.243   0.702   1.605
11175TIP3    H133468   3.305   0.751   1.553
11175TIP3    H233469   3.207   0.636   1.545
11176TIP3   OH233470   2.367   4.686   4.287
11176TIP3    H133471   2.383   4.773   4.250
11176TIP3    H233472   2.278   4.664   4.259
11177TIP3   OH233473   2.058   4.846   1.844
11177TIP3    H133474   2.087   4.936   1.859
11177TIP3    H233475   2.132   4.791   1.870
11178TIP3   OH233476   1.028   3.807   5.045
11178TIP3    H133477   1.102   3.851   5.088
11178TIP3    H233478   0.965   3.877   5.028
11179TIP3   OH233479   4.426   3.334   2.513
11179TIP3    H133480   4.380   3.325   2.596
11179TIP3    H233481   4.502   3.389   2.533
11180TIP3   OH233482   5.687   0.330   0.598
11180TIP3    H133483   5.761   0.358   0.652
11180TIP3    H233484   5.650   0.412   0.563
11181TIP3   OH233485   0.077   0.047   2.472
11181TIP3    H133486   0.028   0.127   2.492
11181TIP3    H233487   0.032   0.010   2.395
11182TIP3   OH233488   0.117   6.083   0.172
11182TIP3    H133489   0.137   6.064   0.080
11182TIP3    H233490   0.090   6.175   0.173
11183TIP3   OH233491   6.590   3.987   3.966
11183TIP3    H133492   6.626   4.016   4.050
11183TIP3    H233493   6.655   4.014   3.901
11184TIP3   OH233494   4.692   4.994   1.140
11184TIP3    H133495   4.623   4.968   1.202
11184TIP3    H233496   4.664   4.958   1.056
11185TIP3   OH233497   2.075   5.356   6.022
11185TIP3    H133498   1.981   5.372   6.009
11185TIP3    H233499   2.088   5.267   5.988
11186TIP3   OH233500   4.236   5.108   0.502
11186TIP3    H133501   4.258   5.119   0.409
11186TIP3    H233502   4.247   5.014   0.518
11187TIP3   OH233503   2.220   1.504   2.685
11187TIP3    H133504   2.310   1.505   2.652
11187TIP3    H233505   2.225   1.550   2.769
11188TIP3   OH233506   3.242   6.211   6.077
11188TIP3    H133507   3.222   6.266   6.152
11188TIP3    H233508   3.216   6.264   6.001
11189TIP3   OH233509   7.894   7.244   5.707
11189TIP3    H133510   7.960   7.213   5.770
11189TIP3    H233511   7.921   7.333   5.686
11190TIP3   OH233512   3.958   4.564   0.352
11190TIP3    H133513   4.040   4.593   0.391
11190TIP3    H233514   3.982   4.535   0.264
11191TIP3   OH233515   3.639   7.576   5.975
11191TIP3    H133516   3.661   7.638   5.906
11191TIP3    H233517   3.559   7.612   6.015
11192TIP3   OH233518   6.520   6.971   0.579
11192TIP3    H133519   6.435   7.015   0.568
11192TIP3    H233520   6.537   6.931   0.493
11193TIP3   OH233521   6.516   0.097   6.598
11193TIP3    H133522   6.489   0.085   6.507
11193TIP3    H233523   6.467   0.031   6.647
11194TIP3   OH233524   0.469   3.437   0.598
11194TIP3    H133525   0.412   3.361   0.584
11194TIP3    H233526   0.422   3.511   0.560
11195TIP3   OH233527   2.303   0.898   0.436
11195TIP3    H133528   2.275   0.906   0.527
11195TIP3    H233529   2.239   0.948   0.386
11196TIP3   OH233530   3.319   1.499   2.727
11196TIP3    H133531   3.276   1.521   2.810
11196TIP3    H233532   3.412   1.512   2.744
11197TIP3   OH233533   4.516   0.910   6.413
11197TIP3    H133534   4.537   0.988   6.361
11197TIP3    H233535   4.422   0.919   6.432
11198TIP3   OH233536   6.284   3.546   6.016
11198TIP3    H133537   6.353   3.602   5.979
11198TIP3    H233538   6.300   3.460   5.976
11199TIP3   OH233539   3.355   4.428   5.389
11199TIP3    H133540   3.367   4.336   5.414
11199TIP3    H233541   3.260   4.439   5.384
11200TIP3   OH233542   5.014   4.926   2.779
11200TIP3    H133543   5.058   4.876   2.848
11200TIP3    H233544   4.973   5.000   2.824
11201TIP3   OH233545   5.124   5.545   6.681
11201TIP3    H133546   5.135   5.466   6.627
11201TIP3    H233547   5.134   5.514   6.771
11202TIP3   OH233548   4.554   5.296   6.277
11202TIP3    H133549   4.575   5.357   6.348
11202TIP3    H233550   4.522   5.217   6.322
11203TIP3   OH233551   7.766   3.280   6.504
11203TIP3    H133552   7.785   3.192   6.535
11203TIP3    H233553   7.674   3.294   6.527
11204TIP3   OH233554   2.828   0.324   1.711
11204TIP3    H133555   2.737   0.341   1.737
11204TIP3    H233556   2.852   0.400   1.658
11205TIP3   OH233557   2.854   2.883   1.039
11205TIP3    H133558   2.937   2.906   0.999
11205TIP3    H233559   2.856   2.788   1.048
11206TIP3   OH233560   7.211   0.957   2.240
11206TIP3    H133561   7.297   0.940   2.202
11206TIP3    H233562   7.156   0.979   2.165
11207TIP3   OH233563   6.533   4.993   3.901
11207TIP3    H133564   6.518   5.088   3.903
11207TIP3    H233565   6.626   4.984   3.881
11208TIP3   OH233566   7.424   1.578   6.176
11208TIP3    H133567   7.489   1.607   6.112
11208TIP3    H233568   7.440   1.633   6.253
11209TIP3   OH233569   7.892   4.477   5.758
11209TIP3    H133570   7.875   4.383   5.765
11209TIP3    H233571   7.930   4.501   5.842
11210TIP3   OH233572   8.105   6.276   5.002
11210TIP3    H133573   8.044   6.269   5.076
11210TIP3    H233574   8.121   6.370   4.993
11211TIP3   OH233575   0.608   3.446   4.978
11211TIP3    H133576   0.615   3.459   5.073
11211TIP3    H233577   0.634   3.530   4.940
11212TIP3   OH233578   1.302   5.256   6.238
11212TIP3    H133579   1.351   5.312   6.178
11212TIP3    H233580   1.369   5.202   6.280
11213TIP3   OH233581   4.478   7.393   0.921
11213TIP3    H133582   4.427   7.336   0.864
11213TIP3    H233583   4.415   7.456   0.956
11214TIP3   OH233584   0.292   7.449   6.044
11214TIP3    H133585   0.329   7.454   6.132
11214TIP3    H233586   0.211   7.400   6.056
11215TIP3   OH233587   0.805   4.154   0.087
11215TIP3    H133588   0.869   4.082   0.082
11215TIP3    H233589   0.762   4.154   0.002
11216TIP3   OH233590   2.327   1.162   3.793
11216TIP3    H133591   2.373   1.123   3.867
11216TIP3    H233592   2.391   1.165   3.723
11217TIP3   OH233593   1.955   0.274   2.220
11217TIP3    H133594   1.914   0.330   2.154
11217TIP3    H233595   1.890   0.269   2.290
11218TIP3   OH233596   5.977   4.325   2.680
11218TIP3    H133597   5.957   4.417   2.663
11218TIP3    H233598   6.067   4.325   2.710
11219TIP3   OH233599   6.300   2.811   3.337
11219TIP3    H133600   6.269   2.761   3.262
11219TIP3    H233601   6.395   2.798   3.338
11220TIP3   OH233602   1.879   6.381   2.356
11220TIP3    H133603   1.878   6.293   2.318
11220TIP3    H233604   1.842   6.370   2.443
11221TIP3   OH233605   3.565   6.791   1.580
11221TIP3    H133606   3.563   6.698   1.602
11221TIP3    H233607   3.589   6.794   1.488
11222TIP3   OH233608   2.951   3.492   2.712
11222TIP3    H133609   3.022   3.542   2.753
11222TIP3    H233610   2.901   3.458   2.786
11223TIP3   OH233611   0.563   3.366   0.892
11223TIP3    H133612   0.585   3.418   0.970
11223TIP3    H233613   0.507   3.424   0.840
11224TIP3   OH233614   1.876   1.350   1.022
11224TIP3    H133615   1.963   1.371   1.054
11224TIP3    H233616   1.879   1.255   1.007
11225TIP3   OH233617   1.989   0.279   3.203
11225TIP3    H133618   1.910   0.230   3.181
11225TIP3    H233619   2.040   0.279   3.122
11226TIP3   OH233620   0.705   3.946   3.077
11226TIP3    H133621   0.757   4.024   3.062
11226TIP3    H233622   0.769   3.875   3.083
11227TIP3   OH233623   6.887   7.158   5.118
11227TIP3    H133624   6.944   7.112   5.180
11227TIP3    H233625   6.938   7.234   5.091
11228TIP3   OH233626   4.912   1.171   1.697
11228TIP3    H133627   4.845   1.114   1.661
11228TIP3    H233628   4.967   1.193   1.623
11229TIP3   OH233629   4.575   2.010   2.342
11229TIP3    H133630   4.567   1.968   2.257
11229TIP3    H233631   4.635   2.083   2.328
11230TIP3   OH233632   5.546   7.115   3.585
11230TIP3    H133633   5.499   7.048   3.535
11230TIP3    H233634   5.485   7.188   3.591
11231TIP3   OH233635   3.863   4.573   6.609
11231TIP3    H133636   3.915   4.645   6.645
11231TIP3    H233637   3.928   4.507   6.584
11232TIP3   OH233638   5.751   0.896   3.655
11232TIP3    H133639   5.687   0.917   3.587
11232TIP3    H233640   5.832   0.938   3.627
11233TIP3   OH233641   0.240   6.632   2.023
11233TIP3    H133642   0.156   6.675   2.042
11233TIP3    H233643   0.219   6.538   2.028
11234TIP3   OH233644   6.043   5.650   4.202
11234TIP3    H133645   6.014   5.681   4.287
11234TIP3    H233646   5.972   5.593   4.172
11235TIP3   OH233647   1.194   0.511   0.268
11235TIP3    H133648   1.195   0.416   0.263
11235TIP3    H233649   1.269   0.539   0.217
11236TIP3   OH233650   5.349   5.488   2.603
11236TIP3    H133651   5.351   5.433   2.525
11236TIP3    H233652   5.408   5.560   2.583
11237TIP3   OH233653   3.260   2.411   6.469
11237TIP3    H133654   3.195   2.433   6.536
11237TIP3    H233655   3.238   2.322   6.443
11238TIP3   OH233656   0.343   5.549   4.604
11238TIP3    H133657   0.338   5.454   4.605
11238TIP3    H233658   0.437   5.568   4.605
11239TIP3   OH233659   1.062   4.593   1.854
11239TIP3    H133660   1.053   4.530   1.783
11239TIP3    H233661   1.056   4.540   1.934
11240TIP3   OH233662   8.160   5.492   4.175
11240TIP3    H133663   8.119   5.548   4.240
11240TIP3    H233664   8.254   5.511   4.182
11241TIP3   OH233665   3.668   1.353   6.259
11241TIP3    H133666   3.722   1.281   6.227
11241TIP3    H233667   3.581   1.314   6.270
11242TIP3   OH233668   4.071   2.146   5.768
11242TIP3    H133669   4.008   2.099   5.713
11242TIP3    H233670   4.018   2.206   5.819
11243TIP3   OH233671   5.078   0.749   2.100
11243TIP3    H133672   5.161   0.702   2.110
11243TIP3    H233673   5.039   0.746   2.187
11244TIP3   OH233674   7.440   3.376   4.146
11244TIP3    H133675   7.438   3.286   4.179
11244TIP3    H233676   7.487   3.424   4.214
11245TIP3   OH233677   4.280   5.877   5.870
11245TIP3    H133678   4.355   5.840   5.916
11245TIP3    H233679   4.259   5.812   5.803
11246TIP3   OH233680   4.952   5.621   5.794
11246TIP3    H133681   4.981   5.680   5.725
11246TIP3    H233682   5.025   5.560   5.806
11247TIP3   OH233683   6.058   1.108   0.246
11247TIP3    H133684   6.060   1.179   0.309
11247TIP3    H233685   6.101   1.035   0.291
11248TIP3   OH233686   4.780   7.294   4.829
11248TIP3    H133687   4.752   7.325   4.743
11248TIP3    H233688   4.855   7.348   4.851
11249TIP3   OH233689   7.468   1.583   1.234
11249TIP3    H133690   7.395   1.641   1.256
11249TIP3    H233691   7.474   1.587   1.138
11250TIP3   OH233692   7.802   7.329   1.302
11250TIP3    H133693   7.808   7.421   1.275
11250TIP3    H233694   7.711   7.317   1.326
11251TIP3   OH233695   3.204   4.362   2.444
11251TIP3    H133696   3.182   4.309   2.367
11251TIP3    H233697   3.263   4.306   2.495
11252TIP3   OH233698   7.571   7.241   1.427
11252TIP3    H133699   7.580   7.263   1.520
11252TIP3    H233700   7.559   7.146   1.427
11253TIP3   OH233701   3.498   1.087   0.758
11253TIP3    H133702   3.510   1.140   0.836
11253TIP3    H233703   3.416   1.119   0.719
11254TIP3   OH233704   3.526   2.095   2.220
11254TIP3    H133705   3.456   2.031   2.232
11254TIP3    H233706   3.480   2.177   2.201
11255TIP3   OH233707   8.245   6.197   0.670
11255TIP3    H133708   8.239   6.116   0.721
11255TIP3    H233709   8.160   6.239   0.680
11256TIP3   OH233710   2.240   6.409   1.069
11256TIP3    H133711   2.193   6.462   1.006
11256TIP3    H233712   2.209   6.440   1.154
11257TIP3   OH233713   7.774   0.131   4.734
11257TIP3    H133714   7.862   0.106   4.760
11257TIP3    H233715   7.780   0.225   4.714
11258TIP3   OH233716   1.239   1.654   3.522
11258TIP3    H133717   1.265   1.660   3.614
11258TIP3    H233718   1.161   1.599   3.523
11259TIP3   OH233719   5.746   1.644   4.852
11259TIP3    H133720   5.723   1.736   4.843
11259TIP3    H233721   5.801   1.624   4.776
11260TIP3   OH233722   3.437   3.607   4.759
11260TIP3    H133723   3.391   3.597   4.843
11260TIP3    H233724   3.449   3.517   4.729
11261TIP3   OH233725   4.704   7.573   6.407
11261TIP3    H133726   4.619   7.615   6.398
11261TIP3    H233727   4.691   7.483   6.376
11262TIP3   OH233728   0.138   2.227   4.060
11262TIP3    H133729   0.114   2.135   4.051
11262TIP3    H233730   0.101   2.253   4.144
11263TIP3   OH233731   7.438   0.304   4.623
11263TIP3    H133732   7.354   0.350   4.623
11263TIP3    H233733   7.416   0.212   4.610
11264TIP3   OH233734   5.326   6.952   2.603
11264TIP3    H133735   5.360   6.866   2.578
11264TIP3    H233736   5.317   6.947   2.699
11265TIP3   OH233737   6.737   1.824   6.134
11265TIP3    H133738   6.776   1.899   6.178
11265TIP3    H233739   6.711   1.765   6.205
11266TIP3   OH233740   3.977   6.618   6.574
11266TIP3    H133741   4.069   6.595   6.573
11266TIP3    H233742   3.934   6.548   6.623
11267TIP3   OH233743   2.567   6.460   0.130
11267TIP3    H133744   2.539   6.373   0.103
11267TIP3    H233745   2.512   6.520   0.080
11268TIP3   OH233746   3.431   2.551   1.570
11268TIP3    H133747   3.398   2.531   1.657
11268TIP3    H233748   3.383   2.492   1.512
11269TIP3   OH233749   5.601   0.677   6.528
11269TIP3    H133750   5.569   0.599   6.482
11269TIP3    H233751   5.696   0.670   6.525
11270TIP3   OH233752   2.465   7.089   2.984
11270TIP3    H133753   2.447   7.002   3.021
11270TIP3    H233754   2.445   7.079   2.891
11271TIP3   OH233755   4.154   5.288   5.380
11271TIP3    H133756   4.111   5.373   5.384
11271TIP3    H233757   4.092   5.228   5.422
11272TIP3   OH233758   6.908   4.953   6.453
11272TIP3    H133759   6.858   4.875   6.430
11272TIP3    H233760   6.998   4.932   6.431
11273TIP3   OH233761   5.752   0.144   5.996
11273TIP3    H133762   5.762   0.140   5.901
11273TIP3    H233763   5.711   0.061   6.019
11274TIP3   OH233764   5.344   4.494   6.164
11274TIP3    H133765   5.371   4.583   6.141
11274TIP3    H233766   5.272   4.475   6.103
11275TIP3   OH233767   2.387   5.754   6.012
11275TIP3    H133768   2.343   5.678   6.051
11275TIP3    H233769   2.480   5.732   6.017
11276TIP3   OH233770   6.064   6.283   5.730
11276TIP3    H133771   5.972   6.306   5.739
11276TIP3    H233772   6.101   6.296   5.818
11277TIP3   OH233773   8.315   0.418   1.341
11277TIP3    H133774   8.234   0.460   1.373
11277TIP3    H233775   8.285   0.355   1.276
11278TIP3   OH233776   6.033   1.172   4.045
11278TIP3    H133777   6.078   1.089   4.055
11278TIP3    H233778   5.979   1.180   4.124
11279TIP3   OH233779   0.942   4.437   6.098
11279TIP3    H133780   0.990   4.427   6.180
11279TIP3    H233781   0.953   4.529   6.074
11280TIP3   OH233782   5.703   2.103   2.274
11280TIP3    H133783   5.788   2.070   2.245
11280TIP3    H233784   5.724   2.180   2.326
11281TIP3   OH233785   1.560   0.848   6.615
11281TIP3    H133786   1.547   0.789   6.541
11281TIP3    H233787   1.651   0.876   6.607
11282TIP3   OH233788   0.439   0.834   0.814
11282TIP3    H133789   0.396   0.766   0.865
11282TIP3    H233790   0.454   0.905   0.876
11283TIP3   OH233791   0.686   6.420   5.376
11283TIP3    H133792   0.638   6.503   5.380
11283TIP3    H233793   0.673   6.380   5.462
11284TIP3   OH233794   7.441   1.775   1.701
11284TIP3    H133795   7.418   1.854   1.652
11284TIP3    H233796   7.363   1.757   1.754
11285TIP3   OH233797   3.877   1.329   2.023
11285TIP3    H133798   3.927   1.321   1.941
11285TIP3    H233799   3.818   1.254   2.022
11286TIP3   OH233800   5.025   7.113   6.063
11286TIP3    H133801   5.060   7.199   6.084
11286TIP3    H233802   4.995   7.078   6.148
11287TIP3   OH233803   2.431   0.413   4.513
11287TIP3    H133804   2.386   0.342   4.559
11287TIP3    H233805   2.431   0.486   4.574
11288TIP3   OH233806   4.017   3.278   0.652
11288TIP3    H133807   3.977   3.343   0.595
11288TIP3    H233808   3.943   3.229   0.688
11289TIP3   OH233809   6.911   7.428   3.930
11289TIP3    H133810   6.991   7.451   3.882
11289TIP3    H233811   6.881   7.511   3.967
11290TIP3   OH233812   8.172   6.065   4.819
11290TIP3    H133813   8.147   6.123   4.891
11290TIP3    H233814   8.203   6.124   4.750
11291TIP3   OH233815   1.467   4.186   2.679
11291TIP3    H133816   1.548   4.182   2.731
11291TIP3    H233817   1.480   4.262   2.621
11292TIP3   OH233818   5.547   0.511   0.845
11292TIP3    H133819   5.510   0.538   0.761
11292TIP3    H233820   5.640   0.496   0.826
11293TIP3   OH233821   6.701   1.346   0.569
11293TIP3    H133822   6.640   1.272   0.561
11293TIP3    H233823   6.784   1.311   0.537
11294TIP3   OH233824   4.581   1.135   3.593
11294TIP3    H133825   4.507   1.089   3.554
11294TIP3    H233826   4.641   1.066   3.619
11295TIP3   OH233827   5.616   5.657   3.278
11295TIP3    H133828   5.705   5.687   3.259
11295TIP3    H233829   5.583   5.720   3.343
11296TIP3   OH233830   2.614   5.617   2.844
11296TIP3    H133831   2.607   5.661   2.929
11296TIP3    H233832   2.573   5.678   2.782
11297TIP3   OH233833   5.690   4.208   4.619
11297TIP3    H133834   5.749   4.150   4.667
11297TIP3    H233835   5.747   4.274   4.579
11298TIP3   OH233836   0.998   2.909   2.095
11298TIP3    H133837   0.965   2.829   2.055
11298TIP3    H233838   0.938   2.977   2.064
11299TIP3   OH233839   7.478   0.967   3.535
11299TIP3    H133840   7.391   0.932   3.517
11299TIP3    H233841   7.488   1.041   3.475
11300TIP3   OH233842   0.335   0.185   2.813
11300TIP3    H133843   0.385   0.251   2.764
11300TIP3    H233844   0.333   0.109   2.755
11301TIP3   OH233845   1.111   1.471   6.376
11301TIP3    H133846   1.023   1.433   6.368
11301TIP3    H233847   1.095   1.564   6.391
11302TIP3   OH233848   2.969   6.886   5.927
11302TIP3    H133849   2.926   6.862   5.845
11302TIP3    H233850   2.977   6.803   5.974
11303TIP3   OH233851   2.533   2.873   4.054
11303TIP3    H133852   2.554   2.806   3.989
11303TIP3    H233853   2.529   2.826   4.137
11304TIP3   OH233854   4.523   3.740   1.699
11304TIP3    H133855   4.479   3.776   1.622
11304TIP3    H233856   4.597   3.689   1.664
11305TIP3   OH233857   4.978   5.098   6.018
11305TIP3    H133858   4.979   5.159   5.944
11305TIP3    H233859   4.886   5.075   6.028
11306TIP3   OH233860   4.506   4.126   2.859
11306TIP3    H133861   4.591   4.168   2.854
11306TIP3    H233862   4.478   4.137   2.950
11307TIP3   OH233863   6.866   6.482   1.983
11307TIP3    H133864   6.890   6.516   1.897
11307TIP3    H233865   6.942   6.432   2.012
11308TIP3   OH233866   2.256   5.936   1.337
11308TIP3    H133867   2.351   5.939   1.345
11308TIP3    H233868   2.240   5.926   1.243
11309TIP3   OH233869   1.251   1.913   0.122
11309TIP3    H133870   1.318   1.853   0.089
11309TIP3    H233871   1.183   1.856   0.157
11310TIP3   OH233872   5.891   1.465   4.114
11310TIP3    H133873   5.896   1.465   4.209
11310TIP3    H233874   5.831   1.393   4.093
11311TIP3   OH233875   3.733   0.127   6.588
11311TIP3    H133876   3.684   0.049   6.564
11311TIP3    H233877   3.820   0.113   6.551
11312TIP3   OH233878   0.004   1.827   3.375
11312TIP3    H133879  -0.035   1.897   3.428
11312TIP3    H233880   0.061   1.873   3.313
11313TIP3   OH233881   4.871   3.523   2.984
11313TIP3    H133882   4.831   3.587   3.043
11313TIP3    H233883   4.822   3.532   2.902
11314TIP3   OH233884   1.806   6.171   6.280
11314TIP3    H133885   1.837   6.208   6.197
11314TIP3    H233886   1.775   6.246   6.330
11315TIP3   OH233887   7.102   0.712   4.555
11315TIP3    H133888   7.187   0.738   4.521
11315TIP3    H233889   7.040   0.737   4.487
11316TIP3   OH233890   5.165   3.217   1.305
11316TIP3    H133891   5.131   3.246   1.221
11316TIP3    H233892   5.260   3.223   1.297
11317TIP3   OH233893   1.811   2.606   0.082
11317TIP3    H133894   1.855   2.560   0.154
11317TIP3    H233895   1.829   2.699   0.099
11318TIP3   OH233896   6.891   6.533   2.302
11318TIP3    H133897   6.800   6.515   2.277
11318TIP3    H233898   6.894   6.515   2.396
11319TIP3   OH233899   7.601   4.714   2.633
11319TIP3    H133900   7.587   4.744   2.723
11319TIP3    H233901   7.624   4.622   2.641
11320TIP3   OH233902   7.773   2.029   1.407
11320TIP3    H133903   7.748   1.972   1.479
11320TIP3    H233904   7.719   2.108   1.418
11321TIP3   OH233905   7.585   2.505   5.321
11321TIP3    H133906   7.627   2.419   5.317
11321TIP3    H233907   7.570   2.520   5.414
11322TIP3   OH233908   5.035   1.067   4.920
11322TIP3    H133909   5.046   0.981   4.879
11322TIP3    H233910   4.965   1.108   4.870
11323TIP3   OH233911   2.373   1.515   6.605
11323TIP3    H133912   2.283   1.530   6.580
11323TIP3    H233913   2.375   1.534   6.699
11324TIP3   OH233914   8.092   4.053   5.700
11324TIP3    H133915   7.998   4.035   5.698
11324TIP3    H233916   8.130   3.978   5.745
11325TIP3   OH233917   5.160   5.097   5.712
11325TIP3    H133918   5.103   5.121   5.639
11325TIP3    H233919   5.202   5.016   5.684
11326TIP3   OH233920   6.997   2.684   4.263
11326TIP3    H133921   6.999   2.779   4.274
11326TIP3    H233922   7.014   2.671   4.170
11327TIP3   OH233923   3.960   0.339   4.638
11327TIP3    H133924   3.922   0.365   4.554
11327TIP3    H233925   3.903   0.378   4.703
11328TIP3   OH233926   0.866   1.876   2.191
11328TIP3    H133927   0.955   1.844   2.205
11328TIP3    H233928   0.810   1.808   2.230
11329TIP3   OH233929   0.487   6.738   0.182
11329TIP3    H133930   0.545   6.671   0.147
11329TIP3    H233931   0.399   6.709   0.157
11330TIP3   OH233932   3.603   1.566   4.532
11330TIP3    H133933   3.580   1.626   4.462
11330TIP3    H233934   3.527   1.508   4.539
11331TIP3   OH233935   5.199   2.449   1.260
11331TIP3    H133936   5.258   2.406   1.198
11331TIP3    H233937   5.211   2.542   1.245
11332TIP3   OH233938   8.273   4.596   5.379
11332TIP3    H133939   8.277   4.512   5.424
11332TIP3    H233940   8.208   4.647   5.429
11333TIP3   OH233941   4.252   1.621   6.154
11333TIP3    H133942   4.301   1.628   6.072
11333TIP3    H233943   4.202   1.540   6.144
11334TIP3   OH233944   5.965   2.962   3.985
11334TIP3    H133945   6.031   2.955   4.054
11334TIP3    H233946   5.938   3.054   3.987
11335TIP3   OH233947   5.618   0.130   1.184
11335TIP3    H133948   5.569   0.158   1.262
11335TIP3    H233949   5.573   0.173   1.111
11336TIP3   OH233950   6.672   6.363   2.121
11336TIP3    H133951   6.617   6.359   2.042
11336TIP3    H233952   6.749   6.413   2.093
11337TIP3   OH233953   2.892   6.333   1.647
11337TIP3    H133954   2.811   6.299   1.609
11337TIP3    H233955   2.869   6.356   1.737
11338TIP3   OH233956   0.499   0.192   4.508
11338TIP3    H133957   0.568   0.202   4.443
11338TIP3    H233958   0.470   0.101   4.499
11339TIP3   OH233959   2.623   7.358   5.381
11339TIP3    H133960   2.695   7.409   5.418
11339TIP3    H233961   2.622   7.383   5.288
11340TIP3   OH233962   6.610   1.501   5.559
11340TIP3    H133963   6.556   1.425   5.584
11340TIP3    H233964   6.682   1.464   5.509
11341TIP3   OH233965   5.672   7.253   2.667
11341TIP3    H133966   5.635   7.332   2.627
11341TIP3    H233967   5.716   7.207   2.596
11342TIP3   OH233968   5.680   4.838   6.730
11342TIP3    H133969   5.659   4.825   6.638
11342TIP3    H233970   5.634   4.919   6.754
11343TIP3   OH233971   4.161   3.659   4.054
11343TIP3    H133972   4.173   3.635   4.146
11343TIP3    H233973   4.105   3.737   4.057
11344TIP3   OH233974   0.112   1.236   2.516
11344TIP3    H133975   0.135   1.324   2.486
11344TIP3    H233976   0.017   1.235   2.518
11345TIP3   OH233977   6.336   4.778   2.287
11345TIP3    H133978   6.422   4.752   2.254
11345TIP3    H233979   6.346   4.871   2.309
11346TIP3   OH233980   6.010   2.813   5.332
11346TIP3    H133981   6.079   2.762   5.374
11346TIP3    H233982   6.044   2.902   5.330
11347TIP3   OH233983   3.084   2.962   0.955
11347TIP3    H133984   3.048   3.000   0.875
11347TIP3    H233985   3.155   3.022   0.980
11348TIP3   OH233986   0.398   5.545   1.022
11348TIP3    H133987   0.414   5.636   1.047
11348TIP3    H233988   0.363   5.504   1.101
11349TIP3   OH233989   4.789   5.872   1.498
11349TIP3    H133990   4.768   5.887   1.406
11349TIP3    H233991   4.705   5.846   1.538
11350TIP3   OH233992   5.270   0.157   0.228
11350TIP3    H133993   5.330   0.141   0.300
11350TIP3    H233994   5.236   0.245   0.243
11351TIP3   OH233995   0.679   5.587   6.151
11351TIP3    H133996   0.716   5.553   6.069
11351TIP3    H233997   0.686   5.515   6.213
11352TIP3   OH233998   4.287   4.460   5.380
11352TIP3    H133999   4.256   4.401   5.448
11352TIP3    H234000   4.315   4.538   5.427
11353TIP3   OH234001   1.268   1.805   6.382
11353TIP3    H134002   1.225   1.864   6.443
11353TIP3    H234003   1.245   1.839   6.295
11354TIP3   OH234004   4.345   6.205   6.270
11354TIP3    H134005   4.334   6.161   6.186
11354TIP3    H234006   4.405   6.277   6.251
11355TIP3   OH234007   2.310   3.420   2.540
11355TIP3    H134008   2.293   3.370   2.460
11355TIP3    H234009   2.298   3.357   2.611
11356TIP3   OH234010   1.506   3.687   1.711
11356TIP3    H134011   1.541   3.726   1.792
11356TIP3    H234012   1.547   3.601   1.708
11357TIP3   OH234013   7.018   3.012   4.576
11357TIP3    H134014   7.090   2.978   4.630
11357TIP3    H234015   6.946   2.950   4.591
11358TIP3   OH234016   5.490   2.013   6.509
11358TIP3    H134017   5.568   1.999   6.563
11358TIP3    H234018   5.515   1.982   6.422
11359TIP3   OH234019   4.696   2.345   2.864
11359TIP3    H134020   4.757   2.413   2.891
11359TIP3    H234021   4.723   2.323   2.775
11360TIP3   OH234022   5.406   6.457   3.649
11360TIP3    H134023   5.312   6.469   3.658
11360TIP3    H234024   5.422   6.369   3.684
11361TIP3   OH234025   2.652   5.831   3.451
11361TIP3    H134026   2.633   5.738   3.438
11361TIP3    H234027   2.604   5.875   3.382
11362TIP3   OH234028   3.237   2.194   3.617
11362TIP3    H134029   3.276   2.158   3.538
11362TIP3    H234030   3.266   2.286   3.618
11363TIP3   OH234031   7.642   3.728   2.914
11363TIP3    H134032   7.616   3.817   2.938
11363TIP3    H234033   7.737   3.730   2.914
11364TIP3   OH234034   5.398   4.194   3.604
11364TIP3    H134035   5.391   4.116   3.659
11364TIP3    H234036   5.311   4.234   3.607
11365TIP3   OH234037   2.101   6.628   1.302
11365TIP3    H134038   2.031   6.642   1.366
11365TIP3    H234039   2.063   6.658   1.219
11366TIP3   OH234040   4.238   5.111   1.115
11366TIP3    H134041   4.268   5.163   1.189
11366TIP3    H234042   4.158   5.155   1.087
11367TIP3   OH234043   2.475   2.611   2.537
11367TIP3    H134044   2.526   2.627   2.457
11367TIP3    H234045   2.392   2.575   2.505
11368TIP3   OH234046   7.399   1.153   3.150
11368TIP3    H134047   7.460   1.189   3.215
11368TIP3    H234048   7.344   1.093   3.199
11369TIP3   OH234049   1.166   3.697   3.774
11369TIP3    H134050   1.182   3.620   3.719
11369TIP3    H234051   1.195   3.670   3.861
11370TIP3   OH234052   7.133   3.218   1.892
11370TIP3    H134053   7.050   3.233   1.936
11370TIP3    H234054   7.200   3.246   1.954
11371TIP3   OH234055   1.292   1.999   3.593
11371TIP3    H134056   1.260   2.018   3.681
11371TIP3    H234057   1.352   2.071   3.573
11372TIP3   OH234058   6.597   0.244   2.172
11372TIP3    H134059   6.518   0.292   2.198
11372TIP3    H234060   6.581   0.220   2.081
11373TIP3   OH234061   1.486   2.398   3.133
11373TIP3    H134062   1.511   2.467   3.195
11373TIP3    H234063   1.403   2.366   3.166
11374TIP3   OH234064   3.405   4.840   3.214
11374TIP3    H134065   3.467   4.784   3.261
11374TIP3    H234066   3.398   4.799   3.127
11375TIP3   OH234067   5.883   1.958   4.581
11375TIP3    H134068   5.836   1.939   4.500
11375TIP3    H234069   5.953   2.018   4.555
11376TIP3   OH234070   7.965   3.458   6.619
11376TIP3    H134071   7.968   3.540   6.669
11376TIP3    H234072   7.872   3.444   6.603
11377TIP3   OH234073   4.833   1.005   2.327
11377TIP3    H134074   4.779   0.928   2.343
11377TIP3    H234075   4.811   1.065   2.399
11378TIP3   OH234076   5.787   3.069   3.749
11378TIP3    H134077   5.842   3.148   3.755
11378TIP3    H234078   5.760   3.052   3.839
11379TIP3   OH234079   6.893   6.346   0.597
11379TIP3    H134080   6.817   6.327   0.542
11379TIP3    H234081   6.961   6.286   0.565
11380TIP3   OH234082   5.096   6.277   1.311
11380TIP3    H134083   5.034   6.228   1.365
11380TIP3    H234084   5.128   6.213   1.248
11381TIP3   OH234085   1.723   2.974   3.621
11381TIP3    H134086   1.654   2.936   3.568
11381TIP3    H234087   1.705   2.942   3.710
11382TIP3   OH234088   0.052   5.195   2.851
11382TIP3    H134089   0.060   5.216   2.758
11382TIP3    H234090   0.020   5.105   2.853
11383TIP3   OH234091   6.171   1.704   1.197
11383TIP3    H134092   6.096   1.645   1.202
11383TIP3    H234093   6.137   1.789   1.226
11384TIP3   OH234094   0.231   4.156   4.192
11384TIP3    H134095   0.291   4.094   4.151
11384TIP3    H234096   0.144   4.118   4.177
11385TIP3   OH234097   6.947   3.181   1.013
11385TIP3    H134098   6.952   3.268   1.054
11385TIP3    H234099   6.919   3.123   1.084
11386TIP3   OH234100   4.166   4.730   5.120
11386TIP3    H134101   4.196   4.706   5.032
11386TIP3    H234102   4.084   4.681   5.131
11387TIP3   OH234103   2.211   2.933   2.798
11387TIP3    H134104   2.199   2.858   2.740
11387TIP3    H234105   2.125   2.975   2.800
11388TIP3   OH234106   1.373   7.513   4.049
11388TIP3    H134107   1.323   7.523   4.131
11388TIP3    H234108   1.440   7.448   4.070
11389TIP3   OH234109   7.939   7.589   3.120
11389TIP3    H134110   8.008   7.654   3.112
11389TIP3    H234111   7.858   7.637   3.100
11390TIP3   OH234112   0.621   6.961   5.569
11390TIP3    H134113   0.651   6.929   5.654
11390TIP3    H234114   0.535   7.000   5.587
11391TIP3   OH234115   3.507   2.370   3.929
11391TIP3    H134116   3.567   2.337   3.862
11391TIP3    H234117   3.553   2.356   4.012
11392TIP3   OH234118   6.179   5.894   4.415
11392TIP3    H134119   6.245   5.864   4.477
11392TIP3    H234120   6.104   5.836   4.428
11393TIP3   OH234121   6.921   4.326   6.152
11393TIP3    H134122   6.825   4.322   6.151
11393TIP3    H234123   6.944   4.368   6.070
11394TIP3   OH234124   3.896   5.068   2.138
11394TIP3    H134125   3.874   5.159   2.155
11394TIP3    H234126   3.961   5.046   2.206
11395TIP3   OH234127   4.493   1.210   1.981
11395TIP3    H134128   4.533   1.178   1.900
11395TIP3    H234129   4.409   1.248   1.952
11396TIP3   OH234130   0.385   3.843   5.477
11396TIP3    H134131   0.323   3.848   5.405
11396TIP3    H234132   0.351   3.905   5.542
11397TIP3   OH234133   6.577   3.032   1.241
11397TIP3    H134134   6.559   2.959   1.300
11397TIP3    H234135   6.562   2.997   1.153
11398TIP3   OH234136   6.611   3.174   4.614
11398TIP3    H134137   6.548   3.237   4.579
11398TIP3    H234138   6.599   3.096   4.561
11399TIP3   OH234139   2.150   2.975   2.147
11399TIP3    H134140   2.196   3.050   2.109
11399TIP3    H234141   2.184   2.900   2.098
11400TIP3   OH234142   4.622   4.507   2.912
11400TIP3    H134143   4.556   4.560   2.957
11400TIP3    H234144   4.694   4.569   2.894
11401TIP3   OH234145   3.303   2.703   6.466
11401TIP3    H134146   3.294   2.611   6.493
11401TIP3    H234147   3.233   2.748   6.514
11402TIP3   OH234148   7.928   4.049   2.617
11402TIP3    H134149   8.011   4.016   2.584
11402TIP3    H234150   7.932   4.143   2.603
11403TIP3   OH234151   3.718   5.733   5.599
11403TIP3    H134152   3.638   5.683   5.583
11403TIP3    H234153   3.688   5.822   5.617
11404TIP3   OH234154   2.450   5.848   2.941
11404TIP3    H134155   2.369   5.896   2.922
11404TIP3    H234156   2.520   5.909   2.919
11405TIP3   OH234157   3.644   0.610   4.510
11405TIP3    H134158   3.640   0.544   4.579
11405TIP3    H234159   3.638   0.559   4.428
11406TIP3   OH234160   6.486   4.404   1.531
11406TIP3    H134161   6.498   4.374   1.621
11406TIP3    H234162   6.520   4.493   1.531
11407TIP3   OH234163   8.121   0.598   1.424
11407TIP3    H134164   8.028   0.574   1.421
11407TIP3    H234165   8.140   0.610   1.517
11408TIP3   OH234166   0.115   2.280   5.672
11408TIP3    H134167   0.185   2.325   5.625
11408TIP3    H234168   0.046   2.266   5.606
11409TIP3   OH234169   2.273   2.361   1.537
11409TIP3    H134170   2.297   2.430   1.599
11409TIP3    H234171   2.185   2.334   1.564
11410TIP3   OH234172   3.895   6.777   4.059
11410TIP3    H134173   3.978   6.817   4.083
11410TIP3    H234174   3.831   6.847   4.066
11411TIP3   OH234175   8.165   6.986   6.038
11411TIP3    H134176   8.123   7.016   6.119
11411TIP3    H234177   8.116   6.907   6.014
11412TIP3   OH234178   2.405   2.362   0.233
11412TIP3    H134179   2.438   2.399   0.151
11412TIP3    H234180   2.443   2.417   0.302
11413TIP3   OH234181   4.266   0.782   3.295
11413TIP3    H134182   4.294   0.691   3.306
11413TIP3    H234183   4.342   0.826   3.255
11414TIP3   OH234184   2.186   3.819   3.184
11414TIP3    H134185   2.225   3.787   3.103
11414TIP3    H234186   2.203   3.913   3.184
11415TIP3   OH234187   0.344   6.834   2.270
11415TIP3    H134188   0.280   6.778   2.227
11415TIP3    H234189   0.294   6.912   2.296
11416TIP3   OH234190   2.747   4.090   0.916
11416TIP3    H134191   2.711   4.047   0.993
11416TIP3    H234192   2.695   4.056   0.843
11417TIP3   OH234193   1.558   5.792   5.595
11417TIP3    H134194   1.653   5.785   5.603
11417TIP3    H234195   1.527   5.802   5.685
11418TIP3   OH234196   0.465   1.944   3.495
11418TIP3    H134197   0.470   1.849   3.507
11418TIP3    H234198   0.408   1.973   3.566
11419TIP3   OH234199   4.997   7.556   1.810
11419TIP3    H134200   5.012   7.528   1.901
11419TIP3    H234201   4.931   7.625   1.817
11420TIP3   OH234202   7.102   7.707   1.470
11420TIP3    H134203   7.074   7.686   1.559
11420TIP3    H234204   7.049   7.783   1.445
11421TIP3   OH234205   2.280   7.231   5.374
11421TIP3    H134206   2.326   7.263   5.451
11421TIP3    H234207   2.188   7.251   5.390
11422TIP3   OH234208   1.814   2.813   4.642
11422TIP3    H134209   1.892   2.856   4.607
11422TIP3    H234210   1.836   2.795   4.734
11423TIP3   OH234211   3.193   5.235   0.056
11423TIP3    H134212   3.111   5.194   0.028
11423TIP3    H234213   3.199   5.215   0.150
11424TIP3   OH234214   4.963   5.405   0.163
11424TIP3    H134215   5.041   5.459   0.154
11424TIP3    H234216   4.994   5.315   0.153
11425TIP3   OH234217   1.172   0.787   0.728
11425TIP3    H134218   1.224   0.733   0.668
11425TIP3    H234219   1.083   0.751   0.723
11426TIP3   OH234220   0.304   0.889   3.610
11426TIP3    H134221   0.310   0.799   3.577
11426TIP3    H234222   0.368   0.938   3.558
11427TIP3   OH234223   7.771   3.184   0.650
11427TIP3    H134224   7.806   3.225   0.571
11427TIP3    H234225   7.822   3.103   0.659
11428TIP3   OH234226   6.841   2.289   1.003
11428TIP3    H134227   6.899   2.222   0.968
11428TIP3    H234228   6.753   2.251   0.998
11429TIP3   OH234229   6.592   6.291   6.120
11429TIP3    H134230   6.519   6.251   6.073
11429TIP3    H234231   6.609   6.232   6.194
11430TIP3   OH234232   0.763   0.620   1.682
11430TIP3    H134233   0.783   0.664   1.599
11430TIP3    H234234   0.824   0.659   1.745
11431TIP3   OH234235   7.370   4.039   5.924
11431TIP3    H134236   7.384   4.124   5.967
11431TIP3    H234237   7.436   3.982   5.963
11432TIP3   OH234238   6.239   2.572   4.870
11432TIP3    H134239   6.234   2.491   4.921
11432TIP3    H234240   6.330   2.579   4.844
11433TIP3   OH234241   1.834   5.099   2.165
11433TIP3    H134242   1.746   5.084   2.130
11433TIP3    H234243   1.831   5.189   2.199
11434TIP3   OH234244   0.061   6.675   6.517
11434TIP3    H134245   0.105   6.758   6.535
11434TIP3    H234246  -0.010   6.698   6.457
11435TIP3   OH234247   5.666   6.383   5.652
11435TIP3    H134248   5.661   6.473   5.618
11435TIP3    H234249   5.718   6.390   5.731
11436TIP3   OH234250   6.835   2.795   2.782
11436TIP3    H134251   6.905   2.835   2.731
11436TIP3    H234252   6.754   2.833   2.746
11437TIP3   OH234253   8.078   4.124   1.050
11437TIP3    H134254   8.053   4.194   1.111
11437TIP3    H234255   8.120   4.170   0.977
11438TIP3   OH234256   4.576   2.777   4.676
11438TIP3    H134257   4.509   2.785   4.608
11438TIP3    H234258   4.604   2.685   4.670
11439TIP3   OH234259   7.354   6.994   0.498
11439TIP3    H134260   7.303   7.074   0.512
11439TIP3    H234261   7.297   6.924   0.529
11440TIP3   OH234262   8.062   6.417   3.444
11440TIP3    H134263   8.149   6.425   3.484
11440TIP3    H234264   8.042   6.505   3.413
11441TIP3   OH234265   5.436   0.609   2.763
11441TIP3    H134266   5.401   0.605   2.675
11441TIP3    H234267   5.420   0.698   2.793
11442TIP3   OH234268   2.259   3.398   5.652
11442TIP3    H134269   2.177   3.365   5.689
11442TIP3    H234270   2.236   3.485   5.618
11443TIP3   OH234271   5.579   6.238   0.321
11443TIP3    H134272   5.484   6.238   0.332
11443TIP3    H234273   5.613   6.221   0.409
11444TIP3   OH234274   6.785   4.990   6.032
11444TIP3    H134275   6.878   5.007   6.042
11444TIP3    H234276   6.769   5.003   5.938
11445TIP3   OH234277   7.816   1.655   5.178
11445TIP3    H134278   7.807   1.648   5.083
11445TIP3    H234279   7.780   1.573   5.212
11446TIP3   OH234280   1.969   6.035   4.379
11446TIP3    H134281   2.037   6.092   4.343
11446TIP3    H234282   1.924   6.001   4.301
11447TIP3   OH234283   3.717   2.811   2.338
11447TIP3    H134284   3.810   2.827   2.323
11447TIP3    H234285   3.676   2.829   2.253
11448TIP3   OH234286   1.037   2.824   2.876
11448TIP3    H134287   0.978   2.897   2.862
11448TIP3    H234288   1.003   2.754   2.821
11449TIP3   OH234289   2.060   7.776   3.417
11449TIP3    H134290   2.098   7.706   3.365
11449TIP3    H234291   2.116   7.783   3.494
11450TIP3   OH234292   5.032   5.775   2.286
11450TIP3    H134293   5.033   5.861   2.242
11450TIP3    H234294   4.999   5.793   2.374
11451TIP3   OH234295   7.246   6.759   6.216
11451TIP3    H134296   7.300   6.782   6.141
11451TIP3    H234297   7.184   6.831   6.225
11452TIP3   OH234298   7.045   2.433   5.007
11452TIP3    H134299   7.134   2.398   5.000
11452TIP3    H234300   6.992   2.358   5.033
11453TIP3   OH234301   2.932   3.600   4.963
11453TIP3    H134302   2.993   3.550   5.017
11453TIP3    H234303   2.947   3.566   4.874
11454TIP3   OH234304   0.758   0.316   3.751
11454TIP3    H134305   0.832   0.341   3.805
11454TIP3    H234306   0.729   0.232   3.787
11455TIP3   OH234307   2.235   2.393   6.777
11455TIP3    H134308   2.197   2.468   6.823
11455TIP3    H234309   2.226   2.414   6.684
11456TIP3   OH234310   4.545   7.598   5.334
11456TIP3    H134311   4.496   7.664   5.285
11456TIP3    H234312   4.571   7.534   5.269
11457TIP3   OH234313   1.420   2.867   3.966
11457TIP3    H134314   1.451   2.937   3.909
11457TIP3    H234315   1.483   2.866   4.038
11458TIP3   OH234316   5.312   5.763   4.126
11458TIP3    H134317   5.221   5.734   4.118
11458TIP3    H234318   5.307   5.858   4.130
11459TIP3   OH234319   4.715   2.781   3.404
11459TIP3    H134320   4.671   2.817   3.328
11459TIP3    H234321   4.658   2.802   3.478
11460TIP3   OH234322   4.964   0.473   4.312
11460TIP3    H134323   4.893   0.535   4.302
11460TIP3    H234324   5.026   0.496   4.242
11461TIP3   OH234325   3.087   5.476   6.206
11461TIP3    H134326   3.006   5.427   6.192
11461TIP3    H234327   3.126   5.482   6.119
11462TIP3   OH234328   0.636   1.259   3.910
11462TIP3    H134329   0.575   1.191   3.882
11462TIP3    H234330   0.611   1.279   4.000
11463TIP3   OH234331   4.482   2.588   1.881
11463TIP3    H134332   4.428   2.668   1.884
11463TIP3    H234333   4.440   2.534   1.814
11464TIP3   OH234334   3.457   3.747   1.528
11464TIP3    H134335   3.529   3.796   1.489
11464TIP3    H234336   3.405   3.718   1.453
11465TIP3   OH234337   0.648   4.344   1.559
11465TIP3    H134338   0.603   4.369   1.480
11465TIP3    H234339   0.643   4.248   1.561
11466TIP3   OH234340   5.567   2.265   3.234
11466TIP3    H134341   5.499   2.239   3.171
11466TIP3    H234342   5.519   2.316   3.300
11467TIP3   OH234343   0.464   4.293   5.780
11467TIP3    H134344   0.374   4.292   5.812
11467TIP3    H234345   0.481   4.385   5.760
11468TIP3   OH234346   6.341   0.647   3.622
11468TIP3    H134347   6.432   0.627   3.601
11468TIP3    H234348   6.309   0.693   3.544
11469TIP3   OH234349   3.901   4.367   0.549
11469TIP3    H134350   3.903   4.436   0.482
11469TIP3    H234351   3.886   4.414   0.631
11470TIP3   OH234352   5.063   5.290   6.500
11470TIP3    H134353   5.096   5.345   6.429
11470TIP3    H234354   5.066   5.201   6.466
11471TIP3   OH234355   3.802   6.185   5.394
11471TIP3    H134356   3.866   6.160   5.460
11471TIP3    H234357   3.731   6.226   5.443
11472TIP3   OH234358   3.967   5.737   5.504
11472TIP3    H134359   3.873   5.744   5.523
11472TIP3    H234360   4.010   5.783   5.576
11473TIP3   OH234361   2.299   3.389   0.894
11473TIP3    H134362   2.379   3.336   0.896
11473TIP3    H234363   2.267   3.387   0.984
11474TIP3   OH234364   5.125   6.060   1.863
11474TIP3    H134365   5.219   6.057   1.848
11474TIP3    H234366   5.095   5.970   1.848
11475TIP3   OH234367   2.677   0.043   1.676
11475TIP3    H134368   2.679  -0.043   1.719
11475TIP3    H234369   2.686   0.106   1.748
11476TIP3   OH234370   1.708   3.600   5.125
11476TIP3    H134371   1.690   3.521   5.075
11476TIP3    H234372   1.628   3.652   5.119
11477TIP3   OH234373   2.566   7.424   2.729
11477TIP3    H134374   2.513   7.424   2.649
11477TIP3    H234375   2.649   7.463   2.702
11478TIP3   OH234376   8.054   4.799   2.388
11478TIP3    H134377   7.968   4.781   2.425
11478TIP3    H234378   8.115   4.783   2.460
11479TIP3   OH234379   7.599   4.456   0.559
11479TIP3    H134380   7.638   4.539   0.531
11479TIP3    H234381   7.552   4.425   0.482
11480TIP3   OH234382   1.434   6.050   4.301
11480TIP3    H134383   1.430   6.038   4.206
11480TIP3    H234384   1.521   6.088   4.317
11481TIP3   OH234385   0.684   5.694   4.067
11481TIP3    H134386   0.772   5.658   4.074
11481TIP3    H234387   0.691   5.762   3.999
11482TIP3   OH234388   4.882   4.018   4.180
11482TIP3    H134389   4.864   4.111   4.170
11482TIP3    H234390   4.856   3.979   4.097
11483TIP3   OH234391   3.287   1.222   4.945
11483TIP3    H134392   3.369   1.268   4.929
11483TIP3    H234393   3.262   1.245   5.034
11484TIP3   OH234394   1.924   0.412   1.932
11484TIP3    H134395   1.964   0.361   1.862
11484TIP3    H234396   1.867   0.474   1.887
11485TIP3   OH234397   6.554   2.838   3.679
11485TIP3    H134398   6.645   2.823   3.705
11485TIP3    H234399   6.553   2.822   3.585
11486TIP3   OH234400   0.588   2.146   0.332
11486TIP3    H134401   0.612   2.059   0.365
11486TIP3    H234402   0.670   2.195   0.334
11487TIP3   OH234403   5.202   3.608   4.747
11487TIP3    H134404   5.257   3.667   4.799
11487TIP3    H234405   5.201   3.526   4.797
11488TIP3   OH234406  -0.011   4.724   4.158
11488TIP3    H134407  -0.032   4.800   4.104
11488TIP3    H234408   0.082   4.708   4.140
11489TIP3   OH234409   0.129   6.929   3.047
11489TIP3    H134410   0.056   6.990   3.061
11489TIP3    H234411   0.128   6.873   3.125
11490TIP3   OH234412   5.156   4.763   2.986
11490TIP3    H134413   5.235   4.710   2.977
11490TIP3    H234414   5.085   4.699   2.991
11491TIP3   OH234415   6.629   1.896   5.897
11491TIP3    H134416   6.564   1.828   5.882
11491TIP3    H234417   6.662   1.879   5.985
11492TIP3   OH234418   3.203   5.996   2.277
11492TIP3    H134419   3.222   5.954   2.193
11492TIP3    H234420   3.219   5.928   2.342
11493TIP3   OH234421   3.089   0.849   4.893
11493TIP3    H134422   3.161   0.909   4.914
11493TIP3    H234423   3.013   0.906   4.883
11494TIP3   OH234424   7.593   2.541   6.183
11494TIP3    H134425   7.627   2.456   6.155
11494TIP3    H234426   7.535   2.521   6.256
11495TIP3   OH234427   3.543   5.538   3.791
11495TIP3    H134428   3.595   5.518   3.869
11495TIP3    H234429   3.563   5.466   3.730
11496TIP3   OH234430   0.804   1.777   3.191
11496TIP3    H134431   0.866   1.730   3.136
11496TIP3    H234432   0.763   1.708   3.244
11497TIP3   OH234433   5.803   4.431   4.769
11497TIP3    H134434   5.855   4.483   4.707
11497TIP3    H234435   5.714   4.463   4.759
11498TIP3   OH234436   4.303   3.878   6.154
11498TIP3    H134437   4.368   3.814   6.183
11498TIP3    H234438   4.266   3.912   6.235
11499TIP3   OH234439   4.766   0.664   2.751
11499TIP3    H134440   4.685   0.623   2.721
11499TIP3    H234441   4.835   0.624   2.698
11500TIP3   OH234442   8.152   3.119   5.095
11500TIP3    H134443   8.128   3.191   5.036
11500TIP3    H234444   8.221   3.072   5.048
11501TIP3   OH234445   3.005   7.259   0.677
11501TIP3    H134446   2.956   7.185   0.713
11501TIP3    H234447   3.096   7.241   0.701
11502TIP3   OH234448   0.490   5.512   0.123
11502TIP3    H134449   0.518   5.603   0.122
11502TIP3    H234450   0.484   5.490   0.216
11503TIP3   OH234451   4.749   6.398   2.318
11503TIP3    H134452   4.730   6.486   2.285
11503TIP3    H234453   4.760   6.346   2.239
11504TIP3   OH234454   1.115   6.524   3.619
11504TIP3    H134455   1.092   6.607   3.660
11504TIP3    H234456   1.208   6.531   3.598
11505TIP3   OH234457   1.617   3.520   4.218
11505TIP3    H134458   1.693   3.571   4.245
11505TIP3    H234459   1.629   3.509   4.123
11506TIP3   OH234460   0.847   7.429   6.375
11506TIP3    H134461   0.929   7.470   6.348
11506TIP3    H234462   0.806   7.494   6.433
11507TIP3   OH234463   4.813   3.633   2.513
11507TIP3    H134464   4.831   3.679   2.431
11507TIP3    H234465   4.807   3.541   2.489
11508TIP3   OH234466   3.324   0.386   2.971
11508TIP3    H134467   3.379   0.463   2.984
11508TIP3    H234468   3.241   0.407   3.014
11509TIP3   OH234469   5.346   1.481   5.017
11509TIP3    H134470   5.399   1.454   5.092
11509TIP3    H234471   5.309   1.400   4.982
11510TIP3   OH234472   3.114   4.351   3.602
11510TIP3    H134473   3.123   4.429   3.657
11510TIP3    H234474   3.118   4.278   3.663
11511TIP3   OH234475   6.559   6.118   6.333
11511TIP3    H134476   6.466   6.104   6.318
11511TIP3    H234477   6.598   6.031   6.326
11512TIP3   OH234478   4.440   0.927   4.968
11512TIP3    H134479   4.396   0.888   4.893
11512TIP3    H234480   4.471   0.852   5.019
11513TIP3   OH234481   3.611   1.043   3.458
11513TIP3    H134482   3.585   0.951   3.460
11513TIP3    H234483   3.700   1.042   3.424
11514TIP3   OH234484   5.555   3.068   2.039
11514TIP3    H134485   5.495   3.140   2.059
11514TIP3    H234486   5.503   3.009   1.984
11515TIP3   OH234487   2.739   1.888   2.830
11515TIP3    H134488   2.781   1.880   2.744
11515TIP3    H234489   2.684   1.811   2.837
11516TIP3   OH234490   7.728   1.578   4.596
11516TIP3    H134491   7.737   1.487   4.569
11516TIP3    H234492   7.789   1.626   4.540
11517TIP3   OH234493   2.719   7.159   0.449
11517TIP3    H134494   2.644   7.112   0.484
11517TIP3    H234495   2.691   7.188   0.363
11518TIP3   OH234496   3.732   4.858   6.641
11518TIP3    H134497   3.647   4.893   6.614
11518TIP3    H234498   3.716   4.766   6.658
11519TIP3   OH234499   6.671   3.055   5.206
11519TIP3    H134500   6.707   2.987   5.264
11519TIP3    H234501   6.668   3.014   5.120
11520TIP3   OH234502   7.449   0.306   2.802
11520TIP3    H134503   7.500   0.387   2.807
11520TIP3    H234504   7.398   0.314   2.721
11521TIP3   OH234505   0.433   1.675   3.581
11521TIP3    H134506   0.402   1.650   3.668
11521TIP3    H234507   0.455   1.592   3.538
11522TIP3   OH234508   4.193   0.566   5.779
11522TIP3    H134509   4.143   0.555   5.860
11522TIP3    H234510   4.134   0.612   5.720
11523TIP3   OH234511   4.853   7.518   3.739
11523TIP3    H134512   4.861   7.492   3.831
11523TIP3    H234513   4.889   7.443   3.691
11524TIP3   OH234514   4.503   2.750   0.560
11524TIP3    H134515   4.524   2.828   0.509
11524TIP3    H234516   4.579   2.693   0.550
11525TIP3   OH234517   3.942   5.385   4.915
11525TIP3    H134518   3.941   5.310   4.857
11525TIP3    H234519   3.988   5.354   4.994
11526TIP3   OH234520   3.313   3.553   6.701
11526TIP3    H134521   3.314   3.476   6.646
11526TIP3    H234522   3.382   3.609   6.666
11527TIP3   OH234523   3.298   5.075   4.378
11527TIP3    H134524   3.250   5.047   4.301
11527TIP3    H234525   3.268   5.017   4.448
11528TIP3   OH234526   1.689   7.172   5.241
11528TIP3    H134527   1.635   7.227   5.184
11528TIP3    H234528   1.776   7.211   5.238
11529TIP3   OH234529   0.884   6.436   0.290
11529TIP3    H134530   0.896   6.446   0.384
11529TIP3    H234531   0.903   6.523   0.255
11530TIP3   OH234532   3.020   3.923   0.061
11530TIP3    H134533   3.092   3.985   0.052
11530TIP3    H234534   2.957   3.968   0.118
11531TIP3   OH234535   4.283   1.794   4.606
11531TIP3    H134536   4.237   1.724   4.652
11531TIP3    H234537   4.229   1.872   4.620
11532TIP3   OH234538   0.594   5.877   4.493
11532TIP3    H134539   0.505   5.909   4.505
11532TIP3    H234540   0.586   5.782   4.487
11533TIP3   OH234541   0.509   5.454   2.827
11533TIP3    H134542   0.445   5.382   2.830
11533TIP3    H234543   0.470   5.523   2.880
11534TIP3   OH234544   7.628   2.331   5.691
11534TIP3    H134545   7.575   2.279   5.751
11534TIP3    H234546   7.664   2.401   5.746
11535TIP3   OH234547   7.169   7.568   0.851
11535TIP3    H134548   7.122   7.495   0.892
11535TIP3    H234549   7.259   7.558   0.881
11536TIP3   OH234550   5.348   7.225   2.493
11536TIP3    H134551   5.316   7.136   2.478
11536TIP3    H234552   5.320   7.246   2.582
11537TIP3   OH234553   0.291   3.009   6.615
11537TIP3    H134554   0.339   3.044   6.540
11537TIP3    H234555   0.210   3.062   6.617
11538TIP3   OH234556   6.488   2.541   6.169
11538TIP3    H134557   6.571   2.496   6.185
11538TIP3    H234558   6.456   2.564   6.256
11539TIP3   OH234559   4.520   4.322   1.128
11539TIP3    H134560   4.528   4.322   1.224
11539TIP3    H234561   4.435   4.364   1.112
11540TIP3   OH234562   0.944   2.037   4.884
11540TIP3    H134563   0.891   2.027   4.964
11540TIP3    H234564   0.879   2.042   4.814
11541TIP3   OH234565   2.327   6.857   3.088
11541TIP3    H134566   2.269   6.849   3.012
11541TIP3    H234567   2.270   6.885   3.159
11542TIP3   OH234568   5.691   4.047   3.775
11542TIP3    H134569   5.704   3.990   3.851
11542TIP3    H234570   5.601   4.030   3.748
11543TIP3   OH234571   3.366   2.916   5.177
11543TIP3    H134572   3.425   2.871   5.238
11543TIP3    H234573   3.320   2.846   5.132
11544TIP3   OH234574   7.415   2.019   1.561
11544TIP3    H134575   7.438   2.111   1.547
11544TIP3    H234576   7.433   1.977   1.477
11545TIP3   OH234577   2.015   3.206   0.892
11545TIP3    H134578   2.053   3.125   0.859
11545TIP3    H234579   2.047   3.274   0.833
11546TIP3   OH234580   7.144   4.884   3.341
11546TIP3    H134581   7.081   4.947   3.374
11546TIP3    H234582   7.112   4.861   3.254
11547TIP3   OH234583   3.690   2.088   1.911
11547TIP3    H134584   3.739   2.114   1.989
11547TIP3    H234585   3.737   2.130   1.838
11548TIP3   OH234586   7.429   1.404   3.047
11548TIP3    H134587   7.391   1.319   3.068
11548TIP3    H234588   7.369   1.467   3.087
11549TIP3   OH234589   5.033   1.452   4.229
11549TIP3    H134590   4.978   1.466   4.152
11549TIP3    H234591   5.045   1.358   4.234
11550TIP3   OH234592   8.286   1.273   6.465
11550TIP3    H134593   8.220   1.232   6.408
11550TIP3    H234594   8.323   1.201   6.515
11551TIP3   OH234595   0.271   7.698   2.424
11551TIP3    H134596   0.203   7.729   2.483
11551TIP3    H234597   0.335   7.655   2.481
11552TIP3   OH234598   2.885   5.473   3.991
11552TIP3    H134599   2.917   5.427   3.913
11552TIP3    H234600   2.958   5.529   4.018
11553TIP3   OH234601   6.187   2.121   2.004
11553TIP3    H134602   6.196   2.031   1.971
11553TIP3    H234603   6.213   2.176   1.930
11554TIP3   OH234604   2.692   2.284   2.748
11554TIP3    H134605   2.656   2.238   2.672
11554TIP3    H234606   2.730   2.364   2.712
11555TIP3   OH234607   4.672   1.523   5.852
11555TIP3    H134608   4.689   1.486   5.766
11555TIP3    H234609   4.672   1.448   5.911
11556TIP3   OH234610   5.555   4.897   6.460
11556TIP3    H134611   5.549   4.987   6.491
11556TIP3    H234612   5.526   4.901   6.369
11557TIP3   OH234613   6.735   6.240   0.104
11557TIP3    H134614   6.725   6.196   0.019
11557TIP3    H234615   6.679   6.189   0.163
11558TIP3   OH234616   2.828   7.073   3.482
11558TIP3    H134617   2.751   7.116   3.447
11558TIP3    H234618   2.844   7.116   3.566
11559TIP3   OH234619   6.283   1.706   3.036
11559TIP3    H134620   6.284   1.622   3.083
11559TIP3    H234621   6.233   1.764   3.094
11560TIP3   OH234622   4.275   5.015   0.862
11560TIP3    H134623   4.230   5.041   0.942
11560TIP3    H234624   4.368   5.020   0.884
11561TIP3   OH234625   2.342   4.631   2.284
11561TIP3    H134626   2.317   4.679   2.363
11561TIP3    H234627   2.362   4.700   2.220
11562TIP3   OH234628   5.501   6.114   5.719
11562TIP3    H134629   5.577   6.063   5.746
11562TIP3    H234630   5.516   6.201   5.755
11563TIP3   OH234631   5.545   5.818   3.492
11563TIP3    H134632   5.596   5.898   3.502
11563TIP3    H234633   5.509   5.802   3.579
11564TIP3   OH234634   0.271   7.798   1.580
11564TIP3    H134635   0.249   7.734   1.513
11564TIP3    H234636   0.219   7.875   1.557
11565TIP3   OH234637   4.959   7.589   4.547
11565TIP3    H134638   4.914   7.507   4.530
11565TIP3    H234639   5.045   7.579   4.508
11566TIP3   OH234640   2.889   7.055   1.579
11566TIP3    H134641   2.891   7.014   1.666
11566TIP3    H234642   2.908   6.983   1.519
11567TIP3   OH234643   2.932   0.948   0.531
11567TIP3    H134644   3.013   0.995   0.512
11567TIP3    H234645   2.881   1.008   0.585
11568TIP3   OH234646   1.540   2.806   5.551
11568TIP3    H134647   1.601   2.857   5.497
11568TIP3    H234648   1.513   2.734   5.494
11569TIP3   OH234649   4.860   0.444   1.291
11569TIP3    H134650   4.921   0.373   1.274
11569TIP3    H234651   4.899   0.494   1.362
11570TIP3   OH234652   0.032   2.746   6.659
11570TIP3    H134653   0.072   2.699   6.733
11570TIP3    H234654   0.001   2.677   6.601
11571TIP3   OH234655   4.561   4.101   0.228
11571TIP3    H134656   4.501   4.146   0.287
11571TIP3    H234657   4.632   4.071   0.285
11572TIP3   OH234658   0.457   4.819   2.898
11572TIP3    H134659   0.388   4.775   2.849
11572TIP3    H234660   0.478   4.896   2.845
11573TIP3   OH234661   6.794   5.505   0.250
11573TIP3    H134662   6.867   5.524   0.310
11573TIP3    H234663   6.823   5.542   0.166
11574TIP3   OH234664   3.926   2.232   0.861
11574TIP3    H134665   3.946   2.223   0.954
11574TIP3    H234666   3.929   2.142   0.827
11575TIP3   OH234667   7.157   3.855   0.550
11575TIP3    H134668   7.105   3.866   0.630
11575TIP3    H234669   7.192   3.942   0.532
11576TIP3   OH234670   6.825   3.875   3.175
11576TIP3    H134671   6.841   3.786   3.205
11576TIP3    H234672   6.895   3.892   3.111
11577TIP3   OH234673   3.543   5.794   2.836
11577TIP3    H134674   3.524   5.722   2.897
11577TIP3    H234675   3.469   5.853   2.845
11578TIP3   OH234676   3.150   1.100   0.449
11578TIP3    H134677   3.166   1.095   0.354
11578TIP3    H234678   3.232   1.070   0.489
11579TIP3   OH234679   7.090   7.802   4.045
11579TIP3    H134680   7.028   7.793   3.973
11579TIP3    H234681   7.070   7.729   4.103
11580TIP3   OH234682   4.325   2.643   5.719
11580TIP3    H134683   4.294   2.676   5.803
11580TIP3    H234684   4.416   2.619   5.735
11581TIP3   OH234685   1.267   4.311   2.322
11581TIP3    H134686   1.344   4.257   2.337
11581TIP3    H234687   1.297   4.379   2.262
11582TIP3   OH234688   5.540   6.676   1.590
11582TIP3    H134689   5.523   6.601   1.532
11582TIP3    H234690   5.634   6.690   1.585
11583TIP3   OH234691   6.372   7.586   6.568
11583TIP3    H134692   6.398   7.529   6.641
11583TIP3    H234693   6.450   7.592   6.513
11584TIP3   OH234694   5.500   3.924   5.271
11584TIP3    H134695   5.562   3.922   5.198
11584TIP3    H234696   5.555   3.929   5.349
11585TIP3   OH234697   7.334   2.207   1.958
11585TIP3    H134698   7.242   2.234   1.964
11585TIP3    H234699   7.357   2.182   2.048
11586TIP3   OH234700   3.815   3.577   3.650
11586TIP3    H134701   3.871   3.567   3.573
11586TIP3    H234702   3.853   3.517   3.714
11587TIP3   OH234703   7.542   7.189   3.924
11587TIP3    H134704   7.565   7.159   4.012
11587TIP3    H234705   7.469   7.249   3.937
11588TIP3   OH234706   3.628   5.358   6.454
11588TIP3    H134707   3.628   5.403   6.370
11588TIP3    H234708   3.540   5.370   6.488
11589TIP3   OH234709   0.688   3.805   5.797
11589TIP3    H134710   0.608   3.779   5.842
11589TIP3    H234711   0.683   3.901   5.794
11590TIP3   OH234712   1.882   6.422   5.724
11590TIP3    H134713   1.853   6.461   5.807
11590TIP3    H234714   1.945   6.486   5.689
11591TIP3   OH234715   1.286   2.930   2.781
11591TIP3    H134716   1.218   2.873   2.817
11591TIP3    H234717   1.302   2.995   2.849
11592TIP3   OH234718   1.697   7.367   0.880
11592TIP3    H134719   1.658   7.422   0.948
11592TIP3    H234720   1.792   7.380   0.890
11593TIP3   OH234721   7.100   2.125   1.437
11593TIP3    H134722   7.108   2.175   1.356
11593TIP3    H234723   7.099   2.034   1.408
11594TIP3   OH234724   2.821   2.898   2.978
11594TIP3    H134725   2.781   2.966   2.924
11594TIP3    H234726   2.755   2.877   3.044
11595TIP3   OH234727   2.401   4.090   0.682
11595TIP3    H134728   2.320   4.138   0.700
11595TIP3    H234729   2.418   4.041   0.762
11596TIP3   OH234730   8.131   1.617   5.719
11596TIP3    H134731   8.056   1.563   5.744
11596TIP3    H234732   8.117   1.701   5.762
11597TIP3   OH234733   1.656   2.359   5.300
11597TIP3    H134734   1.670   2.453   5.289
11597TIP3    H234735   1.606   2.351   5.381
11598TIP3   OH234736   1.904   6.721   2.093
11598TIP3    H134737   1.986   6.767   2.111
11598TIP3    H234738   1.837   6.770   2.141
11599TIP3   OH234739   5.332   1.281   1.910
11599TIP3    H134740   5.322   1.243   1.998
11599TIP3    H234741   5.244   1.310   1.886
11600TIP3   OH234742   4.339   7.094   0.703
11600TIP3    H134743   4.350   7.023   0.641
11600TIP3    H234744   4.269   7.064   0.762
11601TIP3   OH234745   6.461   6.662   0.032
11601TIP3    H134746   6.526   6.695  -0.030
11601TIP3    H234747   6.493   6.575   0.057
11602TIP3   OH234748   4.384   0.910   2.400
11602TIP3    H134749   4.290   0.893   2.400
11602TIP3    H234750   4.405   0.925   2.307
11603TIP3   OH234751   4.619   1.398   3.639
11603TIP3    H134752   4.565   1.432   3.567
11603TIP3    H234753   4.588   1.308   3.652
11604TIP3   OH234754   5.097   2.783   4.861
11604TIP3    H134755   5.089   2.819   4.773
11604TIP3    H234756   5.013   2.739   4.877
11605TIP3   OH234757   4.584   4.510   4.382
11605TIP3    H134758   4.568   4.595   4.342
11605TIP3    H234759   4.653   4.471   4.329
11606TIP3   OH234760   5.489   5.405   1.007
11606TIP3    H134761   5.574   5.449   1.018
11606TIP3    H234762   5.425   5.470   1.033
11607TIP3   OH234763   2.752   0.237   1.038
11607TIP3    H134764   2.838   0.230   0.996
11607TIP3    H234765   2.764   0.302   1.107
11608TIP3   OH234766   5.253   4.860   2.112
11608TIP3    H134767   5.195   4.935   2.107
11608TIP3    H234768   5.341   4.898   2.113
11609TIP3   OH234769   5.158   0.127   4.291
11609TIP3    H134770   5.154   0.155   4.199
11609TIP3    H234771   5.239   0.077   4.297
11610TIP3   OH234772   5.659   6.682   5.564
11610TIP3    H134773   5.674   6.663   5.471
11610TIP3    H234774   5.575   6.727   5.566
11611TIP3   OH234775   3.571   7.246   2.850
11611TIP3    H134776   3.505   7.199   2.799
11611TIP3    H234777   3.651   7.196   2.837
11612TIP3   OH234778   6.395   3.288   4.447
11612TIP3    H134779   6.339   3.345   4.500
11612TIP3    H234780   6.457   3.348   4.405
11613TIP3   OH234781   7.305   7.115   2.145
11613TIP3    H134782   7.272   7.145   2.230
11613TIP3    H234783   7.398   7.137   2.147
11614TIP3   OH234784   7.947   4.453   1.900
11614TIP3    H134785   7.916   4.456   1.990
11614TIP3    H234786   8.043   4.451   1.908
11615TIP3   OH234787   2.928   7.005   0.417
11615TIP3    H134788   2.870   7.074   0.448
11615TIP3    H234789   2.957   7.035   0.331
11616TIP3   OH234790   0.801   0.326   5.935
11616TIP3    H134791   0.790   0.415   5.968
11616TIP3    H234792   0.811   0.337   5.840
11617TIP3   OH234793   6.968   1.300   0.502
11617TIP3    H134794   7.027   1.283   0.575
11617TIP3    H234795   6.988   1.390   0.476
11618TIP3   OH234796   0.297   0.433   0.651
11618TIP3    H134797   0.347   0.398   0.577
11618TIP3    H234798   0.357   0.429   0.725
11619TIP3   OH234799   1.890   7.430   1.393
11619TIP3    H134800   1.980   7.404   1.414
11619TIP3    H234801   1.894   7.459   1.301
11620TIP3   OH234802   0.128   0.613   1.851
11620TIP3    H134803   0.166   0.554   1.786
11620TIP3    H234804   0.204   0.645   1.901
11621TIP3   OH234805   7.971   2.820   6.657
11621TIP3    H134806   8.019   2.776   6.588
11621TIP3    H234807   7.916   2.884   6.612
11622TIP3   OH234808   7.228   1.080   5.801
11622TIP3    H134809   7.297   1.079   5.734
11622TIP3    H234810   7.157   1.028   5.763
11623TIP3   OH234811   3.183   4.926   0.062
11623TIP3    H134812   3.228   4.902  -0.020
11623TIP3    H234813   3.104   4.972   0.033
11624TIP3   OH234814   6.747   4.673   3.789
11624TIP3    H134815   6.763   4.765   3.810
11624TIP3    H234816   6.743   4.629   3.874
11625TIP3   OH234817   5.597   0.615   3.652
11625TIP3    H134818   5.647   0.679   3.703
11625TIP3    H234819   5.570   0.549   3.716
11626TIP3   OH234820   5.593   7.806   5.031
11626TIP3    H134821   5.664   7.868   5.015
11626TIP3    H234822   5.620   7.726   4.985
11627TIP3   OH234823   0.648   1.405   5.704
11627TIP3    H134824   0.636   1.373   5.614
11627TIP3    H234825   0.604   1.340   5.759
11628TIP3   OH234826   5.829   6.615   5.339
11628TIP3    H134827   5.839   6.602   5.245
11628TIP3    H234828   5.870   6.539   5.379
11629TIP3   OH234829   3.450   2.539   2.262
11629TIP3    H134830   3.371   2.567   2.309
11629TIP3    H234831   3.465   2.449   2.291
11630TIP3   OH234832   1.538   7.032   4.524
11630TIP3    H134833   1.626   7.048   4.559
11630TIP3    H234834   1.524   6.938   4.536
11631TIP3   OH234835   1.988   4.006   4.955
11631TIP3    H134836   1.906   4.056   4.956
11631TIP3    H234837   1.971   3.930   5.011
11632TIP3   OH234838   7.534   4.331   3.810
11632TIP3    H134839   7.486   4.251   3.790
11632TIP3    H234840   7.538   4.335   3.906
11633TIP3   OH234841   2.815   4.595   0.783
11633TIP3    H134842   2.780   4.519   0.829
11633TIP3    H234843   2.749   4.616   0.717
11634TIP3   OH234844   5.034   2.125   0.752
11634TIP3    H134845   5.086   2.045   0.761
11634TIP3    H234846   5.099   2.195   0.744
11635TIP3   OH234847   1.011   5.645   3.569
11635TIP3    H134848   1.038   5.586   3.639
11635TIP3    H234849   1.039   5.602   3.488
11636TIP3   OH234850   1.759   1.156   5.570
11636TIP3    H134851   1.726   1.241   5.598
11636TIP3    H234852   1.705   1.133   5.494
11637TIP3   OH234853   1.133   5.455   1.606
11637TIP3    H134854   1.219   5.419   1.629
11637TIP3    H234855   1.081   5.378   1.583
11638TIP3   OH234856   5.130   6.285   6.207
11638TIP3    H134857   5.073   6.359   6.230
11638TIP3    H234858   5.216   6.325   6.193
11639TIP3   OH234859   5.664   1.308   4.100
11639TIP3    H134860   5.674   1.232   4.043
11639TIP3    H234861   5.576   1.299   4.137
11640TIP3   OH234862   2.267   3.362   1.183
11640TIP3    H134863   2.200   3.293   1.190
11640TIP3    H234864   2.296   3.375   1.274
11641TIP3   OH234865   4.612   4.486   0.942
11641TIP3    H134866   4.595   4.414   1.003
11641TIP3    H234867   4.528   4.533   0.938
11642TIP3   OH234868   5.732   1.460   5.875
11642TIP3    H134869   5.650   1.455   5.826
11642TIP3    H234870   5.726   1.544   5.922
11643TIP3   OH234871   4.630   0.066   6.468
11643TIP3    H134872   4.689   0.074   6.393
11643TIP3    H234873   4.627  -0.028   6.486
11644TIP3   OH234874   0.775   6.831   2.636
11644TIP3    H134875   0.729   6.781   2.568
11644TIP3    H234876   0.851   6.776   2.657
11645TIP3   OH234877   5.145   5.115   3.832
11645TIP3    H134878   5.116   5.119   3.741
11645TIP3    H234879   5.235   5.147   3.830
11646TIP3   OH234880   5.257   1.205   3.109
11646TIP3    H134881   5.320   1.158   3.055
11646TIP3    H234882   5.204   1.136   3.150
11647TIP3   OH234883   7.954   4.479   0.509
11647TIP3    H134884   7.929   4.523   0.591
11647TIP3    H234885   7.906   4.396   0.511
11648TIP3   OH234886   4.658   3.149   4.614
11648TIP3    H134887   4.670   3.070   4.562
11648TIP3    H234888   4.719   3.212   4.576
11649TIP3   OH234889   6.483   0.498   0.383
11649TIP3    H134890   6.438   0.458   0.309
11649TIP3    H234891   6.488   0.429   0.448
11650TIP3   OH234892   0.160   5.743   4.716
11650TIP3    H134893   0.212   5.663   4.726
11650TIP3    H234894   0.224   5.811   4.697
11651TIP3   OH234895   3.481   0.890   2.426
11651TIP3    H134896   3.421   0.944   2.374
11651TIP3    H234897   3.453   0.800   2.410
11652TIP3   OH234898   0.093   3.950   3.438
11652TIP3    H134899   0.034   3.958   3.363
11652TIP3    H234900   0.099   3.856   3.454
11653TIP3   OH234901   3.204   2.682   1.827
11653TIP3    H134902   3.272   2.742   1.796
11653TIP3    H234903   3.243   2.595   1.820
11654TIP3   OH234904   6.349   7.512   5.303
11654TIP3    H134905   6.343   7.432   5.355
11654TIP3    H234906   6.425   7.557   5.338
11655TIP3   OH234907   4.826   0.545   3.766
11655TIP3    H134908   4.757   0.584   3.713
11655TIP3    H234909   4.785   0.469   3.807
11656TIP3   OH234910   7.689   6.371   1.692
11656TIP3    H134911   7.597   6.379   1.720
11656TIP3    H234912   7.739   6.375   1.773
11657TIP3   OH234913   3.415   5.936   5.068
11657TIP3    H134914   3.451   5.847   5.062
11657TIP3    H234915   3.490   5.994   5.059
11658TIP3   OH234916   4.418   5.605   4.809
11658TIP3    H134917   4.423   5.538   4.741
11658TIP3    H234918   4.342   5.580   4.862
11659TIP3   OH234919   7.966   0.823   2.043
11659TIP3    H134920   7.899   0.888   2.020
11659TIP3    H234921   7.967   0.763   1.968
11660TIP3   OH234922   1.384   3.005   4.927
11660TIP3    H134923   1.303   3.054   4.936
11660TIP3    H234924   1.362   2.915   4.953
11661TIP3   OH234925   4.409   2.061   0.395
11661TIP3    H134926   4.342   2.065   0.464
11661TIP3    H234927   4.369   2.105   0.320
11662TIP3   OH234928   5.737   6.971   5.460
11662TIP3    H134929   5.654   6.983   5.414
11662TIP3    H234930   5.803   6.966   5.390
11663TIP3   OH234931   1.087   1.956   1.834
11663TIP3    H134932   1.149   2.024   1.807
11663TIP3    H234933   1.115   1.878   1.787
11664TIP3   OH234934   3.915   4.866   0.962
11664TIP3    H134935   3.958   4.951   0.957
11664TIP3    H234936   3.851   4.866   0.891
11665TIP3   OH234937   0.862   6.262   0.746
11665TIP3    H134938   0.953   6.284   0.727
11665TIP3    H234939   0.850   6.285   0.838
11666TIP3   OH234940   7.381   5.619   1.417
11666TIP3    H134941   7.388   5.524   1.415
11666TIP3    H234942   7.302   5.638   1.366
11667TIP3   OH234943   4.168   3.115   3.832
11667TIP3    H134944   4.114   3.097   3.755
11667TIP3    H234945   4.105   3.128   3.903
11668TIP3   OH234946   1.620   6.698   3.972
11668TIP3    H134947   1.589   6.623   3.921
11668TIP3    H234948   1.541   6.742   4.002
11669TIP3   OH234949   1.241   0.025   4.209
11669TIP3    H134950   1.276  -0.015   4.130
11669TIP3    H234951   1.150   0.045   4.187
11670TIP3   OH234952   8.274   2.880   0.519
11670TIP3    H134953   8.178   2.876   0.514
11670TIP3    H234954   8.302   2.901   0.429
11671TIP3   OH234955   2.980   7.057   2.209
11671TIP3    H134956   2.891   7.091   2.211
11671TIP3    H234957   3.031   7.119   2.262
11672TIP3   OH234958   1.292   2.293   4.170
11672TIP3    H134959   1.204   2.287   4.132
11672TIP3    H234960   1.278   2.281   4.264
11673TIP3   OH234961   2.610   5.045   1.009
11673TIP3    H134962   2.556   5.072   0.935
11673TIP3    H234963   2.670   4.980   0.972
11674TIP3   OH234964   1.752   2.359   4.251
11674TIP3    H134965   1.685   2.328   4.189
11674TIP3    H234966   1.824   2.389   4.195
11675TIP3   OH234967   1.957   1.064   2.101
11675TIP3    H134968   1.936   0.970   2.094
11675TIP3    H234969   1.981   1.076   2.193
11676TIP3   OH234970   0.798   1.241   6.651
11676TIP3    H134971   0.878   1.267   6.696
11676TIP3    H234972   0.801   1.289   6.568
11677TIP3   OH234973   3.545   4.529   2.840
11677TIP3    H134974   3.631   4.487   2.838
11677TIP3    H234975   3.516   4.529   2.749
11678TIP3   OH234976   3.019   1.747   2.865
11678TIP3    H134977   3.000   1.771   2.774
11678TIP3    H234978   2.986   1.821   2.916
11679TIP3   OH234979   5.866   5.152   5.102
11679TIP3    H134980   5.877   5.118   5.013
11679TIP3    H234981   5.951   5.135   5.144
11680TIP3   OH234982   1.275   6.327   5.849
11680TIP3    H134983   1.215   6.330   5.924
11680TIP3    H234984   1.270   6.415   5.812
11681TIP3   OH234985   3.975   7.555   2.377
11681TIP3    H134986   4.060   7.519   2.403
11681TIP3    H234987   3.912   7.486   2.398
11682TIP3   OH234988   1.288   0.812   5.336
11682TIP3    H134989   1.309   0.860   5.416
11682TIP3    H234990   1.242   0.733   5.365
11683TIP3   OH234991   7.665   6.738   4.502
11683TIP3    H134992   7.628   6.749   4.415
11683TIP3    H234993   7.647   6.646   4.524
11684TIP3   OH234994   4.359   6.999   1.609
11684TIP3    H134995   4.413   6.971   1.683
11684TIP3    H234996   4.387   6.943   1.537
11685TIP3   OH234997   3.431   3.162   6.326
11685TIP3    H134998   3.410   3.094   6.390
11685TIP3    H234999   3.390   3.131   6.245
11686TIP3   OH235000   7.168   4.259   0.233
11686TIP3    H135001   7.091   4.305   0.268
11686TIP3    H235002   7.210   4.221   0.311
11687TIP3   OH235003   0.761   5.338   3.369
11687TIP3    H135004   0.771   5.432   3.355
11687TIP3    H235005   0.843   5.300   3.336
11688TIP3   OH235006   1.954   1.676   5.844
11688TIP3    H135007   1.964   1.599   5.899
11688TIP3    H235008   1.859   1.688   5.836
11689TIP3   OH235009   7.812   5.660   1.591
11689TIP3    H135010   7.833   5.645   1.499
11689TIP3    H235011   7.721   5.689   1.590
11690TIP3   OH235012   4.439   7.193   4.294
11690TIP3    H135013   4.462   7.101   4.286
11690TIP3    H235014   4.343   7.194   4.295
11691TIP3   OH235015   4.733   4.679   3.207
11691TIP3    H135016   4.640   4.700   3.194
11691TIP3    H235017   4.777   4.764   3.205
11692TIP3   OH235018   0.628   6.490   3.614
11692TIP3    H135019   0.615   6.424   3.682
11692TIP3    H235020   0.705   6.460   3.566
11693TIP3   OH235021   1.934   0.934   6.003
11693TIP3    H135022   2.019   0.915   6.044
11693TIP3    H235023   1.951   1.007   5.944
11694TIP3   OH235024   8.230   5.947   0.351
11694TIP3    H135025   8.298   6.009   0.325
11694TIP3    H235026   8.186   5.923   0.270
11695TIP3   OH235027   5.163   7.544   1.358
11695TIP3    H135028   5.243   7.492   1.354
11695TIP3    H235029   5.140   7.546   1.450
11696TIP3   OH235030   6.346   0.181   4.163
11696TIP3    H135031   6.376   0.206   4.075
11696TIP3    H235032   6.406   0.226   4.222
11697TIP3   OH235033   0.637   5.133   1.813
11697TIP3    H135034   0.554   5.085   1.817
11697TIP3    H235035   0.675   5.108   1.728
11698TIP3   OH235036   0.090   6.169   3.107
11698TIP3    H135037   0.106   6.144   3.198
11698TIP3    H235038   0.178   6.176   3.068
11699TIP3   OH235039   4.166   0.289   2.474
11699TIP3    H135040   4.127   0.202   2.471
11699TIP3    H235041   4.098   0.346   2.511
11700TIP3   OH235042   5.136   3.136   1.692
11700TIP3    H135043   5.209   3.077   1.676
11700TIP3    H235044   5.110   3.118   1.783
11701TIP3   OH235045   4.366   6.337   2.072
11701TIP3    H135046   4.275   6.364   2.059
11701TIP3    H235047   4.368   6.246   2.042
11702TIP3   OH235048   0.561   5.028   2.750
11702TIP3    H135049   0.575   5.122   2.765
11702TIP3    H235050   0.574   5.016   2.656
11703TIP3   OH235051   1.793   1.446   5.198
11703TIP3    H135052   1.738   1.368   5.194
11703TIP3    H235053   1.755   1.506   5.134
11704TIP3   OH235054   5.384   4.534   3.667
11704TIP3    H135055   5.317   4.529   3.599
11704TIP3    H235056   5.378   4.449   3.712
11705TIP3   OH235057   7.133   5.463   2.497
11705TIP3    H135058   7.185   5.460   2.578
11705TIP3    H235059   7.101   5.373   2.487
11706TIP3   OH235060   1.912   1.869   3.735
11706TIP3    H135061   1.947   1.781   3.724
11706TIP3    H235062   1.912   1.883   3.830
11707TIP3   OH235063   6.233   4.968   5.142
11707TIP3    H135064   6.246   5.058   5.110
11707TIP3    H235065   6.151   4.972   5.191
11708TIP3   OH235066   5.887   0.063   4.272
11708TIP3    H135067   5.843  -0.022   4.281
11708TIP3    H235068   5.816   0.127   4.275
11709TIP3   OH235069   1.897   0.413   0.467
11709TIP3    H135070   1.982   0.431   0.427
11709TIP3    H235071   1.898   0.319   0.485
11710TIP3   OH235072   3.900   0.371   3.648
11710TIP3    H135073   3.975   0.405   3.698
11710TIP3    H235074   3.937   0.308   3.587
11711TIP3   OH235075   1.826   4.813   6.149
11711TIP3    H135076   1.807   4.907   6.151
11711TIP3    H235077   1.860   4.794   6.237
11712TIP3   OH235078   6.524   1.501   5.189
11712TIP3    H135079   6.485   1.588   5.188
11712TIP3    H235080   6.516   1.471   5.098
11713TIP3   OH235081   0.466   0.899   2.446
11713TIP3    H135082   0.523   0.854   2.509
11713TIP3    H235083   0.513   0.893   2.363
11714TIP3   OH235084   3.691   3.361   6.457
11714TIP3    H135085   3.634   3.354   6.380
11714TIP3    H235086   3.746   3.437   6.440
11715TIP3   OH235087   3.431   4.990   1.947
11715TIP3    H135088   3.472   5.074   1.971
11715TIP3    H235089   3.364   4.976   2.013
11716TIP3   OH235090   1.872   2.220   3.293
11716TIP3    H135091   1.929   2.148   3.318
11716TIP3    H235092   1.823   2.188   3.217
11717TIP3   OH235093   1.844   6.780   1.820
11717TIP3    H135094   1.759   6.737   1.807
11717TIP3    H235095   1.872   6.751   1.907
11718TIP3   OH235096   7.672   0.342   6.461
11718TIP3    H135097   7.601   0.393   6.422
11718TIP3    H235098   7.729   0.408   6.502
11719TIP3   OH235099   1.222   2.149   2.717
11719TIP3    H135100   1.279   2.174   2.790
11719TIP3    H235101   1.170   2.076   2.751
11720TIP3   OH235102   1.500   6.623   4.940
11720TIP3    H135103   1.545   6.592   5.019
11720TIP3    H235104   1.427   6.674   4.973
11721TIP3   OH235105   0.126   6.903   2.775
11721TIP3    H135106   0.176   6.986   2.775
11721TIP3    H235107   0.112   6.883   2.867
11722TIP3   OH235108   4.947   4.734   5.422
11722TIP3    H135109   4.965   4.652   5.377
11722TIP3    H235110   4.891   4.783   5.362
11723TIP3   OH235111   2.843   1.230   0.309
11723TIP3    H135112   2.893   1.195   0.383
11723TIP3    H235113   2.764   1.267   0.347
11724TIP3   OH235114   4.741   6.847   2.616
11724TIP3    H135115   4.829   6.877   2.591
11724TIP3    H235116   4.696   6.927   2.644
11725TIP3   OH235117   7.076   4.848   3.934
11725TIP3    H135118   7.148   4.909   3.953
11725TIP3    H235119   7.070   4.848   3.838
11726TIP3   OH235120   7.814   7.605   1.259
11726TIP3    H135121   7.876   7.668   1.295
11726TIP3    H235122   7.792   7.640   1.172
11727TIP3   OH235123   7.524   3.244   6.119
11727TIP3    H135124   7.604   3.286   6.086
11727TIP3    H235125   7.497   3.185   6.048
11728TIP3   OH235126   0.819   3.422   6.406
11728TIP3    H135127   0.842   3.513   6.426
11728TIP3    H235128   0.724   3.420   6.412
11729TIP3   OH235129   0.732   1.377   1.570
11729TIP3    H135130   0.718   1.303   1.511
11729TIP3    H235131   0.785   1.342   1.641
11730TIP3   OH235132   2.832   5.624   0.100
11730TIP3    H135133   2.899   5.645   0.165
11730TIP3    H235134   2.821   5.529   0.107
11731TIP3   OH235135   3.579   0.628   0.774
11731TIP3    H135136   3.625   0.672   0.846
11731TIP3    H235137   3.610   0.673   0.695
11732TIP3   OH235138   3.487   2.039   4.930
11732TIP3    H135139   3.425   2.041   4.858
11732TIP3    H235140   3.447   1.980   4.994
11733TIP3   OH235141   1.844   1.282   3.065
11733TIP3    H135142   1.869   1.257   2.975
11733TIP3    H235143   1.869   1.206   3.118
11734TIP3   OH235144   1.501   0.383   0.962
11734TIP3    H135145   1.432   0.337   0.914
11734TIP3    H235146   1.571   0.395   0.897
11735TIP3   OH235147   7.756   3.237   4.044
11735TIP3    H135148   7.801   3.155   4.024
11735TIP3    H235149   7.691   3.213   4.111
11736TIP3   OH235150   7.820   3.609   3.259
11736TIP3    H135151   7.839   3.523   3.220
11736TIP3    H235152   7.750   3.592   3.322
11737TIP3   OH235153   3.619   6.614   0.693
11737TIP3    H135154   3.688   6.665   0.735
11737TIP3    H235155   3.539   6.663   0.710
11738TIP3   OH235156   7.123   0.171   5.288
11738TIP3    H135157   7.078   0.215   5.216
11738TIP3    H235158   7.155   0.089   5.249
11739TIP3   OH235159   3.251   2.081   0.437
11739TIP3    H135160   3.301   2.022   0.381
11739TIP3    H235161   3.193   2.127   0.377
11740TIP3   OH235162   3.235   0.103   4.582
11740TIP3    H135163   3.201   0.015   4.596
11740TIP3    H235164   3.177   0.159   4.634
11741TIP3   OH235165   7.551   4.107   3.385
11741TIP3    H135166   7.469   4.135   3.347
11741TIP3    H235167   7.587   4.044   3.323
11742TIP3   OH235168   1.895   5.416   1.033
11742TIP3    H135169   1.951   5.339   1.045
11742TIP3    H235170   1.864   5.409   0.943
11743TIP3   OH235171   1.476   5.001   4.068
11743TIP3    H135172   1.484   4.906   4.060
11743TIP3    H235173   1.447   5.015   4.159
11744TIP3   OH235174   2.036   6.691   4.656
11744TIP3    H135175   2.105   6.629   4.630
11744TIP3    H235176   2.003   6.657   4.739
11745TIP3   OH235177   3.879   1.736   4.841
11745TIP3    H135178   3.972   1.743   4.820
11745TIP3    H235179   3.876   1.738   4.937
11746TIP3   OH235180   7.039   4.781   4.203
11746TIP3    H135181   7.046   4.795   4.108
11746TIP3    H235182   7.110   4.720   4.223
11747TIP3   OH235183   0.878   7.418   0.689
11747TIP3    H135184   0.955   7.418   0.632
11747TIP3    H235185   0.914   7.429   0.777
11748TIP3   OH235186   5.589   4.275   3.951
11748TIP3    H135187   5.611   4.189   3.915
11748TIP3    H235188   5.643   4.336   3.902
11749TIP3   OH235189   3.909   7.041   5.299
11749TIP3    H135190   3.835   7.002   5.345
11749TIP3    H235191   3.870   7.078   5.220
11750TIP3   OH235192   7.343   3.250   3.514
11750TIP3    H135193   7.361   3.339   3.545
11750TIP3    H235194   7.247   3.245   3.512
11751TIP3   OH235195   0.265   2.056   2.331
11751TIP3    H135196   0.237   1.986   2.390
11751TIP3    H235197   0.318   2.113   2.386
11752TIP3   OH235198   6.119   3.385   5.253
11752TIP3    H135199   6.195   3.435   5.283
11752TIP3    H235200   6.152   3.333   5.180
11753TIP3   OH235201   2.124   5.992   4.956
11753TIP3    H135202   2.083   5.998   4.869
11753TIP3    H235203   2.187   6.065   4.957
11754TIP3   OH235204   2.659   6.388   2.677
11754TIP3    H135205   2.622   6.404   2.764
11754TIP3    H235206   2.587   6.349   2.627
11755TIP3   OH235207   1.748   7.478   5.196
11755TIP3    H135208   1.836   7.513   5.188
11755TIP3    H235209   1.693   7.541   5.149
11756TIP3   OH235210   0.341   5.282   4.672
11756TIP3    H135211   0.421   5.289   4.724
11756TIP3    H235212   0.281   5.232   4.726
11757TIP3   OH235213   6.716   5.775   2.174
11757TIP3    H135214   6.704   5.867   2.197
11757TIP3    H235215   6.715   5.774   2.078
11758TIP3   OH235216   0.475   0.769   1.607
11758TIP3    H135217   0.389   0.774   1.565
11758TIP3    H235218   0.493   0.675   1.613
11759TIP3   OH235219   5.114   5.590   2.097
11759TIP3    H135220   5.091   5.644   2.173
11759TIP3    H235221   5.065   5.629   2.025
11760TIP3   OH235222   8.063   3.986   6.113
11760TIP3    H135223   8.099   3.986   6.202
11760TIP3    H235224   7.979   4.031   6.122
11761TIP3   OH235225   2.762   4.127   0.603
11761TIP3    H135226   2.826   4.180   0.650
11761TIP3    H235227   2.714   4.190   0.548
11762TIP3   OH235228   3.076   1.108   6.260
11762TIP3    H135229   3.084   1.045   6.332
11762TIP3    H235230   3.008   1.169   6.288
11763TIP3   OH235231   3.002   5.139   3.575
11763TIP3    H135232   3.016   5.189   3.494
11763TIP3    H235233   3.089   5.105   3.597
11764TIP3   OH235234   0.143   4.518   1.713
11764TIP3    H135235   0.191   4.472   1.644
11764TIP3    H235236   0.055   4.481   1.711
11765TIP3   OH235237   5.059   1.396   1.269
11765TIP3    H135238   5.099   1.483   1.274
11765TIP3    H235239   5.038   1.385   1.176
11766TIP3   OH235240   1.488   5.086   5.763
11766TIP3    H135241   1.541   5.079   5.684
11766TIP3    H235242   1.543   5.050   5.832
11767TIP3   OH235243   6.411   6.385   2.532
11767TIP3    H135244   6.361   6.434   2.597
11767TIP3    H235245   6.352   6.316   2.504
11768TIP3   OH235246   4.274   5.414   3.614
11768TIP3    H135247   4.244   5.384   3.529
11768TIP3    H235248   4.349   5.470   3.595
11769TIP3   OH235249   1.956   7.256   1.714
11769TIP3    H135250   2.003   7.295   1.788
11769TIP3    H235251   2.023   7.244   1.647
11770TIP3   OH235252   7.896   0.112   0.070
11770TIP3    H135253   7.885   0.022   0.040
11770TIP3    H235254   7.833   0.162   0.018
11771TIP3   OH235255   1.358   3.073   3.446
11771TIP3    H135256   1.411   3.023   3.383
11771TIP3    H235257   1.280   3.019   3.460
11772TIP3   OH235258   5.988   7.306   0.548
11772TIP3    H135259   5.982   7.212   0.530
11772TIP3    H235260   5.965   7.313   0.641
11773TIP3   OH235261   4.653   7.302   5.820
11773TIP3    H135262   4.613   7.327   5.736
11773TIP3    H235263   4.705   7.224   5.799
11774TIP3   OH235264   6.617   0.417   5.743
11774TIP3    H135265   6.634   0.394   5.834
11774TIP3    H235266   6.522   0.417   5.735
11775TIP3   OH235267   2.276   3.420   4.486
11775TIP3    H135268   2.261   3.344   4.542
11775TIP3    H235269   2.276   3.495   4.546
11776TIP3   OH235270   3.667   5.775   0.282
11776TIP3    H135271   3.647   5.849   0.225
11776TIP3    H235272   3.657   5.698   0.226
11777TIP3   OH235273   5.458   5.415   6.505
11777TIP3    H135274   5.399   5.432   6.431
11777TIP3    H235275   5.509   5.496   6.513
11778TIP3   OH235276   7.399   2.574   4.535
11778TIP3    H135277   7.429   2.484   4.549
11778TIP3    H235278   7.371   2.603   4.622
11779TIP3   OH235279   5.960   5.867   0.800
11779TIP3    H135280   5.915   5.942   0.839
11779TIP3    H235281   5.889   5.809   0.773
11780TIP3   OH235282   3.744   2.352   0.675
11780TIP3    H135283   3.787   2.315   0.752
11780TIP3    H235284   3.725   2.277   0.619
11781TIP3   OH235285   6.870   6.299   4.527
11781TIP3    H135286   6.858   6.305   4.433
11781TIP3    H235287   6.959   6.266   4.538
11782TIP3   OH235288   4.873   3.756   3.651
11782TIP3    H135289   4.865   3.666   3.683
11782TIP3    H235290   4.942   3.752   3.585
11783TIP3   OH235291   7.301   6.667   0.389
11783TIP3    H135292   7.259   6.691   0.472
11783TIP3    H235293   7.328   6.576   0.402
11784TIP3   OH235294   2.008   6.412   1.642
11784TIP3    H135295   2.067   6.394   1.568
11784TIP3    H235296   1.930   6.450   1.601
11785TIP3   OH235297   0.516   6.035   0.878
11785TIP3    H135298   0.474   6.114   0.913
11785TIP3    H235299   0.555   6.064   0.795
11786TIP3   OH235300   6.522   6.819   5.142
11786TIP3    H135301   6.572   6.762   5.200
11786TIP3    H235302   6.580   6.894   5.127
11787TIP3   OH235303   7.933   4.375   0.156
11787TIP3    H135304   7.955   4.357   0.065
11787TIP3    H235305   7.903   4.466   0.157
11788TIP3   OH235306   5.607   7.461   1.888
11788TIP3    H135307   5.608   7.380   1.836
11788TIP3    H235308   5.671   7.518   1.846
11789TIP3   OH235309   0.124   5.445   4.275
11789TIP3    H135310   0.217   5.455   4.297
11789TIP3    H235311   0.102   5.357   4.307
11790TIP3   OH235312   7.319   4.508   2.374
11790TIP3    H135313   7.327   4.461   2.457
11790TIP3    H235314   7.287   4.595   2.397
11791TIP3   OH235315   0.871   3.865   0.439
11791TIP3    H135316   0.923   3.939   0.469
11791TIP3    H235317   0.788   3.874   0.485
11792TIP3   OH235318   3.168   4.284   4.815
11792TIP3    H135319   3.230   4.240   4.872
11792TIP3    H235320   3.091   4.227   4.814
11793TIP3   OH235321   4.984   1.486   5.947
11793TIP3    H135322   4.974   1.575   5.914
11793TIP3    H235323   4.910   1.438   5.907
11794TIP3   OH235324   5.882   2.798   2.297
11794TIP3    H135325   5.951   2.789   2.363
11794TIP3    H235326   5.807   2.753   2.335
11795TIP3   OH235327   7.332   5.412   1.189
11795TIP3    H135328   7.351   5.496   1.149
11795TIP3    H235329   7.417   5.376   1.213
11796TIP3   OH235330   8.040   3.874   0.922
11796TIP3    H135331   8.073   3.895   0.835
11796TIP3    H235332   8.022   3.959   0.962
11797TIP3   OH235333   6.698   7.543   3.602
11797TIP3    H135334   6.623   7.600   3.583
11797TIP3    H235335   6.712   7.554   3.697
11798TIP3   OH235336   1.787   4.999   4.745
11798TIP3    H135337   1.757   5.083   4.711
11798TIP3    H235338   1.707   4.951   4.765
11799TIP3   OH235339   7.118   3.337   4.869
11799TIP3    H135340   7.075   3.331   4.954
11799TIP3    H235341   7.211   3.341   4.889
11800TIP3   OH235342   8.028   4.228   5.408
11800TIP3    H135343   7.959   4.233   5.475
11800TIP3    H235344   7.986   4.185   5.333
11801TIP3   OH235345   3.810   2.989   4.044
11801TIP3    H135346   3.849   2.933   3.977
11801TIP3    H235347   3.775   2.928   4.109
11802TIP3   OH235348   4.400   7.199   2.749
11802TIP3    H135349   4.354   7.147   2.682
11802TIP3    H235350   4.331   7.226   2.810
11803TIP3   OH235351   5.475   3.242   3.830
11803TIP3    H135352   5.419   3.233   3.907
11803TIP3    H235353   5.429   3.195   3.761
11804TIP3   OH235354   2.390   1.334   2.109
11804TIP3    H135355   2.385   1.240   2.094
11804TIP3    H235356   2.385   1.373   2.021
11805TIP3   OH235357   4.488   2.149   1.374
11805TIP3    H135358   4.525   2.195   1.449
11805TIP3    H235359   4.410   2.105   1.410
11806TIP3   OH235360   7.079   4.711   1.469
11806TIP3    H135361   7.083   4.764   1.389
11806TIP3    H235362   7.028   4.634   1.444
11807TIP3   OH235363   7.350   0.106   5.028
11807TIP3    H135364   7.437   0.142   5.042
11807TIP3    H235365   7.303   0.176   4.982
11808TIP3   OH235366   6.271   4.271   0.279
11808TIP3    H135367   6.246   4.358   0.311
11808TIP3    H235368   6.189   4.221   0.282
11809TIP3   OH235369   2.763   1.934   0.707
11809TIP3    H135370   2.812   1.855   0.732
11809TIP3    H235371   2.823   1.981   0.649
11810TIP3   OH235372   2.289   6.743   5.713
11810TIP3    H135373   2.307   6.812   5.649
11810TIP3    H235374   2.272   6.790   5.794
11811TIP3   OH235375   7.428   4.818   2.876
11811TIP3    H135376   7.352   4.875   2.887
11811TIP3    H235377   7.407   4.740   2.927
11812TIP3   OH235378   6.530   0.854   2.230
11812TIP3    H135379   6.506   0.917   2.297
11812TIP3    H235380   6.577   0.785   2.277
11813TIP3   OH235381   4.683   5.271   1.237
11813TIP3    H135382   4.652   5.185   1.209
11813TIP3    H235383   4.649   5.331   1.170
11814TIP3   OH235384   1.708   4.524   2.774
11814TIP3    H135385   1.647   4.573   2.830
11814TIP3    H235386   1.731   4.586   2.705
11815TIP3   OH235387   0.164   5.580   3.732
11815TIP3    H135388   0.228   5.644   3.764
11815TIP3    H235389   0.150   5.604   3.640
11816TIP3   OH235390   4.888   3.825   1.456
11816TIP3    H135391   4.848   3.874   1.385
11816TIP3    H235392   4.934   3.891   1.508
11817TIP3   OH235393   4.103   1.937   4.335
11817TIP3    H135394   4.190   1.974   4.321
11817TIP3    H235395   4.045   1.989   4.280
11818TIP3   OH235396   1.273   0.871   3.760
11818TIP3    H135397   1.269   0.800   3.696
11818TIP3    H235398   1.361   0.865   3.797
11819TIP3   OH235399   5.551   5.278   6.143
11819TIP3    H135400   5.613   5.237   6.082
11819TIP3    H235401   5.481   5.213   6.153
11820TIP3   OH235402   0.635   6.181   2.942
11820TIP3    H135403   0.639   6.275   2.961
11820TIP3    H235404   0.543   6.158   2.956
11821TIP3   OH235405   6.705   2.516   5.728
11821TIP3    H135406   6.738   2.432   5.761
11821TIP3    H235407   6.784   2.568   5.715
11822TIP3   OH235408   7.586   1.092   5.999
11822TIP3    H135409   7.681   1.103   5.992
11822TIP3    H235410   7.562   1.146   6.074
11823TIP3   OH235411   6.084   0.568   3.949
11823TIP3    H135412   6.054   0.618   3.873
11823TIP3    H235413   6.004   0.531   3.986
11824TIP3   OH235414   6.300   0.418   5.740
11824TIP3    H135415   6.319   0.508   5.714
11824TIP3    H235416   6.272   0.375   5.659
11825TIP3   OH235417   8.092   3.721   4.368
11825TIP3    H135418   8.077   3.728   4.463
11825TIP3    H235419   8.136   3.636   4.358
11826TIP3   OH235420   3.917   7.433   0.226
11826TIP3    H135421   3.993   7.472   0.182
11826TIP3    H235422   3.948   7.413   0.314
11827TIP3   OH235423   0.425   4.318   0.103
11827TIP3    H135424   0.365   4.367   0.159
11827TIP3    H235425   0.505   4.311   0.156
11828TIP3   OH235426   5.919   1.482   5.524
11828TIP3    H135427   5.999   1.463   5.474
11828TIP3    H235428   5.869   1.400   5.521
11829TIP3   OH235429   2.624   6.500   5.463
11829TIP3    H135430   2.674   6.419   5.466
11829TIP3    H235431   2.669   6.555   5.399
11830TIP3   OH235432   4.520   4.734   0.382
11830TIP3    H135433   4.478   4.778   0.308
11830TIP3    H235434   4.613   4.755   0.372
11831TIP3   OH235435   7.087   4.503   3.965
11831TIP3    H135436   7.054   4.415   3.945
11831TIP3    H235437   7.044   4.560   3.900
11832TIP3   OH235438   3.590   5.237   0.549
11832TIP3    H135439   3.544   5.312   0.511
11832TIP3    H235440   3.531   5.207   0.618
11833TIP3   OH235441   2.968   1.792   0.840
11833TIP3    H135442   3.008   1.878   0.852
11833TIP3    H235443   3.033   1.741   0.792
11834TIP3   OH235444   4.591   0.399   1.298
11834TIP3    H135445   4.682   0.407   1.326
11834TIP3    H235446   4.597   0.370   1.207
11835TIP3   OH235447   2.310   1.896   1.832
11835TIP3    H135448   2.292   1.975   1.781
11835TIP3    H235449   2.239   1.892   1.896
11836TIP3   OH235450   0.539   7.784   2.852
11836TIP3    H135451   0.586   7.721   2.797
11836TIP3    H235452   0.471   7.819   2.795
11837TIP3   OH235453   7.737   2.097   0.222
11837TIP3    H135454   7.735   2.082   0.127
11837TIP3    H235455   7.660   2.150   0.241
11838TIP3   OH235456   5.318   7.834   0.987
11838TIP3    H135457   5.405   7.814   1.022
11838TIP3    H235458   5.260   7.769   1.028
11839TIP3   OH235459   4.092   5.993   5.337
11839TIP3    H135460   4.169   6.002   5.280
11839TIP3    H235461   4.090   5.901   5.360
11840TIP3   OH235462   2.061   7.372   3.837
11840TIP3    H135463   2.126   7.397   3.902
11840TIP3    H235464   1.986   7.342   3.888
11841TIP3   OH235465   3.401   2.920   0.400
11841TIP3    H135466   3.434   3.009   0.387
11841TIP3    H235467   3.400   2.881   0.313
11842TIP3   OH235468   7.163   3.145   3.280
11842TIP3    H135469   7.148   3.140   3.186
11842TIP3    H235470   7.257   3.125   3.290
11843TIP3   OH235471   1.690   7.822   0.389
11843TIP3    H135472   1.643   7.739   0.399
11843TIP3    H235473   1.750   7.824   0.463
11844TIP3   OH235474   3.967   0.885   6.254
11844TIP3    H135475   3.925   0.887   6.340
11844TIP3    H235476   4.009   0.799   6.248
11845TIP3   OH235477   0.651   0.128   4.731
11845TIP3    H135478   0.681   0.048   4.686
11845TIP3    H235479   0.608   0.179   4.662
11846TIP3   OH235480   1.706   6.832   1.144
11846TIP3    H135481   1.714   6.887   1.222
11846TIP3    H235482   1.680   6.892   1.074
11847TIP3   OH235483   1.939   1.003   0.774
11847TIP3    H135484   2.004   0.988   0.706
11847TIP3    H235485   1.986   1.052   0.842
11848TIP3   OH235486   6.968   4.268   3.861
11848TIP3    H135487   6.968   4.204   3.932
11848TIP3    H235488   6.967   4.215   3.781
11849TIP3   OH235489   6.118   4.911   2.528
11849TIP3    H135490   6.066   4.975   2.576
11849TIP3    H235491   6.165   4.962   2.462
11850TIP3   OH235492   1.141   0.075   2.096
11850TIP3    H135493   1.131  -0.019   2.084
11850TIP3    H235494   1.186   0.084   2.180
11851TIP3   OH235495   3.162   7.341   1.069
11851TIP3    H135496   3.182   7.275   1.135
11851TIP3    H235497   3.221   7.413   1.088
11852TIP3   OH235498   3.518   1.681   5.632
11852TIP3    H135499   3.520   1.695   5.726
11852TIP3    H235500   3.557   1.759   5.594
11853TIP3   OH235501   1.951   1.888   4.830
11853TIP3    H135502   2.044   1.906   4.845
11853TIP3    H235503   1.927   1.947   4.758
11854TIP3   OH235504   1.624   3.391   4.962
11854TIP3    H135505   1.535   3.385   4.998
11854TIP3    H235506   1.650   3.300   4.948
11855TIP3   OH235507   6.662   4.675   1.152
11855TIP3    H135508   6.607   4.661   1.229
11855TIP3    H235509   6.658   4.592   1.104
11856TIP3   OH235510   2.374   2.442   6.116
11856TIP3    H135511   2.324   2.523   6.123
11856TIP3    H235512   2.323   2.378   6.166
11857TIP3   OH235513   2.963   1.056   5.144
11857TIP3    H135514   3.007   1.140   5.159
11857TIP3    H235515   2.922   1.066   5.058
11858TIP3   OH235516   2.630   5.145   2.183
11858TIP3    H135517   2.616   5.145   2.278
11858TIP3    H235518   2.725   5.144   2.173
11859TIP3   OH235519   4.517   5.966   6.309
11859TIP3    H135520   4.542   5.923   6.227
11859TIP3    H235521   4.482   6.050   6.282
11860TIP3   OH235522   4.214   0.987   1.341
11860TIP3    H135523   4.129   0.949   1.320
11860TIP3    H235524   4.234   1.046   1.268
11861TIP3   OH235525   3.407   1.851   2.725
11861TIP3    H135526   3.397   1.844   2.820
11861TIP3    H235527   3.435   1.941   2.710
11862TIP3   OH235528   4.164   6.503   2.747
11862TIP3    H135529   4.115   6.433   2.790
11862TIP3    H235530   4.169   6.572   2.814
11863TIP3   OH235531   8.017   7.114   6.616
11863TIP3    H135532   7.969   7.051   6.564
11863TIP3    H235533   8.102   7.071   6.633
11864TIP3   OH235534   2.472   5.834   4.347
11864TIP3    H135535   2.496   5.763   4.406
11864TIP3    H235536   2.377   5.845   4.361
11865TIP3   OH235537   0.995   7.058   1.984
11865TIP3    H135538   1.049   7.010   2.047
11865TIP3    H235539   0.914   7.007   1.977
11866TIP3   OH235540   1.105   2.622   4.871
11866TIP3    H135541   1.089   2.539   4.916
11866TIP3    H235542   1.184   2.657   4.911
11867TIP3   OH235543   5.603   3.798   1.707
11867TIP3    H135544   5.514   3.832   1.721
11867TIP3    H235545   5.609   3.785   1.612
11868TIP3   OH235546   4.377   7.139   6.369
11868TIP3    H135547   4.388   7.129   6.274
11868TIP3    H235548   4.350   7.230   6.381
11869TIP3   OH235549   1.726   3.727   6.130
11869TIP3    H135550   1.639   3.728   6.089
11869TIP3    H235551   1.734   3.813   6.171
11870TIP3   OH235552   6.022   6.837   3.402
11870TIP3    H135553   5.982   6.896   3.338
11870TIP3    H235554   5.947   6.793   3.443
11871TIP3   OH235555   0.257   4.535   1.962
11871TIP3    H135556   0.200   4.544   1.886
11871TIP3    H235557   0.345   4.553   1.930
11872TIP3   OH235558   2.539   5.066   4.392
11872TIP3    H135559   2.586   5.008   4.452
11872TIP3    H235560   2.489   5.007   4.336
11873TIP3   OH235561   3.647   4.996   3.493
11873TIP3    H135562   3.607   4.929   3.548
11873TIP3    H235563   3.688   5.056   3.556
11874TIP3   OH235564   3.985   4.655   3.774
11874TIP3    H135565   3.932   4.585   3.812
11874TIP3    H235566   3.933   4.734   3.787
11875TIP3   OH235567   5.602   0.712   2.230
11875TIP3    H135568   5.592   0.799   2.191
11875TIP3    H235569   5.600   0.727   2.325
11876TIP3   OH235570   5.715   3.958   6.468
11876TIP3    H135571   5.705   3.905   6.546
11876TIP3    H235572   5.660   4.035   6.483
11877TIP3   OH235573   4.408   4.662   0.953
11877TIP3    H135574   4.445   4.703   0.874
11877TIP3    H235575   4.403   4.734   1.016
11878TIP3   OH235576   0.612   0.498   1.922
11878TIP3    H135577   0.607   0.564   1.853
11878TIP3    H235578   0.705   0.492   1.943
11879TIP3   OH235579   1.529   3.361   6.674
11879TIP3    H135580   1.437   3.338   6.675
11879TIP3    H235581   1.558   3.340   6.585
11880TIP3   OH235582   3.145   4.670   5.964
11880TIP3    H135583   3.073   4.654   5.903
11880TIP3    H235584   3.217   4.700   5.908
11881TIP3   OH235585   0.850   5.536   1.239
11881TIP3    H135586   0.811   5.505   1.158
11881TIP3    H235587   0.934   5.573   1.213
11882TIP3   OH235588   1.961   1.575   4.823
11882TIP3    H135589   2.023   1.596   4.753
11882TIP3    H235590   1.931   1.660   4.855
11883TIP3   OH235591   3.056   7.141   4.105
11883TIP3    H135592   3.128   7.090   4.069
11883TIP3    H235593   3.087   7.170   4.191
11884TIP3   OH235594   1.989   1.995   2.271
11884TIP3    H135595   1.956   1.970   2.357
11884TIP3    H235596   1.910   2.013   2.220
11885TIP3   OH235597   2.589   2.027   6.134
11885TIP3    H135598   2.644   2.034   6.056
11885TIP3    H235599   2.499   2.031   6.100
11886TIP3   OH235600   0.348   2.138   0.201
11886TIP3    H135601   0.426   2.129   0.255
11886TIP3    H235602   0.275   2.132   0.263
11887TIP3   OH235603   1.121   1.424   4.828
11887TIP3    H135604   1.123   1.328   4.834
11887TIP3    H235605   1.028   1.446   4.837
11888TIP3   OH235606   2.340   1.961   3.214
11888TIP3    H135607   2.402   2.029   3.189
11888TIP3    H235608   2.276   1.960   3.142
11889TIP3   OH235609   5.265   4.603   2.009
11889TIP3    H135610   5.278   4.686   2.055
11889TIP3    H235611   5.197   4.621   1.945
11890TIP3   OH235612   3.130   5.457   0.873
11890TIP3    H135613   3.058   5.401   0.901
11890TIP3    H235614   3.167   5.492   0.954
11891TIP3   OH235615   1.181   1.793   3.064
11891TIP3    H135616   1.193   1.804   3.158
11891TIP3    H235617   1.260   1.748   3.035
11892TIP3   OH235618   1.634   5.342   4.850
11892TIP3    H135619   1.637   5.303   4.762
11892TIP3    H235620   1.626   5.436   4.834
11893TIP3   OH235621   2.285   3.651   3.368
11893TIP3    H135622   2.243   3.712   3.307
11893TIP3    H235623   2.324   3.584   3.312
11894TIP3   OH235624   7.484   1.327   3.629
11894TIP3    H135625   7.395   1.336   3.663
11894TIP3    H235626   7.529   1.275   3.695
11895TIP3   OH235627   5.105   0.883   4.470
11895TIP3    H135628   5.178   0.824   4.484
11895TIP3    H235629   5.085   0.874   4.376
11896TIP3   OH235630   1.302   0.801   4.230
11896TIP3    H135631   1.268   0.891   4.234
11896TIP3    H235632   1.246   0.752   4.290
11897TIP3   OH235633   3.984   4.338   3.608
11897TIP3    H135634   3.993   4.275   3.536
11897TIP3    H235635   4.011   4.290   3.686
11898TIP3   OH235636   0.635   6.440   1.237
11898TIP3    H135637   0.555   6.414   1.191
11898TIP3    H235638   0.656   6.366   1.293
11899TIP3   OH235639   5.480   6.607   1.938
11899TIP3    H135640   5.442   6.564   2.014
11899TIP3    H235641   5.573   6.617   1.960
11900TIP3   OH235642   3.118   3.284   6.119
11900TIP3    H135643   3.158   3.202   6.148
11900TIP3    H235644   3.033   3.259   6.084
11901TIP3   OH235645   6.932   1.879   4.521
11901TIP3    H135646   6.980   1.943   4.468
11901TIP3    H235647   6.902   1.814   4.457
11902TIP3   OH235648   7.325   1.645   6.567
11902TIP3    H135649   7.334   1.566   6.621
11902TIP3    H235650   7.413   1.659   6.532
11903TIP3   OH235651   7.349   1.635   5.428
11903TIP3    H135652   7.269   1.666   5.469
11903TIP3    H235653   7.322   1.606   5.341
11904TIP3   OH235654   3.022   5.611   4.275
11904TIP3    H135655   3.072   5.588   4.354
11904TIP3    H235656   2.933   5.626   4.308
11905TIP3   OH235657   3.298   4.373   5.667
11905TIP3    H135658   3.372   4.397   5.724
11905TIP3    H235659   3.338   4.325   5.595
11906TIP3   OH235660   6.433   2.811   1.719
11906TIP3    H135661   6.465   2.901   1.707
11906TIP3    H235662   6.512   2.758   1.723
11907TIP3   OH235663   1.527   0.693   4.088
11907TIP3    H135664   1.448   0.717   4.136
11907TIP3    H235665   1.570   0.627   4.143
11908TIP3   OH235666   1.481   6.138   5.484
11908TIP3    H135667   1.563   6.121   5.530
11908TIP3    H235668   1.497   6.109   5.394
11909TIP3   OH235669   8.133   7.319   5.442
11909TIP3    H135670   8.169   7.231   5.454
11909TIP3    H235671   8.209   7.377   5.450
11910TIP3   OH235672   1.188   5.857   0.084
11910TIP3    H135673   1.183   5.944   0.124
11910TIP3    H235674   1.230   5.872   0.000
11911TIP3   OH235675   3.525   7.449   5.101
11911TIP3    H135676   3.484   7.530   5.070
11911TIP3    H235677   3.542   7.399   5.021
11912TIP3   OH235678   1.614   6.028   4.023
11912TIP3    H135679   1.701   6.065   4.040
11912TIP3    H235680   1.632   5.943   3.982
11913TIP3   OH235681   7.997   3.491   2.219
11913TIP3    H135682   7.950   3.436   2.157
11913TIP3    H235683   7.932   3.515   2.285
11914TIP3   OH235684   4.341   2.614   2.766
11914TIP3    H135685   4.420   2.668   2.772
11914TIP3    H235686   4.357   2.541   2.826
11915TIP3   OH235687   1.725   1.603   3.761
11915TIP3    H135688   1.741   1.666   3.690
11915TIP3    H235689   1.632   1.582   3.754
11916TIP3   OH235690   3.304   5.923   3.459
11916TIP3    H135691   3.268   5.834   3.452
11916TIP3    H235692   3.276   5.966   3.378
11917TIP3   OH235693   7.187   3.506   6.460
11917TIP3    H135694   7.192   3.471   6.549
11917TIP3    H235695   7.242   3.448   6.408
11918TIP3   OH235696   3.340   2.009   5.388
11918TIP3    H135697   3.435   1.999   5.397
11918TIP3    H235698   3.314   2.060   5.464
11919TIP3   OH235699   3.433   5.503   3.381
11919TIP3    H135700   3.502   5.463   3.327
11919TIP3    H235701   3.477   5.575   3.426
11920TIP3   OH235702   3.964   5.428   0.162
11920TIP3    H135703   3.938   5.506   0.113
11920TIP3    H235704   3.891   5.412   0.222
11921TIP3   OH235705   1.130   5.101   4.243
11921TIP3    H135706   1.047   5.107   4.290
11921TIP3    H235707   1.112   5.046   4.167
11922TIP3   OH235708   6.740   2.887   0.810
11922TIP3    H135709   6.772   2.808   0.855
11922TIP3    H235710   6.816   2.920   0.762
11923TIP3   OH235711   7.995   3.724   3.855
11923TIP3    H135712   8.032   3.738   3.943
11923TIP3    H235713   7.974   3.812   3.824
11924TIP3   OH235714   7.793   4.809   2.429
11924TIP3    H135715   7.803   4.902   2.449
11924TIP3    H235716   7.716   4.782   2.480
11925TIP3   OH235717   1.085   1.565   0.339
11925TIP3    H135718   1.063   1.525   0.254
11925TIP3    H235719   1.071   1.659   0.325
11926TIP3   OH235720   0.261   2.506   3.642
11926TIP3    H135721   0.309   2.584   3.671
11926TIP3    H235722   0.176   2.540   3.614
11927TIP3   OH235723   0.412   3.907   1.802
11927TIP3    H135724   0.439   3.971   1.868
11927TIP3    H235725   0.323   3.931   1.780
11928TIP3   OH235726   3.655   5.522   0.178
11928TIP3    H135727   3.584   5.458   0.174
11928TIP3    H235728   3.678   5.539   0.087
11929TIP3   OH235729   5.670   5.999   3.849
11929TIP3    H135730   5.740   5.973   3.790
11929TIP3    H235731   5.682   6.094   3.861
11930TIP3   OH235732   3.243   0.500   1.102
11930TIP3    H135733   3.218   0.411   1.128
11930TIP3    H235734   3.254   0.495   1.007
11931TIP3   OH235735   3.055   6.751   2.516
11931TIP3    H135736   2.989   6.720   2.455
11931TIP3    H235737   3.088   6.672   2.558
11932TIP3   OH235738   0.206   5.287   5.279
11932TIP3    H135739   0.243   5.373   5.299
11932TIP3    H235740   0.252   5.259   5.200
11933TIP3   OH235741   2.069   6.298   4.563
11933TIP3    H135742   1.992   6.295   4.507
11933TIP3    H235743   2.069   6.213   4.608
11934TIP3   OH235744   2.751   4.885   2.912
11934TIP3    H135745   2.822   4.946   2.935
11934TIP3    H235746   2.719   4.854   2.997
11935TIP3   OH235747   7.786   2.670   1.117
11935TIP3    H135748   7.813   2.747   1.067
11935TIP3    H235749   7.833   2.677   1.200
11936TIP3   OH235750   8.299   2.761   2.116
11936TIP3    H135751   8.229   2.760   2.050
11936TIP3    H235752   8.260   2.805   2.191
11937TIP3   OH235753   3.280   1.428   1.591
11937TIP3    H135754   3.264   1.339   1.623
11937TIP3    H235755   3.194   1.469   1.591
11938TIP3   OH235756   0.081   0.413   6.467
11938TIP3    H135757   0.081   0.413   6.562
11938TIP3    H235758   0.000   0.369   6.442
11939TIP3   OH235759   1.125   7.304   1.961
11939TIP3    H135760   1.116   7.366   2.033
11939TIP3    H235761   1.073   7.229   1.987
11940TIP3   OH235762   1.539   2.277   0.993
11940TIP3    H135763   1.483   2.320   1.057
11940TIP3    H235764   1.479   2.252   0.922
11941TIP3   OH235765   1.923   7.076   4.993
11941TIP3    H135766   1.957   7.135   5.060
11941TIP3    H235767   1.848   7.123   4.955
11942TIP3   OH235768   5.538   4.848   1.573
11942TIP3    H135769   5.444   4.828   1.576
11942TIP3    H235770   5.560   4.847   1.480
11943TIP3   OH235771   0.130   4.277   1.528
11943TIP3    H135772   0.169   4.193   1.553
11943TIP3    H235773   0.128   4.274   1.432
11944TIP3   OH235774   0.062   3.485   0.526
11944TIP3    H135775   0.148   3.511   0.560
11944TIP3    H235776   0.064   3.512   0.434
11945TIP3   OH235777   0.769   3.876   0.993
11945TIP3    H135778   0.731   3.869   1.080
11945TIP3    H235779   0.856   3.836   1.001
11946TIP3   OH235780   6.288   4.059   0.753
11946TIP3    H135781   6.296   4.152   0.775
11946TIP3    H235782   6.373   4.022   0.776
11947TIP3   OH235783   1.194   1.229   5.360
11947TIP3    H135784   1.226   1.289   5.427
11947TIP3    H235785   1.104   1.210   5.387
11948TIP3   OH235786   3.253   4.969   0.794
11948TIP3    H135787   3.182   5.003   0.848
11948TIP3    H235788   3.215   4.896   0.747
11949TIP3   OH235789   5.325   3.764   1.961
11949TIP3    H135790   5.243   3.802   1.993
11949TIP3    H235791   5.361   3.831   1.902
11950TIP3   OH235792   1.999   6.886   6.691
11950TIP3    H135793   1.933   6.944   6.727
11950TIP3    H235794   1.954   6.840   6.620
11951TIP3   OH235795   6.333   2.756   4.074
11951TIP3    H135796   6.383   2.792   4.001
11951TIP3    H235797   6.269   2.824   4.095
11952TIP3   OH235798   1.069   7.173   1.362
11952TIP3    H135799   1.158   7.188   1.330
11952TIP3    H235800   1.055   7.242   1.427
11953TIP3   OH235801   6.409   5.105   5.343
11953TIP3    H135802   6.428   5.011   5.341
11953TIP3    H235803   6.346   5.115   5.415
11954TIP3   OH235804   1.863   1.501   5.457
11954TIP3    H135805   1.846   1.489   5.364
11954TIP3    H235806   1.880   1.595   5.466
11955TIP3   OH235807   0.011   4.865   0.111
11955TIP3    H135808   0.027   4.949   0.154
11955TIP3    H235809   0.073   4.863   0.038
11956TIP3   OH235810   1.160   2.002   5.523
11956TIP3    H135811   1.082   2.052   5.499
11956TIP3    H235812   1.161   2.004   5.619
11957TIP3   OH235813   4.340   1.432   3.139
11957TIP3    H135814   4.332   1.523   3.110
11957TIP3    H235815   4.434   1.419   3.151
11958TIP3   OH235816   4.149   1.319   2.973
11958TIP3    H135817   4.143   1.370   2.892
11958TIP3    H235818   4.235   1.277   2.968
11959TIP3   OH235819   3.535   5.766   0.757
11959TIP3    H135820   3.529   5.780   0.663
11959TIP3    H235821   3.466   5.703   0.777
11960TIP3   OH235822   2.744   3.791   3.508
11960TIP3    H135823   2.677   3.743   3.556
11960TIP3    H235824   2.807   3.724   3.482
11961TIP3   OH235825   2.043   0.725   1.397
11961TIP3    H135826   2.087   0.642   1.415
11961TIP3    H235827   2.090   0.789   1.451
11962TIP3   OH235828   7.597   2.536   3.937
11962TIP3    H135829   7.517   2.563   3.891
11962TIP3    H235830   7.643   2.482   3.873
11963TIP3   OH235831   1.340   4.196   4.876
11963TIP3    H135832   1.268   4.232   4.927
11963TIP3    H235833   1.395   4.151   4.940
11964TIP3   OH235834   4.383   2.148   5.053
11964TIP3    H135835   4.383   2.100   4.970
11964TIP3    H235836   4.303   2.120   5.097
11965TIP3   OH235837   7.296   7.314   3.964
11965TIP3    H135838   7.247   7.242   3.924
11965TIP3    H235839   7.294   7.384   3.899
11966TIP3   OH235840   1.246   1.340   0.845
11966TIP3    H135841   1.279   1.257   0.810
11966TIP3    H235842   1.207   1.384   0.769
11967TIP3   OH235843   1.172   7.181   6.645
11967TIP3    H135844   1.214   7.098   6.665
11967TIP3    H235845   1.092   7.158   6.599
11968TIP3   OH235846   2.190   1.117   4.750
11968TIP3    H135847   2.220   1.208   4.752
11968TIP3    H235848   2.179   1.093   4.842
11969TIP3   OH235849   3.124   5.726   6.354
11969TIP3    H135850   3.065   5.662   6.314
11969TIP3    H235851   3.119   5.708   6.448
11970TIP3   OH235852   8.162   4.697   3.460
11970TIP3    H135853   8.173   4.621   3.517
11970TIP3    H235854   8.145   4.770   3.519
11971TIP3   OH235855   6.901   5.957   0.284
11971TIP3    H135856   6.952   5.882   0.314
11971TIP3    H235857   6.900   5.948   0.188
11972TIP3   OH235858   3.709   2.226   5.775
11972TIP3    H135859   3.689   2.154   5.714
11972TIP3    H235860   3.780   2.274   5.732
11973TIP3   OH235861   1.490   6.274   4.070
11973TIP3    H135862   1.535   6.198   4.031
11973TIP3    H235863   1.404   6.240   4.095
11974TIP3   OH235864   7.232   5.265   6.135
11974TIP3    H135865   7.283   5.334   6.091
11974TIP3    H235866   7.148   5.307   6.154
11975TIP3   OH235867   4.583   4.402   5.281
11975TIP3    H135868   4.488   4.400   5.280
11975TIP3    H235869   4.607   4.485   5.240
11976TIP3   OH235870   1.232   4.218   2.812
11976TIP3    H135871   1.199   4.300   2.775
11976TIP3    H235872   1.296   4.187   2.747
11977TIP3   OH235873   3.035   6.223   4.052
11977TIP3    H135874   3.096   6.223   3.978
11977TIP3    H235875   3.031   6.131   4.079
11978TIP3   OH235876   7.874   2.651   1.372
11978TIP3    H135877   7.843   2.726   1.423
11978TIP3    H235878   7.967   2.643   1.395
11979TIP3   OH235879   0.583   1.019   1.950
11979TIP3    H135880   0.584   0.948   2.013
11979TIP3    H235881   0.608   1.096   2.000
11980TIP3   OH235882   7.417   3.371   5.198
11980TIP3    H135883   7.354   3.346   5.265
11980TIP3    H235884   7.381   3.335   5.117
11981TIP3   OH235885   8.144   3.315   1.739
11981TIP3    H135886   8.167   3.253   1.670
11981TIP3    H235887   8.171   3.400   1.704
11982TIP3   OH235888   6.802   3.497   1.328
11982TIP3    H135889   6.738   3.488   1.399
11982TIP3    H235890   6.887   3.484   1.370
11983TIP3   OH235891   4.781   0.624   4.120
11983TIP3    H135892   4.776   0.660   4.208
11983TIP3    H235893   4.751   0.696   4.064
11984TIP3   OH235894   6.075   3.284   1.873
11984TIP3    H135895   6.070   3.240   1.788
11984TIP3    H235896   5.988   3.274   1.911
11985TIP3   OH235897   1.918   4.926   0.308
11985TIP3    H135898   1.987   4.967   0.360
11985TIP3    H235899   1.960   4.851   0.267
11986TIP3   OH235900   2.686   1.939   4.739
11986TIP3    H135901   2.593   1.936   4.760
11986TIP3    H235902   2.711   2.030   4.753
11987TIP3   OH235903   0.955   3.563   0.830
11987TIP3    H135904   0.860   3.565   0.818
11987TIP3    H235905   0.968   3.509   0.909
11988TIP3   OH235906   2.439   1.730   5.917
11988TIP3    H135907   2.447   1.701   5.826
11988TIP3    H235908   2.517   1.696   5.960
11989TIP3   OH235909   8.169   1.060   5.224
11989TIP3    H135910   8.132   0.972   5.221
11989TIP3    H235911   8.240   1.059   5.160
11990TIP3   OH235912   6.255   3.189   2.074
11990TIP3    H135913   6.202   3.243   2.016
11990TIP3    H235914   6.211   3.104   2.076
11991TIP3   OH235915   3.956   6.031   2.858
11991TIP3    H135916   3.890   5.963   2.873
11991TIP3    H235917   4.033   6.001   2.906
11992TIP3   OH235918   3.509   1.822   2.994
11992TIP3    H135919   3.585   1.880   2.996
11992TIP3    H235920   3.543   1.737   3.023
11993TIP3   OH235921   0.033   3.674   1.439
11993TIP3    H135922   0.022   3.612   1.367
11993TIP3    H235923   0.118   3.714   1.425
11994TIP3   OH235924   0.460   3.287   2.295
11994TIP3    H135925   0.458   3.296   2.390
11994TIP3    H235926   0.476   3.376   2.263
11995TIP3   OH235927   5.837   2.053   2.851
11995TIP3    H135928   5.807   2.139   2.819
11995TIP3    H235929   5.820   1.994   2.778
11996TIP3   OH235930   0.443   3.737   5.915
11996TIP3    H135931   0.444   3.689   5.998
11996TIP3    H235932   0.351   3.739   5.889
11997TIP3   OH235933   7.172   7.104   6.433
11997TIP3    H135934   7.081   7.104   6.463
11997TIP3    H235935   7.185   7.193   6.399
11998TIP3   OH235936   7.708   1.594   0.917
11998TIP3    H135937   7.630   1.609   0.865
11998TIP3    H235938   7.679   1.535   0.987
11999TIP3   OH235939   5.670   7.737   4.430
11999TIP3    H135940   5.674   7.715   4.337
11999TIP3    H235941   5.713   7.664   4.474
12000TIP3   OH235942   5.653   0.759   5.730
12000TIP3    H135943   5.701   0.678   5.746
12000TIP3    H235944   5.575   0.731   5.682
12001TIP3   OH235945   1.644   4.967   5.220
12001TIP3    H135946   1.672   4.914   5.145
12001TIP3    H235947   1.666   4.913   5.296
12002TIP3   OH235948   4.121   3.774   0.610
12002TIP3    H135949   4.103   3.772   0.516
12002TIP3    H235950   4.064   3.707   0.647
12003TIP3   OH235951   7.749   6.722   2.375
12003TIP3    H135952   7.818   6.664   2.407
12003TIP3    H235953   7.796   6.795   2.334
12004TIP3   OH235954   5.868   7.031   6.414
12004TIP3    H135955   5.839   7.024   6.323
12004TIP3    H235956   5.947   7.084   6.411
12005TIP3   OH235957   6.359   7.597   0.218
12005TIP3    H135958   6.412   7.562   0.146
12005TIP3    H235959   6.365   7.530   0.286
12006TIP3   OH235960   8.105   5.254   2.343
12006TIP3    H135961   8.091   5.256   2.438
12006TIP3    H235962   8.052   5.181   2.312
12007TIP3   OH235963   6.864   6.224   6.043
12007TIP3    H135964   6.920   6.168   5.990
12007TIP3    H235965   6.775   6.197   6.020
12008TIP3   OH235966   6.111   4.107   4.021
12008TIP3    H135967   6.072   4.034   3.973
12008TIP3    H235968   6.046   4.176   4.016
12009TIP3   OH235969   7.420   2.279   3.851
12009TIP3    H135970   7.397   2.197   3.895
12009TIP3    H235971   7.505   2.262   3.812
12010TIP3   OH235972   3.522   3.291   1.498
12010TIP3    H135973   3.429   3.313   1.504
12010TIP3    H235974   3.565   3.374   1.480
12011TIP3   OH235975   4.303   3.946   2.242
12011TIP3    H135976   4.308   4.027   2.294
12011TIP3    H235977   4.219   3.951   2.197
12012TIP3   OH235978   1.857   5.881   5.826
12012TIP3    H135979   1.906   5.810   5.870
12012TIP3    H235980   1.907   5.960   5.847
12013TIP3   OH235981   7.146   1.833   0.394
12013TIP3    H135982   7.186   1.774   0.331
12013TIP3    H235983   7.054   1.838   0.367
12014TIP3   OH235984   0.248   2.510   2.389
12014TIP3    H135985   0.243   2.526   2.295
12014TIP3    H235986   0.319   2.567   2.420
12015TIP3   OH235987   0.301   0.276   5.815
12015TIP3    H135988   0.233   0.216   5.785
12015TIP3    H235989   0.342   0.232   5.889
12016TIP3   OH235990   2.399   4.837   2.121
12016TIP3    H135991   2.382   4.921   2.077
12016TIP3    H235992   2.474   4.801   2.074
12017TIP3   OH235993   1.888   1.712   4.391
12017TIP3    H135994   1.970   1.714   4.342
12017TIP3    H235995   1.854   1.624   4.379
12018TIP3   OH235996   3.136   7.568   2.545
12018TIP3    H135997   3.211   7.573   2.485
12018TIP3    H235998   3.160   7.501   2.609
12019TIP3   OH235999   6.738   6.027   4.493
12019TIP3    H136000   6.803   6.096   4.485
12019TIP3    H236001   6.714   6.006   4.403
12020TIP3   OH236002   4.742   5.908   3.399
12020TIP3    H136003   4.775   5.892   3.310
12020TIP3    H236004   4.656   5.947   3.385
12021TIP3   OH236005   4.852   0.443   5.904
12021TIP3    H136006   4.796   0.374   5.868
12021TIP3    H236007   4.884   0.408   5.987
12022TIP3   OH236008   1.992   1.307   6.596
12022TIP3    H136009   1.930   1.355   6.651
12022TIP3    H236010   1.983   1.345   6.509
12023TIP3   OH236011   0.160   5.511   0.827
12023TIP3    H136012   0.225   5.531   0.894
12023TIP3    H236013   0.092   5.577   0.839
12024TIP3   OH236014   5.050   5.479   3.598
12024TIP3    H136015   5.141   5.449   3.598
12024TIP3    H236016   5.045   5.541   3.670
12025TIP3   OH236017   0.231   0.946   0.051
12025TIP3    H136018   0.231   1.030   0.005
12025TIP3    H236019   0.317   0.943   0.094
12026TIP3   OH236020   6.755   0.661   4.494
12026TIP3    H136021   6.840   0.675   4.453
12026TIP3    H236022   6.704   0.738   4.470
12027TIP3   OH236023   4.517   3.734   1.207
12027TIP3    H136024   4.590   3.673   1.218
12027TIP3    H236025   4.444   3.680   1.177
12028TIP3   OH236026   3.334   5.460   1.776
12028TIP3    H136027   3.318   5.382   1.830
12028TIP3    H236028   3.247   5.494   1.756
12029TIP3   OH236029   7.041   7.363   5.070
12029TIP3    H136030   7.020   7.454   5.089
12029TIP3    H236031   7.044   7.358   4.974
12030TIP3   OH236032   4.136   6.908   4.130
12030TIP3    H136033   4.157   6.848   4.201
12030TIP3    H236034   4.220   6.946   4.104
12031TIP3   OH236035   4.549   1.855   2.108
12031TIP3    H136036   4.529   1.763   2.125
12031TIP3    H236037   4.630   1.853   2.057
12032TIP3   OH236038   5.386   4.962   6.240
12032TIP3    H136039   5.320   5.025   6.209
12032TIP3    H236040   5.361   4.880   6.197
12033TIP3   OH236041   8.191   7.343   4.685
12033TIP3    H136042   8.278   7.366   4.654
12033TIP3    H236043   8.195   7.354   4.780
12034TIP3   OH236044   7.054   1.824   1.444
12034TIP3    H136045   6.965   1.800   1.472
12034TIP3    H236046   7.095   1.859   1.523
12035TIP3   OH236047   1.888   1.123   4.378
12035TIP3    H136048   1.906   1.091   4.466
12035TIP3    H236049   1.972   1.115   4.332
12036TIP3   OH236050   5.210   7.476   3.544
12036TIP3    H136051   5.146   7.538   3.509
12036TIP3    H236052   5.294   7.506   3.509
12037TIP3   OH236053   6.628   4.057   3.264
12037TIP3    H136054   6.551   4.001   3.252
12037TIP3    H236055   6.699   4.009   3.223
12038TIP3   OH236056   1.203   2.457   5.930
12038TIP3    H136057   1.253   2.377   5.919
12038TIP3    H236058   1.123   2.443   5.879
12039TIP3   OH236059   4.853   1.186   3.968
12039TIP3    H136060   4.761   1.203   3.946
12039TIP3    H236061   4.849   1.133   4.048
12040TIP3   OH236062   4.776   3.106   0.257
12040TIP3    H136063   4.816   3.187   0.227
12040TIP3    H236064   4.740   3.127   0.343
12041TIP3   OH236065   2.705   4.701   2.296
12041TIP3    H136066   2.653   4.777   2.321
12041TIP3    H236067   2.787   4.739   2.262
12042TIP3   OH236068   5.602   2.085   3.536
12042TIP3    H136069   5.638   2.154   3.481
12042TIP3    H236070   5.602   2.122   3.624
12043TIP3   OH236071   5.738   6.274   3.892
12043TIP3    H136072   5.778   6.360   3.878
12043TIP3    H236073   5.735   6.264   3.987
12044TIP3   OH236074   7.398   4.863   0.756
12044TIP3    H136075   7.344   4.784   0.767
12044TIP3    H236076   7.337   4.936   0.770
12045TIP3   OH236077   2.784   5.419   2.389
12045TIP3    H136078   2.735   5.347   2.430
12045TIP3    H236079   2.736   5.498   2.413
12046TIP3   OH236080   7.816   4.071   4.895
12046TIP3    H136081   7.806   4.071   4.800
12046TIP3    H236082   7.911   4.078   4.909
12047TIP3   OH236083   2.713   3.648   2.260
12047TIP3    H136084   2.634   3.642   2.315
12047TIP3    H236085   2.711   3.738   2.226
12048TIP3   OH236086   7.630   7.476   4.193
12048TIP3    H136087   7.723   7.467   4.213
12048TIP3    H236088   7.586   7.419   4.255
12049TIP3   OH236089   1.252   7.451   4.738
12049TIP3    H136090   1.244   7.544   4.756
12049TIP3    H236091   1.257   7.445   4.643
12050TIP3   OH236092   0.748   7.279   4.392
12050TIP3    H136093   0.783   7.231   4.317
12050TIP3    H236094   0.764   7.221   4.467
12051TIP3   OH236095   2.345   5.510   1.356
12051TIP3    H136096   2.418   5.567   1.380
12051TIP3    H236097   2.382   5.422   1.358
12052TIP3   OH236098   2.169   1.618   6.434
12052TIP3    H136099   2.206   1.609   6.346
12052TIP3    H236100   2.186   1.709   6.458
12053TIP3   OH236101   4.859   4.827   4.317
12053TIP3    H136102   4.839   4.740   4.284
12053TIP3    H236103   4.804   4.886   4.265
12054TIP3   OH236104   4.818   1.086   0.933
12054TIP3    H136105   4.880   1.049   0.869
12054TIP3    H236106   4.846   1.050   1.017
12055TIP3   OH236107   8.243   1.406   4.329
12055TIP3    H136108   8.321   1.360   4.296
12055TIP3    H236109   8.171   1.346   4.311
12056TIP3   OH236110   8.123   4.779   2.893
12056TIP3    H136111   8.050   4.728   2.929
12056TIP3    H236112   8.179   4.714   2.851
12057TIP3   OH236113   1.605   2.658   5.287
12057TIP3    H136114   1.509   2.660   5.293
12057TIP3    H236115   1.623   2.669   5.193
12058TIP3   OH236116   0.023   2.259   1.809
12058TIP3    H136117  -0.022   2.176   1.827
12058TIP3    H236118   0.077   2.274   1.886
12059TIP3   OH236119   3.088   4.501   5.370
12059TIP3    H136120   3.034   4.444   5.424
12059TIP3    H236121   3.109   4.575   5.427
12060TIP3   OH236122   3.783   3.360   5.518
12060TIP3    H136123   3.729   3.350   5.439
12060TIP3    H236124   3.778   3.275   5.560
12061TIP3   OH236125   1.253   1.914   4.122
12061TIP3    H136126   1.196   1.982   4.086
12061TIP3    H236127   1.198   1.835   4.120
12062TIP3   OH236128   0.810   3.512   3.172
12062TIP3    H136129   0.851   3.596   3.151
12062TIP3    H236130   0.813   3.463   3.089
12063TIP3   OH236131   7.147   4.380   5.379
12063TIP3    H136132   7.114   4.455   5.427
12063TIP3    H236133   7.235   4.364   5.415
12064TIP3   OH236134   4.291   5.280   4.889
12064TIP3    H136135   4.241   5.277   4.807
12064TIP3    H236136   4.225   5.296   4.957
12065TIP3   OH236137   0.353   2.936   5.860
12065TIP3    H136138   0.261   2.922   5.836
12065TIP3    H236139   0.350   2.995   5.935
12066TIP3   OH236140   4.677   6.753   5.402
12066TIP3    H136141   4.598   6.807   5.409
12066TIP3    H236142   4.698   6.754   5.309
12067TIP3   OH236143   4.951   6.953   2.923
12067TIP3    H136144   4.971   7.011   2.849
12067TIP3    H236145   4.860   6.974   2.945
12068TIP3   OH236146   2.734   3.831   1.729
12068TIP3    H136147   2.643   3.856   1.744
12068TIP3    H236148   2.729   3.743   1.691
12069TIP3   OH236149   8.110   0.333   6.416
12069TIP3    H136150   8.069   0.283   6.486
12069TIP3    H236151   8.052   0.408   6.403
12070TIP3   OH236152   0.039   0.481   0.618
12070TIP3    H136153   0.023   0.561   0.568
12070TIP3    H236154   0.134   0.470   0.615
12071TIP3   OH236155   0.662   3.934   3.519
12071TIP3    H136156   0.660   3.838   3.522
12071TIP3    H236157   0.755   3.956   3.520
12072TIP3   OH236158   3.657   7.178   1.897
12072TIP3    H136159   3.694   7.266   1.910
12072TIP3    H236160   3.705   7.143   1.822
12073TIP3   OH236161   4.950   2.248   1.645
12073TIP3    H136162   5.021   2.300   1.605
12073TIP3    H236163   4.995   2.172   1.682
12074TIP3   OH236164   2.602   7.542   0.368
12074TIP3    H136165   2.640   7.600   0.302
12074TIP3    H236166   2.569   7.602   0.435
12075TIP3   OH236167   6.900   1.864   3.790
12075TIP3    H136168   6.819   1.914   3.792
12075TIP3    H236169   6.874   1.777   3.760
12076TIP3   OH236170   3.754   0.075   1.688
12076TIP3    H136171   3.809   0.048   1.762
12076TIP3    H236172   3.674   0.110   1.729
12077TIP3   OH236173   7.046   5.280   5.881
12077TIP3    H136174   6.987   5.351   5.906
12077TIP3    H236175   7.074   5.242   5.965
12078TIP3   OH236176   6.770   3.727   1.187
12078TIP3    H136177   6.845   3.767   1.232
12078TIP3    H236178   6.766   3.638   1.223
12079TIP3   OH236179   1.516   3.263   1.183
12079TIP3    H136180   1.467   3.182   1.187
12079TIP3    H236181   1.482   3.307   1.105
12080TIP3   OH236182   1.393   5.544   3.259
12080TIP3    H136183   1.420   5.636   3.256
12080TIP3    H236184   1.345   5.536   3.341
12081TIP3   OH236185   1.465   0.120   1.362
12081TIP3    H136186   1.424   0.091   1.281
12081TIP3    H236187   1.464   0.216   1.357
12082TIP3   OH236188   0.245   7.083   5.357
12082TIP3    H136189   0.188   7.016   5.319
12082TIP3    H236190   0.291   7.121   5.282
12083TIP3   OH236191   4.115   5.837   5.023
12083TIP3    H136192   4.186   5.836   5.088
12083TIP3    H236193   4.090   5.929   5.016
12084TIP3   OH236194   2.537   6.981   5.168
12084TIP3    H136195   2.527   6.902   5.221
12084TIP3    H236196   2.552   7.051   5.232
12085TIP3   OH236197   7.254   2.979   4.264
12085TIP3    H136198   7.182   2.975   4.202
12085TIP3    H236199   7.217   3.022   4.341
12086TIP3   OH236200   1.324   1.809   1.342
12086TIP3    H136201   1.358   1.758   1.269
12086TIP3    H236202   1.359   1.897   1.328
12087TIP3   OH236203   1.965   0.522   2.482
12087TIP3    H136204   2.022   0.583   2.434
12087TIP3    H236205   1.913   0.578   2.539
12088TIP3   OH236206   2.752   4.635   4.765
12088TIP3    H136207   2.699   4.704   4.723
12088TIP3    H236208   2.796   4.592   4.693
12089TIP3   OH236209   5.914   0.251   2.838
12089TIP3    H136210   5.926   0.295   2.754
12089TIP3    H236211   5.898   0.159   2.816
12090TIP3   OH236212   4.472   2.956   2.850
12090TIP3    H136213   4.481   3.000   2.935
12090TIP3    H236214   4.418   3.016   2.798
12091TIP3   OH236215   2.111   1.251   2.641
12091TIP3    H136216   2.142   1.341   2.655
12091TIP3    H236217   2.170   1.196   2.692
12092TIP3   OH236218   7.587   4.697   5.284
12092TIP3    H136219   7.583   4.651   5.368
12092TIP3    H236220   7.661   4.656   5.238
12093TIP3   OH236221   4.123   1.670   3.296
12093TIP3    H136222   4.212   1.660   3.330
12093TIP3    H236223   4.067   1.658   3.373
12094TIP3   OH236224   5.734   1.672   1.559
12094TIP3    H136225   5.827   1.673   1.535
12094TIP3    H236226   5.716   1.760   1.591
12095TIP3   OH236227   3.862   5.357   2.157
12095TIP3    H136228   3.809   5.426   2.119
12095TIP3    H236229   3.809   5.323   2.229
12096TIP3   OH236230   2.427   2.776   0.403
12096TIP3    H136231   2.423   2.715   0.330
12096TIP3    H236232   2.451   2.860   0.364
12097TIP3   OH236233   4.155   5.583   4.913
12097TIP3    H136234   4.076   5.530   4.904
12097TIP3    H236235   4.125   5.668   4.942
12098TIP3   OH236236   5.859   2.390   3.775
12098TIP3    H136237   5.870   2.337   3.696
12098TIP3    H236238   5.872   2.480   3.745
12099TIP3   OH236239   2.107   2.185   4.527
12099TIP3    H136240   2.069   2.120   4.468
12099TIP3    H236241   2.202   2.170   4.522
12100TIP3   OH236242   7.915   1.278   4.692
12100TIP3    H136243   7.869   1.265   4.775
12100TIP3    H236244   7.968   1.357   4.706
12101TIP3   OH236245   4.404   4.253   0.433
12101TIP3    H136246   4.440   4.340   0.451
12101TIP3    H236247   4.319   4.253   0.475
12102TIP3   OH236248   6.117   2.170   3.738
12102TIP3    H136249   6.048   2.205   3.681
12102TIP3    H236250   6.186   2.142   3.678
12103TIP3   OH236251   4.577   3.287   0.600
12103TIP3    H136252   4.490   3.316   0.571
12103TIP3    H236253   4.560   3.209   0.652
12104TIP3   OH236254   3.247   7.209   0.818
12104TIP3    H136255   3.201   7.215   0.901
12104TIP3    H236256   3.327   7.258   0.831
12105TIP3   OH236257   2.002   6.632   5.387
12105TIP3    H136258   1.928   6.689   5.366
12105TIP3    H236259   2.002   6.626   5.482
12106TIP3   OH236260   3.912   2.028   5.315
12106TIP3    H136261   3.978   2.086   5.277
12106TIP3    H236262   3.949   1.940   5.303
12107TIP3   OH236263   3.157   4.596   3.145
12107TIP3    H136264   3.149   4.682   3.187
12107TIP3    H236265   3.251   4.583   3.133
12108TIP3   OH236266   7.300   3.841   0.871
12108TIP3    H136267   7.233   3.884   0.818
12108TIP3    H236268   7.318   3.759   0.825
12109TIP3   OH236269   3.776   3.781   3.254
12109TIP3    H136270   3.814   3.852   3.306
12109TIP3    H236271   3.718   3.736   3.315
12110TIP3   OH236272   2.836   6.400   1.931
12110TIP3    H136273   2.842   6.305   1.939
12110TIP3    H236274   2.760   6.424   1.984
12111TIP3   OH236275   4.132   3.251   0.038
12111TIP3    H136276   4.177   3.332   0.016
12111TIP3    H236277   4.121   3.207  -0.046
12112TIP3   OH236278   6.477   6.052   5.527
12112TIP3    H136279   6.497   6.135   5.482
12112TIP3    H236280   6.390   6.065   5.563
12113TIP3   OH236281   5.497   0.169   2.939
12113TIP3    H136282   5.569   0.133   2.991
12113TIP3    H236283   5.431   0.100   2.939
12114TIP3   OH236284   0.218   5.305   3.766
12114TIP3    H136285   0.216   5.294   3.861
12114TIP3    H236286   0.199   5.398   3.753
12115TIP3   OH236287   0.781   0.947   3.668
12115TIP3    H136288   0.830   0.924   3.590
12115TIP3    H236289   0.808   0.883   3.734
12116TIP3   OH236290   0.524   2.935   0.462
12116TIP3    H136291   0.497   2.861   0.407
12116TIP3    H236292   0.443   2.984   0.477
12117TIP3   OH236293   1.388   6.832   5.666
12117TIP3    H136294   1.482   6.823   5.651
12117TIP3    H236295   1.356   6.742   5.672
12118TIP3   OH236296   6.051   3.997   3.092
12118TIP3    H136297   6.068   3.919   3.039
12118TIP3    H236298   6.013   4.060   3.030
12119TIP3   OH236299   2.391   4.436   2.050
12119TIP3    H136300   2.390   4.507   2.114
12119TIP3    H236301   2.369   4.358   2.101
12120TIP3   OH236302   1.694   7.188   4.892
12120TIP3    H136303   1.675   7.282   4.889
12120TIP3    H236304   1.610   7.146   4.875
12121TIP3   OH236305   7.183   6.147   3.118
12121TIP3    H136306   7.161   6.199   3.041
12121TIP3    H236307   7.100   6.106   3.143
12122TIP3   OH236308   7.014   5.296   1.614
12122TIP3    H136309   6.971   5.240   1.679
12122TIP3    H236310   7.001   5.385   1.647
12123TIP3   OH236311   0.028   2.916   4.221
12123TIP3    H136312   0.005   2.997   4.266
12123TIP3    H236313   0.054   2.944   4.133
12124TIP3   OH236314   2.749   3.340   6.062
12124TIP3    H136315   2.751   3.401   6.135
12124TIP3    H236316   2.838   3.306   6.056
12125TIP3   OH236317   8.123   6.539   3.079
12125TIP3    H136318   8.168   6.622   3.071
12125TIP3    H236319   8.035   6.556   3.046
12126TIP3   OH236320   7.794   6.870   5.210
12126TIP3    H136321   7.774   6.806   5.279
12126TIP3    H236322   7.776   6.823   5.128
12127TIP3   OH236323   2.179   6.241   3.958
12127TIP3    H136324   2.217   6.268   3.874
12127TIP3    H236325   2.146   6.322   3.997
12128TIP3   OH236326   6.294   0.418   2.171
12128TIP3    H136327   6.335   0.491   2.124
12128TIP3    H236328   6.251   0.367   2.102
12129TIP3   OH236329   4.893   6.596   3.472
12129TIP3    H136330   4.969   6.647   3.444
12129TIP3    H236331   4.876   6.536   3.400
12130TIP3   OH236332   1.203   3.940   0.650
12130TIP3    H136333   1.143   3.912   0.719
12130TIP3    H236334   1.147   3.983   0.585
12131TIP3   OH236335   4.700   4.718   2.776
12131TIP3    H136336   4.756   4.794   2.760
12131TIP3    H236337   4.621   4.736   2.725
12132TIP3   OH236338   5.701   4.105   2.017
12132TIP3    H136339   5.659   4.166   2.077
12132TIP3    H236340   5.695   4.148   1.931
12133TIP3   OH236341   6.897   7.704   2.854
12133TIP3    H136342   6.830   7.651   2.810
12133TIP3    H236343   6.847   7.774   2.897
12134TIP3   OH236344   6.833   2.335   4.064
12134TIP3    H136345   6.827   2.280   3.986
12134TIP3    H236346   6.910   2.303   4.110
12135TIP3   OH236347   8.024   2.201   2.534
12135TIP3    H136348   7.968   2.216   2.609
12135TIP3    H236349   8.100   2.257   2.549
12136TIP3   OH236350   1.915   7.529   4.288
12136TIP3    H136351   1.928   7.597   4.222
12136TIP3    H236352   1.829   7.492   4.268
12137TIP3   OH236353   5.734   3.575   2.290
12137TIP3    H136354   5.688   3.648   2.331
12137TIP3    H236355   5.730   3.505   2.355
12138TIP3   OH236356   7.958   6.160   3.954
12138TIP3    H136357   7.962   6.160   4.049
12138TIP3    H236358   7.941   6.251   3.930
12139TIP3   OH236359   3.487   5.072   4.906
12139TIP3    H136360   3.472   5.017   4.982
12139TIP3    H236361   3.457   5.159   4.932
12140TIP3   OH236362   7.349   3.976   1.694
12140TIP3    H136363   7.281   3.976   1.761
12140TIP3    H236364   7.428   3.948   1.740
12141TIP3   OH236365   3.750   2.397   4.110
12141TIP3    H136366   3.804   2.322   4.134
12141TIP3    H236367   3.812   2.469   4.099
12142TIP3   OH236368   2.853   0.606   5.721
12142TIP3    H136369   2.848   0.674   5.788
12142TIP3    H236370   2.776   0.552   5.736
12143TIP3   OH236371   0.913   4.090   3.478
12143TIP3    H136372   0.975   4.130   3.539
12143TIP3    H236373   0.898   4.157   3.411
12144TIP3   OH236374   2.282   1.743   4.359
12144TIP3    H136375   2.214   1.708   4.301
12144TIP3    H236376   2.355   1.762   4.300
12145TIP3   OH236377   3.534   4.070   4.845
12145TIP3    H136378   3.483   4.032   4.773
12145TIP3    H236379   3.468   4.111   4.902
12146TIP3   OH236380   0.723   4.466   1.899
12146TIP3    H136381   0.757   4.377   1.891
12146TIP3    H236382   0.764   4.514   1.827
12147TIP3   OH236383   7.068   3.637   4.451
12147TIP3    H136384   6.991   3.684   4.420
12147TIP3    H236385   7.105   3.595   4.373
12148TIP3   OH236386   6.332   2.884   6.754
12148TIP3    H136387   6.395   2.927   6.697
12148TIP3    H236388   6.266   2.951   6.772
12149TIP3   OH236389   7.526   1.115   2.402
12149TIP3    H136390   7.531   1.101   2.307
12149TIP3    H236391   7.535   1.210   2.413
12150TIP3   OH236392   5.064   6.208   5.700
12150TIP3    H136393   5.102   6.271   5.639
12150TIP3    H236394   5.121   6.132   5.695
12151TIP3   OH236395   4.761   3.622   1.583
12151TIP3    H136396   4.797   3.695   1.533
12151TIP3    H236397   4.823   3.610   1.655
12152TIP3   OH236398   6.123   2.591   4.607
12152TIP3    H136399   6.049   2.532   4.621
12152TIP3    H236400   6.171   2.588   4.690
12153TIP3   OH236401   7.411   4.203   4.525
12153TIP3    H136402   7.462   4.171   4.450
12153TIP3    H236403   7.357   4.273   4.489
12154TIP3   OH236404   7.312   2.592   4.795
12154TIP3    H136405   7.233   2.622   4.839
12154TIP3    H236406   7.310   2.497   4.805
12155TIP3   OH236407   5.868   3.960   1.753
12155TIP3    H136408   5.809   4.024   1.793
12155TIP3    H236409   5.825   3.936   1.670
12156TIP3   OH236410   1.334   5.473   4.931
12156TIP3    H136411   1.297   5.431   5.009
12156TIP3    H236412   1.416   5.426   4.915
12157TIP3   OH236413   7.343   2.777   6.015
12157TIP3    H136414   7.374   2.711   5.952
12157TIP3    H236415   7.415   2.840   6.021
12158TIP3   OH236416   7.968   2.839   2.201
12158TIP3    H136417   7.967   2.934   2.186
12158TIP3    H236418   8.008   2.802   2.122
12159TIP3   OH236419   4.650   0.498   2.243
12159TIP3    H136420   4.614   0.508   2.155
12159TIP3    H236421   4.574   0.501   2.300
12160TIP3   OH236422   4.961   6.351   0.427
12160TIP3    H136423   4.927   6.431   0.388
12160TIP3    H236424   4.887   6.290   0.424
12161TIP3   OH236425   5.609   5.793   5.713
12161TIP3    H136426   5.600   5.830   5.625
12161TIP3    H236427   5.650   5.863   5.764
12162TIP3   OH236428   4.228   6.197   0.139
12162TIP3    H136429   4.212   6.290   0.127
12162TIP3    H236430   4.232   6.161   0.051
12163TIP3   OH236431   0.599   1.424   0.759
12163TIP3    H136432   0.611   1.374   0.840
12163TIP3    H236433   0.504   1.437   0.753
12164TIP3   OH236434   5.269   4.918   3.495
12164TIP3    H136435   5.337   4.850   3.496
12164TIP3    H236436   5.193   4.875   3.455
12165TIP3   OH236437   7.261  -0.008   2.696
12165TIP3    H136438   7.281   0.085   2.689
12165TIP3    H236439   7.194  -0.023   2.629
12166TIP3   OH236440   4.590   4.123   6.668
12166TIP3    H136441   4.579   4.218   6.664
12166TIP3    H236442   4.652   4.109   6.740
12167TIP3   OH236443   3.112   7.567   0.250
12167TIP3    H136444   3.060   7.637   0.211
12167TIP3    H236445   3.048   7.511   0.294
12168TIP3   OH236446   6.854   7.199   2.255
12168TIP3    H136447   6.844   7.105   2.264
12168TIP3    H236448   6.783   7.225   2.195
12169TIP3   OH236449   8.220   2.752   1.378
12169TIP3    H136450   8.174   2.726   1.458
12169TIP3    H236451   8.310   2.723   1.390
12170TIP3   OH236452   0.171   0.680   5.863
12170TIP3    H136453   0.138   0.604   5.910
12170TIP3    H236454   0.114   0.688   5.787
12171TIP3   OH236455   0.522   0.390   3.855
12171TIP3    H136456   0.605   0.415   3.814
12171TIP3    H236457   0.545   0.375   3.947
12172TIP3   OH236458   2.797   5.852   4.229
12172TIP3    H136459   2.733   5.912   4.266
12172TIP3    H236460   2.830   5.803   4.304
12173TIP3   OH236461   7.801   6.977   0.889
12173TIP3    H136462   7.785   7.070   0.909
12173TIP3    H236463   7.896   6.969   0.890
12174TIP3   OH236464   0.607   2.420   1.576
12174TIP3    H136465   0.560   2.340   1.555
12174TIP3    H236466   0.542   2.475   1.620
12175TIP3   OH236467   5.893   6.782   4.644
12175TIP3    H136468   5.837   6.839   4.698
12175TIP3    H236469   5.894   6.699   4.690
12176TIP3   OH236470   1.478   0.681   6.431
12176TIP3    H136471   1.480   0.586   6.419
12176TIP3    H236472   1.493   0.717   6.343
12177TIP3   OH236473   3.384   2.283   2.922
12177TIP3    H136474   3.433   2.211   2.960
12177TIP3    H236475   3.302   2.285   2.971
12178TIP3   OH236476   4.143   0.689   6.420
12178TIP3    H136477   4.142   0.662   6.511
12178TIP3    H236478   4.186   0.775   6.420
12179TIP3   OH236479   4.370   1.499   4.289
12179TIP3    H136480   4.448   1.443   4.291
12179TIP3    H236481   4.313   1.458   4.225
12180TIP3   OH236482   1.130   5.090   4.554
12180TIP3    H136483   1.189   5.127   4.487
12180TIP3    H236484   1.042   5.109   4.521
12181TIP3   OH236485   1.413   2.069   5.404
12181TIP3    H136486   1.333   2.050   5.452
12181TIP3    H236487   1.461   1.987   5.404
12182TIP3   OH236488   8.124   2.464   1.962
12182TIP3    H136489   8.138   2.431   1.873
12182TIP3    H236490   8.045   2.418   1.991
12183TIP3   OH236491   6.281   4.266   1.758
12183TIP3    H136492   6.205   4.233   1.806
12183TIP3    H236493   6.301   4.198   1.694
12184TIP3   OH236494   0.219   1.350   4.239
12184TIP3    H136495   0.278   1.279   4.214
12184TIP3    H236496   0.210   1.403   4.159
12185TIP3   OH236497   0.211   5.376   1.446
12185TIP3    H136498   0.180   5.419   1.525
12185TIP3    H236499   0.260   5.300   1.477
12186TIP3   OH236500   8.164   2.688   1.016
12186TIP3    H136501   8.257   2.674   1.031
12186TIP3    H236502   8.158   2.773   0.973
12187TIP3   OH236503   3.879   6.355   5.188
12187TIP3    H136504   3.929   6.420   5.237
12187TIP3    H236505   3.877   6.279   5.245
12188TIP3   OH236506   3.085   5.012   6.378
12188TIP3    H136507   3.152   5.067   6.418
12188TIP3    H236508   3.064   5.055   6.295
12189TIP3   OH236509   1.135   1.031   3.955
12189TIP3    H136510   1.057   0.990   3.992
12189TIP3    H236511   1.184   0.958   3.916
12190TIP3   OH236512   7.301   2.700   3.808
12190TIP3    H136513   7.320   2.790   3.835
12190TIP3    H236514   7.231   2.708   3.744
12191TIP3   OH236515   6.421   2.218   4.871
12191TIP3    H136516   6.350   2.252   4.925
12191TIP3    H236517   6.491   2.282   4.880
12192TIP3   OH236518   5.664   5.000   3.452
12192TIP3    H136519   5.741   5.055   3.467
12192TIP3    H236520   5.592   5.051   3.488
12193TIP3   OH236521   4.405   3.650   5.647
12193TIP3    H136522   4.448   3.607   5.721
12193TIP3    H236523   4.447   3.736   5.642
12194TIP3   OH236524   2.676   0.260   3.244
12194TIP3    H136525   2.637   0.218   3.321
12194TIP3    H236526   2.632   0.345   3.239
12195TIP3   OH236527   2.025   0.688   5.845
12195TIP3    H136528   2.015   0.782   5.860
12195TIP3    H236529   1.937   0.658   5.819
12196TIP3   OH236530   1.802   4.618   1.232
12196TIP3    H136531   1.750   4.697   1.244
12196TIP3    H236532   1.863   4.618   1.305
12197TIP3   OH236533   6.696   0.730   0.085
12197TIP3    H136534   6.604   0.756   0.076
12197TIP3    H236535   6.715   0.745   0.177
12198TIP3   OH236536   5.289   5.332   4.522
12198TIP3    H136537   5.255   5.266   4.462
12198TIP3    H236538   5.268   5.298   4.609
12199TIP3   OH236539   0.640   5.394   0.640
12199TIP3    H136540   0.711   5.458   0.638
12199TIP3    H236541   0.610   5.394   0.731
12200TIP3   OH236542   7.542   7.234   6.661
12200TIP3    H136543   7.510   7.249   6.572
12200TIP3    H236544   7.637   7.232   6.653
12201TIP3   OH236545   5.552   1.778   2.893
12201TIP3    H136546   5.611   1.824   2.833
12201TIP3    H236547   5.511   1.711   2.839
12202TIP3   OH236548   7.850   6.826   3.052
12202TIP3    H136549   7.866   6.759   2.986
12202TIP3    H236550   7.790   6.887   3.010
12203TIP3   OH236551   4.167   3.964   4.753
12203TIP3    H136552   4.192   3.949   4.844
12203TIP3    H236553   4.203   4.050   4.732
12204TIP3   OH236554   8.125   3.712   1.098
12204TIP3    H136555   8.089   3.776   1.037
12204TIP3    H236556   8.105   3.627   1.059
12205TIP3   OH236557   5.553   1.402   5.634
12205TIP3    H136558   5.584   1.330   5.579
12205TIP3    H236559   5.496   1.361   5.698
12206TIP3   OH236560   6.982   1.580   5.698
12206TIP3    H136561   6.934   1.566   5.617
12206TIP3    H236562   6.931   1.646   5.745
12207TIP3   OH236563   6.902   0.304   3.038
12207TIP3    H136564   6.930   0.314   3.129
12207TIP3    H236565   6.948   0.227   3.006
12208TIP3   OH236566   2.049   7.723   4.113
12208TIP3    H136567   2.128   7.728   4.060
12208TIP3    H236568   1.979   7.754   4.056
12209TIP3   OH236569   1.059   6.447   4.370
12209TIP3    H136570   1.076   6.410   4.457
12209TIP3    H236571   0.974   6.413   4.345
12210TIP3   OH236572   7.290   7.700   1.095
12210TIP3    H136573   7.347   7.684   1.171
12210TIP3    H236574   7.206   7.660   1.120
12211TIP3   OH236575   2.304   2.127   1.294
12211TIP3    H136576   2.310   2.203   1.351
12211TIP3    H236577   2.278   2.055   1.352
12212TIP3   OH236578   8.218   1.033   5.898
12212TIP3    H136579   8.168   0.957   5.930
12212TIP3    H236580   8.307   1.000   5.886
12213TIP3   OH236581   4.340   0.631   6.668
12213TIP3    H136582   4.248   0.606   6.681
12213TIP3    H236583   4.367   0.665   6.753
12214TIP3   OH236584   0.770   6.704   3.031
12214TIP3    H136585   0.710   6.775   3.055
12214TIP3    H236586   0.850   6.748   3.004
12215TIP3   OH236587   1.541   0.249   3.365
12215TIP3    H136588   1.532   0.154   3.369
12215TIP3    H236589   1.635   0.265   3.369
12216TIP3   OH236590   3.336   0.593   2.733
12216TIP3    H136591   3.270   0.526   2.747
12216TIP3    H236592   3.404   0.574   2.798
12217TIP3   OH236593   7.206   6.307   3.643
12217TIP3    H136594   7.184   6.284   3.733
12217TIP3    H236595   7.148   6.380   3.623
12218TIP3   OH236596   7.062   3.263   4.047
12218TIP3    H136597   7.086   3.267   3.955
12218TIP3    H236598   7.081   3.350   4.081
12219TIP3   OH236599   4.118   5.164   6.157
12219TIP3    H136600   4.068   5.241   6.186
12219TIP3    H236601   4.208   5.197   6.147
12220TIP3   OH236602   2.009   3.850   6.650
12220TIP3    H136603   1.970   3.818   6.569
12220TIP3    H236604   1.975   3.791   6.718
12221TIP3   OH236605   5.260   5.763   6.603
12221TIP3    H136606   5.216   5.683   6.631
12221TIP3    H236607   5.262   5.757   6.508
12222TIP3   OH236608   3.094   5.642   1.297
12222TIP3    H136609   3.063   5.688   1.219
12222TIP3    H236610   3.143   5.707   1.347
12223TIP3   OH236611   3.200   0.068   2.594
12223TIP3    H136612   3.125   0.112   2.554
12223TIP3    H236613   3.255   0.043   2.520
12224TIP3   OH236614   8.036   0.080   4.824
12224TIP3    H136615   8.004   0.095   4.913
12224TIP3    H236616   8.091   0.157   4.806
12225TIP3   OH236617   8.128   1.300   2.283
12225TIP3    H136618   8.050   1.338   2.242
12225TIP3    H236619   8.101   1.282   2.373
12226TIP3   OH236620   1.785   3.112   5.651
12226TIP3    H136621   1.777   3.208   5.654
12226TIP3    H236622   1.773   3.084   5.741
12227TIP3   OH236623   7.313   7.475   5.183
12227TIP3    H136624   7.347   7.390   5.211
12227TIP3    H236625   7.218   7.464   5.181
12228TIP3   OH236626   2.472   4.512   6.170
12228TIP3    H136627   2.427   4.594   6.190
12228TIP3    H236628   2.410   4.444   6.196
12229TIP3   OH236629   5.863   3.800   3.700
12229TIP3    H136630   5.852   3.709   3.672
12229TIP3    H236631   5.881   3.848   3.619
12230TIP3   OH236632   7.736   5.669   0.050
12230TIP3    H136633   7.658   5.615   0.036
12230TIP3    H236634   7.808   5.607   0.053
12231TIP3   OH236635   5.060   1.407   0.149
12231TIP3    H136636   5.090   1.353   0.075
12231TIP3    H236637   5.139   1.453   0.178
12232TIP3   OH236638   5.114   2.136   5.029
12232TIP3    H136639   5.135   2.076   5.101
12232TIP3    H236640   5.026   2.166   5.049
12233TIP3   OH236641   4.281   1.856   1.212
12233TIP3    H136642   4.246   1.802   1.283
12233TIP3    H236643   4.371   1.876   1.239
12234TIP3   OH236644   2.550   5.516   3.119
12234TIP3    H136645   2.645   5.513   3.135
12234TIP3    H236646   2.541   5.501   3.025
12235TIP3   OH236647   6.566   3.759   3.682
12235TIP3    H136648   6.569   3.795   3.593
12235TIP3    H236649   6.530   3.830   3.735
12236TIP3   OH236650   0.477   5.737   3.518
12236TIP3    H136651   0.567   5.754   3.490
12236TIP3    H236652   0.427   5.812   3.486
12237TIP3   OH236653   2.324   0.929   5.499
12237TIP3    H136654   2.275   0.876   5.437
12237TIP3    H236655   2.328   1.016   5.459
12238TIP3   OH236656   3.138   1.472   5.565
12238TIP3    H136657   3.112   1.550   5.614
12238TIP3    H236658   3.187   1.506   5.489
12239TIP3   OH236659   5.622   3.519   0.224
12239TIP3    H136660   5.579   3.493   0.142
12239TIP3    H236661   5.612   3.614   0.228
12240TIP3   OH236662   0.526   1.752   4.625
12240TIP3    H136663   0.567   1.813   4.686
12240TIP3    H236664   0.558   1.779   4.539
12241TIP3   OH236665   2.994   5.848   5.068
12241TIP3    H136666   2.945   5.772   5.098
12241TIP3    H236667   2.993   5.908   5.143
12242TIP3   OH236668   5.957   2.227   6.402
12242TIP3    H136669   5.902   2.248   6.327
12242TIP3    H236670   5.976   2.312   6.442
12243TIP3   OH236671   0.141   0.198   4.222
12243TIP3    H136672   0.178   0.120   4.179
12243TIP3    H236673   0.216   0.257   4.232
12244TIP3   OH236674   7.546   5.030   6.553
12244TIP3    H136675   7.487   5.077   6.494
12244TIP3    H236676   7.492   5.006   6.628
12245TIP3   OH236677   0.464   4.619   4.795
12245TIP3    H136678   0.549   4.597   4.756
12245TIP3    H236679   0.442   4.705   4.758
12246TIP3   OH236680   2.182   4.632   6.389
12246TIP3    H136681   2.252   4.653   6.327
12246TIP3    H236682   2.227   4.627   6.474
12247TIP3   OH236683   5.066   5.326   2.162
12247TIP3    H136684   5.076   5.421   2.156
12247TIP3    H236685   5.079   5.295   2.072
12248TIP3   OH236686   8.124   5.543   3.250
12248TIP3    H136687   8.202   5.490   3.268
12248TIP3    H236688   8.143   5.627   3.292
12249TIP3   OH236689   2.923   4.285   6.453
12249TIP3    H136690   2.899   4.217   6.516
12249TIP3    H236691   2.911   4.367   6.500
12250TIP3   OH236692   6.142   0.263   3.509
12250TIP3    H136693   6.232   0.256   3.538
12250TIP3    H236694   6.091   0.213   3.573
12251TIP3   OH236695   0.055   6.500   4.531
12251TIP3    H136696  -0.016   6.493   4.466
12251TIP3    H236697   0.123   6.442   4.497
12252TIP3   OH236698   2.161   2.631   6.070
12252TIP3    H136699   2.201   2.658   5.988
12252TIP3    H236700   2.153   2.712   6.121
12253TIP3   OH236701   6.781   1.655   3.685
12253TIP3    H136702   6.688   1.634   3.689
12253TIP3    H236703   6.818   1.593   3.623
12254TIP3   OH236704   2.270   2.050   6.190
12254TIP3    H136705   2.305   2.000   6.117
12254TIP3    H236706   2.223   1.986   6.243
12255TIP3   OH236707   1.332   2.460   5.062
12255TIP3    H136708   1.334   2.417   4.977
12255TIP3    H236709   1.303   2.393   5.123
12256TIP3   OH236710   7.660   7.223   0.832
12256TIP3    H136711   7.669   7.249   0.740
12256TIP3    H236712   7.714   7.285   0.880
12257TIP3   OH236713   6.322   3.371   0.344
12257TIP3    H136714   6.359   3.321   0.271
12257TIP3    H236715   6.248   3.419   0.306
12258TIP3   OH236716   4.064   2.590   0.368
12258TIP3    H136717   4.054   2.500   0.337
12258TIP3    H236718   4.088   2.640   0.290
12259TIP3   OH236719   3.175   6.260   1.281
12259TIP3    H136720   3.257   6.250   1.234
12259TIP3    H236721   3.165   6.355   1.292
12260TIP3   OH236722   4.787   2.724   4.139
12260TIP3    H136723   4.795   2.765   4.225
12260TIP3    H236724   4.874   2.688   4.121
12261TIP3   OH236725   8.179   4.479   6.240
12261TIP3    H136726   8.273   4.488   6.253
12261TIP3    H236727   8.147   4.441   6.323
12262TIP3   OH236728   6.164   3.941   6.776
12262TIP3    H136729   6.147   3.976   6.689
12262TIP3    H236730   6.101   3.871   6.787
12263TIP3   OH236731   4.020   2.686   3.268
12263TIP3    H136732   3.942   2.657   3.221
12263TIP3    H236733   4.093   2.652   3.216
12264TIP3   OH236734   6.269   0.146   0.906
12264TIP3    H136735   6.326   0.090   0.853
12264TIP3    H236736   6.184   0.101   0.905
12265TIP3   OH236737   5.691   2.055   5.554
12265TIP3    H136738   5.748   2.130   5.537
12265TIP3    H236739   5.730   2.012   5.630
12266TIP3   OH236740   6.571   6.820   6.179
12266TIP3    H136741   6.575   6.728   6.204
12266TIP3    H236742   6.662   6.849   6.180
12267TIP3   OH236743   7.779   0.439   5.806
12267TIP3    H136744   7.724   0.363   5.793
12267TIP3    H236745   7.720   0.514   5.795
12268TIP3   OH236746   2.761   0.969   2.858
12268TIP3    H136747   2.695   0.902   2.878
12268TIP3    H236748   2.834   0.920   2.820
12269TIP3   OH236749   1.357   2.016   0.386
12269TIP3    H136750   1.375   2.110   0.387
12269TIP3    H236751   1.329   1.998   0.296
12270TIP3   OH236752   2.162   6.502   0.350
12270TIP3    H136753   2.146   6.541   0.436
12270TIP3    H236754   2.075   6.474   0.320
12271TIP3   OH236755   1.931   3.111   5.292
12271TIP3    H136756   1.997   3.056   5.250
12271TIP3    H236757   1.975   3.195   5.304
12272TIP3   OH236758   3.522   1.553   3.205
12272TIP3    H136759   3.495   1.461   3.207
12272TIP3    H236760   3.611   1.551   3.172
12273TIP3   OH236761   3.980   5.476   1.113
12273TIP3    H136762   4.018   5.427   1.040
12273TIP3    H236763   4.034   5.454   1.188
12274TIP3   OH236764   7.373   1.947   0.511
12274TIP3    H136765   7.412   1.861   0.493
12274TIP3    H236766   7.286   1.942   0.472
12275TIP3   OH236767   7.685   1.633   6.054
12275TIP3    H136768   7.743   1.708   6.046
12275TIP3    H236769   7.738   1.567   6.099
12276TIP3   OH236770   5.772   6.029   4.906
12276TIP3    H136771   5.764   5.956   4.845
12276TIP3    H236772   5.864   6.055   4.901
12277TIP3   OH236773   5.969   1.330   5.815
12277TIP3    H136774   5.969   1.291   5.728
12277TIP3    H236775   5.879   1.360   5.828
12278TIP3   OH236776   4.982   2.333   4.498
12278TIP3    H136777   4.912   2.274   4.471
12278TIP3    H236778   4.945   2.421   4.488
12279TIP3   OH236779   3.516   7.074   5.472
12279TIP3    H136780   3.465   7.135   5.418
12279TIP3    H236781   3.536   7.001   5.413
12280TIP3   OH236782   2.061   5.752   1.503
12280TIP3    H136783   2.105   5.823   1.457
12280TIP3    H236784   2.099   5.753   1.591
12281TIP3   OH236785   3.986   6.921   1.918
12281TIP3    H136786   4.000   6.883   1.832
12281TIP3    H236787   4.046   6.995   1.921
12282TIP3   OH236788   3.875   0.355   5.144
12282TIP3    H136789   3.785   0.327   5.129
12282TIP3    H236790   3.877   0.377   5.237
12283TIP3   OH236791   0.140   7.128   5.992
12283TIP3    H136792   0.199   7.053   5.988
12283TIP3    H236793   0.077   7.106   6.060
12284TIP3   OH236794   2.795   2.715   0.149
12284TIP3    H136795   2.715   2.760   0.122
12284TIP3    H236796   2.825   2.763   0.226
12285TIP3   OH236797   1.324   5.348   3.104
12285TIP3    H136798   1.249   5.372   3.050
12285TIP3    H236799   1.337   5.422   3.163
12286TIP3   OH236800   6.636   5.902   4.263
12286TIP3    H136801   6.562   5.955   4.231
12286TIP3    H236802   6.699   5.903   4.191
12287TIP3   OH236803   2.499   7.463   3.296
12287TIP3    H136804   2.434   7.394   3.278
12287TIP3    H236805   2.567   7.418   3.347
12288TIP3   OH236806   1.480   1.643   5.154
12288TIP3    H136807   1.427   1.567   5.179
12288TIP3    H236808   1.553   1.606   5.105
12289TIP3   OH236809   0.989   7.730   1.410
12289TIP3    H136810   1.005   7.789   1.483
12289TIP3    H236811   1.012   7.643   1.444
12290TIP3   OH236812   1.271   6.849   1.961
12290TIP3    H136813   1.232   6.762   1.972
12290TIP3    H236814   1.238   6.900   2.035
12291TIP3   OH236815   0.353   1.072   4.900
12291TIP3    H136816   0.369   1.154   4.852
12291TIP3    H236817   0.388   1.004   4.843
12292TIP3   OH236818   2.358   0.490   4.003
12292TIP3    H136819   2.421   0.552   4.039
12292TIP3    H236820   2.382   0.406   4.043
12293TIP3   OH236821   2.714   1.464   3.509
12293TIP3    H136822   2.707   1.507   3.595
12293TIP3    H236823   2.626   1.432   3.491
12294TIP3   OH236824   3.011   5.090   5.618
12294TIP3    H136825   3.047   5.075   5.530
12294TIP3    H236826   2.916   5.080   5.607
12295TIP3   OH236827   6.775   3.270   6.247
12295TIP3    H136828   6.691   3.315   6.241
12295TIP3    H236829   6.838   3.338   6.267
12296TIP3   OH236830   7.811   3.368   1.083
12296TIP3    H136831   7.888   3.422   1.066
12296TIP3    H236832   7.835   3.281   1.053
12297TIP3   OH236833   7.979   4.623   1.250
12297TIP3    H136834   7.911   4.672   1.296
12297TIP3    H236835   8.050   4.686   1.238
12298TIP3   OH236836   0.526   5.729   2.044
12298TIP3    H136837   0.617   5.706   2.025
12298TIP3    H236838   0.483   5.645   2.060
12299TIP3   OH236839   7.093   1.175   1.924
12299TIP3    H136840   7.081   1.201   2.016
12299TIP3    H236841   7.151   1.098   1.929
12300TIP3   OH236842   6.846   2.575   0.303
12300TIP3    H136843   6.854   2.511   0.233
12300TIP3    H236844   6.869   2.658   0.262
12301TIP3   OH236845   3.535   6.865   0.498
12301TIP3    H136846   3.626   6.880   0.473
12301TIP3    H236847   3.502   6.803   0.433
12302TIP3   OH236848   0.964   4.178   2.407
12302TIP3    H136849   1.052   4.212   2.394
12302TIP3    H236850   0.912   4.216   2.336
12303TIP3   OH236851   5.689   6.992   3.783
12303TIP3    H136852   5.641   7.035   3.712
12303TIP3    H236853   5.749   7.058   3.816
12304TIP3   OH236854   3.865   5.312   1.737
12304TIP3    H136855   3.874   5.217   1.737
12304TIP3    H236856   3.771   5.327   1.725
12305TIP3   OH236857   2.020   6.772   6.205
12305TIP3    H136858   2.107   6.808   6.226
12305TIP3    H236859   1.975   6.843   6.160
12306TIP3   OH236860   5.633   2.412   3.509
12306TIP3    H136861   5.594   2.459   3.583
12306TIP3    H236862   5.639   2.477   3.440
12307TIP3   OH236863   6.040   6.564   6.530
12307TIP3    H136864   6.008   6.480   6.561
12307TIP3    H236865   6.017   6.566   6.437
12308TIP3   OH236866   6.561   3.552   6.331
12308TIP3    H136867   6.532   3.476   6.280
12308TIP3    H236868   6.490   3.568   6.394
12309TIP3   OH236869   0.841   1.721   5.195
12309TIP3    H136870   0.770   1.699   5.255
12309TIP3    H236871   0.914   1.665   5.223
12310TIP3   OH236872   8.164   2.049   2.845
12310TIP3    H136873   8.225   2.067   2.774
12310TIP3    H236874   8.220   2.029   2.920
12311TIP3   OH236875   2.150   1.835   2.081
12311TIP3    H136876   2.098   1.886   2.143
12311TIP3    H236877   2.115   1.747   2.087
12312TIP3   OH236878   2.016   7.552   5.214
12312TIP3    H136879   2.102   7.532   5.176
12312TIP3    H236880   2.036   7.579   5.304
12313TIP3   OH236881   0.369   0.369   6.427
12313TIP3    H136882   0.280   0.335   6.424
12313TIP3    H236883   0.381   0.413   6.343
12314TIP3   OH236884   0.942   5.426   2.690
12314TIP3    H136885   0.961   5.514   2.658
12314TIP3    H236886   1.018   5.374   2.663
12315TIP3   OH236887   0.669   5.432   6.375
12315TIP3    H136888   0.602   5.461   6.437
12315TIP3    H236889   0.752   5.450   6.419
12316TIP3   OH236890   3.446   1.736   0.965
12316TIP3    H136891   3.519   1.675   0.975
12316TIP3    H236892   3.387   1.716   1.038
12317TIP3   OH236893   8.182   3.418   1.040
12317TIP3    H136894   8.126   3.417   0.962
12317TIP3    H236895   8.135   3.367   1.105
12318TIP3   OH236896   4.780   6.254   5.905
12318TIP3    H136897   4.783   6.233   5.999
12318TIP3    H236898   4.775   6.168   5.862
12319TIP3   OH236899   1.619   5.041   2.019
12319TIP3    H136900   1.528   5.065   2.001
12319TIP3    H236901   1.628   4.953   1.984
12320TIP3   OH236902   1.465   3.724   4.582
12320TIP3    H136903   1.496   3.814   4.593
12320TIP3    H236904   1.544   3.670   4.594
12321TIP3   OH236905   6.691   3.366   2.456
12321TIP3    H136906   6.676   3.459   2.439
12321TIP3    H236907   6.717   3.330   2.371
12322TIP3   OH236908   6.067   3.040   2.257
12322TIP3    H136909   5.984   3.006   2.291
12322TIP3    H236910   6.092   2.977   2.189
12323TIP3   OH236911   0.357   1.640   0.812
12323TIP3    H136912   0.341   1.547   0.796
12323TIP3    H236913   0.289   1.665   0.875
12324TIP3   OH236914   3.192   3.024   3.636
12324TIP3    H136915   3.269   3.081   3.628
12324TIP3    H236916   3.216   2.945   3.588
12325TIP3   OH236917   1.755   4.592   3.133
12325TIP3    H136918   1.662   4.614   3.137
12325TIP3    H236919   1.773   4.550   3.217
12326TIP3   OH236920   2.409   3.930   5.852
12326TIP3    H136921   2.376   4.000   5.795
12326TIP3    H236922   2.497   3.958   5.875
12327TIP3   OH236923   0.793   7.601   6.662
12327TIP3    H136924   0.844   7.632   6.586
12327TIP3    H236925   0.817   7.661   6.733
12328TIP3   OH236926   2.504   3.208   0.486
12328TIP3    H136927   2.500   3.168   0.399
12328TIP3    H236928   2.596   3.204   0.510
12329TIP3   OH236929   4.958   1.625   5.435
12329TIP3    H136930   4.913   1.648   5.354
12329TIP3    H236931   4.928   1.536   5.454
12330TIP3   OH236932   8.230   7.276   3.297
12330TIP3    H136933   8.188   7.362   3.302
12330TIP3    H236934   8.324   7.296   3.299
12331TIP3   OH236935   8.084   0.513   2.967
12331TIP3    H136936   8.057   0.568   2.893
12331TIP3    H236937   8.151   0.455   2.930
12332TIP3   OH236938   8.235   0.628   4.052
12332TIP3    H136939   8.195   0.612   4.138
12332TIP3    H236940   8.292   0.703   4.065
12333TIP3   OH236941   2.476   0.008   2.162
12333TIP3    H136942   2.525  -0.069   2.132
12333TIP3    H236943   2.543   0.069   2.193
12334TIP3   OH236944   4.311   5.064   5.296
12334TIP3    H136945   4.396   5.059   5.253
12334TIP3    H236946   4.292   5.157   5.302
12335TIP3   OH236947   3.531   3.654   0.832
12335TIP3    H136948   3.483   3.602   0.896
12335TIP3    H236949   3.617   3.668   0.873
12336TIP3   OH236950   0.180   5.971   3.807
12336TIP3    H136951   0.161   5.991   3.715
12336TIP3    H236952   0.119   6.026   3.857
12337TIP3   OH236953   3.128   0.359   1.421
12337TIP3    H136954   3.174   0.350   1.337
12337TIP3    H236955   3.043   0.318   1.406
12338TIP3   OH236956   2.141   1.089   4.233
12338TIP3    H136957   2.205   1.120   4.169
12338TIP3    H236958   2.158   1.142   4.311
12339TIP3   OH236959   7.540   0.884   1.815
12339TIP3    H136960   7.608   0.864   1.750
12339TIP3    H236961   7.541   0.808   1.873
12340TIP3   OH236962   4.636   2.944   5.662
12340TIP3    H136963   4.558   2.947   5.717
12340TIP3    H236964   4.688   2.872   5.698
12341TIP3   OH236965   2.369   0.549   3.597
12341TIP3    H136966   2.459   0.519   3.583
12341TIP3    H236967   2.340   0.580   3.511
12342TIP3   OH236968   3.836   0.462   2.294
12342TIP3    H136969   3.830   0.414   2.211
12342TIP3    H236970   3.818   0.397   2.361
12343TIP3   OH236971   5.252   0.401   1.142
12343TIP3    H136972   5.183   0.342   1.171
12343TIP3    H236973   5.250   0.473   1.205
12344TIP3   OH236974   4.314   5.550   4.209
12344TIP3    H136975   4.227   5.564   4.173
12344TIP3    H236976   4.332   5.457   4.191
12345TIP3   OH236977   1.165   6.154   4.565
12345TIP3    H136978   1.246   6.140   4.516
12345TIP3    H236979   1.096   6.125   4.505
12346TIP3   OH236980   6.386   0.177   1.651
12346TIP3    H136981   6.446   0.112   1.613
12346TIP3    H236982   6.413   0.260   1.612
12347TIP3   OH236983   2.849   7.643   5.764
12347TIP3    H136984   2.857   7.548   5.768
12347TIP3    H236985   2.821   7.660   5.674
12348TIP3   OH236986   1.201   4.622   3.662
12348TIP3    H136987   1.140   4.594   3.594
12348TIP3    H236988   1.175   4.573   3.740
12349TIP3   OH236989   1.083   6.788   3.730
12349TIP3    H136990   1.154   6.743   3.776
12349TIP3    H236991   1.127   6.844   3.667
12350TIP3   OH236992   2.485   0.272   6.721
12350TIP3    H136993   2.452   0.275   6.631
12350TIP3    H236994   2.543   0.348   6.728
12351TIP3   OH236995   2.991   2.270   3.664
12351TIP3    H136996   3.050   2.224   3.603
12351TIP3    H236997   2.924   2.308   3.608
12352TIP3   OH236998   1.139   3.786   1.909
12352TIP3    H136999   1.068   3.730   1.941
12352TIP3    H237000   1.102   3.831   1.833
12353TIP3   OH237001   0.396   7.726   4.815
12353TIP3    H137002   0.467   7.790   4.819
12353TIP3    H237003   0.343   7.745   4.892
12354TIP3   OH237004   2.834   1.143   0.760
12354TIP3    H137005   2.904   1.189   0.806
12354TIP3    H237006   2.798   1.209   0.700
12355TIP3   OH237007   1.200   6.247   4.053
12355TIP3    H137008   1.230   6.337   4.054
12355TIP3    H237009   1.104   6.253   4.057
12356TIP3   OH237010   8.255   7.069   5.397
12356TIP3    H137011   8.255   6.974   5.386
12356TIP3    H237012   8.344   7.090   5.423
12357TIP3   OH237013   1.460   5.050   2.271
12357TIP3    H137014   1.448   5.131   2.222
12357TIP3    H237015   1.491   5.078   2.357
12358TIP3   OH237016   1.623   4.216   5.341
12358TIP3    H137017   1.574   4.220   5.423
12358TIP3    H237018   1.631   4.307   5.313
12359TIP3   OH237019   3.286   1.994   6.605
12359TIP3    H137020   3.215   2.053   6.631
12359TIP3    H237021   3.362   2.051   6.594
12360TIP3   OH237022   7.635   5.536   5.603
12360TIP3    H137023   7.651   5.508   5.693
12360TIP3    H237024   7.540   5.547   5.597
12361TIP3   OH237025   5.740   4.765   1.756
12361TIP3    H137026   5.656   4.775   1.713
12361TIP3    H237027   5.728   4.804   1.843
12362TIP3   OH237028   6.795   2.383   1.262
12362TIP3    H137029   6.701   2.397   1.254
12362TIP3    H237030   6.823   2.356   1.174
12363TIP3   OH237031   5.020   1.694   1.320
12363TIP3    H137032   4.946   1.734   1.367
12363TIP3    H237033   5.080   1.666   1.390
12364TIP3   OH237034   2.413   2.125   6.716
12364TIP3    H137035   2.457   2.203   6.749
12364TIP3    H237036   2.411   2.064   6.790
12365TIP3   OH237037   4.750   1.358   0.090
12365TIP3    H137038   4.706   1.385   0.170
12365TIP3    H237039   4.835   1.403   0.093
12366TIP3   OH237040   5.851   7.522   4.316
12366TIP3    H137041   5.831   7.436   4.352
12366TIP3    H237042   5.904   7.504   4.239
12367TIP3   OH237043   6.718   5.357   0.925
12367TIP3    H137044   6.750   5.402   1.003
12367TIP3    H237045   6.713   5.265   0.951
12368TIP3   OH237046   0.975   5.436   3.060
12368TIP3    H137047   1.054   5.422   3.007
12368TIP3    H237048   0.923   5.499   3.010
12369TIP3   OH237049   4.413   0.415   6.343
12369TIP3    H137050   4.493   0.405   6.291
12369TIP3    H237051   4.441   0.464   6.421
12370TIP3   OH237052   3.464   0.278   3.600
12370TIP3    H137053   3.467   0.291   3.505
12370TIP3    H237054   3.533   0.215   3.618
12371TIP3   OH237055   2.027   2.119   5.561
12371TIP3    H137056   1.952   2.064   5.584
12371TIP3    H237057   1.987   2.202   5.532
12372TIP3   OH237058   1.656   0.663   0.974
12372TIP3    H137059   1.621   0.634   0.889
12372TIP3    H237060   1.751   0.668   0.959
12373TIP3   OH237061   2.994   6.792   2.141
12373TIP3    H137062   2.948   6.725   2.192
12373TIP3    H237063   2.933   6.865   2.138
12374TIP3   OH237064   7.498   1.217   0.982
12374TIP3    H137065   7.465   1.262   0.905
12374TIP3    H237066   7.450   1.134   0.984
12375TIP3   OH237067   1.578   5.199   6.621
12375TIP3    H137068   1.544   5.181   6.534
12375TIP3    H237069   1.512   5.254   6.663
12376TIP3   OH237070   6.065   5.739   0.438
12376TIP3    H137071   6.021   5.706   0.516
12376TIP3    H237072   6.055   5.669   0.373
12377TIP3   OH237073   2.834   6.170   2.557
12377TIP3    H137074   2.901   6.204   2.617
12377TIP3    H237075   2.801   6.247   2.511
12378TIP3   OH237076   2.156   4.225   5.969
12378TIP3    H137077   2.172   4.234   5.875
12378TIP3    H237078   2.066   4.257   5.981
12379TIP3   OH237079   5.206   5.691   0.433
12379TIP3    H137080   5.292   5.684   0.474
12379TIP3    H237081   5.153   5.740   0.497
12380TIP3   OH237082   3.584   5.952   2.135
12380TIP3    H137083   3.648   5.890   2.099
12380TIP3    H237084   3.630   6.035   2.139
12381TIP3   OH237085   1.244   3.243   0.846
12381TIP3    H137086   1.281   3.331   0.854
12381TIP3    H237087   1.155   3.252   0.881
12382TIP3   OH237088   5.146   6.848   2.394
12382TIP3    H137089   5.191   6.791   2.332
12382TIP3    H237090   5.211   6.865   2.462
12383TIP3   OH237091   4.984   0.952   3.538
12383TIP3    H137092   4.999   0.981   3.628
12383TIP3    H237093   4.933   0.871   3.547
12384TIP3   OH237094   5.602   6.926   1.239
12384TIP3    H137095   5.594   6.899   1.330
12384TIP3    H237096   5.665   6.863   1.201
12385TIP3   OH237097   6.517   5.362   3.001
12385TIP3    H137098   6.528   5.281   3.051
12385TIP3    H237099   6.426   5.361   2.973
12386TIP3   OH237100   6.957   3.464   1.059
12386TIP3    H137101   6.895   3.469   1.132
12386TIP3    H237102   6.963   3.555   1.028
12387TIP3   OH237103   0.333   2.985   4.762
12387TIP3    H137104   0.315   2.997   4.669
12387TIP3    H237105   0.325   2.890   4.775
12388TIP3   OH237106   6.207   0.421   0.790
12388TIP3    H137107   6.116   0.433   0.760
12388TIP3    H237108   6.212   0.328   0.811
12389TIP3   OH237109   2.347   7.458   3.941
12389TIP3    H137110   2.401   7.383   3.919
12389TIP3    H237111   2.409   7.529   3.958
12390TIP3   OH237112   1.577   3.237   2.422
12390TIP3    H137113   1.657   3.283   2.397
12390TIP3    H237114   1.511   3.306   2.429
12391TIP3   OH237115   6.599   0.682   0.636
12391TIP3    H137116   6.676   0.669   0.691
12391TIP3    H237117   6.537   0.614   0.664
12392TIP3   OH237118   4.056   6.015   0.837
12392TIP3    H137119   4.035   6.008   0.744
12392TIP3    H237120   4.111   6.093   0.844
12393TIP3   OH237121   5.164   3.097   2.445
12393TIP3    H137122   5.118   3.038   2.386
12393TIP3    H237123   5.099   3.165   2.465
12394TIP3   OH237124   5.184   6.530   1.402
12394TIP3    H137125   5.166   6.446   1.359
12394TIP3    H237126   5.218   6.585   1.333
12395TIP3   OH237127   4.865   4.264   4.080
12395TIP3    H137128   4.921   4.265   4.002
12395TIP3    H237129   4.783   4.304   4.051
12396TIP3   OH237130   6.978   0.988   3.031
12396TIP3    H137131   6.985   1.005   2.937
12396TIP3    H237132   7.050   0.928   3.050
12397TIP3   OH237133   0.860   1.173   0.930
12397TIP3    H137134   0.821   1.091   0.903
12397TIP3    H237135   0.790   1.219   0.976
12398TIP3   OH237136   6.266   7.067   0.552
12398TIP3    H137137   6.264   7.144   0.495
12398TIP3    H237138   6.249   6.993   0.494
12399TIP3   OH237139   2.866   6.274   4.545
12399TIP3    H137140   2.929   6.215   4.504
12399TIP3    H237141   2.782   6.231   4.535
12400TIP3   OH237142   7.841   3.262   0.350
12400TIP3    H137143   7.827   3.283   0.258
12400TIP3    H237144   7.904   3.190   0.350
12401TIP3   OH237145   1.972   5.668   2.002
12401TIP3    H137146   1.896   5.722   2.022
12401TIP3    H237147   2.008   5.707   1.922
12402TIP3   OH237148   3.110   1.772   0.409
12402TIP3    H137149   3.204   1.779   0.427
12402TIP3    H237150   3.100   1.687   0.365
12403TIP3   OH237151   6.764   5.164   0.722
12403TIP3    H137152   6.817   5.183   0.645
12403TIP3    H237153   6.773   5.241   0.777
12404TIP3   OH237154   1.892   4.073   0.124
12404TIP3    H137155   1.964   4.110   0.175
12404TIP3    H237156   1.931   3.997   0.079
12405TIP3   OH237157   4.345   3.042   3.307
12405TIP3    H137158   4.343   3.093   3.388
12405TIP3    H237159   4.333   2.951   3.335
12406TIP3   OH237160   6.130   2.836   4.902
12406TIP3    H137161   6.174   2.752   4.892
12406TIP3    H237162   6.053   2.817   4.957
12407TIP3   OH237163   4.045   1.653   1.001
12407TIP3    H137164   4.026   1.608   0.918
12407TIP3    H237165   4.121   1.707   0.983
12408TIP3   OH237166   2.128   6.234   2.041
12408TIP3    H137167   2.166   6.180   1.971
12408TIP3    H237168   2.034   6.220   2.032
12409TIP3   OH237169   2.176   7.090   4.514
12409TIP3    H137170   2.260   7.128   4.488
12409TIP3    H237171   2.153   7.137   4.594
12410TIP3   OH237172   2.718   0.249   0.756
12410TIP3    H137173   2.756   0.335   0.739
12410TIP3    H237174   2.721   0.240   0.852
12411TIP3   OH237175   0.802   4.887   5.965
12411TIP3    H137176   0.868   4.892   5.896
12411TIP3    H237177   0.722   4.861   5.920
12412TIP3   OH237178   4.606   4.193   0.697
12412TIP3    H137179   4.527   4.229   0.657
12412TIP3    H237180   4.639   4.131   0.633
12413TIP3   OH237181   6.072   5.704   2.170
12413TIP3    H137182   6.004   5.683   2.233
12413TIP3    H237183   6.053   5.794   2.142
12414TIP3   OH237184   3.653   5.091   0.202
12414TIP3    H137185   3.749   5.094   0.192
12414TIP3    H237186   3.627   5.182   0.215
12415TIP3   OH237187   3.638   0.549   0.244
12415TIP3    H137188   3.729   0.540   0.217
12415TIP3    H237189   3.588   0.551   0.163
12416TIP3   OH237190   7.641   3.421   3.457
12416TIP3    H137191   7.584   3.479   3.509
12416TIP3    H237192   7.603   3.334   3.468
12417TIP3   OH237193   4.700   3.610   5.074
12417TIP3    H137194   4.716   3.700   5.102
12417TIP3    H237195   4.770   3.592   5.011
12418TIP3   OH237196   4.302   1.925   1.818
12418TIP3    H137197   4.335   1.995   1.874
12418TIP3    H237198   4.376   1.866   1.807
12419TIP3   OH237199   1.025   1.655   0.832
12419TIP3    H137200   0.937   1.637   0.800
12419TIP3    H237201   1.083   1.610   0.771
12420TIP3   OH237202   1.497   2.620   6.625
12420TIP3    H137203   1.402   2.615   6.618
12420TIP3    H237204   1.516   2.594   6.715
12421TIP3   OH237205   6.410   2.950   0.728
12421TIP3    H137206   6.314   2.951   0.726
12421TIP3    H237207   6.434   2.879   0.668
12422TIP3   OH237208   0.016   6.968   6.567
12422TIP3    H137209   0.108   6.942   6.556
12422TIP3    H237210  -0.034   6.890   6.542
12423TIP3   OH237211   2.458   5.098   2.884
12423TIP3    H137212   2.466   5.155   2.960
12423TIP3    H237213   2.524   5.130   2.823
12424TIP3   OH237214   1.796   5.014   2.438
12424TIP3    H137215   1.883   4.974   2.445
12424TIP3    H237216   1.794   5.053   2.351
12425TIP3   OH237217   6.217   1.603   4.755
12425TIP3    H137218   6.307   1.577   4.737
12425TIP3    H237219   6.211   1.694   4.724
12426TIP3   OH237220   6.541   7.199   1.589
12426TIP3    H137221   6.549   7.115   1.543
12426TIP3    H237222   6.449   7.202   1.616
12427TIP3   OH237223   7.473   7.673   2.569
12427TIP3    H137224   7.416   7.737   2.612
12427TIP3    H237225   7.553   7.674   2.622
12428TIP3   OH237226   4.359   5.518   0.545
12428TIP3    H137227   4.354   5.508   0.450
12428TIP3    H237228   4.355   5.429   0.579
12429TIP3   OH237229   7.811   2.304   2.703
12429TIP3    H137230   7.828   2.342   2.789
12429TIP3    H237231   7.777   2.376   2.651
12430TIP3   OH237232   2.515   1.244   1.206
12430TIP3    H137233   2.458   1.281   1.273
12430TIP3    H237234   2.580   1.312   1.190
12431TIP3   OH237235   2.034   0.289   2.649
12431TIP3    H137236   1.998   0.352   2.587
12431TIP3    H237237   2.103   0.337   2.695
12432TIP3   OH237238   6.981   2.300   2.377
12432TIP3    H137239   7.040   2.254   2.437
12432TIP3    H237240   6.912   2.237   2.358
12433TIP3   OH237241   5.061   6.767   1.654
12433TIP3    H137242   5.060   6.798   1.563
12433TIP3    H237243   5.154   6.767   1.678
12434TIP3   OH237244   1.724   2.017   2.186
12434TIP3    H137245   1.682   2.099   2.161
12434TIP3    H237246   1.651   1.958   2.207
12435TIP3   OH237247   7.219   2.209   6.191
12435TIP3    H137248   7.186   2.286   6.145
12435TIP3    H237249   7.292   2.241   6.244
12436TIP3   OH237250   0.765   7.624   5.648
12436TIP3    H137251   0.679   7.589   5.624
12436TIP3    H237252   0.822   7.599   5.575
12437TIP3   OH237253   2.731   7.061   4.476
12437TIP3    H137254   2.660   7.076   4.539
12437TIP3    H237255   2.797   7.014   4.527
12438TIP3   OH237256   1.553   3.168   0.428
12438TIP3    H137257   1.484   3.150   0.365
12438TIP3    H237258   1.530   3.115   0.505
12439TIP3   OH237259   5.558   7.317   6.421
12439TIP3    H137260   5.517   7.321   6.335
12439TIP3    H237261   5.571   7.223   6.437
12440TIP3   OH237262   6.514   5.433   6.456
12440TIP3    H137263   6.443   5.409   6.397
12440TIP3    H237264   6.495   5.385   6.537
12441TIP3   OH237265   8.001   4.659   4.794
12441TIP3    H137266   8.047   4.723   4.739
12441TIP3    H237267   8.040   4.669   4.881
12442TIP3   OH237268   3.488   5.757   0.485
12442TIP3    H137269   3.407   5.791   0.447
12442TIP3    H237270   3.553   5.768   0.416
12443TIP3   OH237271   1.883   7.091   3.710
12443TIP3    H137272   1.851   7.181   3.704
12443TIP3    H237273   1.832   7.053   3.781
12444TIP3   OH237274   5.564   4.249   2.810
12444TIP3    H137275   5.545   4.215   2.897
12444TIP3    H237276   5.482   4.240   2.762
12445TIP3   OH237277   1.647   0.528   4.816
12445TIP3    H137278   1.687   0.530   4.729
12445TIP3    H237279   1.568   0.581   4.807
12446TIP3   OH237280   8.227   6.901   4.411
12446TIP3    H137281   8.232   6.963   4.338
12446TIP3    H237282   8.318   6.890   4.439
12447TIP3   OH237283   4.045   5.545   2.174
12447TIP3    H137284   4.106   5.492   2.225
12447TIP3    H237285   3.975   5.485   2.150
12448TIP3   OH237286   4.991   1.823   2.013
12448TIP3    H137287   4.954   1.792   2.096
12448TIP3    H237288   5.086   1.822   2.027
12449TIP3   OH237289   0.381   7.321   6.306
12449TIP3    H137290   0.421   7.307   6.391
12449TIP3    H237291   0.421   7.255   6.249
12450TIP3   OH237292   6.139   2.490   3.670
12450TIP3    H137293   6.193   2.549   3.722
12450TIP3    H237294   6.116   2.419   3.729
12451TIP3   OH237295   4.799   3.995   0.722
12451TIP3    H137296   4.743   4.007   0.799
12451TIP3    H237297   4.835   4.082   0.704
12452TIP3   OH237298   6.400   0.200   3.528
12452TIP3    H137299   6.395   0.200   3.432
12452TIP3    H237300   6.416   0.109   3.551
12453TIP3   OH237301   7.891   4.977   4.326
12453TIP3    H137302   7.858   4.936   4.246
12453TIP3    H237303   7.986   4.965   4.321
12454TIP3   OH237304   3.763   3.097   2.639
12454TIP3    H137305   3.726   3.114   2.552
12454TIP3    H237306   3.816   3.018   2.627
12455TIP3   OH237307   1.757   3.971   3.272
12455TIP3    H137308   1.689   3.929   3.220
12455TIP3    H237309   1.775   4.053   3.227
12456TIP3   OH237310   3.501   2.244   5.465
12456TIP3    H137311   3.521   2.158   5.503
12456TIP3    H237312   3.417   2.231   5.421
12457TIP3   OH237313   2.108   6.828   0.256
12457TIP3    H137314   2.180   6.814   0.317
12457TIP3    H237315   2.115   6.920   0.232
12458TIP3   OH237316   0.885   6.498   3.489
12458TIP3    H137317   0.970   6.514   3.529
12458TIP3    H237318   0.901   6.507   3.395
12459TIP3   OH237319   8.216   0.732   1.679
12459TIP3    H137320   8.236   0.823   1.700
12459TIP3    H237321   8.254   0.683   1.752
12460TIP3   OH237322   7.760   0.594   6.580
12460TIP3    H137323   7.726   0.558   6.662
12460TIP3    H237324   7.699   0.664   6.557
12461TIP3   OH237325   2.294   7.717   0.820
12461TIP3    H137326   2.389   7.731   0.826
12461TIP3    H237327   2.284   7.643   0.761
12462TIP3   OH237328   0.787   2.751   3.999
12462TIP3    H137329   0.796   2.707   4.083
12462TIP3    H237330   0.820   2.688   3.935
12463TIP3   OH237331   7.334   7.703   0.637
12463TIP3    H137332   7.257   7.652   0.662
12463TIP3    H237333   7.364   7.743   0.718
12464TIP3   OH237334   1.274   2.145   1.751
12464TIP3    H137335   1.308   2.229   1.718
12464TIP3    H237336   1.322   2.079   1.702
12465TIP3   OH237337   3.207   0.922   5.922
12465TIP3    H137338   3.237   0.839   5.960
12465TIP3    H237339   3.286   0.960   5.885
12466TIP3   OH237340   4.320   2.072   4.229
12466TIP3    H137341   4.320   2.046   4.137
12466TIP3    H237342   4.411   2.068   4.256
12467TIP3   OH237343   7.088   4.360   2.235
12467TIP3    H137344   7.171   4.406   2.247
12467TIP3    H237345   7.093   4.286   2.296
12468TIP3   OH237346   1.383   5.808   2.939
12468TIP3    H137347   1.346   5.887   2.978
12468TIP3    H237348   1.307   5.758   2.911
12469TIP3   OH237349   5.657   4.271   1.471
12469TIP3    H137350   5.751   4.261   1.486
12469TIP3    H237351   5.643   4.365   1.463
12470TIP3   OH237352   6.045   4.338   3.631
12470TIP3    H137353   6.084   4.421   3.656
12470TIP3    H237354   5.977   4.322   3.697
12471TIP3   OH237355   0.936   5.587   4.549
12471TIP3    H137356   0.889   5.658   4.592
12471TIP3    H237357   1.014   5.573   4.603
12472TIP3   OH237358   4.639   7.421   5.155
12472TIP3    H137359   4.714   7.450   5.104
12472TIP3    H237360   4.634   7.327   5.139
12473TIP3   OH237361   3.364   4.479   0.530
12473TIP3    H137362   3.404   4.473   0.617
12473TIP3    H237363   3.375   4.570   0.504
12474TIP3   OH237364   4.203   6.539   3.617
12474TIP3    H137365   4.237   6.508   3.701
12474TIP3    H237366   4.235   6.475   3.554
12475TIP3   OH237367   3.802   4.946   5.618
12475TIP3    H137368   3.717   4.963   5.659
12475TIP3    H237369   3.862   4.934   5.691
12476TIP3   OH237370   5.658   5.321   0.675
12476TIP3    H137371   5.613   5.239   0.654
12476TIP3    H237372   5.716   5.298   0.748
12477TIP3   OH237373   4.055   3.129   4.076
12477TIP3    H137374   4.114   3.071   4.124
12477TIP3    H237375   3.968   3.106   4.109
12478TIP3   OH237376   5.360   1.786   1.485
12478TIP3    H137377   5.382   1.792   1.578
12478TIP3    H237378   5.281   1.840   1.476
12479TIP3   OH237379   0.305   1.207   0.523
12479TIP3    H137380   0.248   1.130   0.524
12479TIP3    H237381   0.368   1.192   0.594
12480TIP3   OH237382   3.233   0.776   2.094
12480TIP3    H137383   3.143   0.760   2.125
12480TIP3    H237384   3.237   0.731   2.010
12481TIP3   OH237385   6.424   4.981   5.770
12481TIP3    H137386   6.330   4.974   5.783
12481TIP3    H237387   6.459   4.898   5.801
12482TIP3   OH237388   2.190   3.346   4.096
12482TIP3    H137389   2.218   3.279   4.034
12482TIP3    H237390   2.094   3.347   4.088
12483TIP3   OH237391   1.995   0.110   5.978
12483TIP3    H137392   1.986   0.176   6.047
12483TIP3    H237393   1.975   0.027   6.021
12484TIP3   OH237394   0.724   3.122   1.612
12484TIP3    H137395   0.742   3.051   1.551
12484TIP3    H237396   0.630   3.141   1.601
12485TIP3   OH237397   7.618   0.849   0.737
12485TIP3    H137398   7.648   0.765   0.701
12485TIP3    H237399   7.608   0.832   0.831
12486TIP3   OH237400   2.370   7.666   2.310
12486TIP3    H137401   2.327   7.744   2.276
12486TIP3    H237402   2.356   7.600   2.242
12487TIP3   OH237403   5.202   3.951   4.851
12487TIP3    H137404   5.263   3.886   4.815
12487TIP3    H237405   5.118   3.905   4.854
12488TIP3   OH237406   2.412   2.670   3.697
12488TIP3    H137407   2.450   2.646   3.781
12488TIP3    H237408   2.469   2.740   3.664
12489TIP3   OH237409   1.800   0.858   6.373
12489TIP3    H137410   1.832   0.772   6.345
12489TIP3    H237411   1.854   0.880   6.449
12490TIP3   OH237412   4.748   1.577   2.378
12490TIP3    H137413   4.751   1.593   2.473
12490TIP3    H237414   4.818   1.513   2.363
12491TIP3   OH237415   1.885   6.693   0.216
12491TIP3    H137416   1.973   6.732   0.213
12491TIP3    H237417   1.901   6.599   0.225
12492TIP3   OH237418   0.818   4.173   5.050
12492TIP3    H137419   0.847   4.111   5.117
12492TIP3    H237420   0.753   4.228   5.094
12493TIP3   OH237421   4.645   0.798   1.853
12493TIP3    H137422   4.709   0.846   1.907
12493TIP3    H237423   4.695   0.770   1.777
12494TIP3   OH237424   1.684   6.219   3.362
12494TIP3    H137425   1.662   6.132   3.395
12494TIP3    H237426   1.724   6.263   3.437
12495TIP3   OH237427   3.184   4.074   0.369
12495TIP3    H137428   3.185   3.984   0.401
12495TIP3    H237429   3.269   4.110   0.393
12496TIP3   OH237430   5.926   6.259   3.666
12496TIP3    H137431   5.859   6.315   3.628
12496TIP3    H237432   5.915   6.268   3.761
12497TIP3   OH237433   0.885   3.858   4.089
12497TIP3    H137434   0.832   3.791   4.131
12497TIP3    H237435   0.958   3.872   4.150
12498TIP3   OH237436   7.603   6.757   5.393
12498TIP3    H137437   7.657   6.783   5.468
12498TIP3    H237438   7.584   6.664   5.409
12499TIP3   OH237439   0.520   5.012   1.098
12499TIP3    H137440   0.606   4.970   1.096
12499TIP3    H237441   0.528   5.080   1.165
12500TIP3   OH237442   1.101   0.892   1.972
12500TIP3    H137443   1.148   0.975   1.976
12500TIP3    H237444   1.168   0.825   1.983
12501TIP3   OH237445   1.375   1.898   1.067
12501TIP3    H137446   1.453   1.936   1.026
12501TIP3    H237447   1.322   1.866   0.994
12502TIP3   OH237448   4.016   4.176   2.826
12502TIP3    H137449   3.945   4.119   2.798
12502TIP3    H237450   4.005   4.255   2.772
12503TIP3   OH237451   5.331   1.107   4.013
12503TIP3    H137452   5.341   1.170   3.942
12503TIP3    H237453   5.417   1.103   4.054
12504TIP3   OH237454   0.543   2.841   3.886
12504TIP3    H137455   0.582   2.927   3.872
12504TIP3    H237456   0.599   2.800   3.952
12505TIP3   OH237457   7.850   5.869   6.307
12505TIP3    H137458   7.895   5.821   6.238
12505TIP3    H237459   7.788   5.925   6.261
12506TIP3   OH237460   6.456   7.746   3.978
12506TIP3    H137461   6.400   7.731   3.901
12506TIP3    H237462   6.546   7.736   3.944
12507TIP3   OH237463   6.812   1.796   5.721
12507TIP3    H137464   6.726   1.816   5.756
12507TIP3    H237465   6.819   1.850   5.642
12508TIP3   OH237466   2.134   1.282   5.291
12508TIP3    H137467   2.104   1.276   5.382
12508TIP3    H237468   2.085   1.355   5.254
12509TIP3   OH237469   4.356   4.888   0.546
12509TIP3    H137470   4.411   4.835   0.489
12509TIP3    H237471   4.405   4.893   0.629
12510TIP3   OH237472   0.263   5.749   4.298
12510TIP3    H137473   0.347   5.768   4.255
12510TIP3    H237474   0.271   5.658   4.326
12511TIP3   OH237475   3.522   5.745   3.170
12511TIP3    H137476   3.485   5.833   3.175
12511TIP3    H237477   3.568   5.733   3.253
12512TIP3   OH237478   2.996   5.339   1.113
12512TIP3    H137479   2.923   5.397   1.136
12512TIP3    H237480   3.056   5.346   1.187
12513TIP3   OH237481   4.436   1.482   1.389
12513TIP3    H137482   4.486   1.560   1.361
12513TIP3    H237483   4.427   1.430   1.309
12514TIP3   OH237484   7.049   0.360   0.842
12514TIP3    H137485   7.084   0.313   0.767
12514TIP3    H237486   7.126   0.396   0.886
12515TIP3   OH237487   2.261   3.620   1.688
12515TIP3    H137488   2.284   3.623   1.781
12515TIP3    H237489   2.169   3.647   1.685
12516TIP3   OH237490   6.235   7.836   5.489
12516TIP3    H137491   6.259   7.832   5.396
12516TIP3    H237492   6.242   7.745   5.519
12517TIP3   OH237493   0.347   5.449   6.321
12517TIP3    H137494   0.395   5.454   6.404
12517TIP3    H237495   0.409   5.409   6.261
12518TIP3   OH237496   1.348   3.915   3.654
12518TIP3    H137497   1.278   3.879   3.600
12518TIP3    H237498   1.379   3.841   3.705
12519TIP3   OH237499   3.713   3.028   4.894
12519TIP3    H137500   3.763   3.054   4.817
12519TIP3    H237501   3.756   2.948   4.925
12520TIP3   OH237502   6.439   1.432   5.926
12520TIP3    H137503   6.435   1.349   5.879
12520TIP3    H237504   6.353   1.442   5.967
12521TIP3   OH237505   1.505   4.491   5.205
12521TIP3    H137506   1.426   4.443   5.230
12521TIP3    H237507   1.479   4.583   5.206
12522TIP3   OH237508   4.334   0.267   0.268
12522TIP3    H137509   4.390   0.196   0.300
12522TIP3    H237510   4.256   0.263   0.323
12523TIP3   OH237511   4.651   6.956   4.741
12523TIP3    H137512   4.707   6.879   4.730
12523TIP3    H237513   4.617   6.948   4.831
12524TIP3   OH237514   7.459   5.146   3.650
12524TIP3    H137515   7.499   5.166   3.735
12524TIP3    H237516   7.365   5.146   3.667
12525TIP3   OH237517   7.503   5.541   2.542
12525TIP3    H137518   7.590   5.577   2.561
12525TIP3    H237519   7.519   5.451   2.513
12526TIP3   OH237520   1.633   3.388   0.195
12526TIP3    H137521   1.550   3.434   0.184
12526TIP3    H237522   1.633   3.321   0.127
12527TIP3   OH237523   5.244   2.155   4.089
12527TIP3    H137524   5.260   2.130   4.180
12527TIP3    H237525   5.319   2.119   4.041
12528TIP3   OH237526   6.676   0.498   0.964
12528TIP3    H137527   6.747   0.542   0.917
12528TIP3    H237528   6.611   0.479   0.896
12529TIP3   OH237529   3.257   6.313   3.929
12529TIP3    H137530   3.336   6.261   3.938
12529TIP3    H237531   3.288   6.403   3.927
12530TIP3   OH237532   2.826   5.909   5.477
12530TIP3    H137533   2.814   5.919   5.571
12530TIP3    H237534   2.739   5.889   5.443
12531TIP3   OH237535   2.722   3.699   0.160
12531TIP3    H137536   2.749   3.706   0.069
12531TIP3    H237537   2.626   3.702   0.157
12532TIP3   OH237538   0.171   2.207   4.942
12532TIP3    H137539   0.223   2.129   4.963
12532TIP3    H237540   0.235   2.270   4.910
12533TIP3   OH237541   2.848   3.868   4.047
12533TIP3    H137542   2.795   3.789   4.058
12533TIP3    H237543   2.789   3.932   4.007
12534TIP3   OH237544   8.081   6.228   2.437
12534TIP3    H137545   8.012   6.276   2.484
12534TIP3    H237546   8.147   6.209   2.504
12535TIP3   OH237547   3.107   3.337   3.778
12535TIP3    H137548   3.152   3.354   3.695
12535TIP3    H237549   3.178   3.334   3.843
12536TIP3   OH237550   5.203   5.600   6.092
12536TIP3    H137551   5.179   5.684   6.054
12536TIP3    H237552   5.289   5.580   6.055
12537TIP3   OH237553   3.973   3.572   3.427
12537TIP3    H137554   3.949   3.557   3.336
12537TIP3    H237555   4.064   3.544   3.433
12538TIP3   OH237556   6.367   7.027   4.312
12538TIP3    H137557   6.287   6.994   4.352
12538TIP3    H237558   6.407   6.949   4.273
12539TIP3   OH237559   4.148   5.230   1.912
12539TIP3    H137560   4.067   5.188   1.885
12539TIP3    H237561   4.141   5.320   1.881
12540TIP3   OH237562   5.119   1.851   4.586
12540TIP3    H137563   5.188   1.916   4.579
12540TIP3    H237564   5.061   1.870   4.512
12541TIP3   OH237565   1.740   5.822   1.641
12541TIP3    H137566   1.662   5.849   1.593
12541TIP3    H237567   1.714   5.744   1.689
12542TIP3   OH237568   4.402   1.184   4.823
12542TIP3    H137569   4.463   1.161   4.753
12542TIP3    H237570   4.401   1.107   4.880
12543TIP3   OH237571   2.583   7.561   4.048
12543TIP3    H137572   2.593   7.549   4.142
12543TIP3    H237573   2.666   7.529   4.011
12544TIP3   OH237574   3.051   1.554   3.434
12544TIP3    H137575   3.035   1.461   3.415
12544TIP3    H237576   3.008   1.569   3.517
12545TIP3   OH237577   1.290   6.508   2.264
12545TIP3    H137578   1.372   6.540   2.226
12545TIP3    H237579   1.306   6.416   2.283
12546TIP3   OH237580   8.060   0.610   6.719
12546TIP3    H137581   8.036   0.521   6.746
12546TIP3    H237582   8.005   0.627   6.642
12547TIP3   OH237583   1.774   6.829   2.770
12547TIP3    H137584   1.731   6.915   2.765
12547TIP3    H237585   1.703   6.767   2.786
12548TIP3   OH237586   3.746   2.591   0.550
12548TIP3    H137587   3.829   2.637   0.565
12548TIP3    H237588   3.754   2.510   0.600
12549TIP3   OH237589   1.680   3.934   3.525
12549TIP3    H137590   1.690   3.970   3.437
12549TIP3    H237591   1.613   3.867   3.517
12550TIP3   OH237592   8.023   7.611   5.628
12550TIP3    H137593   8.057   7.692   5.591
12550TIP3    H237594   7.955   7.583   5.567
12551TIP3   OH237595   4.189   0.463   1.660
12551TIP3    H137596   4.218   0.520   1.731
12551TIP3    H237597   4.255   0.475   1.591
12552TIP3   OH237598   7.832   0.714   2.301
12552TIP3    H137599   7.791   0.739   2.384
12552TIP3    H237600   7.908   0.662   2.327
12553TIP3   OH237601   4.647   6.288   4.514
12553TIP3    H137602   4.585   6.217   4.498
12553TIP3    H237603   4.732   6.244   4.523
12554TIP3   OH237604   6.265   1.469   3.780
12554TIP3    H137605   6.234   1.384   3.811
12554TIP3    H237606   6.185   1.521   3.769
12555TIP3   OH237607   5.016   1.985   6.562
12555TIP3    H137608   4.967   1.982   6.644
12555TIP3    H237609   5.106   2.005   6.588
12556TIP3   OH237610   5.395   7.394   1.300
12556TIP3    H137611   5.430   7.317   1.255
12556TIP3    H237612   5.470   7.453   1.308
12557TIP3   OH237613   2.164   1.524   1.805
12557TIP3    H137614   2.245   1.549   1.759
12557TIP3    H237615   2.188   1.446   1.854
12558TIP3   OH237616   2.072   4.870   4.259
12558TIP3    H137617   2.019   4.817   4.318
12558TIP3    H237618   2.030   4.861   4.173
12559TIP3   OH237619   4.507   2.593   0.961
12559TIP3    H137620   4.440   2.540   0.917
12559TIP3    H237621   4.569   2.529   0.996
12560TIP3   OH237622   8.271   5.992   3.333
12560TIP3    H137623   8.231   5.914   3.371
12560TIP3    H237624   8.200   6.057   3.331
12561TIP3   OH237625   7.712   0.603   2.078
12561TIP3    H137626   7.777   0.635   2.141
12561TIP3    H237627   7.706   0.509   2.096
12562TIP3   OH237628   5.139   2.214   3.758
12562TIP3    H137629   5.185   2.219   3.674
12562TIP3    H237630   5.103   2.302   3.771
12563TIP3   OH237631   1.371   5.010   1.226
12563TIP3    H137632   1.451   4.989   1.178
12563TIP3    H237633   1.350   5.100   1.199
12564TIP3   OH237634   3.571   5.412   1.037
12564TIP3    H137635   3.591   5.329   1.081
12564TIP3    H237636   3.626   5.410   0.958
12565TIP3   OH237637   6.017   2.107   3.980
12565TIP3    H137638   5.942   2.056   3.952
12565TIP3    H237639   6.063   2.130   3.899
12566TIP3   OH237640   3.656   5.612   4.619
12566TIP3    H137641   3.570   5.646   4.643
12566TIP3    H237642   3.646   5.517   4.622
12567TIP3   OH237643   0.659   5.151   4.991
12567TIP3    H137644   0.592   5.181   5.052
12567TIP3    H237645   0.639   5.059   4.976
12568TIP3   OH237646   4.342   4.999   4.854
12568TIP3    H137647   4.334   5.093   4.873
12568TIP3    H237648   4.296   4.956   4.926
12569TIP3   OH237649   2.020   4.785   4.898
12569TIP3    H137650   2.079   4.783   4.973
12569TIP3    H237651   2.063   4.732   4.832
12570TIP3   OH237652   2.512   0.375   2.268
12570TIP3    H137653   2.537   0.439   2.200
12570TIP3    H237654   2.568   0.300   2.251
12571TIP3   OH237655   6.549   2.901   4.488
12571TIP3    H137656   6.455   2.919   4.495
12571TIP3    H237657   6.555   2.814   4.450
12572TIP3   OH237658   3.400   5.752   4.827
12572TIP3    H137659   3.446   5.809   4.765
12572TIP3    H237660   3.327   5.805   4.858
12573TIP3   OH237661   1.896   3.567   0.760
12573TIP3    H137662   1.826   3.603   0.705
12573TIP3    H237663   1.933   3.495   0.709
12574TIP3   OH237664   4.263   5.583   5.186
12574TIP3    H137665   4.213   5.577   5.105
12574TIP3    H237666   4.343   5.533   5.169
12575TIP3   OH237667   2.103   1.636   4.189
12575TIP3    H137668   2.098   1.553   4.140
12575TIP3    H237669   2.075   1.702   4.126
12576TIP3   OH237670   8.072   1.415   1.889
12576TIP3    H137671   8.079   1.504   1.925
12576TIP3    H237672   7.984   1.411   1.852
12577TIP3   OH237673   4.127   1.169   1.544
12577TIP3    H137674   4.217   1.187   1.517
12577TIP3    H237675   4.092   1.116   1.473
12578TIP3   OH237676   3.747   7.188   5.569
12578TIP3    H137677   3.683   7.131   5.526
12578TIP3    H237678   3.695   7.243   5.628
12579TIP3   OH237679   3.967   3.517   4.864
12579TIP3    H137680   3.952   3.605   4.830
12579TIP3    H237681   3.991   3.466   4.787
12580TIP3   OH237682   3.246   2.837   5.595
12580TIP3    H137683   3.194   2.773   5.547
12580TIP3    H237684   3.264   2.795   5.680
12581TIP3   OH237685   2.964   5.207   3.288
12581TIP3    H137686   3.009   5.129   3.255
12581TIP3    H237687   2.877   5.176   3.313
12582TIP3   OH237688   5.156   2.881   5.135
12582TIP3    H137689   5.148   2.861   5.041
12582TIP3    H237690   5.125   2.971   5.142
12583TIP3   OH237691   6.397   2.481   0.595
12583TIP3    H137692   6.446   2.438   0.666
12583TIP3    H237693   6.327   2.529   0.640
12584TIP3   OH237694   4.906   1.317   2.321
12584TIP3    H137695   4.856   1.329   2.240
12584TIP3    H237696   4.842   1.282   2.383
12585TIP3   OH237697   2.995   2.104   6.609
12585TIP3    H137698   2.983   2.095   6.515
12585TIP3    H237699   2.926   2.164   6.636
12586TIP3   OH237700   7.329   4.139   0.503
12586TIP3    H137701   7.399   4.135   0.568
12586TIP3    H237702   7.375   4.147   0.419
12587TIP3   OH237703   0.852   7.126   2.506
12587TIP3    H137704   0.818   7.042   2.537
12587TIP3    H237705   0.853   7.118   2.411
12588TIP3   OH237706   6.726   0.585   6.029
12588TIP3    H137707   6.780   0.624   6.097
12588TIP3    H237708   6.721   0.492   6.053
12589TIP3   OH237709   3.402   5.747   6.241
12589TIP3    H137710   3.422   5.833   6.203
12589TIP3    H237711   3.328   5.763   6.299
12590TIP3   OH237712   4.986   0.310   0.670
12590TIP3    H137713   4.921   0.331   0.737
12590TIP3    H237714   4.941   0.249   0.611
12591TIP3   OH237715   4.337   5.262   1.341
12591TIP3    H137716   4.378   5.346   1.321
12591TIP3    H237717   4.397   5.220   1.403
12592TIP3   OH237718   7.769   4.228   5.781
12592TIP3    H137719   7.732   4.212   5.693
12592TIP3    H237720   7.755   4.145   5.828
12593TIP3   OH237721   4.564   3.749   2.330
12593TIP3    H137722   4.547   3.656   2.312
12593TIP3    H237723   4.482   3.781   2.368
12594TIP3   OH237724   0.271   3.261   2.089
12594TIP3    H137725   0.324   3.292   2.163
12594TIP3    H237726   0.209   3.332   2.074
12595TIP3   OH237727   2.132   0.582   6.568
12595TIP3    H137728   2.148   0.654   6.629
12595TIP3    H237729   2.093   0.513   6.622
12596TIP3   OH237730   6.453   7.063   2.633
12596TIP3    H137731   6.370   7.090   2.593
12596TIP3    H237732   6.500   7.144   2.648
12597TIP3   OH237733   2.811   4.236   1.190
12597TIP3    H137734   2.854   4.293   1.127
12597TIP3    H237735   2.878   4.217   1.256
12598TIP3   OH237736   5.576   7.195   6.717
12598TIP3    H137737   5.484   7.224   6.714
12598TIP3    H237738   5.602   7.207   6.808
12599TIP3   OH237739   2.247   0.891   4.568
12599TIP3    H137740   2.321   0.932   4.522
12599TIP3    H237741   2.244   0.937   4.652
12600TIP3   OH237742   7.144   6.216   4.514
12600TIP3    H137743   7.172   6.165   4.590
12600TIP3    H237744   7.226   6.244   4.473
12601TIP3   OH237745   2.296   7.410   0.900
12601TIP3    H137746   2.372   7.468   0.907
12601TIP3    H237747   2.245   7.427   0.980
12602TIP3   OH237748   1.925   4.180   6.330
12602TIP3    H137749   1.842   4.229   6.336
12602TIP3    H237750   1.991   4.248   6.316
12603TIP3   OH237751   0.777   3.006   4.018
12603TIP3    H137752   0.781   3.027   4.111
12603TIP3    H237753   0.790   2.911   4.015
12604TIP3   OH237754   0.892   1.430   2.450
12604TIP3    H137755   0.963   1.461   2.394
12604TIP3    H237756   0.825   1.399   2.389
12605TIP3   OH237757   3.503   3.904   2.198
12605TIP3    H137758   3.580   3.901   2.140
12605TIP3    H237759   3.503   3.819   2.241
12606TIP3   OH237760   0.468   3.644   1.918
12606TIP3    H137761   0.442   3.681   2.002
12606TIP3    H237762   0.450   3.713   1.855
12607TIP3   OH237763   7.702   6.858   1.139
12607TIP3    H137764   7.705   6.850   1.043
12607TIP3    H237765   7.754   6.936   1.157
12608TIP3   OH237766   5.923   3.572   2.093
12608TIP3    H137767   5.872   3.598   2.016
12608TIP3    H237768   5.857   3.560   2.161
12609TIP3   OH237769   6.177   2.106   3.438
12609TIP3    H137770   6.264   2.070   3.452
12609TIP3    H237771   6.160   2.091   3.345
12610TIP3   OH237772   5.537   3.131   3.576
12610TIP3    H137773   5.561   3.155   3.666
12610TIP3    H237774   5.586   3.051   3.559
12611TIP3   OH237775   5.693   5.006   4.611
12611TIP3    H137776   5.716   5.042   4.525
12611TIP3    H237777   5.599   4.994   4.607
12612TIP3   OH237778   3.563   2.679   5.030
12612TIP3    H137779   3.555   2.589   5.061
12612TIP3    H237780   3.534   2.733   5.104
12613TIP3   OH237781   5.294   6.563   4.073
12613TIP3    H137782   5.250   6.642   4.039
12613TIP3    H237783   5.375   6.557   4.022
12614TIP3   OH237784   6.308   1.225   1.781
12614TIP3    H137785   6.329   1.174   1.703
12614TIP3    H237786   6.289   1.313   1.749
12615TIP3   OH237787   5.300   7.446   5.499
12615TIP3    H137788   5.332   7.514   5.559
12615TIP3    H237789   5.236   7.491   5.444
12616TIP3   OH237790   2.241   1.884   0.335
12616TIP3    H137791   2.243   1.955   0.399
12616TIP3    H237792   2.255   1.927   0.251
12617TIP3   OH237793   2.012   2.765   5.254
12617TIP3    H137794   2.106   2.749   5.250
12617TIP3    H237795   1.982   2.712   5.327
12618TIP3   OH237796   5.820   3.353   1.072
12618TIP3    H137797   5.891   3.289   1.067
12618TIP3    H237798   5.784   3.343   1.160
12619TIP3   OH237799   4.745   3.583   3.850
12619TIP3    H137800   4.811   3.532   3.897
12619TIP3    H237801   4.728   3.658   3.908
12620TIP3   OH237802   5.412   5.834   2.691
12620TIP3    H137803   5.506   5.846   2.679
12620TIP3    H237804   5.373   5.915   2.658
12621TIP3   OH237805   7.522   3.138   3.735
12621TIP3    H137806   7.574   3.058   3.747
12621TIP3    H237807   7.461   3.117   3.664
12622TIP3   OH237808   8.142   3.993   6.393
12622TIP3    H137809   8.227   3.996   6.348
12622TIP3    H237810   8.139   4.073   6.445
12623TIP3   OH237811   6.281   1.554   1.781
12623TIP3    H137812   6.317   1.597   1.703
12623TIP3    H237813   6.194   1.525   1.754
12624TIP3   OH237814   4.417   6.545   1.723
12624TIP3    H137815   4.446   6.475   1.782
12624TIP3    H237816   4.445   6.516   1.636
12625TIP3   OH237817   2.667   3.845   3.255
12625TIP3    H137818   2.576   3.873   3.254
12625TIP3    H237819   2.681   3.809   3.342
12626TIP3   OH237820   6.926   5.641   6.701
12626TIP3    H137821   6.960   5.711   6.645
12626TIP3    H237822   6.836   5.628   6.672
12627TIP3   OH237823   2.469   3.270   5.114
12627TIP3    H137824   2.550   3.295   5.070
12627TIP3    H237825   2.432   3.202   5.059
12628TIP3   OH237826   6.813   2.551   3.188
12628TIP3    H137827   6.744   2.524   3.128
12628TIP3    H237828   6.845   2.633   3.153
12629TIP3   OH237829   5.468   4.218   4.333
12629TIP3    H137830   5.536   4.275   4.368
12629TIP3    H237831   5.457   4.149   4.399
12630TIP3   OH237832   3.840   5.216   6.578
12630TIP3    H137833   3.924   5.261   6.571
12630TIP3    H237834   3.781   5.266   6.522
12631TIP3   OH237835   1.073   3.448   1.752
12631TIP3    H137836   0.987   3.438   1.710
12631TIP3    H237837   1.100   3.538   1.731
12632TIP3   OH237838   1.352   0.693   1.509
12632TIP3    H137839   1.386   0.777   1.479
12632TIP3    H237840   1.428   0.635   1.511
12633TIP3   OH237841   6.037   3.348   5.819
12633TIP3    H137842   6.010   3.301   5.740
12633TIP3    H237843   6.125   3.314   5.839
12634TIP3   OH237844   1.646   2.067   5.210
12634TIP3    H137845   1.663   2.059   5.116
12634TIP3    H237846   1.601   2.151   5.220
12635TIP3   OH237847   4.545   7.189   3.605
12635TIP3    H137848   4.530   7.265   3.549
12635TIP3    H237849   4.557   7.226   3.693
12636TIP3   OH237850   0.420   4.605   1.510
12636TIP3    H137851   0.359   4.646   1.449
12636TIP3    H237852   0.438   4.519   1.473
12637TIP3   OH237853   0.110   0.234   3.300
12637TIP3    H137854   0.121   0.146   3.264
12637TIP3    H237855   0.038   0.271   3.250
12638TIP3   OH237856   5.440   6.370   1.788
12638TIP3    H137857   5.355   6.380   1.744
12638TIP3    H237858   5.441   6.440   1.853
12639TIP3   OH237859   7.015   5.619   3.011
12639TIP3    H137860   7.001   5.707   3.047
12639TIP3    H237861   6.937   5.601   2.959
12640TIP3   OH237862   4.708   0.726   5.242
12640TIP3    H137863   4.783   0.786   5.238
12640TIP3    H237864   4.687   0.708   5.150
12641TIP3   OH237865   8.310   0.344   1.738
12641TIP3    H137866   8.220   0.374   1.747
12641TIP3    H237867   8.309   0.254   1.770
12642TIP3   OH237868   8.192   4.922   4.322
12642TIP3    H137869   8.221   4.836   4.292
12642TIP3    H237870   8.251   4.943   4.394
12643TIP3   OH237871   0.253   1.071   5.628
12643TIP3    H137872   0.172   1.079   5.578
12643TIP3    H237873   0.312   1.021   5.571
12644TIP3   OH237874   5.041   7.288   4.584
12644TIP3    H137875   5.062   7.310   4.674
12644TIP3    H237876   5.116   7.319   4.533
12645TIP3   OH237877   6.181   2.174   5.375
12645TIP3    H137878   6.148   2.263   5.360
12645TIP3    H237879   6.175   2.131   5.290
12646TIP3   OH237880   2.115   3.091   0.182
12646TIP3    H137881   2.186   3.143   0.146
12646TIP3    H237882   2.157   3.010   0.211
12647TIP3   OH237883   7.002   5.229   4.381
12647TIP3    H137884   6.969   5.303   4.431
12647TIP3    H237885   7.078   5.198   4.430
12648TIP3   OH237886   6.933   7.235   4.149
12648TIP3    H137887   6.925   7.281   4.066
12648TIP3    H237888   6.922   7.303   4.216
12649TIP3   OH237889   0.082   1.832   2.906
12649TIP3    H137890   0.007   1.773   2.907
12649TIP3    H237891   0.064   1.894   2.977
12650TIP3   OH237892   5.023   5.861   6.713
12650TIP3    H137893   4.989   5.788   6.764
12650TIP3    H237894   5.096   5.824   6.663
12651TIP3   OH237895   7.477   0.726   2.117
12651TIP3    H137896   7.560   0.679   2.106
12651TIP3    H237897   7.499   0.799   2.176
12652TIP3   OH237898   2.883   1.038   4.154
12652TIP3    H137899   2.954   1.099   4.170
12652TIP3    H237900   2.898   1.007   4.065
12653TIP3   OH237901   0.564   6.875   3.084
12653TIP3    H137902   0.523   6.788   3.086
12653TIP3    H237903   0.526   6.921   3.158
12654TIP3   OH237904   3.400   5.737   2.179
12654TIP3    H137905   3.443   5.808   2.226
12654TIP3    H237906   3.364   5.779   2.100
12655TIP3   OH237907   7.642   3.422   4.647
12655TIP3    H137908   7.616   3.482   4.717
12655TIP3    H237909   7.582   3.441   4.575
12656TIP3   OH237910   6.503   4.328   3.215
12656TIP3    H137911   6.416   4.338   3.177
12656TIP3    H237912   6.517   4.233   3.218
12657TIP3   OH237913   1.486   0.594   2.398
12657TIP3    H137914   1.399   0.611   2.362
12657TIP3    H237915   1.477   0.510   2.443
12658TIP3   OH237916   6.920   4.588   1.902
12658TIP3    H137917   6.917   4.498   1.934
12658TIP3    H237918   6.874   4.586   1.819
12659TIP3   OH237919   3.679   6.438   6.601
12659TIP3    H137920   3.650   6.426   6.511
12659TIP3    H237921   3.741   6.367   6.617
12660TIP3   OH237922   3.661   2.919   5.850
12660TIP3    H137923   3.709   2.856   5.797
12660TIP3    H237924   3.613   2.865   5.913
12661TIP3   OH237925   0.833   2.147   1.711
12661TIP3    H137926   0.828   2.059   1.674
12661TIP3    H237927   0.908   2.145   1.770
12662TIP3   OH237928   8.050   5.956   1.046
12662TIP3    H137929   8.044   5.949   1.141
12662TIP3    H237930   7.959   5.965   1.017
12663TIP3   OH237931   3.193   5.925   4.867
12663TIP3    H137932   3.231   5.956   4.949
12663TIP3    H237933   3.181   6.003   4.814
12664TIP3   OH237934   6.270   3.367   1.609
12664TIP3    H137935   6.328   3.323   1.672
12664TIP3    H237936   6.329   3.420   1.556
12665TIP3   OH237937   2.332   4.274   6.197
12665TIP3    H137938   2.402   4.209   6.191
12665TIP3    H237939   2.279   4.260   6.118
12666TIP3   OH237940   2.003   6.668   5.687
12666TIP3    H137941   2.094   6.694   5.700
12666TIP3    H237942   1.956   6.751   5.678
12667TIP3   OH237943   4.009   3.959   2.225
12667TIP3    H137944   3.915   3.955   2.208
12667TIP3    H237945   4.027   4.052   2.236
12668TIP3   OH237946   6.185   5.141   6.419
12668TIP3    H137947   6.137   5.150   6.502
12668TIP3    H237948   6.204   5.231   6.394
12669TIP3   OH237949   4.372   6.060   2.033
12669TIP3    H137950   4.460   6.042   1.999
12669TIP3    H237951   4.331   5.974   2.041
12670TIP3   OH237952   0.863   1.948   1.045
12670TIP3    H137953   0.802   2.010   1.084
12670TIP3    H237954   0.949   1.973   1.080
12671TIP3   OH237955   3.091   3.907   1.424
12671TIP3    H137956   3.100   3.976   1.358
12671TIP3    H237957   3.057   3.952   1.502
12672TIP3   OH237958   8.136   1.600   1.412
12672TIP3    H137959   8.102   1.607   1.323
12672TIP3    H237960   8.059   1.599   1.467
12673TIP3   OH237961   0.312   7.499   5.268
12673TIP3    H137962   0.302   7.589   5.238
12673TIP3    H237963   0.370   7.459   5.203
12674TIP3   OH237964   4.956   5.723   4.372
12674TIP3    H137965   4.918   5.782   4.437
12674TIP3    H237966   4.965   5.639   4.418
12675TIP3   OH237967   2.791   1.559   6.211
12675TIP3    H137968   2.740   1.638   6.230
12675TIP3    H237969   2.880   1.590   6.199
12676TIP3   OH237970   5.593   5.133   5.058
12676TIP3    H137971   5.687   5.145   5.071
12676TIP3    H237972   5.581   5.145   4.963
12677TIP3   OH237973   6.080   7.207   3.390
12677TIP3    H137974   6.071   7.170   3.477
12677TIP3    H237975   6.174   7.222   3.378
12678TIP3   OH237976   6.803   7.399   0.662
12678TIP3    H137977   6.720   7.436   0.692
12678TIP3    H237978   6.822   7.444   0.580
12679TIP3   OH237979   3.587   0.496   4.259
12679TIP3    H137980   3.637   0.495   4.178
12679TIP3    H237981   3.562   0.405   4.274
12680TIP3   OH237982   8.051   3.391   0.063
12680TIP3    H137983   7.962   3.370   0.091
12680TIP3    H237984   8.045   3.397  -0.033
12681TIP3   OH237985   4.995   1.711   2.519
12681TIP3    H137986   5.013   1.622   2.549
12681TIP3    H237987   5.058   1.765   2.567
12682TIP3   OH237988   6.128   5.261   4.256
12682TIP3    H137989   6.119   5.351   4.286
12682TIP3    H237990   6.222   5.243   4.261
12683TIP3   OH237991   6.603   7.406   3.959
12683TIP3    H137992   6.670   7.473   3.970
12683TIP3    H237993   6.594   7.366   4.045
12684TIP3   OH237994   6.167   0.066   0.302
12684TIP3    H137995   6.169   0.074   0.397
12684TIP3    H237996   6.199  -0.023   0.285
12685TIP3   OH237997   7.184   7.188   0.015
12685TIP3    H137998   7.216   7.110   0.061
12685TIP3    H237999   7.201   7.260   0.075
12686TIP3   OH238000   4.480   3.426   5.204
12686TIP3    H138001   4.408   3.478   5.239
12686TIP3    H238002   4.556   3.484   5.210
12687TIP3   OH238003   6.849   2.063   2.471
12687TIP3    H138004   6.773   2.019   2.509
12687TIP3    H238005   6.901   1.992   2.432
12688TIP3   OH238006   3.390   5.593   4.432
12688TIP3    H138007   3.297   5.608   4.450
12688TIP3    H238008   3.399   5.498   4.430
12689TIP3   OH238009   4.177   4.676   4.564
12689TIP3    H138010   4.141   4.649   4.649
12689TIP3    H238011   4.272   4.665   4.574
12690TIP3   OH238012   5.066   6.488   5.804
12690TIP3    H138013   5.043   6.403   5.765
12690TIP3    H238014   5.033   6.552   5.742
12691TIP3   OH238015   3.424   7.755   3.001
12691TIP3    H138016   3.351   7.707   3.040
12691TIP3    H238017   3.415   7.844   3.035
12692TIP3   OH238018   6.216   0.852   4.655
12692TIP3    H138019   6.301   0.808   4.656
12692TIP3    H238020   6.168   0.814   4.729
12693TIP3   OH238021   4.184   7.237   2.227
12693TIP3    H138022   4.089   7.230   2.228
12693TIP3    H238023   4.212   7.207   2.313
12694TIP3   OH238024   5.106   6.890   0.805
12694TIP3    H138025   5.119   6.798   0.783
12694TIP3    H238026   5.016   6.895   0.834
12695TIP3   OH238027   0.361   5.984   4.659
12695TIP3    H138028   0.286   5.994   4.601
12695TIP3    H238029   0.360   6.063   4.713
12696TIP3   OH238030   0.172   2.914   0.056
12696TIP3    H138031   0.261   2.904   0.023
12696TIP3    H238032   0.117   2.909  -0.023
12697TIP3   OH238033   7.547   7.555   1.316
12697TIP3    H138034   7.641   7.565   1.327
12697TIP3    H238035   7.508   7.623   1.371
12698TIP3   OH238036   3.512   2.917   6.472
12698TIP3    H138037   3.472   2.887   6.554
12698TIP3    H238038   3.488   2.851   6.408
12699TIP3   OH238039   3.026   1.547   1.017
12699TIP3    H138040   2.995   1.598   0.942
12699TIP3    H238041   2.956   1.557   1.082
12700TIP3   OH238042   3.029   0.822   6.160
12700TIP3    H138043   3.115   0.789   6.135
12700TIP3    H238044   3.047   0.907   6.202
12701TIP3   OH238045   2.200   3.527   6.025
12701TIP3    H138046   2.165   3.561   5.942
12701TIP3    H238047   2.148   3.571   6.093
12702TIP3   OH238048   8.049   4.295   4.618
12702TIP3    H138049   7.968   4.287   4.568
12702TIP3    H238050   8.097   4.367   4.576
12703TIP3   OH238051   0.052   3.893   3.791
12703TIP3    H138052  -0.001   3.919   3.715
12703TIP3    H238053   0.102   3.817   3.760
12704TIP3   OH238054   3.313   5.932   1.989
12704TIP3    H138055   3.400   5.970   1.999
12704TIP3    H238056   3.263   5.999   1.942
12705TIP3   OH238057   0.613   7.567   1.759
12705TIP3    H138058   0.519   7.573   1.749
12705TIP3    H238059   0.627   7.486   1.808
12706TIP3   OH238060   6.769   7.513   0.091
12706TIP3    H138061   6.786   7.521   0.185
12706TIP3    H238062   6.681   7.477   0.085
12707TIP3   OH238063   3.973   3.466   5.863
12707TIP3    H138064   4.008   3.453   5.775
12707TIP3    H238065   3.988   3.559   5.880
12708TIP3   OH238066   4.229   7.828   3.432
12708TIP3    H138067   4.317   7.810   3.465
12708TIP3    H238068   4.173   7.766   3.478
12709TIP3   OH238069   6.232   6.178   2.511
12709TIP3    H138070   6.242   6.122   2.589
12709TIP3    H238071   6.140   6.169   2.486
12710TIP3   OH238072   7.951   6.950   2.617
12710TIP3    H138073   7.879   6.907   2.666
12710TIP3    H238074   8.030   6.907   2.649
12711TIP3   OH238075   0.828   4.832   1.645
12711TIP3    H138076   0.801   4.811   1.734
12711TIP3    H238077   0.871   4.752   1.614
12712TIP3   OH238078   5.284   4.720   2.668
12712TIP3    H138079   5.299   4.726   2.762
12712TIP3    H238080   5.264   4.810   2.641
12713TIP3   OH238081   3.434   5.779   0.093
12713TIP3    H138082   3.350   5.786   0.048
12713TIP3    H238083   3.494   5.832   0.041
12714TIP3   OH238084   1.603   2.896   0.802
12714TIP3    H138085   1.687   2.863   0.768
12714TIP3    H238086   1.551   2.817   0.816
12715TIP3   OH238087   4.003   2.393   5.331
12715TIP3    H138088   4.094   2.413   5.354
12715TIP3    H238089   3.984   2.451   5.257
12716TIP3   OH238090   4.033   3.964   0.915
12716TIP3    H138091   3.999   3.928   0.997
12716TIP3    H238092   3.964   4.024   0.886
12717TIP3   OH238093   7.472   2.329   1.256
12717TIP3    H138094   7.554   2.290   1.225
12717TIP3    H238095   7.478   2.421   1.231
12718TIP3   OH238096   5.400   4.139   3.295
12718TIP3    H138097   5.439   4.059   3.261
12718TIP3    H238098   5.403   4.130   3.390
12719TIP3   OH238099   0.475   6.090   0.181
12719TIP3    H138100   0.465   6.185   0.189
12719TIP3    H238101   0.555   6.070   0.229
12720TIP3   OH238102   7.426   0.973   0.574
12720TIP3    H138103   7.507   0.931   0.603
12720TIP3    H238104   7.366   0.963   0.648
12721TIP3   OH238105   4.677   1.832   2.814
12721TIP3    H138106   4.766   1.866   2.823
12721TIP3    H238107   4.646   1.868   2.731
12722TIP3   OH238108   7.817   1.080   3.008
12722TIP3    H138109   7.860   1.157   3.045
12722TIP3    H238110   7.884   1.038   2.955
12723TIP3   OH238111   4.441   2.042   4.805
12723TIP3    H138112   4.497   1.994   4.743
12723TIP3    H238113   4.358   1.994   4.802
12724TIP3   OH238114   3.754   2.664   5.767
12724TIP3    H138115   3.833   2.611   5.756
12724TIP3    H238116   3.683   2.600   5.770
12725TIP3   OH238117   1.659   0.682   2.875
12725TIP3    H138118   1.596   0.611   2.871
12725TIP3    H238119   1.696   0.677   2.963
12726TIP3   OH238120   4.436   2.721   5.086
12726TIP3    H138121   4.455   2.795   5.028
12726TIP3    H238122   4.519   2.705   5.132
12727TIP3   OH238123   2.441   6.590   5.138
12727TIP3    H138124   2.493   6.641   5.075
12727TIP3    H238125   2.441   6.643   5.218
12728TIP3   OH238126   4.987   5.072   2.536
12728TIP3    H138127   4.998   5.001   2.599
12728TIP3    H238128   4.894   5.095   2.542
12729TIP3   OH238129   7.702   3.587   1.379
12729TIP3    H138130   7.626   3.550   1.333
12729TIP3    H238131   7.683   3.570   1.472
12730TIP3   OH238132   6.941   0.589   2.678
12730TIP3    H138133   7.026   0.609   2.639
12730TIP3    H238134   6.899   0.528   2.616
12731TIP3   OH238135   5.966   3.898   3.444
12731TIP3    H138136   5.886   3.881   3.393
12731TIP3    H238137   6.030   3.837   3.410
12732TIP3   OH238138   0.035   1.644   6.384
12732TIP3    H138139   0.093   1.663   6.458
12732TIP3    H238140   0.079   1.573   6.338
12733TIP3   OH238141   7.145   0.289   4.798
12733TIP3    H138142   7.164   0.363   4.739
12733TIP3    H238143   7.051   0.294   4.814
12734TIP3   OH238144   1.713   3.745   3.073
12734TIP3    H138145   1.757   3.764   2.990
12734TIP3    H238146   1.785   3.732   3.136
12735TIP3   OH238147   3.736   1.091   2.028
12735TIP3    H138148   3.763   1.009   2.068
12735TIP3    H238149   3.698   1.066   1.943
12736TIP3   OH238150   1.911   1.409   6.359
12736TIP3    H138151   1.825   1.439   6.390
12736TIP3    H238152   1.938   1.475   6.295
12737TIP3   OH238153   7.767   2.775   2.393
12737TIP3    H138154   7.808   2.824   2.464
12737TIP3    H238155   7.826   2.787   2.318
12738TIP3   OH238156   0.574   4.365   1.089
12738TIP3    H138157   0.546   4.455   1.070
12738TIP3    H238158   0.639   4.346   1.021
12739TIP3   OH238159   7.130   5.167   2.505
12739TIP3    H138160   7.109   5.077   2.480
12739TIP3    H238161   7.212   5.186   2.459
12740TIP3   OH238162   7.101   1.170   0.747
12740TIP3    H138163   7.165   1.099   0.753
12740TIP3    H238164   7.019   1.132   0.781
12741TIP3   OH238165   2.696   7.120   1.956
12741TIP3    H138166   2.679   7.145   1.866
12741TIP3    H238167   2.779   7.073   1.954
12742TIP3   OH238168   3.828   6.132   4.711
12742TIP3    H138169   3.866   6.094   4.633
12742TIP3    H238170   3.882   6.209   4.730
12743TIP3   OH238171   2.366   3.939   4.894
12743TIP3    H138172   2.459   3.932   4.873
12743TIP3    H238173   2.345   3.857   4.941
12744TIP3   OH238174   6.924   0.138   0.548
12744TIP3    H138175   7.000   0.152   0.604
12744TIP3    H238176   6.893   0.050   0.572
12745TIP3   OH238177   7.529   0.831   5.405
12745TIP3    H138178   7.467   0.855   5.336
12745TIP3    H238179   7.608   0.804   5.358
12746TIP3   OH238180   3.631   4.634   4.171
12746TIP3    H138181   3.619   4.682   4.254
12746TIP3    H238182   3.647   4.703   4.107
12747TIP3   OH238183   0.281   1.936   4.989
12747TIP3    H138184   0.369   1.913   4.959
12747TIP3    H238185   0.281   1.918   5.083
12748TIP3   OH238186   5.220   5.750   3.122
12748TIP3    H138187   5.282   5.807   3.077
12748TIP3    H238188   5.155   5.809   3.158
12749TIP3   OH238189   6.165   2.899   2.039
12749TIP3    H138190   6.196   2.922   1.952
12749TIP3    H238191   6.134   2.809   2.031
12750TIP3   OH238192   4.287   7.459   3.209
12750TIP3    H138193   4.194   7.482   3.213
12750TIP3    H238194   4.290   7.386   3.147
12751TIP3   OH238195   8.068   2.650   5.856
12751TIP3    H138196   8.002   2.680   5.795
12751TIP3    H238197   8.126   2.593   5.804
12752TIP3   OH238198   3.091   4.295   5.191
12752TIP3    H138199   3.059   4.372   5.238
12752TIP3    H238200   3.024   4.278   5.125
12753TIP3   OH238201   1.675   3.760   5.492
12753TIP3    H138202   1.638   3.729   5.575
12753TIP3    H238203   1.681   3.682   5.437
12754TIP3   OH238204   4.214   7.262   0.514
12754TIP3    H138205   4.259   7.343   0.493
12754TIP3    H238206   4.276   7.213   0.569
12755TIP3   OH238207   0.834   0.964   0.416
12755TIP3    H138208   0.740   0.962   0.397
12755TIP3    H238209   0.842   0.926   0.503
12756TIP3   OH238210   7.270   6.459   5.069
12756TIP3    H138211   7.334   6.407   5.019
12756TIP3    H238212   7.212   6.495   5.002
12757TIP3   OH238213   1.978   2.438   5.885
12757TIP3    H138214   2.017   2.353   5.866
12757TIP3    H238215   2.052   2.498   5.894
12758TIP3   OH238216   3.158   5.799   3.178
12758TIP3    H138217   3.134   5.756   3.096
12758TIP3    H238218   3.190   5.729   3.234
12759TIP3   OH238219   0.635   4.350   2.781
12759TIP3    H138220   0.625   4.442   2.805
12759TIP3    H238221   0.546   4.319   2.766
12760TIP3   OH238222   3.004   6.876   1.429
12760TIP3    H138223   3.074   6.926   1.387
12760TIP3    H238224   3.048   6.800   1.467
12761TIP3   OH238225   2.983   0.496   0.266
12761TIP3    H138226   2.967   0.589   0.282
12761TIP3    H238227   2.949   0.481   0.178
12762TIP3   OH238228   4.259   0.181   3.674
12762TIP3    H138229   4.186   0.121   3.686
12762TIP3    H238230   4.256   0.206   3.582
12763TIP3   OH238231   5.121   3.309   5.422
12763TIP3    H138232   5.065   3.266   5.358
12763TIP3    H238233   5.062   3.367   5.471
12764TIP3   OH238234   1.328   3.532   3.964
12764TIP3    H138235   1.251   3.477   3.982
12764TIP3    H238236   1.394   3.470   3.934
12765TIP3   OH238237   0.305   2.115   3.084
12765TIP3    H138238   0.312   2.210   3.098
12765TIP3    H238239   0.332   2.103   2.993
12766TIP3   OH238240   1.252   6.414   1.755
12766TIP3    H138241   1.245   6.461   1.839
12766TIP3    H238242   1.227   6.324   1.777
12767TIP3   OH238243   0.961   6.779   3.223
12767TIP3    H138244   0.885   6.746   3.174
12767TIP3    H238245   1.027   6.711   3.214
12768TIP3   OH238246   7.993   0.306   0.458
12768TIP3    H138247   7.923   0.246   0.432
12768TIP3    H238248   7.988   0.378   0.396
12769TIP3   OH238249   5.714   0.820   4.782
12769TIP3    H138250   5.779   0.751   4.769
12769TIP3    H238251   5.732   0.883   4.712
12770TIP3   OH238252   5.901   0.748   5.239
12770TIP3    H138253   5.990   0.717   5.257
12770TIP3    H238254   5.886   0.724   5.147
12771TIP3   OH238255   0.875   5.157   3.790
12771TIP3    H138256   0.859   5.150   3.884
12771TIP3    H238257   0.970   5.147   3.781
12772TIP3   OH238258   5.827   0.128   5.728
12772TIP3    H138259   5.852   0.038   5.708
12772TIP3    H238260   5.909   0.174   5.743
12773TIP3   OH238261   1.435   6.155   0.064
12773TIP3    H138262   1.400   6.193   0.145
12773TIP3    H238263   1.357   6.133   0.013
12774TIP3   OH238264   6.538   6.240   0.635
12774TIP3    H138265   6.448   6.266   0.615
12774TIP3    H238266   6.534   6.144   0.645
12775TIP3   OH238267   5.673   0.496   4.368
12775TIP3    H138268   5.656   0.416   4.417
12775TIP3    H238269   5.766   0.490   4.345
12776TIP3   OH238270   0.611   3.399   3.775
12776TIP3    H138271   0.602   3.362   3.687
12776TIP3    H238272   0.632   3.324   3.830
12777TIP3   OH238273   2.981   5.813   2.161
12777TIP3    H138274   2.960   5.744   2.224
12777TIP3    H238275   2.941   5.892   2.197
12778TIP3   OH238276   6.144   0.206   2.992
12778TIP3    H138277   6.111   0.246   3.072
12778TIP3    H238278   6.066   0.189   2.940
12779TIP3   OH238279   6.456   0.740   4.641
12779TIP3    H138280   6.471   0.663   4.587
12779TIP3    H238281   6.513   0.728   4.717
12780TIP3   OH238282   5.843   4.633   3.302
12780TIP3    H138283   5.910   4.690   3.341
12780TIP3    H238284   5.886   4.548   3.293
12781TIP3   OH238285   5.169   6.390   5.533
12781TIP3    H138286   5.248   6.363   5.485
12781TIP3    H238287   5.121   6.446   5.470
12782TIP3   OH238288   0.581   7.146   6.146
12782TIP3    H138289   0.532   7.178   6.070
12782TIP3    H238290   0.606   7.057   6.123
12783TIP3   OH238291   3.518   5.623   1.351
12783TIP3    H138292   3.578   5.680   1.400
12783TIP3    H238293   3.575   5.555   1.315
12784TIP3   OH238294   2.584   7.407   4.772
12784TIP3    H138295   2.595   7.492   4.815
12784TIP3    H238296   2.668   7.363   4.785
12785TIP3   OH238297   4.186   6.726   2.931
12785TIP3    H138298   4.277   6.734   2.903
12785TIP3    H238299   4.157   6.816   2.946
12786TIP3   OH238300   7.823   7.769   3.929
12786TIP3    H138301   7.759   7.839   3.932
12786TIP3    H238302   7.906   7.811   3.952
12787TIP3   OH238303   4.331   6.730   0.754
12787TIP3    H138304   4.370   6.642   0.758
12787TIP3    H238305   4.320   6.748   0.661
12788TIP3   OH238306   5.078   7.046   2.220
12788TIP3    H138307   5.074   6.974   2.157
12788TIP3    H238308   5.085   7.003   2.305
12789TIP3   OH238309   8.071   7.647   0.613
12789TIP3    H138310   8.053   7.651   0.707
12789TIP3    H238311   8.091   7.737   0.589
12790TIP3   OH238312   2.748   1.179   5.487
12790TIP3    H138313   2.832   1.136   5.504
12790TIP3    H238314   2.766   1.272   5.494
12791TIP3   OH238315   3.868   5.240   0.705
12791TIP3    H138316   3.774   5.241   0.692
12791TIP3    H238317   3.891   5.147   0.710
12792TIP3   OH238318   7.958   0.310   6.701
12792TIP3    H138319   7.877   0.361   6.708
12792TIP3    H238320   7.928   0.219   6.692
12793TIP3   OH238321   0.255   6.416   3.022
12793TIP3    H138322   0.305   6.336   3.007
12793TIP3    H238323   0.200   6.424   2.944
12794TIP3   OH238324   3.559   2.113   2.690
12794TIP3    H138325   3.509   2.136   2.611
12794TIP3    H238326   3.553   2.192   2.745
12795TIP3   OH238327   4.750   6.601   4.481
12795TIP3    H138328   4.778   6.648   4.403
12795TIP3    H238329   4.744   6.509   4.454
12796TIP3   OH238330   2.260   5.221   4.166
12796TIP3    H138331   2.246   5.244   4.258
12796TIP3    H238332   2.172   5.208   4.131
12797TIP3   OH238333   7.357   3.111   1.465
12797TIP3    H138334   7.269   3.126   1.430
12797TIP3    H238335   7.343   3.062   1.546
12798TIP3   OH238336   1.967   1.917   2.556
12798TIP3    H138337   1.999   1.832   2.528
12798TIP3    H238338   2.037   1.953   2.609
12799TIP3   OH238339   0.922   2.055   3.654
12799TIP3    H138340   0.857   2.023   3.716
12799TIP3    H238341   0.923   1.990   3.584
12800TIP3   OH238342   5.343   2.305   1.064
12800TIP3    H138343   5.371   2.216   1.087
12800TIP3    H238344   5.374   2.316   0.974
12801TIP3   OH238345   5.066   1.846   1.084
12801TIP3    H138346   5.014   1.924   1.104
12801TIP3    H238347   5.045   1.784   1.154
12802TIP3   OH238348   1.257   0.744   6.594
12802TIP3    H138349   1.350   0.742   6.571
12802TIP3    H238350   1.213   0.703   6.519
12803TIP3   OH238351   2.019   6.398   2.716
12803TIP3    H138352   2.110   6.374   2.698
12803TIP3    H238353   2.025   6.473   2.775
12804TIP3   OH238354   6.089   3.702   2.307
12804TIP3    H138355   6.043   3.649   2.243
12804TIP3    H238356   6.020   3.749   2.354
12805TIP3   OH238357   2.871   1.387   2.941
12805TIP3    H138358   2.938   1.353   2.882
12805TIP3    H238359   2.897   1.478   2.958
12806TIP3   OH238360   4.336   3.602   5.354
12806TIP3    H138361   4.368   3.606   5.444
12806TIP3    H238362   4.246   3.633   5.359
12807TIP3   OH238363   7.380   5.450   5.455
12807TIP3    H138364   7.331   5.450   5.373
12807TIP3    H238365   7.344   5.377   5.505
12808TIP3   OH238366   4.114   2.970   0.363
12808TIP3    H138367   4.181   2.960   0.296
12808TIP3    H238368   4.145   2.917   0.436
12809TIP3   OH238369   2.481   6.782   2.716
12809TIP3    H138370   2.411   6.782   2.782
12809TIP3    H238371   2.438   6.750   2.636
12810TIP3   OH238372   3.817   4.553   5.672
12810TIP3    H138373   3.874   4.607   5.617
12810TIP3    H238374   3.741   4.534   5.617
12811TIP3   OH238375   6.742   2.180   0.456
12811TIP3    H138376   6.811   2.191   0.390
12811TIP3    H238377   6.768   2.237   0.528
12812TIP3   OH238378   5.385   1.979   6.036
12812TIP3    H138379   5.312   1.982   5.973
12812TIP3    H238380   5.454   1.931   5.990
12813TIP3   OH238381   4.910   4.963   3.723
12813TIP3    H138382   4.893   5.057   3.713
12813TIP3    H238383   4.826   4.927   3.753
12814TIP3   OH238384   0.105   4.141   1.904
12814TIP3    H138385   0.134   4.078   1.838
12814TIP3    H238386   0.142   4.108   1.986
12815TIP3   OH238387   3.345   7.090   2.489
12815TIP3    H138388   3.282   7.026   2.523
12815TIP3    H238389   3.393   7.042   2.421
12816TIP3   OH238390   5.181   1.879   5.652
12816TIP3    H138391   5.187   1.946   5.721
12816TIP3    H238392   5.268   1.839   5.651
12817TIP3   OH238393   3.661   3.334   4.728
12817TIP3    H138394   3.714   3.350   4.650
12817TIP3    H238395   3.582   3.292   4.695
12818TIP3   OH238396   1.652   7.707   1.286
12818TIP3    H138397   1.598   7.665   1.352
12818TIP3    H238398   1.655   7.800   1.312
12819TIP3   OH238399   6.213   1.726   2.430
12819TIP3    H138400   6.190   1.648   2.482
12819TIP3    H238401   6.178   1.799   2.481
12820TIP3   OH238402   2.671   4.410   1.422
12820TIP3    H138403   2.683   4.473   1.351
12820TIP3    H238404   2.725   4.335   1.397
12821TIP3   OH238405   3.960   1.972   6.497
12821TIP3    H138406   3.878   1.934   6.529
12821TIP3    H238407   3.985   1.915   6.424
12822TIP3   OH238408   2.542   2.419   5.103
12822TIP3    H138409   2.597   2.462   5.168
12822TIP3    H238410   2.593   2.421   5.023
12823TIP3   OH238411   5.952   7.617   1.600
12823TIP3    H138412   5.951   7.698   1.549
12823TIP3    H238413   6.044   7.604   1.623
12824TIP3   OH238414   6.540   1.714   4.033
12824TIP3    H138415   6.445   1.718   4.045
12824TIP3    H238416   6.553   1.676   3.946
12825TIP3   OH238417   1.585   0.958   1.625
12825TIP3    H138418   1.521   1.028   1.642
12825TIP3    H238419   1.554   0.916   1.545
12826TIP3   OH238420   7.328   1.701   4.896
12826TIP3    H138421   7.289   1.788   4.905
12826TIP3    H238422   7.417   1.717   4.867
12827TIP3   OH238423   3.678   6.092   2.405
12827TIP3    H138424   3.751   6.083   2.467
12827TIP3    H238425   3.632   6.009   2.410
12828TIP3   OH238426   5.940   2.633   5.129
12828TIP3    H138427   5.976   2.682   5.203
12828TIP3    H238428   5.984   2.548   5.133
12829TIP3   OH238429   4.907   6.511   1.694
12829TIP3    H138430   4.963   6.451   1.646
12829TIP3    H238431   4.959   6.591   1.703
12830TIP3   OH238432   0.790   5.240   2.248
12830TIP3    H138433   0.760   5.291   2.324
12830TIP3    H238434   0.852   5.177   2.285
12831TIP3   OH238435   5.184   2.238   6.491
12831TIP3    H138436   5.228   2.243   6.406
12831TIP3    H238437   5.151   2.326   6.506
12832TIP3   OH238438   4.794   7.277   0.572
12832TIP3    H138439   4.768   7.256   0.482
12832TIP3    H238440   4.889   7.287   0.569
12833TIP3   OH238441   6.585   1.786   5.489
12833TIP3    H138442   6.613   1.700   5.522
12833TIP3    H238443   6.498   1.771   5.453
12834TIP3   OH238444   6.628   4.251   4.458
12834TIP3    H138445   6.646   4.177   4.516
12834TIP3    H238446   6.702   4.310   4.471
12835TIP3   OH238447   6.600   3.798   2.055
12835TIP3    H138448   6.536   3.728   2.061
12835TIP3    H238449   6.669   3.763   1.999
12836TIP3   OH238450   1.253   3.009   1.374
12836TIP3    H138451   1.277   2.923   1.340
12836TIP3    H238452   1.324   3.032   1.434
12837TIP3   OH238453   2.087   6.484   4.001
12837TIP3    H138454   2.039   6.547   4.054
12837TIP3    H238455   2.173   6.523   3.989
12838TIP3   OH238456   0.070   0.066   6.636
12838TIP3    H138457   0.043   0.138   6.693
12838TIP3    H238458   0.153   0.036   6.672
12839TIP3   OH238459   3.046   0.364   2.432
12839TIP3    H138460   3.036   0.314   2.351
12839TIP3    H238461   2.981   0.434   2.425
12840TIP3   OH238462   0.111   2.896   2.544
12840TIP3    H138463   0.204   2.912   2.529
12840TIP3    H238464   0.095   2.927   2.633
12841TIP3   OH238465   5.464   2.322   3.895
12841TIP3    H138466   5.434   2.233   3.913
12841TIP3    H238467   5.481   2.360   3.981
12842TIP3   OH238468   2.002   5.841   1.779
12842TIP3    H138469   1.989   5.936   1.780
12842TIP3    H238470   1.933   5.808   1.722
12843TIP3   OH238471   2.664   2.454   6.733
12843TIP3    H138472   2.706   2.381   6.688
12843TIP3    H238473   2.703   2.532   6.693
12844TIP3   OH238474   7.184   7.388   4.211
12844TIP3    H138475   7.203   7.357   4.123
12844TIP3    H238476   7.223   7.322   4.268
12845TIP3   OH238477   7.005   2.173   4.229
12845TIP3    H138478   7.085   2.219   4.204
12845TIP3    H238479   7.001   2.099   4.167
12846TIP3   OH238480   8.004   7.346   1.936
12846TIP3    H138481   7.931   7.323   1.992
12846TIP3    H238482   8.048   7.417   1.982
12847TIP3   OH238483   0.658   7.613   4.116
12847TIP3    H138484   0.582   7.672   4.117
12847TIP3    H238485   0.674   7.597   4.023
12848TIP3   OH238486   3.033   1.315   5.195
12848TIP3    H138487   3.119   1.355   5.209
12848TIP3    H238488   2.971   1.388   5.200
12849TIP3   OH238489   6.873   7.212   1.456
12849TIP3    H138490   6.865   7.134   1.512
12849TIP3    H238491   6.945   7.262   1.495
12850TIP3   OH238492   5.512   6.667   2.972
12850TIP3    H138493   5.438   6.610   2.952
12850TIP3    H238494   5.587   6.607   2.980
12851TIP3   OH238495   6.479   4.950   0.877
12851TIP3    H138496   6.400   4.904   0.850
12851TIP3    H238497   6.548   4.917   0.820
12852TIP3   OH238498   7.487   3.843   5.698
12852TIP3    H138499   7.483   3.903   5.772
12852TIP3    H238500   7.553   3.779   5.722
12853TIP3   OH238501   7.106   1.501   1.117
12853TIP3    H138502   7.148   1.557   1.183
12853TIP3    H238503   7.163   1.507   1.041
12854TIP3   OH238504   1.599   2.315   0.257
12854TIP3    H138505   1.628   2.254   0.189
12854TIP3    H238506   1.542   2.377   0.211
12855TIP3   OH238507   0.197   0.371   2.978
12855TIP3    H138508   0.102   0.363   2.971
12855TIP3    H238509   0.231   0.310   2.912
12856TIP3   OH238510   5.874   5.893   3.649
12856TIP3    H138511   5.947   5.913   3.590
12856TIP3    H238512   5.903   5.817   3.699
12857TIP3   OH238513   4.546   1.152   5.699
12857TIP3    H138514   4.618   1.101   5.661
12857TIP3    H238515   4.520   1.103   5.777
12858TIP3   OH238516   5.322   5.699   3.723
12858TIP3    H138517   5.365   5.623   3.685
12858TIP3    H238518   5.256   5.663   3.782
12859TIP3   OH238519   4.061   5.350   0.532
12859TIP3    H138520   4.140   5.299   0.515
12859TIP3    H238521   4.028   5.316   0.615
12860TIP3   OH238522   4.012   7.482   1.851
12860TIP3    H138523   3.940   7.458   1.792
12860TIP3    H238524   4.087   7.433   1.818
12861TIP3   OH238525   7.960   0.828   4.236
12861TIP3    H138526   7.939   0.859   4.324
12861TIP3    H238527   7.881   0.846   4.185
12862TIP3   OH238528   6.700   2.527   0.710
12862TIP3    H138529   6.670   2.514   0.800
12862TIP3    H238530   6.761   2.455   0.695
12863TIP3   OH238531   4.003   1.877   4.608
12863TIP3    H138532   4.017   1.888   4.514
12863TIP3    H238533   3.908   1.872   4.617
12864TIP3   OH238534   2.588   4.783   2.723
12864TIP3    H138535   2.657   4.819   2.779
12864TIP3    H238536   2.634   4.720   2.667
12865TIP3   OH238537   6.949   1.082   6.690
12865TIP3    H138538   7.030   1.035   6.671
12865TIP3    H238539   6.897   1.074   6.610
12866TIP3   OH238540   6.981   0.018   4.250
12866TIP3    H138541   7.055   0.010   4.310
12866TIP3    H238542   6.907  -0.017   4.300
12867TIP3   OH238543   4.158   3.948  -0.017
12867TIP3    H138544   4.082   3.951   0.041
12867TIP3    H238545   4.233   3.940   0.042
12868TIP3   OH238546   5.994   5.960   2.204
12868TIP3    H138547   6.065   6.020   2.182
12868TIP3    H238548   6.010   5.936   2.295
12869TIP3   OH238549   5.184   3.064   5.672
12869TIP3    H138550   5.100   3.023   5.693
12869TIP3    H238551   5.194   3.052   5.578
12870TIP3   OH238552   1.493   3.637   2.689
12870TIP3    H138553   1.566   3.642   2.627
12870TIP3    H238554   1.516   3.565   2.747
12871TIP3   OH238555   5.496   2.109   2.785
12871TIP3    H138556   5.554   2.185   2.788
12871TIP3    H238557   5.467   2.097   2.875
12872TIP3   OH238558   3.395   0.512   4.062
12872TIP3    H138559   3.398   0.608   4.056
12872TIP3    H238560   3.451   0.492   4.137
12873TIP3   OH238561   7.097   5.319   1.007
12873TIP3    H138562   7.094   5.310   0.912
12873TIP3    H238563   7.183   5.356   1.026
12874TIP3   OH238564   5.238   3.074   3.755
12874TIP3    H138565   5.237   2.979   3.737
12874TIP3    H238566   5.147   3.094   3.777
12875TIP3   OH238567   3.337   2.300   2.138
12875TIP3    H138568   3.258   2.268   2.180
12875TIP3    H238569   3.325   2.395   2.133
12876TIP3   OH238570   0.395   2.951   0.726
12876TIP3    H138571   0.450   2.873   0.729
12876TIP3    H238572   0.434   3.011   0.788
12877TIP3   OH238573   5.352   3.161   0.155
12877TIP3    H138574   5.291   3.228   0.184
12877TIP3    H238575   5.298   3.085   0.137
12878TIP3   OH238576   4.896   3.318   4.892
12878TIP3    H138577   4.802   3.306   4.903
12878TIP3    H238578   4.916   3.399   4.939
12879TIP3   OH238579   4.356   0.829   5.566
12879TIP3    H138580   4.315   0.770   5.502
12879TIP3    H238581   4.449   0.828   5.543
12880TIP3   OH238582   1.803   3.326   5.935
12880TIP3    H138583   1.755   3.271   5.875
12880TIP3    H238584   1.739   3.391   5.965
12881TIP3   OH238585   4.727   3.531   4.783
12881TIP3    H138586   4.654   3.475   4.807
12881TIP3    H238587   4.689   3.619   4.775
12882TIP3   OH238588   4.245   4.788   6.055
12882TIP3    H138589   4.167   4.819   6.100
12882TIP3    H238590   4.247   4.694   6.073
12883TIP3   OH238591   7.894   2.392   4.752
12883TIP3    H138592   7.823   2.445   4.718
12883TIP3    H238593   7.870   2.302   4.729
12884TIP3   OH238594   1.024   0.799   6.767
12884TIP3    H138595   0.941   0.788   6.720
12884TIP3    H238596   1.089   0.760   6.710
12885TIP3   OH238597   0.802   4.419   0.929
12885TIP3    H138598   0.828   4.499   0.884
12885TIP3    H238599   0.809   4.351   0.862
12886TIP3   OH238600   5.068   6.922   4.834
12886TIP3    H138601   5.073   6.830   4.859
12886TIP3    H238602   5.050   6.920   4.740
12887TIP3   OH238603   2.579   2.834   1.058
12887TIP3    H138604   2.554   2.781   1.134
12887TIP3    H238605   2.673   2.851   1.071
12888TIP3   OH238606   7.608   7.011   4.984
12888TIP3    H138607   7.579   7.069   4.912
12888TIP3    H238608   7.642   6.934   4.940
12889TIP3   OH238609   1.930   2.419   3.963
12889TIP3    H138610   1.843   2.387   3.937
12889TIP3    H238611   1.912   2.492   4.022
12890TIP3   OH238612   7.089   6.736   3.484
12890TIP3    H138613   7.032   6.754   3.410
12890TIP3    H238614   7.172   6.779   3.462
12891TIP3   OH238615   2.969   3.038   0.090
12891TIP3    H138616   3.011   2.970   0.143
12891TIP3    H238617   3.035   3.062   0.025
12892TIP3   OH238618   8.214   4.337   1.825
12892TIP3    H138619   8.202   4.321   1.731
12892TIP3    H238620   8.269   4.265   1.854
12893TIP3   OH238621   5.013   0.353   3.884
12893TIP3    H138622   4.955   0.352   3.959
12893TIP3    H238623   5.019   0.445   3.859
12894TIP3   OH238624   1.874   4.522   0.109
12894TIP3    H138625   1.826   4.477   0.177
12894TIP3    H238626   1.819   4.513   0.031
12895TIP3   OH238627   7.884   5.464   4.666
12895TIP3    H138628   7.966   5.511   4.683
12895TIP3    H238629   7.832   5.476   4.746
12896TIP3   OH238630   4.697   1.631   3.747
12896TIP3    H138631   4.784   1.613   3.784
12896TIP3    H238632   4.667   1.546   3.716
12897TIP3   OH238633   3.096   7.565   3.842
12897TIP3    H138634   3.117   7.539   3.753
12897TIP3    H238635   3.128   7.655   3.849
12898TIP3   OH238636   4.830   0.481   1.973
12898TIP3    H138637   4.844   0.525   2.057
12898TIP3    H238638   4.860   0.544   1.907
12899TIP3   OH238639   8.033   4.374   1.130
12899TIP3    H138640   7.996   4.376   1.041
12899TIP3    H238641   8.023   4.464   1.161
12900TIP3   OH238642   7.692   2.181   0.710
12900TIP3    H138643   7.632   2.226   0.769
12900TIP3    H238644   7.649   2.097   0.691
12901TIP3   OH238645   3.535   0.920   4.544
12901TIP3    H138646   3.480   0.864   4.490
12901TIP3    H238647   3.536   0.876   4.630
12902TIP3   OH238648   5.000   2.811   6.635
12902TIP3    H138649   5.043   2.772   6.559
12902TIP3    H238650   5.071   2.833   6.694
12903TIP3   OH238651   4.821   1.184   5.166
12903TIP3    H138652   4.800   1.267   5.122
12903TIP3    H238653   4.773   1.118   5.116
12904TIP3   OH238654   0.275   7.352   1.820
12904TIP3    H138655   0.329   7.299   1.762
12904TIP3    H238656   0.286   7.442   1.789
12905TIP3   OH238657   3.509   2.883   4.354
12905TIP3    H138658   3.515   2.953   4.289
12905TIP3    H238659   3.466   2.811   4.308
12906TIP3   OH238660   0.121   3.255   3.781
12906TIP3    H138661   0.169   3.187   3.735
12906TIP3    H238662   0.164   3.337   3.756
12907TIP3   OH238663   6.938   5.661   2.412
12907TIP3    H138664   6.965   5.596   2.347
12907TIP3    H238665   6.990   5.640   2.489
12908TIP3   OH238666   6.616   6.633   4.400
12908TIP3    H138667   6.566   6.576   4.459
12908TIP3    H238668   6.622   6.584   4.318
12909TIP3   OH238669   4.117   1.739   2.354
12909TIP3    H138670   4.095   1.662   2.302
12909TIP3    H238671   4.165   1.796   2.294
12910TIP3   OH238672   8.117   3.743   0.393
12910TIP3    H138673   8.185   3.761   0.328
12910TIP3    H238674   8.036   3.745   0.343
12911TIP3   OH238675   7.670   7.812   5.762
12911TIP3    H138676   7.618   7.856   5.829
12911TIP3    H238677   7.720   7.746   5.810
12912TIP3   OH238678   0.998   4.757   2.846
12912TIP3    H138679   0.906   4.775   2.825
12912TIP3    H238680   0.999   4.665   2.870
12913TIP3   OH238681   2.508   6.511   4.061
12913TIP3    H138682   2.534   6.438   4.005
12913TIP3    H238683   2.518   6.588   4.006
12914TIP3   OH238684   1.581   5.378   5.541
12914TIP3    H138685   1.648   5.430   5.497
12914TIP3    H238686   1.576   5.297   5.491
12915TIP3   OH238687   1.221   7.589   1.762
12915TIP3    H138688   1.157   7.561   1.828
12915TIP3    H238689   1.204   7.532   1.687
12916TIP3   OH238690   8.125   1.261   2.551
12916TIP3    H138691   8.035   1.229   2.557
12916TIP3    H238692   8.129   1.334   2.614
12917TIP3   OH238693   1.456   4.014   0.738
12917TIP3    H138694   1.367   4.002   0.705
12917TIP3    H238695   1.511   4.016   0.660
12918TIP3   OH238696   2.783   0.796   4.231
12918TIP3    H138697   2.795   0.770   4.323
12918TIP3    H238698   2.818   0.886   4.228
12919TIP3   OH238699   7.024   3.785   3.623
12919TIP3    H138700   6.948   3.730   3.604
12919TIP3    H238701   6.987   3.864   3.661
12920TIP3   OH238702   6.861   6.783   0.620
12920TIP3    H138703   6.861   6.746   0.708
12920TIP3    H238704   6.814   6.866   0.628
12921TIP3   OH238705   7.406   0.081   4.026
12921TIP3    H138706   7.410   0.108   4.118
12921TIP3    H238707   7.425  -0.012   4.027
12922TIP3   OH238708   0.856   6.069   0.551
12922TIP3    H138709   0.943   6.091   0.520
12922TIP3    H238710   0.840   6.128   0.624
12923TIP3   OH238711   8.031   1.324   1.434
12923TIP3    H138712   8.019   1.382   1.359
12923TIP3    H238713   7.973   1.359   1.501
12924TIP3   OH238714   5.547   1.994   2.512
12924TIP3    H138715   5.537   2.049   2.590
12924TIP3    H238716   5.593   2.049   2.449
12925TIP3   OH238717   7.094   6.937   1.622
12925TIP3    H138718   7.131   6.890   1.697
12925TIP3    H238719   7.164   6.935   1.556
12926TIP3   OH238720   6.174   5.540   0.871
12926TIP3    H138721   6.154   5.559   0.963
12926TIP3    H238722   6.269   5.529   0.869
12927TIP3   OH238723   2.982   1.722   4.616
12927TIP3    H138724   2.948   1.779   4.685
12927TIP3    H238725   2.904   1.695   4.566
12928TIP3   OH238726   4.380   5.147   4.471
12928TIP3    H138727   4.347   5.165   4.383
12928TIP3    H238728   4.326   5.074   4.502
12929TIP3   OH238729   7.034   0.986   6.261
12929TIP3    H138730   6.960   1.046   6.259
12929TIP3    H238731   6.995   0.900   6.279
12930TIP3   OH238732   5.744   3.006   4.774
12930TIP3    H138733   5.663   2.962   4.747
12930TIP3    H238734   5.811   2.969   4.716
12931TIP3   OH238735   7.095   2.813   3.522
12931TIP3    H138736   7.125   2.732   3.564
12931TIP3    H238737   7.075   2.787   3.432
12932TIP3   OH238738   2.786   3.117   1.848
12932TIP3    H138739   2.773   3.206   1.881
12932TIP3    H238740   2.875   3.094   1.876
12933TIP3   OH238741   4.352   7.641   2.997
12933TIP3    H138742   4.321   7.583   3.066
12933TIP3    H238743   4.381   7.583   2.927
12934TIP3   OH238744   1.452   4.530   3.120
12934TIP3    H138745   1.427   4.476   3.044
12934TIP3    H238746   1.485   4.467   3.184
12935TIP3   OH238747   3.955   6.812   3.625
12935TIP3    H138748   3.860   6.805   3.632
12935TIP3    H238749   3.972   6.828   3.531
12936TIP3   OH238750   3.910   2.904   2.163
12936TIP3    H138751   3.962   2.864   2.093
12936TIP3    H238752   3.839   2.948   2.118
12937TIP3   OH238753   0.922   7.637   4.242
12937TIP3    H138754   0.844   7.591   4.213
12937TIP3    H238755   0.920   7.720   4.194
12938TIP3   OH238756   5.188   3.875   3.877
12938TIP3    H138757   5.181   3.876   3.973
12938TIP3    H238758   5.133   3.948   3.848
12939TIP3   OH238759   4.286   6.453   6.066
12939TIP3    H138760   4.318   6.480   5.981
12939TIP3    H238761   4.252   6.364   6.052
12940TIP3   OH238762   5.973   6.188   2.434
12940TIP3    H138763   5.984   6.268   2.383
12940TIP3    H238764   5.897   6.145   2.394
12941TIP3   OH238765   1.482   3.167   5.144
12941TIP3    H138766   1.435   3.248   5.123
12941TIP3    H238767   1.413   3.103   5.161
12942TIP3   OH238768   7.175   6.010   2.582
12942TIP3    H138769   7.233   6.079   2.550
12942TIP3    H238770   7.183   6.015   2.677
12943TIP3   OH238771   6.392   7.147   3.455
12943TIP3    H138772   6.388   7.074   3.394
12943TIP3    H238773   6.461   7.123   3.517
12944TIP3   OH238774   5.779   1.054   2.488
12944TIP3    H138775   5.812   0.972   2.524
12944TIP3    H238776   5.828   1.122   2.535
12945TIP3   OH238777   6.385   7.763   2.077
12945TIP3    H138778   6.404   7.820   2.152
12945TIP3    H238779   6.343   7.821   2.013
12946TIP3   OH238780   4.794   5.859   4.168
12946TIP3    H138781   4.721   5.804   4.140
12946TIP3    H238782   4.852   5.800   4.217
12947TIP3   OH238783   6.104   0.029   3.339
12947TIP3    H138784   6.011   0.036   3.359
12947TIP3    H238785   6.140   0.115   3.362
12948TIP3   OH238786   1.450   7.399   0.726
12948TIP3    H138787   1.530   7.415   0.776
12948TIP3    H238788   1.424   7.486   0.695
12949TIP3   OH238789   1.695   1.446   3.430
12949TIP3    H138790   1.608   1.433   3.468
12949TIP3    H238791   1.722   1.533   3.459
12950TIP3   OH238792   3.339   6.431   0.641
12950TIP3    H138793   3.312   6.478   0.720
12950TIP3    H238794   3.415   6.380   0.668
12951TIP3   OH238795   0.191   0.760   6.642
12951TIP3    H138796   0.261   0.715   6.688
12951TIP3    H238797   0.111   0.718   6.673
12952TIP3   OH238798   2.986   4.681   1.009
12952TIP3    H138799   2.921   4.675   0.939
12952TIP3    H238800   2.940   4.722   1.082
12953TIP3   OH238801   2.738   4.672   0.046
12953TIP3    H138802   2.742   4.662   0.141
12953TIP3    H238803   2.664   4.617   0.019
12954TIP3   OH238804   4.425   0.781   3.765
12954TIP3    H138805   4.418   0.780   3.860
12954TIP3    H238806   4.351   0.729   3.735
12955TIP3   OH238807   4.201   7.742   5.537
12955TIP3    H138808   4.215   7.649   5.556
12955TIP3    H238809   4.149   7.742   5.456
12956TIP3   OH238810   6.602   0.844   5.642
12956TIP3    H138811   6.633   0.812   5.727
12956TIP3    H238812   6.650   0.791   5.578
12957TIP3   OH238813   2.914   0.217   0.000
12957TIP3    H138814   2.887   0.137  -0.046
12957TIP3    H238815   2.961   0.185   0.077
12958TIP3   OH238816   6.184   4.281   6.231
12958TIP3    H138817   6.171   4.298   6.138
12958TIP3    H238818   6.206   4.188   6.235
12959TIP3   OH238819   7.447   1.665   3.666
12959TIP3    H138820   7.409   1.610   3.597
12959TIP3    H238821   7.498   1.604   3.719
12960TIP3   OH238822   1.729   1.796   3.123
12960TIP3    H138823   1.750   1.821   3.213
12960TIP3    H238824   1.727   1.700   3.126
12961TIP3   OH238825   7.484   7.392   0.329
12961TIP3    H138826   7.432   7.359   0.256
12961TIP3    H238827   7.514   7.314   0.376
12962TIP3   OH238828   4.299   2.410   1.092
12962TIP3    H138829   4.376   2.357   1.110
12962TIP3    H238830   4.330   2.501   1.095
12963TIP3   OH238831   5.861   0.451   6.631
12963TIP3    H138832   5.903   0.440   6.716
12963TIP3    H238833   5.858   0.545   6.616
12964TIP3   OH238834   1.536   7.696   0.788
12964TIP3    H138835   1.511   7.786   0.808
12964TIP3    H238836   1.629   7.703   0.765
12965TIP3   OH238837   2.806   5.762   3.689
12965TIP3    H138838   2.745   5.798   3.624
12965TIP3    H238839   2.750   5.721   3.754
12966TIP3   OH238840   4.946   0.974   0.118
12966TIP3    H138841   4.853   0.953   0.118
12966TIP3    H238842   4.962   1.013   0.032
12967TIP3   OH238843   7.693   1.383   0.578
12967TIP3    H138844   7.768   1.401   0.522
12967TIP3    H238845   7.723   1.314   0.637
12968TIP3   OH238846   0.551   6.981   0.100
12968TIP3    H138847   0.526   7.053   0.159
12968TIP3    H238848   0.512   6.903   0.139
12969TIP3   OH238849   4.388   5.261   6.552
12969TIP3    H138850   4.347   5.177   6.535
12969TIP3    H238851   4.442   5.246   6.630
12970TIP3   OH238852   5.513   6.114   2.495
12970TIP3    H138853   5.488   6.196   2.538
12970TIP3    H238854   5.437   6.057   2.505
12971TIP3   OH238855   1.781   0.527   4.522
12971TIP3    H138856   1.803   0.618   4.502
12971TIP3    H238857   1.857   0.476   4.494
12972TIP3   OH238858   3.530   2.761   6.030
12972TIP3    H138859   3.465   2.783   6.097
12972TIP3    H238860   3.527   2.666   6.024
12973TIP3   OH238861   4.282   5.399   0.913
12973TIP3    H138862   4.192   5.412   0.884
12973TIP3    H238863   4.325   5.355   0.840
12974TIP3   OH238864   3.942   5.071   3.081
12974TIP3    H138865   3.859   5.052   3.123
12974TIP3    H238866   3.995   4.993   3.094
12975TIP3   OH238867   1.093   2.817   1.657
12975TIP3    H138868   1.110   2.876   1.731
12975TIP3    H238869   1.003   2.788   1.671
12976TIP3   OH238870   0.212   5.955   6.420
12976TIP3    H138871   0.165   5.939   6.502
12976TIP3    H238872   0.303   5.971   6.447
12977TIP3   OH238873   2.788   0.596   3.425
12977TIP3    H138874   2.737   0.607   3.344
12977TIP3    H238875   2.747   0.523   3.470
12978TIP3   OH238876   0.285   5.384   6.742
12978TIP3    H138877   0.273   5.478   6.734
12978TIP3    H238878   0.198   5.351   6.764
12979TIP3   OH238879   5.929   7.720   2.982
12979TIP3    H138880   5.986   7.652   2.947
12979TIP3    H238881   5.942   7.795   2.924
12980TIP3   OH238882   7.352   2.697   0.239
12980TIP3    H138883   7.373   2.789   0.255
12980TIP3    H238884   7.437   2.657   0.218
12981TIP3   OH238885   2.738   3.338   2.203
12981TIP3    H138886   2.759   3.277   2.274
12981TIP3    H238887   2.811   3.399   2.201
12982TIP3   OH238888   5.526   5.600   5.053
12982TIP3    H138889   5.475   5.664   5.004
12982TIP3    H238890   5.617   5.620   5.031
12983TIP3   OH238891   6.556   2.027   0.703
12983TIP3    H138892   6.463   2.036   0.681
12983TIP3    H238893   6.602   2.076   0.635
12984TIP3   OH238894   1.374   6.058   6.291
12984TIP3    H138895   1.314   5.988   6.318
12984TIP3    H238896   1.393   6.039   6.199
12985TIP3   OH238897   5.154   4.118   0.928
12985TIP3    H138898   5.169   4.034   0.883
12985TIP3    H238899   5.068   4.107   0.969
12986TIP3   OH238900   2.505   5.775   2.633
12986TIP3    H138901   2.474   5.856   2.673
12986TIP3    H238902   2.593   5.797   2.602
12987TIP3   OH238903   7.119   3.954   4.482
12987TIP3    H138904   7.109   4.005   4.563
12987TIP3    H238905   7.127   4.020   4.414
12988TIP3   OH238906   4.211   2.968   3.081
12988TIP3    H138907   4.119   2.985   3.103
12988TIP3    H238908   4.261   3.006   3.153
12989TIP3   OH238909   3.167   7.092   1.301
12989TIP3    H138910   3.222   7.037   1.356
12989TIP3    H238911   3.190   7.067   1.212
12990TIP3   OH238912   2.622   5.968   2.005
12990TIP3    H138913   2.685   6.039   1.990
12990TIP3    H238914   2.616   5.923   1.921
12991TIP3   OH238915   2.915   0.304   4.498
12991TIP3    H138916   2.913   0.323   4.404
12991TIP3    H238917   2.839   0.248   4.513
12992TIP3   OH238918   7.100   3.260   6.235
12992TIP3    H138919   7.098   3.177   6.187
12992TIP3    H238920   7.112   3.234   6.326
12993TIP3   OH238921   2.516   1.324   4.385
12993TIP3    H138922   2.579   1.390   4.357
12993TIP3    H238923   2.565   1.241   4.378
12994TIP3   OH238924   3.940   7.745   0.127
12994TIP3    H138925   3.940   7.840   0.115
12994TIP3    H238926   3.907   7.710   0.044
12995TIP3   OH238927   7.149   1.241   5.430
12995TIP3    H138928   7.119   1.245   5.521
12995TIP3    H238929   7.125   1.153   5.401
12996TIP3   OH238930   6.520   2.411   1.319
12996TIP3    H138931   6.437   2.457   1.306
12996TIP3    H238932   6.500   2.319   1.304
12997TIP3   OH238933   7.503   4.577   5.519
12997TIP3    H138934   7.458   4.493   5.508
12997TIP3    H238935   7.512   4.588   5.613
12998TIP3   OH238936   2.184   0.485   4.349
12998TIP3    H138937   2.266   0.450   4.385
12998TIP3    H238938   2.205   0.575   4.325
12999TIP3   OH238939   6.538   7.652   6.306
12999TIP3    H138940   6.458   7.622   6.264
12999TIP3    H238941   6.590   7.691   6.235
13000TIP3   OH238942   6.131   4.944   1.498
13000TIP3    H138943   6.083   4.904   1.570
13000TIP3    H238944   6.114   5.038   1.508
13001TIP3   OH238945   3.619   1.323   3.952
13001TIP3    H138946   3.549   1.302   4.013
13001TIP3    H238947   3.657   1.404   3.985
13002TIP3   OH238948   7.160   0.289   1.215
13002TIP3    H138949   7.105   0.364   1.238
13002TIP3    H238950   7.101   0.232   1.164
13003TIP3   OH238951   8.213   5.163   5.841
13003TIP3    H138952   8.142   5.100   5.828
13003TIP3    H238953   8.203   5.224   5.768
13004TIP3   OH238954   5.274   7.250   2.757
13004TIP3    H138955   5.282   7.217   2.847
13004TIP3    H238956   5.191   7.213   2.726
13005TIP3   OH238957   3.737   2.844   6.198
13005TIP3    H138958   3.714   2.936   6.191
13005TIP3    H238959   3.671   2.799   6.144
13006TIP3   OH238960   3.234   5.878   5.278
13006TIP3    H138961   3.145   5.902   5.252
13006TIP3    H238962   3.289   5.912   5.208
13007TIP3   OH238963   1.799   1.343   4.732
13007TIP3    H138964   1.833   1.419   4.781
13007TIP3    H238965   1.758   1.382   4.655
13008TIP3   OH238966   0.513   6.007   6.255
13008TIP3    H138967   0.472   5.929   6.293
13008TIP3    H238968   0.514   5.989   6.161
13009TIP3   OH238969   3.046   1.367   2.664
13009TIP3    H138970   3.007   1.289   2.623
13009TIP3    H238971   3.013   1.440   2.612
13010TIP3   OH238972   7.603   5.032   0.473
13010TIP3    H138973   7.557   5.116   0.476
13010TIP3    H238974   7.536   4.969   0.448
13011TIP3   OH238975   4.997   0.898   6.528
13011TIP3    H138976   4.908   0.880   6.556
13011TIP3    H238977   5.009   0.991   6.547
13012TIP3   OH238978   6.549   1.589   2.184
13012TIP3    H138979   6.505   1.505   2.202
13012TIP3    H238980   6.516   1.648   2.252
13013TIP3   OH238981   0.300   2.659   2.767
13013TIP3    H138982   0.229   2.596   2.751
13013TIP3    H238983   0.380   2.611   2.744
13014TIP3   OH238984   1.506   0.784   4.773
13014TIP3    H138985   1.591   0.809   4.736
13014TIP3    H238986   1.498   0.836   4.853
13015TIP3   OH238987   5.059  -0.017   1.936
13015TIP3    H138988   5.039   0.019   2.022
13015TIP3    H238989   5.048   0.057   1.876
13016TIP3   OH238990   1.741   2.402   0.865
13016TIP3    H138991   1.665   2.355   0.898
13016TIP3    H238992   1.773   2.452   0.940
13017TIP3   OH238993   2.588   1.475   1.033
13017TIP3    H138994   2.534   1.459   0.955
13017TIP3    H238995   2.593   1.571   1.039
13018TIP3   OH238996   1.369   3.472   0.160
13018TIP3    H138997   1.322   3.402   0.114
13018TIP3    H238998   1.300   3.524   0.201
13019TIP3   OH238999   6.190   2.498   6.464
13019TIP3    H139000   6.149   2.415   6.441
13019TIP3    H239001   6.116   2.558   6.478
13020TIP3   OH239002   6.738   4.466   3.204
13020TIP3    H139003   6.705   4.551   3.175
13020TIP3    H239004   6.659   4.415   3.222
13021TIP3   OH239005   7.825   1.386   1.769
13021TIP3    H139006   7.801   1.452   1.704
13021TIP3    H239007   7.770   1.310   1.747
13022TIP3   OH239008   2.094   3.371   0.696
13022TIP3    H139009   2.137   3.348   0.614
13022TIP3    H239010   2.165   3.386   0.757
13023TIP3   OH239011   7.479   3.817   3.679
13023TIP3    H139012   7.456   3.902   3.715
13023TIP3    H239013   7.404   3.793   3.624
13024TIP3   OH239014   0.556   6.525   5.863
13024TIP3    H139015   0.591   6.451   5.913
13024TIP3    H239016   0.615   6.534   5.789
13025TIP3   OH239017   0.017   1.873   3.906
13025TIP3    H139018  -0.039   1.800   3.881
13025TIP3    H239019   0.063   1.842   3.984
13026TIP3   OH239020   1.793   6.009   6.506
13026TIP3    H139021   1.881   6.001   6.543
13026TIP3    H239022   1.807   6.049   6.420
13027TIP3   OH239023   1.127   3.825   4.222
13027TIP3    H139024   1.204   3.837   4.167
13027TIP3    H239025   1.157   3.852   4.309
13028TIP3   OH239026   8.122   7.337   2.239
13028TIP3    H139027   8.100   7.298   2.323
13028TIP3    H239028   8.164   7.267   2.190
13029TIP3   OH239029   8.084   0.482   1.132
13029TIP3    H139030   8.067   0.405   1.078
13029TIP3    H239031   8.173   0.509   1.109
13030TIP3   OH239032   2.475   6.373   2.894
13030TIP3    H139033   2.405   6.337   2.947
13030TIP3    H239034   2.555   6.347   2.939
13031TIP3   OH239035   6.619   5.478   4.138
13031TIP3    H139036   6.708   5.448   4.156
13031TIP3    H239037   6.631   5.555   4.083
13032TIP3   OH239038   1.414   1.073   6.376
13032TIP3    H139039   1.480   1.096   6.442
13032TIP3    H239040   1.444   1.117   6.296
13033TIP3   OH239041   6.090   5.934   6.400
13033TIP3    H139042   6.088   5.840   6.381
13033TIP3    H239043   5.999   5.956   6.420
13034TIP3   OH239044   6.111   1.649   2.168
13034TIP3    H139045   6.139   1.669   2.257
13034TIP3    H239046   6.190   1.661   2.114
13035TIP3   OH239047   7.080   7.680   4.910
13035TIP3    H139048   7.063   7.673   4.816
13035TIP3    H239049   7.175   7.681   4.917
13036TIP3   OH239050   3.362   3.624   0.214
13036TIP3    H139051   3.284   3.637   0.159
13036TIP3    H239052   3.422   3.693   0.186
13037TIP3   OH239053   2.055   3.723   1.930
13037TIP3    H139054   2.036   3.674   1.850
13037TIP3    H239055   1.976   3.713   1.983
13038TIP3   OH239056   1.513   5.666   1.365
13038TIP3    H139057   1.478   5.594   1.314
13038TIP3    H239058   1.608   5.664   1.350
13039TIP3   OH239059   2.652   2.296   4.124
13039TIP3    H139060   2.567   2.253   4.124
13039TIP3    H239061   2.706   2.243   4.064
13040TIP3   OH239062   6.486   6.132   1.415
13040TIP3    H139063   6.501   6.189   1.340
13040TIP3    H239064   6.506   6.044   1.383
13041TIP3   OH239065   2.519   2.434   4.355
13041TIP3    H139066   2.551   2.376   4.286
13041TIP3    H239067   2.473   2.504   4.309
13042TIP3   OH239068   5.121   4.106   5.059
13042TIP3    H139069   5.185   4.056   5.008
13042TIP3    H239070   5.039   4.058   5.048
13043TIP3   OH239071   4.086   0.929   2.394
13043TIP3    H139072   4.068   0.989   2.321
13043TIP3    H239073   4.024   0.857   2.380
13044TIP3   OH239074   8.153   1.648   2.941
13044TIP3    H139075   8.135   1.608   3.026
13044TIP3    H239076   8.072   1.695   2.919
13045TIP3   OH239077   7.407   7.463   1.581
13045TIP3    H139078   7.489   7.440   1.624
13045TIP3    H239079   7.378   7.544   1.624
13046TIP3   OH239080   7.554   6.717   3.678
13046TIP3    H139081   7.492   6.714   3.751
13046TIP3    H239082   7.578   6.809   3.670
13047TIP3   OH239083   7.643   7.416   2.634
13047TIP3    H139084   7.605   7.351   2.694
13047TIP3    H239085   7.663   7.491   2.690
13048TIP3   OH239086   8.265   6.746   1.720
13048TIP3    H139087   8.283   6.808   1.791
13048TIP3    H239088   8.233   6.800   1.648
13049TIP3   OH239089   1.607   7.329   1.374
13049TIP3    H139090   1.563   7.403   1.416
13049TIP3    H239091   1.700   7.349   1.384
13050TIP3   OH239092   0.672   2.388   2.098
13050TIP3    H139093   0.705   2.455   2.157
13050TIP3    H239094   0.674   2.307   2.149
13051TIP3   OH239095   3.295   0.599   4.522
13051TIP3    H139096   3.358   0.651   4.472
13051TIP3    H239097   3.328   0.510   4.518
13052TIP3   OH239098   6.932   2.641   1.917
13052TIP3    H139099   6.961   2.640   1.826
13052TIP3    H239100   7.003   2.598   1.966
13053TIP3   OH239101   4.472   7.637   1.391
13053TIP3    H139102   4.539   7.582   1.433
13053TIP3    H239103   4.391   7.587   1.401
13054TIP3   OH239104   5.417   4.190   5.669
13054TIP3    H139105   5.486   4.125   5.662
13054TIP3    H239106   5.460   4.273   5.650
13055TIP3   OH239107   2.145   3.940   5.950
13055TIP3    H139108   2.231   3.911   5.920
13055TIP3    H239109   2.147   4.036   5.941
13056TIP3   OH239110   1.722   6.585   3.631
13056TIP3    H139111   1.676   6.667   3.613
13056TIP3    H239112   1.652   6.520   3.638
13057TIP3   OH239113   8.025   5.298   5.611
13057TIP3    H139114   8.106   5.336   5.575
13057TIP3    H239115   7.963   5.302   5.539
13058TIP3   OH239116   0.054   3.202   4.284
13058TIP3    H139117   0.139   3.230   4.249
13058TIP3    H239118   0.067   3.203   4.379
13059TIP3   OH239119   5.603   2.177   6.021
13059TIP3    H139120   5.627   2.195   5.930
13059TIP3    H239121   5.552   2.096   6.016
13060TIP3   OH239122  -0.015   1.188   2.884
13060TIP3    H139123   0.044   1.259   2.857
13060TIP3    H239124   0.041   1.130   2.936
13061TIP3   OH239125   1.347   5.056   1.574
13061TIP3    H139126   1.416   4.996   1.545
13061TIP3    H239127   1.268   5.024   1.530
13062TIP3   OH239128   1.174   1.156   2.263
13062TIP3    H139129   1.193   1.159   2.169
13062TIP3    H239130   1.258   1.131   2.303
13063TIP3   OH239131   0.928   6.011   3.655
13063TIP3    H139132   0.919   6.098   3.696
13063TIP3    H239133   0.996   5.968   3.707
13064TIP3   OH239134   4.711   0.644   4.976
13064TIP3    H139135   4.694   0.579   4.908
13064TIP3    H239136   4.803   0.667   4.965
13065TIP3   OH239137   1.116   5.002   2.257
13065TIP3    H139138   1.156   4.916   2.271
13065TIP3    H239139   1.076   5.023   2.341
13066TIP3   OH239140   5.753   2.308   6.206
13066TIP3    H139141   5.711   2.249   6.143
13066TIP3    H239142   5.728   2.395   6.177
13067TIP3   OH239143   7.178   3.059   0.678
13067TIP3    H139144   7.175   3.151   0.652
13067TIP3    H239145   7.255   3.053   0.736
13068TIP3   OH239146   6.611   5.054   5.547
13068TIP3    H139147   6.609   5.129   5.488
13068TIP3    H239148   6.521   5.046   5.580
13069TIP3   OH239149   1.972   0.586   4.106
13069TIP3    H139150   2.038   0.648   4.075
13069TIP3    H239151   1.898   0.640   4.133
13070TIP3   OH239152   4.357   3.490   1.103
13070TIP3    H139153   4.400   3.476   1.188
13070TIP3    H239154   4.321   3.404   1.080
13071TIP3   OH239155   1.682   4.551   6.165
13071TIP3    H139156   1.710   4.637   6.133
13071TIP3    H239157   1.700   4.553   6.258
13072TIP3   OH239158   4.578   7.363   6.093
13072TIP3    H139159   4.513   7.425   6.061
13072TIP3    H239160   4.624   7.333   6.014
13073TIP3   OH239161   2.898   7.408   5.086
13073TIP3    H139162   2.987   7.418   5.120
13073TIP3    H239163   2.843   7.454   5.150
13074TIP3   OH239164   0.243   6.313   4.515
13074TIP3    H139165   0.318   6.308   4.574
13074TIP3    H239166   0.267   6.257   4.441
13075TIP3   OH239167   3.152   7.185   4.999
13075TIP3    H139168   3.147   7.274   5.036
13075TIP3    H239169   3.091   7.187   4.925
13076TIP3   OH239170   0.158   4.342   6.545
13076TIP3    H139171   0.164   4.425   6.593
13076TIP3    H239172   0.247   4.328   6.512
13077TIP3   OH239173   0.440   5.120   4.419
13077TIP3    H139174   0.513   5.180   4.403
13077TIP3    H239175   0.396   5.156   4.496
13078TIP3   OH239176   3.672   5.976   4.312
13078TIP3    H139177   3.642   6.047   4.368
13078TIP3    H239178   3.732   6.018   4.250
13079TIP3   OH239179   2.140   7.599   1.017
13079TIP3    H139180   2.176   7.641   1.095
13079TIP3    H239181   2.174   7.651   0.944
13080TIP3   OH239182   7.385   5.200   2.007
13080TIP3    H139183   7.307   5.158   1.971
13080TIP3    H239184   7.440   5.219   1.930
13081TIP3   OH239185   8.007   2.164   0.307
13081TIP3    H139186   7.916   2.144   0.285
13081TIP3    H239187   8.001   2.226   0.380
13082TIP3   OH239188   6.696   4.586   2.778
13082TIP3    H139189   6.701   4.619   2.867
13082TIP3    H239190   6.641   4.651   2.732
13083TIP3   OH239191   2.534   5.463   1.648
13083TIP3    H139192   2.503   5.532   1.707
13083TIP3    H239193   2.550   5.507   1.565
13084TIP3   OH239194   7.142   2.391   3.369
13084TIP3    H139195   7.139   2.307   3.323
13084TIP3    H239196   7.216   2.383   3.429
13085TIP3   OH239197   2.055   4.922   2.531
13085TIP3    H139198   2.121   4.937   2.463
13085TIP3    H239199   2.087   4.971   2.606
13086TIP3   OH239200   7.172   6.897   4.960
13086TIP3    H139201   7.243   6.840   4.932
13086TIP3    H239202   7.162   6.879   5.054
13087TIP3   OH239203   5.069   7.756   2.269
13087TIP3    H139204   5.124   7.806   2.329
13087TIP3    H239205   5.105   7.668   2.270
13088TIP3   OH239206   0.684   0.922   3.319
13088TIP3    H139207   0.778   0.906   3.319
13088TIP3    H239208   0.656   0.901   3.230
13089TIP3   OH239209   1.001   2.321   4.108
13089TIP3    H139210   1.007   2.285   4.196
13089TIP3    H239211   0.908   2.340   4.097
13090TIP3   OH239212   7.718   4.537   6.607
13090TIP3    H139213   7.739   4.619   6.564
13090TIP3    H239214   7.642   4.503   6.560
13091TIP3   OH239215   3.934   3.914   2.983
13091TIP3    H139216   3.934   3.841   2.921
13091TIP3    H239217   3.844   3.947   2.981
13092TIP3   OH239218   2.686   1.743   1.564
13092TIP3    H139219   2.755   1.800   1.599
13092TIP3    H239220   2.730   1.661   1.545
13093TIP3   OH239221   7.546   5.013   1.019
13093TIP3    H139222   7.588   4.929   1.036
13093TIP3    H239223   7.452   4.992   1.014
13094TIP3   OH239224   3.910   3.836   5.587
13094TIP3    H139225   3.899   3.793   5.502
13094TIP3    H239226   3.973   3.906   5.571
13095TIP3   OH239227   3.083   0.438   4.649
13095TIP3    H139228   3.025   0.389   4.591
13095TIP3    H239229   3.141   0.487   4.590
13096TIP3   OH239230   3.468   4.742   4.987
13096TIP3    H139231   3.473   4.801   5.062
13096TIP3    H239232   3.544   4.766   4.933
13097TIP3   OH239233   2.646   1.826   1.979
13097TIP3    H139234   2.559   1.816   2.017
13097TIP3    H239235   2.645   1.913   1.940
13098TIP3   OH239236   5.184   6.534   2.636
13098TIP3    H139237   5.102   6.558   2.680
13098TIP3    H239238   5.156   6.489   2.557
13099TIP3   OH239239   6.317   6.652   1.885
13099TIP3    H139240   6.298   6.745   1.900
13099TIP3    H239241   6.411   6.644   1.896
13100TIP3   OH239242   2.351   0.840   1.377
13100TIP3    H139243   2.345   0.916   1.319
13100TIP3    H239244   2.443   0.813   1.372
13101TIP3   OH239245   4.252   4.633   6.309
13101TIP3    H139246   4.302   4.558   6.339
13101TIP3    H239247   4.165   4.599   6.292
13102TIP3   OH239248   1.644   0.967   2.749
13102TIP3    H139249   1.674   0.896   2.805
13102TIP3    H239250   1.611   1.033   2.809
13103TIP3   OH239251   0.543   1.007   3.043
13103TIP3    H139252   0.619   1.064   3.029
13103TIP3    H239253   0.468   1.060   3.020
13104TIP3   OH239254   2.031   4.000   0.490
13104TIP3    H139255   2.064   4.043   0.412
13104TIP3    H239256   1.936   4.000   0.479
13105TIP3   OH239257   1.369   6.805   1.284
13105TIP3    H139258   1.388   6.897   1.270
13105TIP3    H239259   1.291   6.804   1.340
13106TIP3   OH239260   4.480   3.161   5.136
13106TIP3    H139261   4.450   3.249   5.158
13106TIP3    H239262   4.554   3.175   5.077
13107TIP3   OH239263   7.377   2.097   0.124
13107TIP3    H139264   7.397   2.076   0.033
13107TIP3    H239265   7.361   2.012   0.166
13108TIP3   OH239266   7.176   1.711   2.205
13108TIP3    H139267   7.143   1.663   2.129
13108TIP3    H239268   7.223   1.645   2.256
13109TIP3   OH239269   3.153   1.384   5.999
13109TIP3    H139270   3.116   1.298   6.020
13109TIP3    H239271   3.196   1.372   5.914
13110TIP3   OH239272   6.487   7.467   0.032
13110TIP3    H139273   6.449   7.379   0.031
13110TIP3    H239274   6.492   7.491  -0.060
13111TIP3   OH239275   1.448   3.435   0.946
13111TIP3    H139276   1.428   3.518   0.990
13111TIP3    H239277   1.539   3.444   0.917
13112TIP3   OH239278   5.470   5.106   3.213
13112TIP3    H139279   5.389   5.055   3.210
13112TIP3    H239280   5.453   5.173   3.280
13113TIP3   OH239281   0.780   6.859   3.908
13113TIP3    H139282   0.747   6.777   3.873
13113TIP3    H239283   0.753   6.859   4.000
13114TIP3   OH239284   0.384   2.952   2.510
13114TIP3    H139285   0.384   2.978   2.418
13114TIP3    H239286   0.449   3.008   2.552
13115TIP3   OH239287   7.538   5.143   1.277
13115TIP3    H139288   7.461   5.100   1.314
13115TIP3    H239289   7.548   5.104   1.190
13116TIP3   OH239290   6.506   5.458   2.491
13116TIP3    H139291   6.495   5.553   2.496
13116TIP3    H239292   6.578   5.439   2.552
13117TIP3   OH239293   2.384   5.728   5.290
13117TIP3    H139294   2.303   5.716   5.241
13117TIP3    H239295   2.381   5.662   5.358
13118TIP3   OH239296   1.189   2.534   0.279
13118TIP3    H139297   1.258   2.580   0.327
13118TIP3    H239298   1.116   2.595   0.278
13119TIP3   OH239299   3.912   7.153   4.437
13119TIP3    H139300   3.868   7.217   4.381
13119TIP3    H239301   3.857   7.149   4.516
13120TIP3   OH239302   5.490   4.824   4.145
13120TIP3    H139303   5.501   4.740   4.100
13120TIP3    H239304   5.541   4.886   4.092
13121TIP3   OH239305   2.987   1.000   5.696
13121TIP3    H139306   3.068   0.967   5.735
13121TIP3    H239307   3.016   1.064   5.631
13122TIP3   OH239308   1.383   0.657   5.694
13122TIP3    H139309   1.447   0.644   5.624
13122TIP3    H239310   1.319   0.587   5.681
13123TIP3   OH239311   3.953   1.706   0.456
13123TIP3    H139312   3.935   1.709   0.362
13123TIP3    H239313   4.046   1.725   0.464
13124TIP3   OH239314   4.823   5.339   3.087
13124TIP3    H139315   4.734   5.322   3.057
13124TIP3    H239316   4.818   5.331   3.182
13125TIP3   OH239317   5.329   6.108   6.088
13125TIP3    H139318   5.246   6.109   6.134
13125TIP3    H239319   5.354   6.200   6.081
13126TIP3   OH239320   3.390   1.622   6.155
13126TIP3    H139321   3.458   1.560   6.129
13126TIP3    H239322   3.370   1.670   6.075
13127TIP3   OH239323   0.098   4.101   6.705
13127TIP3    H139324   0.113   4.171   6.641
13127TIP3    H239325   0.005   4.105   6.724
13128TIP3   OH239326   6.684   1.680   1.740
13128TIP3    H139327   6.719   1.652   1.824
13128TIP3    H239328   6.739   1.636   1.675
13129TIP3   OH239329   0.240   7.602   1.402
13129TIP3    H139330   0.222   7.551   1.323
13129TIP3    H239331   0.276   7.539   1.464
13130TIP3   OH239332   1.584   7.274   4.425
13130TIP3    H139333   1.535   7.204   4.468
13130TIP3    H239334   1.676   7.257   4.447
13131TIP3   OH239335   6.630   5.159   5.170
13131TIP3    H139336   6.561   5.129   5.111
13131TIP3    H239337   6.589   5.159   5.256
13132TIP3   OH239338   7.834   4.147   3.037
13132TIP3    H139339   7.907   4.116   2.983
13132TIP3    H239340   7.853   4.111   3.124
13133TIP3   OH239341   4.859   5.683   2.513
13133TIP3    H139342   4.861   5.659   2.605
13133TIP3    H239343   4.904   5.611   2.468
13134TIP3   OH239344   0.382   4.771   4.167
13134TIP3    H139345   0.448   4.829   4.129
13134TIP3    H239346   0.313   4.767   4.101
13135TIP3   OH239347   2.668   6.276   0.380
13135TIP3    H139348   2.682   6.359   0.335
13135TIP3    H239349   2.749   6.261   0.429
13136TIP3   OH239350   6.907   5.523   1.090
13136TIP3    H139351   6.945   5.553   1.007
13136TIP3    H239352   6.956   5.443   1.111
13137TIP3   OH239353   3.342   0.666   2.457
13137TIP3    H139354   3.351   0.673   2.552
13137TIP3    H239355   3.357   0.573   2.439
13138TIP3   OH239356   4.343   7.304   1.745
13138TIP3    H139357   4.391   7.236   1.697
13138TIP3    H239358   4.406   7.336   1.810
13139TIP3   OH239359   1.014   4.366   4.321
13139TIP3    H139360   0.996   4.444   4.373
13139TIP3    H239361   1.030   4.297   4.386
13140TIP3   OH239362   0.210   6.803   4.068
13140TIP3    H139363   0.196   6.862   4.142
13140TIP3    H239364   0.154   6.838   3.998
13141TIP3   OH239365   4.761   5.165   4.623
13141TIP3    H139366   4.729   5.077   4.644
13141TIP3    H239367   4.796   5.156   4.534
13142TIP3   OH239368   5.363   1.487   1.253
13142TIP3    H139369   5.342   1.463   1.344
13142TIP3    H239370   5.455   1.513   1.257
13143TIP3   OH239371   1.285   4.004   1.078
13143TIP3    H139372   1.280   4.096   1.104
13143TIP3    H239373   1.237   3.958   1.147
13144TIP3   OH239374   7.903   4.443   3.348
13144TIP3    H139375   7.998   4.452   3.357
13144TIP3    H239376   7.868   4.526   3.381
13145TIP3   OH239377   1.083   0.190   5.491
13145TIP3    H139378   1.040   0.258   5.542
13145TIP3    H239379   1.158   0.234   5.451
13146TIP3   OH239380   1.989   5.697   1.231
13146TIP3    H139381   2.056   5.630   1.216
13146TIP3    H239382   1.983   5.705   1.326
13147TIP3   OH239383   7.739   4.525   4.105
13147TIP3    H139384   7.764   4.433   4.097
13147TIP3    H239385   7.686   4.529   4.184
13148TIP3   OH239386   2.382   4.850   0.928
13148TIP3    H139387   2.398   4.927   0.873
13148TIP3    H239388   2.359   4.886   1.014
13149TIP3   OH239389   5.954   0.608   6.065
13149TIP3    H139390   5.892   0.645   6.127
13149TIP3    H239391   6.028   0.667   6.067
13150TIP3   OH239392   3.772   0.175   0.150
13150TIP3    H139393   3.833   0.113   0.189
13150TIP3    H239394   3.824   0.254   0.136
13151TIP3   OH239395   2.962   3.522   3.963
13151TIP3    H139396   3.057   3.513   3.970
13151TIP3    H239397   2.928   3.482   4.043
13152TIP3   OH239398   0.911   4.902   6.382
13152TIP3    H139399   0.924   4.819   6.429
13152TIP3    H239400   0.876   4.961   6.448
13153TIP3   OH239401   1.598   0.826   1.907
13153TIP3    H139402   1.599   0.849   1.814
13153TIP3    H239403   1.687   0.797   1.926
13154TIP3   OH239404   2.036   0.815   2.419
13154TIP3    H139405   2.067   0.898   2.383
13154TIP3    H239406   2.023   0.833   2.512
13155TIP3   OH239407   1.703   7.357   3.007
13155TIP3    H139408   1.790   7.321   3.021
13155TIP3    H239409   1.646   7.305   3.065
13156TIP3   OH239410   2.466   1.117   0.435
13156TIP3    H139411   2.403   1.046   0.420
13156TIP3    H239412   2.491   1.145   0.347
13157TIP3   OH239413   1.522   0.917   1.364
13157TIP3    H139414   1.529   0.847   1.300
13157TIP3    H239415   1.596   0.975   1.344
13158TIP3   OH239416   7.172   3.516   3.341
13158TIP3    H139417   7.093   3.464   3.359
13158TIP3    H239418   7.173   3.581   3.411
13159TIP3   OH239419   3.750   6.154   6.688
13159TIP3    H139420   3.777   6.082   6.631
13159TIP3    H239421   3.789   6.134   6.773
13160TIP3   OH239422   3.396   6.866   4.792
13160TIP3    H139423   3.424   6.957   4.778
13160TIP3    H239424   3.477   6.816   4.799
13161TIP3   OH239425   8.075   2.997   3.551
13161TIP3    H139426   7.985   3.018   3.526
13161TIP3    H239427   8.090   3.047   3.631
13162TIP3   OH239428   0.208   6.483   6.075
13162TIP3    H139429   0.197   6.513   6.165
13162TIP3    H239430   0.276   6.416   6.080
13163TIP3   OH239431   1.733   4.168   0.990
13163TIP3    H139432   1.756   4.191   0.900
13163TIP3    H239433   1.727   4.252   1.036
13164TIP3   OH239434   1.959   2.153   3.706
13164TIP3    H139435   1.986   2.062   3.718
13164TIP3    H239436   1.873   2.148   3.665
13165TIP3   OH239437   1.376   3.510   4.737
13165TIP3    H139438   1.369   3.553   4.822
13165TIP3    H239439   1.403   3.579   4.677
13166TIP3   OH239440   1.694   2.702   1.229
13166TIP3    H139441   1.606   2.686   1.194
13166TIP3    H239442   1.680   2.754   1.308
13167TIP3   OH239443   4.824   0.892   4.756
13167TIP3    H139444   4.911   0.858   4.777
13167TIP3    H239445   4.789   0.831   4.692
13168TIP3   OH239446   3.260   3.164   4.075
13168TIP3    H139447   3.202   3.091   4.054
13168TIP3    H239448   3.203   3.241   4.072
13169TIP3   OH239449   0.490   6.258   4.682
13169TIP3    H139450   0.489   6.351   4.706
13169TIP3    H239451   0.582   6.236   4.675
13170TIP3   OH239452   3.842   7.714   2.130
13170TIP3    H139453   3.915   7.699   2.190
13170TIP3    H239454   3.777   7.762   2.182
13171TIP3   OH239455   5.202   4.221   2.307
13171TIP3    H139456   5.210   4.231   2.212
13171TIP3    H239457   5.220   4.309   2.341
13172TIP3   OH239458   3.255   5.900   0.327
13172TIP3    H139459   3.308   5.867   0.255
13172TIP3    H239460   3.272   5.994   0.329
13173TIP3   OH239461   0.434   0.503   6.166
13173TIP3    H139462   0.418   0.510   6.072
13173TIP3    H239463   0.411   0.589   6.201
13174TIP3   OH239464   0.391   1.727   5.506
13174TIP3    H139465   0.359   1.709   5.594
13174TIP3    H239466   0.375   1.645   5.458
13175TIP3   OH239467   4.722   0.986   5.014
13175TIP3    H139468   4.633   0.950   5.014
13175TIP3    H239469   4.757   0.960   4.928
13176TIP3   OH239470   5.192   1.022   2.786
13176TIP3    H139471   5.146   0.960   2.842
13176TIP3    H239472   5.123   1.068   2.739
13177TIP3   OH239473   2.620   6.069   2.903
13177TIP3    H139474   2.596   6.101   2.816
13177TIP3    H239475   2.629   6.148   2.957
13178TIP3   OH239476   6.043   1.241   3.067
13178TIP3    H139477   6.038   1.245   2.971
13178TIP3    H239478   6.126   1.196   3.085
13179TIP3   OH239479   6.287   3.635   2.497
13179TIP3    H139480   6.258   3.671   2.581
13179TIP3    H239481   6.219   3.662   2.435
13180TIP3   OH239482   4.733   6.236   3.552
13180TIP3    H139483   4.686   6.188   3.484
13180TIP3    H239484   4.689   6.321   3.555
13181TIP3   OH239485   6.965   3.817   4.112
13181TIP3    H139486   6.921   3.769   4.042
13181TIP3    H239487   7.056   3.787   4.110
13182TIP3   OH239488   4.728   5.743   6.596
13182TIP3    H139489   4.780   5.771   6.521
13182TIP3    H239490   4.792   5.722   6.664
13183TIP3   OH239491   6.247   0.509   0.097
13183TIP3    H139492   6.323   0.489   0.041
13183TIP3    H239493   6.179   0.537   0.035
13184TIP3   OH239494   1.190   1.137   6.550
13184TIP3    H139495   1.196   1.222   6.508
13184TIP3    H239496   1.270   1.091   6.524
13185TIP3   OH239497   3.179   1.177   1.635
13185TIP3    H139498   3.239   1.111   1.672
13185TIP3    H239499   3.094   1.133   1.634
13186TIP3   OH239500   3.252   7.677   1.486
13186TIP3    H139501   3.331   7.634   1.455
13186TIP3    H239502   3.195   7.682   1.409
13187TIP3   OH239503   6.425   1.721   1.618
13187TIP3    H139504   6.389   1.806   1.594
13187TIP3    H239505   6.495   1.740   1.680
13188TIP3   OH239506   1.507   5.869   0.980
13188TIP3    H139507   1.458   5.841   1.058
13188TIP3    H239508   1.447   5.853   0.907
13189TIP3   OH239509   0.552   3.495   6.421
13189TIP3    H139510   0.468   3.487   6.376
13189TIP3    H239511   0.549   3.428   6.489
13190TIP3   OH239512   3.531   1.085   2.681
13190TIP3    H139513   3.591   1.027   2.728
13190TIP3    H239514   3.568   1.173   2.691
13191TIP3   OH239515   7.838   7.335   2.145
13191TIP3    H139516   7.918   7.309   2.190
13191TIP3    H239517   7.767   7.303   2.201
13192TIP3   OH239518   5.184   6.911   5.446
13192TIP3    H139519   5.096   6.897   5.411
13192TIP3    H239520   5.188   7.006   5.461
13193TIP3   OH239521   7.561   2.290   4.857
13193TIP3    H139522   7.598   2.328   4.937
13193TIP3    H239523   7.577   2.196   4.865
13194TIP3   OH239524   3.035   2.000   0.569
13194TIP3    H139525   3.020   1.910   0.599
13194TIP3    H239526   3.125   1.999   0.536
13195TIP3   OH239527   7.041   5.876   4.482
13195TIP3    H139528   7.037   5.964   4.445
13195TIP3    H239529   6.966   5.831   4.442
13196TIP3   OH239530   5.082   0.964   1.719
13196TIP3    H139531   5.038   1.047   1.738
13196TIP3    H239532   5.174   0.987   1.711
13197TIP3   OH239533   2.865   4.420   4.660
13197TIP3    H139534   2.827   4.354   4.601
13197TIP3    H239535   2.875   4.374   4.743
13198TIP3   OH239536   7.429   6.797   3.938
13198TIP3    H139537   7.385   6.841   3.866
13198TIP3    H239538   7.404   6.846   4.016
13199TIP3   OH239539   6.343   0.829   5.408
13199TIP3    H139540   6.279   0.900   5.401
13199TIP3    H239541   6.391   0.832   5.326
13200TIP3   OH239542   0.807   4.972   3.290
13200TIP3    H139543   0.859   5.008   3.218
13200TIP3    H239544   0.772   4.890   3.257
13201TIP3   OH239545   1.706   4.753   2.064
13201TIP3    H139546   1.732   4.779   1.975
13201TIP3    H239547   1.638   4.687   2.051
13202TIP3   OH239548   3.904   1.782   1.188
13202TIP3    H139549   3.947   1.822   1.264
13202TIP3    H239550   3.970   1.725   1.151
13203TIP3   OH239551   3.767   3.973   4.890
13203TIP3    H139552   3.809   4.043   4.940
13203TIP3    H239553   3.677   4.004   4.876
13204TIP3   OH239554   6.624   3.780   4.572
13204TIP3    H139555   6.707   3.755   4.530
13204TIP3    H239556   6.561   3.780   4.500
13205TIP3   OH239557   1.271   6.685   5.097
13205TIP3    H139558   1.282   6.707   5.189
13205TIP3    H239559   1.261   6.590   5.096
13206TIP3   OH239560   6.606   3.317   6.621
13206TIP3    H139561   6.662   3.392   6.599
13206TIP3    H239562   6.521   3.339   6.582
13207TIP3   OH239563   6.669   1.919   4.211
13207TIP3    H139564   6.620   1.935   4.291
13207TIP3    H239565   6.621   1.849   4.167
13208TIP3   OH239566   6.195   0.796   3.057
13208TIP3    H139567   6.149   0.738   3.117
13208TIP3    H239568   6.287   0.771   3.065
13209TIP3   OH239569   1.711   4.911   2.788
13209TIP3    H139570   1.690   4.851   2.859
13209TIP3    H239571   1.703   4.857   2.709
13210TIP3   OH239572   3.740   7.210   1.296
13210TIP3    H139573   3.779   7.290   1.331
13210TIP3    H239574   3.798   7.140   1.326
13211TIP3   OH239575   7.476   5.641   4.641
13211TIP3    H139576   7.418   5.680   4.707
13211TIP3    H239577   7.551   5.699   4.637
13212TIP3   OH239578   2.312   3.589   1.949
13212TIP3    H139579   2.362   3.660   1.989
13212TIP3    H239580   2.230   3.588   1.997
13213TIP3   OH239581   0.345   4.802   1.315
13213TIP3    H139582   0.360   4.858   1.391
13213TIP3    H239583   0.329   4.863   1.243
13214TIP3   OH239584   1.824   1.020   4.044
13214TIP3    H139585   1.888   1.091   4.045
13214TIP3    H239586   1.837   0.976   3.960
13215TIP3   OH239587   7.368   2.576   4.254
13215TIP3    H139588   7.381   2.611   4.342
13215TIP3    H239589   7.290   2.521   4.261
13216TIP3   OH239590   4.038   6.712   2.289
13216TIP3    H139591   3.963   6.670   2.248
13216TIP3    H239592   4.104   6.643   2.297
13217TIP3   OH239593   5.494   2.028   0.365
13217TIP3    H139594   5.552   2.001   0.294
13217TIP3    H239595   5.469   2.117   0.344
13218TIP3   OH239596   2.815   7.413   2.997
13218TIP3    H139597   2.721   7.422   3.013
13218TIP3    H239598   2.847   7.362   3.072
13219TIP3   OH239599   7.892   0.936   4.501
13219TIP3    H139600   7.901   1.023   4.464
13219TIP3    H239601   7.803   0.934   4.537
13220TIP3   OH239602   6.692   3.051   3.916
13220TIP3    H139603   6.699   3.113   3.843
13220TIP3    H239604   6.769   2.994   3.906
13221TIP3   OH239605   2.328   7.453   4.797
13221TIP3    H139606   2.339   7.511   4.722
13221TIP3    H239607   2.416   7.420   4.816
13222TIP3   OH239608   6.999   7.357   2.652
13222TIP3    H139609   7.091   7.353   2.679
13222TIP3    H239610   6.997   7.422   2.581
13223TIP3   OH239611   5.787   2.173   6.672
13223TIP3    H139612   5.802   2.221   6.753
13223TIP3    H239613   5.853   2.206   6.611
13224TIP3   OH239614   3.954   7.706   2.667
13224TIP3    H139615   3.869   7.663   2.673
13224TIP3    H239616   3.938   7.796   2.694
13225TIP3   OH239617   5.113   2.696   5.691
13225TIP3    H139618   5.067   2.780   5.703
13225TIP3    H239619   5.105   2.678   5.597
13226TIP3   OH239620   4.192   7.046   3.199
13226TIP3    H139621   4.120   7.108   3.209
13226TIP3    H239622   4.163   6.967   3.244
13227TIP3   OH239623   7.557   4.855   3.682
13227TIP3    H139624   7.624   4.800   3.641
13227TIP3    H239625   7.475   4.829   3.640
13228TIP3   OH239626   5.083   1.400   1.873
13228TIP3    H139627   5.026   1.455   1.820
13228TIP3    H239628   5.023   1.344   1.923
13229TIP3   OH239629   2.565   7.227   6.558
13229TIP3    H139630   2.555   7.314   6.518
13229TIP3    H239631   2.658   7.206   6.545
13230TIP3   OH239632   2.644   5.628   5.867
13230TIP3    H139633   2.642   5.555   5.929
13230TIP3    H239634   2.652   5.587   5.781
13231TIP3   OH239635   5.621   3.272   6.285
13231TIP3    H139636   5.585   3.184   6.274
13231TIP3    H239637   5.546   3.330   6.274
13232TIP3   OH239638   3.297   1.125   3.473
13232TIP3    H139639   3.306   1.034   3.503
13232TIP3    H239640   3.370   1.137   3.413
13233TIP3   OH239641   5.801   1.926   5.775
13233TIP3    H139642   5.854   1.861   5.730
13233TIP3    H239643   5.854   1.952   5.851
13234TIP3   OH239644   6.424   4.989   6.478
13234TIP3    H139645   6.503   5.024   6.436
13234TIP3    H239646   6.352   5.022   6.425
13235TIP3   OH239647   2.826   2.025   4.396
13235TIP3    H139648   2.850   1.989   4.481
13235TIP3    H239649   2.875   2.107   4.389
13236TIP3   OH239650   2.717   2.083   0.923
13236TIP3    H139651   2.742   2.033   1.001
13236TIP3    H239652   2.736   2.023   0.851
13237TIP3   OH239653   0.890   3.195   2.449
13237TIP3    H139654   0.978   3.158   2.435
13237TIP3    H239655   0.832   3.136   2.401
13238TIP3   OH239656   2.943   2.726   2.752
13238TIP3    H139657   2.880   2.782   2.799
13238TIP3    H239658   3.017   2.784   2.736
13239TIP3   OH239659   4.524   2.972   4.414
13239TIP3    H139660   4.518   2.969   4.319
13239TIP3    H239661   4.435   2.952   4.445
13240TIP3   OH239662   5.003   2.304   3.507
13240TIP3    H139663   5.084   2.253   3.502
13240TIP3    H239664   5.017   2.378   3.449
13241TIP3   OH239665   1.573   7.131   5.724
13241TIP3    H139666   1.605   7.200   5.783
13241TIP3    H239667   1.640   7.126   5.655
13242TIP3   OH239668   6.202   1.943   4.420
13242TIP3    H139669   6.256   1.976   4.349
13242TIP3    H239670   6.146   2.016   4.445
13243TIP3   OH239671   7.255   6.595   1.875
13243TIP3    H139672   7.220   6.684   1.879
13243TIP3    H239673   7.285   6.577   1.964
13244TIP3   OH239674   5.276   6.595   0.079
13244TIP3    H139675   5.254   6.587  -0.014
13244TIP3    H239676   5.217   6.663   0.112
13245TIP3   OH239677   7.401   0.376   5.868
13245TIP3    H139678   7.404   0.446   5.802
13245TIP3    H239679   7.488   0.336   5.863
13246TIP3   OH239680   5.337   6.664   6.190
13246TIP3    H139681   5.249   6.688   6.218
13246TIP3    H239682   5.385   6.747   6.186
13247TIP3   OH239683   3.777   3.858   0.727
13247TIP3    H139684   3.741   3.918   0.792
13247TIP3    H239685   3.819   3.915   0.663
13248TIP3   OH239686   5.611   4.850   0.842
13248TIP3    H139687   5.635   4.928   0.892
13248TIP3    H239688   5.623   4.777   0.904
13249TIP3   OH239689   4.918   6.879   5.373
13249TIP3    H139690   4.837   6.856   5.419
13249TIP3    H239691   4.913   6.973   5.362
13250TIP3   OH239692   5.421   6.275   5.490
13250TIP3    H139693   5.450   6.216   5.559
13250TIP3    H239694   5.473   6.354   5.503
13251TIP3   OH239695   7.341   7.329   5.454
13251TIP3    H139696   7.268   7.343   5.514
13251TIP3    H239697   7.417   7.362   5.501
13252TIP3   OH239698   0.906   0.593   5.520
13252TIP3    H139699   0.867   0.672   5.481
13252TIP3    H239700   0.843   0.524   5.502
13253TIP3   OH239701   3.791   2.818   5.051
13253TIP3    H139702   3.698   2.816   5.028
13253TIP3    H239703   3.811   2.729   5.079
13254TIP3   OH239704   1.255   4.519   6.205
13254TIP3    H139705   1.193   4.456   6.242
13254TIP3    H239706   1.274   4.578   6.278
13255TIP3   OH239707   6.684   4.378   1.880
13255TIP3    H139708   6.706   4.284   1.882
13255TIP3    H239709   6.675   4.402   1.972
13256TIP3   OH239710   7.092   2.431   0.460
13256TIP3    H139711   7.174   2.472   0.488
13256TIP3    H239712   7.065   2.481   0.383
13257TIP3   OH239713   4.237   0.652   3.601
13257TIP3    H139714   4.175   0.725   3.606
13257TIP3    H239715   4.191   0.579   3.642
13258TIP3   OH239716   6.501   0.269   6.230
13258TIP3    H139717   6.546   0.290   6.312
13258TIP3    H239718   6.408   0.271   6.252
13259TIP3   OH239719   2.388   0.369   2.738
13259TIP3    H139720   2.304   0.415   2.744
13259TIP3    H239721   2.366   0.277   2.744
13260TIP3   OH239722   7.496   3.493   2.849
13260TIP3    H139723   7.523   3.572   2.895
13260TIP3    H239724   7.404   3.482   2.873
13261TIP3   OH239725   0.320   0.319   3.457
13261TIP3    H139726   0.243   0.301   3.403
13261TIP3    H239727   0.376   0.243   3.446
13262TIP3   OH239728   6.499   3.293   4.106
13262TIP3    H139729   6.550   3.361   4.151
13262TIP3    H239730   6.565   3.235   4.068
13263TIP3   OH239731   3.178   1.205   5.613
13263TIP3    H139732   3.162   1.293   5.578
13263TIP3    H239733   3.246   1.218   5.678
13264TIP3   OH239734   1.647   7.576   0.118
13264TIP3    H139735   1.641   7.657   0.067
13264TIP3    H239736   1.740   7.559   0.127
13265TIP3   OH239737   2.530   6.815   0.303
13265TIP3    H139738   2.482   6.829   0.385
13265TIP3    H239739   2.474   6.758   0.251
13266TIP3   OH239740   4.362   2.475   1.657
13266TIP3    H139741   4.287   2.512   1.704
13266TIP3    H239742   4.324   2.435   1.579
13267TIP3   OH239743   6.576   4.629   5.042
13267TIP3    H139744   6.577   4.551   4.985
13267TIP3    H239745   6.590   4.594   5.130
13268TIP3   OH239746   7.606   7.264   3.521
13268TIP3    H139747   7.629   7.230   3.434
13268TIP3    H239748   7.579   7.354   3.505
13269TIP3   OH239749   7.047   3.268   0.228
13269TIP3    H139750   7.005   3.299   0.308
13269TIP3    H239751   7.085   3.183   0.252
13270TIP3   OH239752   5.745   7.049   6.156
13270TIP3    H139753   5.667   7.104   6.158
13270TIP3    H239754   5.774   7.052   6.065
13271TIP3   OH239755   4.503   5.155   1.526
13271TIP3    H139756   4.572   5.205   1.568
13271TIP3    H239757   4.435   5.148   1.593
13272TIP3   OH239758   0.316   6.259   1.003
13272TIP3    H139759   0.263   6.181   1.017
13272TIP3    H239760   0.333   6.292   1.091
13273TIP3   OH239761   7.651   4.781   1.170
13273TIP3    H139762   7.707   4.816   1.101
13273TIP3    H239763   7.709   4.768   1.245
13274TIP3   OH239764   4.420   2.820   0.810
13274TIP3    H139765   4.452   2.812   0.721
13274TIP3    H239766   4.424   2.731   0.845
13275TIP3   OH239767   4.273   7.794   2.507
13275TIP3    H139768   4.207   7.807   2.439
13275TIP3    H239769   4.346   7.751   2.462
13276TIP3   OH239770   3.364   7.605   6.644
13276TIP3    H139771   3.282   7.648   6.668
13276TIP3    H239772   3.354   7.515   6.674
13277TIP3   OH239773   2.369   7.511   5.315
13277TIP3    H139774   2.372   7.524   5.221
13277TIP3    H239775   2.394   7.419   5.328
13278TIP3   OH239776   1.866   7.693   3.083
13278TIP3    H139777   1.951   7.696   3.126
13278TIP3    H239778   1.813   7.634   3.138
13279TIP3   OH239779   5.268   7.570   2.450
13279TIP3    H139780   5.198   7.505   2.452
13279TIP3    H239781   5.337   7.533   2.505
13280TIP3   OH239782   5.986   0.096   3.658
13280TIP3    H139783   5.893   0.078   3.646
13280TIP3    H239784   5.996   0.114   3.751
13281TIP3   OH239785   0.480   5.491   6.555
13281TIP3    H139786   0.437   5.428   6.612
13281TIP3    H239787   0.549   5.529   6.609
13282TIP3   OH239788   2.861   6.285   6.001
13282TIP3    H139789   2.832   6.306   6.090
13282TIP3    H239790   2.925   6.353   5.979
13283TIP3   OH239791   5.050   3.820   2.045
13283TIP3    H139792   5.032   3.782   2.131
13283TIP3    H239793   5.005   3.904   2.046
13284TIP3   OH239794   6.366   4.445   0.711
13284TIP3    H139795   6.277   4.478   0.706
13284TIP3    H239796   6.368   4.371   0.651
13285TIP3   OH239797   5.684   5.562   4.733
13285TIP3    H139798   5.675   5.509   4.813
13285TIP3    H239799   5.732   5.639   4.760
13286TIP3   OH239800   6.198   7.613   5.103
13286TIP3    H139801   6.169   7.539   5.050
13286TIP3    H239802   6.242   7.572   5.178
13287TIP3   OH239803   2.412   3.505   6.640
13287TIP3    H139804   2.467   3.578   6.614
13287TIP3    H239805   2.474   3.433   6.655
13288TIP3   OH239806   5.388   3.186   3.327
13288TIP3    H139807   5.305   3.208   3.370
13288TIP3    H239808   5.452   3.189   3.398
13289TIP3   OH239809   5.688   2.760   3.116
13289TIP3    H139810   5.756   2.704   3.154
13289TIP3    H239811   5.641   2.701   3.056
13290TIP3   OH239812   6.586   6.748   2.546
13290TIP3    H139813   6.574   6.669   2.493
13290TIP3    H239814   6.663   6.791   2.507
13291TIP3   OH239815   4.155   0.368   6.290
13291TIP3    H139816   4.247   0.382   6.312
13291TIP3    H239817   4.109   0.376   6.374
13292TIP3   OH239818   6.090   1.896   0.542
13292TIP3    H139819   6.017   1.908   0.481
13292TIP3    H239820   6.126   1.811   0.520
13293TIP3   OH239821   1.884   4.457   5.124
13293TIP3    H139822   1.883   4.421   5.213
13293TIP3    H239823   1.976   4.478   5.108
13294TIP3   OH239824   0.052   4.562   2.473
13294TIP3    H139825   0.089   4.481   2.507
13294TIP3    H239826   0.007   4.602   2.547
13295TIP3   OH239827   2.913   2.572   5.301
13295TIP3    H139828   2.891   2.664   5.285
13295TIP3    H239829   2.834   2.536   5.341
13296TIP3   OH239830   3.413   1.278   4.533
13296TIP3    H139831   3.381   1.191   4.508
13296TIP3    H239832   3.499   1.261   4.572
13297TIP3   OH239833   0.625   3.187   2.026
13297TIP3    H139834   0.583   3.249   1.966
13297TIP3    H239835   0.590   3.208   2.112
13298TIP3   OH239836   3.807   6.629   5.270
13298TIP3    H139837   3.741   6.588   5.327
13298TIP3    H239838   3.759   6.650   5.190
13299TIP3   OH239839   3.964   7.671   4.656
13299TIP3    H139840   3.911   7.712   4.724
13299TIP3    H239841   3.969   7.579   4.680
13300TIP3   OH239842   0.908   4.033   5.952
13300TIP3    H139843   0.829   4.055   6.002
13300TIP3    H239844   0.904   4.090   5.875
13301TIP3   OH239845   4.605   5.464   6.474
13301TIP3    H139846   4.546   5.502   6.538
13301TIP3    H239847   4.682   5.437   6.526
13302TIP3   OH239848   7.564   1.162   4.356
13302TIP3    H139849   7.603   1.247   4.375
13302TIP3    H239850   7.475   1.168   4.390
13303TIP3   OH239851   3.796   2.517   2.282
13303TIP3    H139852   3.776   2.585   2.218
13303TIP3    H239853   3.716   2.464   2.286
13304TIP3   OH239854   3.032   3.953   5.269
13304TIP3    H139855   3.092   3.930   5.341
13304TIP3    H239856   2.976   4.021   5.306
13305TIP3   OH239857   1.597   5.861   0.567
13305TIP3    H139858   1.535   5.795   0.597
13305TIP3    H239859   1.569   5.881   0.478
13306TIP3   OH239860   3.595   3.099   2.391
13306TIP3    H139861   3.613   3.053   2.309
13306TIP3    H239862   3.562   3.031   2.450
13307TIP3   OH239863   1.794   2.932   3.306
13307TIP3    H139864   1.748   2.849   3.296
13307TIP3    H239865   1.833   2.928   3.393
13308TIP3   OH239866   1.528   5.316   0.966
13308TIP3    H139867   1.487   5.267   0.895
13308TIP3    H239868   1.504   5.407   0.949
13309TIP3   OH239869   3.610   0.270   3.047
13309TIP3    H139870   3.520   0.294   3.072
13309TIP3    H239871   3.598   0.208   2.975
13310TIP3   OH239872   0.982   3.158   1.003
13310TIP3    H139873   0.932   3.178   0.924
13310TIP3    H239874   0.949   3.072   1.031
13311TIP3   OH239875   4.364   4.848   6.545
13311TIP3    H139876   4.388   4.799   6.467
13311TIP3    H239877   4.297   4.909   6.515
13312TIP3   OH239878   4.430   3.735   5.104
13312TIP3    H139879   4.418   3.758   5.196
13312TIP3    H239880   4.511   3.685   5.102
13313TIP3   OH239881   2.090   7.084   5.967
13313TIP3    H139882   2.078   7.158   6.027
13313TIP3    H239883   2.102   7.125   5.881
13314TIP3   OH239884   2.276   2.479   6.479
13314TIP3    H139885   2.225   2.560   6.468
13314TIP3    H239886   2.236   2.418   6.417
13315TIP3   OH239887   0.728   7.036   2.922
13315TIP3    H139888   0.654   6.977   2.939
13315TIP3    H239889   0.743   7.080   3.006
13316TIP3   OH239890   7.524   3.792   3.291
13316TIP3    H139891   7.443   3.844   3.294
13316TIP3    H239892   7.501   3.716   3.238
13317TIP3   OH239893   2.890   1.146   3.603
13317TIP3    H139894   2.878   1.221   3.545
13317TIP3    H239895   2.837   1.166   3.680
13318TIP3   OH239896   6.756   1.016   6.497
13318TIP3    H139897   6.665   0.998   6.518
13318TIP3    H239898   6.804   0.939   6.528
13319TIP3   OH239899   5.625   3.671   1.108
13319TIP3    H139900   5.622   3.609   1.182
13319TIP3    H239901   5.687   3.738   1.136
13320TIP3   OH239902   1.856   1.852   6.336
13320TIP3    H139903   1.879   1.941   6.361
13320TIP3    H239904   1.856   1.802   6.418
13321TIP3   OH239905   5.077   7.275   1.373
13321TIP3    H139906   5.090   7.368   1.356
13321TIP3    H239907   5.081   7.234   1.286
13322TIP3   OH239908   2.651   4.871   1.716
13322TIP3    H139909   2.594   4.810   1.669
13322TIP3    H239910   2.733   4.869   1.668
13323TIP3   OH239911   7.319   1.358   0.343
13323TIP3    H139912   7.287   1.269   0.360
13323TIP3    H239913   7.387   1.348   0.277
13324TIP3   OH239914   2.999   1.618   1.690
13324TIP3    H139915   2.918   1.628   1.740
13324TIP3    H239916   3.028   1.708   1.673
13325TIP3   OH239917   6.907   4.417   3.011
13325TIP3    H139918   6.832   4.446   3.062
13325TIP3    H239919   6.977   4.479   3.032
13326TIP3   OH239920   0.289   4.161   2.972
13326TIP3    H139921   0.280   4.082   3.025
13326TIP3    H239922   0.364   4.143   2.914
13327TIP3   OH239923   7.827   6.108   5.491
13327TIP3    H139924   7.791   6.036   5.543
13327TIP3    H239925   7.751   6.160   5.467
13328TIP3   OH239926   1.734   6.997   0.531
13328TIP3    H139927   1.788   7.057   0.582
13328TIP3    H239928   1.651   6.993   0.578
13329TIP3   OH239929   7.624   5.916   0.637
13329TIP3    H139930   7.691   5.981   0.654
13329TIP3    H239931   7.580   5.904   0.722
13330TIP3   OH239932   1.764   4.811   0.077
13330TIP3    H139933   1.813   4.729   0.069
13330TIP3    H239934   1.702   4.795   0.148
13331TIP3   OH239935   7.336   3.259   3.892
13331TIP3    H139936   7.402   3.202   3.851
13331TIP3    H239937   7.387   3.320   3.945
13332TIP3   OH239938   3.820   3.019   5.237
13332TIP3    H139939   3.837   2.970   5.318
13332TIP3    H239940   3.818   2.952   5.169
13333TIP3   OH239941   0.274   6.247   3.356
13333TIP3    H139942   0.267   6.261   3.451
13333TIP3    H239943   0.219   6.315   3.318
13334TIP3   OH239944   6.450   3.651   1.479
13334TIP3    H139945   6.490   3.736   1.457
13334TIP3    H239946   6.418   3.617   1.395
13335TIP3   OH239947   1.602   1.108   3.310
13335TIP3    H139948   1.645   1.049   3.372
13335TIP3    H239949   1.569   1.049   3.241
13336TIP3   OH239950   1.506   7.610   1.492
13336TIP3    H139951   1.457   7.682   1.451
13336TIP3    H239952   1.462   7.596   1.575
13337TIP3   OH239953   6.888   0.586   0.813
13337TIP3    H139954   6.965   0.628   0.850
13337TIP3    H239955   6.913   0.495   0.802
13338TIP3   OH239956   0.112   2.300   4.413
13338TIP3    H139957   0.107   2.268   4.503
13338TIP3    H239958   0.074   2.387   4.416
13339TIP3   OH239959   6.251   6.932   0.895
13339TIP3    H139960   6.305   6.936   0.816
13339TIP3    H239961   6.256   6.840   0.922
13340TIP3   OH239962   8.301   5.717   0.141
13340TIP3    H139963   8.253   5.643   0.103
13340TIP3    H239964   8.234   5.784   0.155
13341TIP3   OH239965   8.189   3.979   3.257
13341TIP3    H139966   8.110   3.937   3.290
13341TIP3    H239967   8.217   3.922   3.185
13342TIP3   OH239968   6.354   6.530   2.154
13342TIP3    H139969   6.300   6.552   2.078
13342TIP3    H239970   6.376   6.438   2.141
13343TIP3   OH239971   6.036   4.431   4.921
13343TIP3    H139972   5.948   4.394   4.914
13343TIP3    H239973   6.058   4.458   4.832
13344TIP3   OH239974   2.746   4.735   3.772
13344TIP3    H139975   2.721   4.727   3.864
13344TIP3    H239976   2.839   4.761   3.776
13345TIP3   OH239977   7.374   0.320   5.282
13345TIP3    H139978   7.336   0.407   5.268
13345TIP3    H239979   7.300   0.264   5.304
13346TIP3   OH239980   1.108   2.919   6.126
13346TIP3    H139981   1.089   2.872   6.208
13346TIP3    H239982   1.050   2.878   6.062
13347TIP3   OH239983   3.411   6.775   2.418
13347TIP3    H139984   3.413   6.696   2.364
13347TIP3    H239985   3.327   6.816   2.398
13348TIP3   OH239986   1.641   6.719   1.652
13348TIP3    H139987   1.552   6.684   1.644
13348TIP3    H239988   1.632   6.812   1.634
13349TIP3   OH239989   3.628   5.692   1.056
13349TIP3    H139990   3.724   5.696   1.052
13349TIP3    H239991   3.608   5.600   1.042
13350TIP3   OH239992   0.150   1.149   1.916
13350TIP3    H139993   0.066   1.154   1.872
13350TIP3    H239994   0.188   1.237   1.905
13351TIP3   OH239995   4.343   3.871   4.376
13351TIP3    H139996   4.413   3.924   4.339
13351TIP3    H239997   4.282   3.934   4.414
13352TIP3   OH239998   7.594   6.462   5.438
13352TIP3    H139999   7.577   6.373   5.468
13352TIP3    H240000   7.610   6.453   5.344
13353TIP3   OH240001   4.305   4.376   4.326
13353TIP3    H140002   4.245   4.435   4.280
13353TIP3    H240003   4.354   4.434   4.385
13354TIP3   OH240004   6.973   5.641   3.403
13354TIP3    H140005   6.891   5.690   3.393
13354TIP3    H240006   7.039   5.708   3.422
13355TIP3   OH240007   0.965   0.212   6.193
13355TIP3    H140008   0.890   0.181   6.142
13355TIP3    H240009   1.009   0.274   6.136
13356TIP3   OH240010   2.929   4.725   1.949
13356TIP3    H140011   2.932   4.752   2.041
13356TIP3    H240012   3.008   4.763   1.910
13357TIP3   OH240013   1.133   6.363   0.117
13357TIP3    H140014   1.079   6.379   0.194
13357TIP3    H240015   1.168   6.449   0.093
13358TIP3   OH240016   4.974   5.459   0.770
13358TIP3    H140017   5.065   5.484   0.752
13358TIP3    H240018   4.928   5.475   0.688
13359TIP3   OH240019   0.193   7.703   5.985
13359TIP3    H140020   0.216   7.617   6.020
13359TIP3    H240021   0.214   7.698   5.892
13360TIP3   OH240022   3.694   1.893   6.437
13360TIP3    H140023   3.618   1.948   6.420
13360TIP3    H240024   3.725   1.868   6.350
13361TIP3   OH240025   7.566   3.320   3.173
13361TIP3    H140026   7.582   3.349   3.263
13361TIP3    H240027   7.548   3.401   3.125
13362TIP3   OH240028   7.163   5.205   4.606
13362TIP3    H140029   7.172   5.298   4.624
13362TIP3    H240030   7.130   5.168   4.688
13363TIP3   OH240031   6.368   6.345   0.266
13363TIP3    H140032   6.437   6.406   0.240
13363TIP3    H240033   6.405   6.258   0.251
13364TIP3   OH240034   6.492   1.740   4.847
13364TIP3    H140035   6.415   1.747   4.791
13364TIP3    H240036   6.498   1.826   4.889
13365TIP3   OH240037   6.148   4.136   1.373
13365TIP3    H140038   6.163   4.062   1.314
13365TIP3    H240039   6.209   4.121   1.445
13366TIP3   OH240040   7.933   7.788   6.635
13366TIP3    H140041   7.962   7.844   6.707
13366TIP3    H240042   7.967   7.702   6.656
13367TIP3   OH240043   4.302   3.570   1.482
13367TIP3    H140044   4.260   3.629   1.419
13367TIP3    H240045   4.355   3.512   1.427
13368TIP3   OH240046   5.525   5.219   5.574
13368TIP3    H140047   5.519   5.150   5.508
13368TIP3    H240048   5.613   5.255   5.563
13369TIP3   OH240049   0.320   3.368   0.327
13369TIP3    H140050   0.404   3.327   0.303
13369TIP3    H240051   0.309   3.346   0.420
13370TIP3   OH240052   7.409   2.907   3.329
13370TIP3    H140053   7.331   2.859   3.357
13370TIP3    H240054   7.438   2.862   3.249
13371TIP3   OH240055   4.764   2.731   0.894
13371TIP3    H140056   4.810   2.680   0.961
13371TIP3    H240057   4.677   2.691   0.890
13372TIP3   OH240058   6.208   6.504   3.201
13372TIP3    H140059   6.290   6.459   3.217
13372TIP3    H240060   6.223   6.594   3.232
13373TIP3   OH240061   1.797   7.502   2.385
13373TIP3    H140062   1.804   7.445   2.308
13373TIP3    H240063   1.720   7.555   2.368
13374TIP3   OH240064   2.133   5.209   2.495
13374TIP3    H140065   2.156   5.162   2.414
13374TIP3    H240066   2.163   5.298   2.479
13375TIP3   OH240067   3.135   6.957   5.175
13375TIP3    H140068   3.156   7.031   5.118
13375TIP3    H240069   3.200   6.890   5.152
13376TIP3   OH240070   2.544   4.887   6.326
13376TIP3    H140071   2.613   4.873   6.261
13376TIP3    H240072   2.464   4.858   6.282
13377TIP3   OH240073   2.321   1.276   4.134
13377TIP3    H140074   2.405   1.238   4.110
13377TIP3    H240075   2.306   1.248   4.224
13378TIP3   OH240076   1.006   0.347   5.737
13378TIP3    H140077   1.018   0.375   5.827
13378TIP3    H240078   1.036   0.421   5.684
13379TIP3   OH240079   1.465   1.660   3.230
13379TIP3    H140080   1.522   1.700   3.164
13379TIP3    H240081   1.443   1.732   3.289
13380TIP3   OH240082   0.819   2.650   4.265
13380TIP3    H140083   0.819   2.672   4.359
13380TIP3    H240084   0.904   2.608   4.251
13381TIP3   OH240085   6.820   5.772   5.354
13381TIP3    H140086   6.774   5.721   5.287
13381TIP3    H240087   6.899   5.722   5.372
13382TIP3   OH240088   0.641   0.163   4.272
13382TIP3    H140089   0.609   0.074   4.258
13382TIP3    H240090   0.733   0.153   4.296
13383TIP3   OH240091   3.708   6.600   5.835
13383TIP3    H140092   3.795   6.640   5.840
13383TIP3    H240093   3.670   6.634   5.755
13384TIP3   OH240094   3.251   2.454   0.814
13384TIP3    H140095   3.201   2.384   0.771
13384TIP3    H240096   3.254   2.525   0.750
13385TIP3   OH240097   5.067   7.380   3.216
13385TIP3    H140098   5.102   7.437   3.148
13385TIP3    H240099   5.145   7.340   3.256
13386TIP3   OH240100   7.541   5.551   6.258
13386TIP3    H140101   7.635   5.545   6.277
13386TIP3    H240102   7.503   5.586   6.339
13387TIP3   OH240103   2.659   1.194   5.206
13387TIP3    H140104   2.573   1.190   5.248
13387TIP3    H240105   2.710   1.252   5.262
13388TIP3   OH240106   7.713   0.244   0.750
13388TIP3    H140107   7.650   0.173   0.755
13388TIP3    H240108   7.715   0.269   0.658
13389TIP3   OH240109   7.485   1.301   6.181
13389TIP3    H140110   7.399   1.328   6.149
13389TIP3    H240111   7.536   1.382   6.185
13390TIP3   OH240112   3.270   2.433   0.249
13390TIP3    H140113   3.229   2.505   0.297
13390TIP3    H240114   3.332   2.476   0.189
13391TIP3   OH240115   5.098   5.099   1.362
13391TIP3    H140116   5.113   5.093   1.268
13391TIP3    H240117   5.059   5.015   1.385
13392TIP3   OH240118   6.593   3.048   2.915
13392TIP3    H140119   6.660   3.047   2.984
13392TIP3    H240120   6.570   3.141   2.907
13393TIP3   OH240121   5.972   5.887   6.658
13393TIP3    H140122   5.934   5.936   6.585
13393TIP3    H240123   6.029   5.822   6.617
13394TIP3   OH240124   5.160   4.361   3.615
13394TIP3    H140125   5.083   4.389   3.664
13394TIP3    H240126   5.125   4.327   3.532
13395TIP3   OH240127   0.183   1.462   4.872
13395TIP3    H140128   0.173   1.448   4.966
13395TIP3    H240129   0.218   1.379   4.839
13396TIP3   OH240130   0.816   2.249   5.152
13396TIP3    H140131   0.727   2.266   5.182
13396TIP3    H240132   0.817   2.156   5.129
13397TIP3   OH240133   2.542   7.769   1.688
13397TIP3    H140134   2.475   7.776   1.755
13397TIP3    H240135   2.612   7.718   1.729
13398TIP3   OH240136   1.771   4.043   1.663
13398TIP3    H140137   1.754   4.131   1.628
13398TIP3    H240138   1.866   4.036   1.664
13399TIP3   OH240139   1.854   7.262   4.409
13399TIP3    H140140   1.846   7.235   4.317
13399TIP3    H240141   1.915   7.335   4.408
13400TIP3   OH240142   7.473   2.370   0.871
13400TIP3    H140143   7.416   2.445   0.888
13400TIP3    H240144   7.561   2.403   0.888
13401TIP3   OH240145   4.951   6.652   4.948
13401TIP3    H140146   4.909   6.579   4.993
13401TIP3    H240147   4.913   6.652   4.860
13402TIP3   OH240148   2.558   6.581   2.361
13402TIP3    H140149   2.490   6.532   2.407
13402TIP3    H240150   2.521   6.669   2.351
13403TIP3   OH240151   2.179   0.539   1.802
13403TIP3    H140152   2.135   0.485   1.736
13403TIP3    H240153   2.137   0.514   1.884
13404TIP3   OH240154   0.698   2.790   3.211
13404TIP3    H140155   0.729   2.707   3.174
13404TIP3    H240156   0.662   2.766   3.296
13405TIP3   OH240157   6.685   3.568   1.614
13405TIP3    H140158   6.740   3.646   1.625
13405TIP3    H240159   6.600   3.602   1.587
13406TIP3   OH240160   4.530   7.173   3.267
13406TIP3    H140161   4.505   7.265   3.279
13406TIP3    H240162   4.504   7.131   3.348
13407TIP3   OH240163   5.762   3.520   5.895
13407TIP3    H140164   5.825   3.450   5.876
13407TIP3    H240165   5.804   3.600   5.863
13408TIP3   OH240166   4.530   6.512   3.503
13408TIP3    H140167   4.442   6.479   3.483
13408TIP3    H240168   4.572   6.522   3.418
13409TIP3   OH240169   4.318   4.794   5.329
13409TIP3    H140170   4.319   4.889   5.314
13409TIP3    H240171   4.286   4.758   5.246
13410TIP3   OH240172   4.496   4.431   1.587
13410TIP3    H140173   4.435   4.504   1.579
13410TIP3    H240174   4.455   4.371   1.649
13411TIP3   OH240175   6.592   6.543   5.620
13411TIP3    H140176   6.612   6.506   5.706
13411TIP3    H240177   6.678   6.562   5.582
13412TIP3   OH240178   6.246   3.761   6.221
13412TIP3    H140179   6.260   3.683   6.167
13412TIP3    H240180   6.220   3.726   6.306
13413TIP3   OH240181   1.559   2.788   3.508
13413TIP3    H140182   1.592   2.736   3.582
13413TIP3    H240183   1.469   2.812   3.533
13414TIP3   OH240184   1.689   5.140   3.736
13414TIP3    H140185   1.617   5.077   3.743
13414TIP3    H240186   1.646   5.225   3.733
13415TIP3   OH240187   6.842   2.925   1.890
13415TIP3    H140188   6.762   2.924   1.943
13415TIP3    H240189   6.889   2.846   1.917
13416TIP3   OH240190   3.124   4.892   1.771
13416TIP3    H140191   3.166   4.940   1.700
13416TIP3    H240192   3.146   4.800   1.754
13417TIP3   OH240193   5.785   6.552   2.324
13417TIP3    H140194   5.845   6.625   2.309
13417TIP3    H240195   5.833   6.474   2.297
13418TIP3   OH240196   0.658   3.757   6.373
13418TIP3    H140197   0.618   3.670   6.381
13418TIP3    H240198   0.692   3.775   6.461
13419TIP3   OH240199   6.060   0.287   1.224
13419TIP3    H140200   6.156   0.280   1.228
13419TIP3    H240201   6.029   0.215   1.280
13420TIP3   OH240202   5.485   1.746   4.375
13420TIP3    H140203   5.473   1.677   4.309
13420TIP3    H240204   5.560   1.796   4.344
13421TIP3   OH240205   1.426   7.696   5.741
13421TIP3    H140206   1.433   7.742   5.657
13421TIP3    H240207   1.332   7.679   5.751
13422TIP3   OH240208   6.593   5.053   6.215
13422TIP3    H140209   6.643   5.067   6.134
13422TIP3    H240210   6.589   4.958   6.224
13423TIP3   OH240211   0.522   0.597   3.389
13423TIP3    H140212   0.536   0.663   3.320
13423TIP3    H240213   0.532   0.646   3.471
13424TIP3   OH240214   8.086   4.049   3.559
13424TIP3    H140215   8.025   4.016   3.625
13424TIP3    H240216   8.071   3.994   3.483
13425TIP3   OH240217   0.789   1.958   1.518
13425TIP3    H140218   0.860   2.001   1.470
13425TIP3    H240219   0.810   1.864   1.513
13426TIP3   OH240220   3.318   1.051   3.784
13426TIP3    H140221   3.403   1.014   3.805
13426TIP3    H240222   3.285   0.997   3.712
13427TIP3   OH240223   0.860   2.765   4.507
13427TIP3    H140224   0.913   2.820   4.449
13427TIP3    H240225   0.872   2.802   4.594
13428TIP3   OH240226   1.666   5.758   3.986
13428TIP3    H140227   1.570   5.752   3.987
13428TIP3    H240228   1.694   5.713   4.066
13429TIP3   OH240229   0.315   7.172   2.092
13429TIP3    H140230   0.328   7.257   2.048
13429TIP3    H240231   0.272   7.194   2.174
13430TIP3   OH240232   6.748   0.660   0.333
13430TIP3    H140233   6.837   0.673   0.364
13430TIP3    H240234   6.695   0.657   0.412
13431TIP3   OH240235   0.773   2.976   2.291
13431TIP3    H140236   0.752   2.924   2.368
13431TIP3    H240237   0.751   2.919   2.217
13432TIP3   OH240238   6.428   2.171   2.356
13432TIP3    H140239   6.350   2.200   2.308
13432TIP3    H240240   6.493   2.154   2.288
13433TIP3   OH240241   7.276   6.038   2.178
13433TIP3    H140242   7.311   5.952   2.153
13433TIP3    H240243   7.203   6.017   2.236
13434TIP3   OH240244   5.415   6.269   5.203
13434TIP3    H140245   5.348   6.218   5.157
13434TIP3    H240246   5.416   6.232   5.292
13435TIP3   OH240247   6.764   4.884   5.007
13435TIP3    H140248   6.720   4.804   5.037
13435TIP3    H240249   6.829   4.902   5.076
13436TIP3   OH240250   2.916   2.281   6.063
13436TIP3    H140251   2.980   2.306   6.130
13436TIP3    H240252   2.833   2.316   6.094
13437TIP3   OH240253   1.207   0.150   4.479
13437TIP3    H140254   1.234   0.143   4.388
13437TIP3    H240255   1.254   0.227   4.512
13438TIP3   OH240256   1.963   2.187   0.155
13438TIP3    H140257   1.943   2.140   0.075
13438TIP3    H240258   2.057   2.204   0.150
13439TIP3   OH240259   6.140   2.921   2.831
13439TIP3    H140260   6.174   2.995   2.880
13439TIP3    H240261   6.217   2.869   2.809
13440TIP3   OH240262   1.726   5.120   4.062
13440TIP3    H140263   1.691   5.166   3.985
13440TIP3    H240264   1.649   5.081   4.104
13441TIP3   OH240265   1.277   6.070   3.609
13441TIP3    H140266   1.253   6.151   3.652
13441TIP3    H240267   1.370   6.058   3.631
13442TIP3   OH240268   7.759   4.804   1.920
13442TIP3    H140269   7.716   4.719   1.930
13442TIP3    H240270   7.756   4.842   2.008
13443TIP3   OH240271   4.921   2.790   1.934
13443TIP3    H140272   4.991   2.855   1.923
13443TIP3    H240273   4.950   2.737   2.008
13444TIP3   OH240274   5.768   1.845   2.620
13444TIP3    H140275   5.676   1.865   2.599
13444TIP3    H240276   5.818   1.904   2.564
13445TIP3   OH240277   6.241   1.512   2.845
13445TIP3    H140278   6.294   1.449   2.895
13445TIP3    H240279   6.253   1.595   2.891
13446TIP3   OH240280   7.498   4.310   2.670
13446TIP3    H140281   7.561   4.382   2.667
13446TIP3    H240282   7.426   4.343   2.724
13447TIP3   OH240283   5.409   2.400   2.222
13447TIP3    H140284   5.415   2.396   2.126
13447TIP3    H240285   5.347   2.330   2.245
13448TIP3   OH240286   1.519   1.518   4.208
13448TIP3    H140287   1.563   1.573   4.143
13448TIP3    H240288   1.590   1.470   4.252
13449TIP3   OH240289   4.904   6.415   1.171
13449TIP3    H140290   4.974   6.375   1.222
13449TIP3    H240291   4.884   6.497   1.216
13450TIP3   OH240292   0.521   4.738   2.475
13450TIP3    H140293   0.443   4.793   2.472
13450TIP3    H240294   0.555   4.740   2.385
13451TIP3   OH240295   4.173   0.569   0.919
13451TIP3    H140296   4.085   0.566   0.881
13451TIP3    H240297   4.223   0.507   0.866
13452TIP3   OH240298   6.217   2.487   3.422
13452TIP3    H140299   6.182   2.498   3.510
13452TIP3    H240300   6.194   2.568   3.377
13453TIP3   OH240301   5.001   3.527   2.073
13453TIP3    H140302   5.097   3.531   2.072
13453TIP3    H240303   4.980   3.492   2.160
13454TIP3   OH240304   0.424   7.578   3.593
13454TIP3    H140305   0.412   7.672   3.579
13454TIP3    H240306   0.336   7.542   3.582
13455TIP3   OH240307   2.402   3.658   0.824
13455TIP3    H140308   2.316   3.695   0.805
13455TIP3    H240309   2.397   3.568   0.792
13456TIP3   OH240310   5.410   6.513   3.269
13456TIP3    H140311   5.320   6.539   3.252
13456TIP3    H240312   5.422   6.435   3.215
13457TIP3   OH240313   7.719   7.772   4.278
13457TIP3    H140314   7.747   7.689   4.317
13457TIP3    H240315   7.641   7.750   4.227
13458TIP3   OH240316   1.892   3.907   2.451
13458TIP3    H140317   1.946   3.828   2.458
13458TIP3    H240318   1.820   3.893   2.512
13459TIP3   OH240319   5.617   0.987   3.926
13459TIP3    H140320   5.593   0.942   3.846
13459TIP3    H240321   5.698   1.033   3.905
13460TIP3   OH240322   4.667   7.318   6.346
13460TIP3    H140323   4.704   7.230   6.351
13460TIP3    H240324   4.648   7.331   6.253
13461TIP3   OH240325   1.143   4.232   5.997
13461TIP3    H140326   1.200   4.190   6.061
13461TIP3    H240327   1.059   4.241   6.042
13462TIP3   OH240328   6.511   1.837   2.983
13462TIP3    H140329   6.588   1.779   2.981
13462TIP3    H240330   6.438   1.778   3.002
13463TIP3   OH240331   7.513   1.528   5.116
13463TIP3    H140332   7.454   1.456   5.138
13463TIP3    H240333   7.592   1.511   5.168
13464TIP3   OH240334   6.771   5.195   3.603
13464TIP3    H140335   6.812   5.215   3.687
13464TIP3    H240336   6.740   5.280   3.571
13465TIP3   OH240337   5.079   0.477   5.633
13465TIP3    H140338   5.160   0.431   5.655
13465TIP3    H240339   5.087   0.496   5.540
13466TIP3   OH240340   7.051   7.366   2.113
13466TIP3    H140341   7.012   7.444   2.153
13466TIP3    H240342   7.004   7.292   2.153
13467TIP3   OH240343   6.133   0.877   4.981
13467TIP3    H140344   6.154   0.786   4.959
13467TIP3    H240345   6.212   0.910   5.024
13468TIP3   OH240346   5.085   4.199   2.906
13468TIP3    H140347   5.132   4.278   2.880
13468TIP3    H240348   5.084   4.145   2.827
13469TIP3   OH240349   4.710   2.443   0.216
13469TIP3    H140350   4.731   2.492   0.136
13469TIP3    H240351   4.622   2.474   0.239
13470TIP3   OH240352   2.226   7.713   0.376
13470TIP3    H140353   2.309   7.705   0.422
13470TIP3    H240354   2.251   7.730   0.285
13471TIP3   OH240355   2.187   7.444   2.265
13471TIP3    H140356   2.140   7.419   2.185
13471TIP3    H240357   2.140   7.521   2.298
13472TIP3   OH240358   4.679   7.411   4.586
13472TIP3    H140359   4.705   7.374   4.502
13472TIP3    H240360   4.624   7.486   4.563
13473TIP3   OH240361   2.851   7.678   1.143
13473TIP3    H140362   2.868   7.764   1.181
13473TIP3    H240363   2.820   7.625   1.217
13474TIP3   OH240364   0.645   4.704   5.176
13474TIP3    H140365   0.708   4.776   5.183
13474TIP3    H240366   0.667   4.646   5.249
13475TIP3   OH240367   6.341   6.310   4.756
13475TIP3    H140368   6.332   6.217   4.732
13475TIP3    H240369   6.312   6.313   4.847
13476TIP3   OH240370   3.174   1.821   3.463
13476TIP3    H140371   3.173   1.860   3.376
13476TIP3    H240372   3.135   1.734   3.451
13477TIP3   OH240373   2.120   4.327   3.223
13477TIP3    H140374   2.167   4.254   3.184
13477TIP3    H240375   2.039   4.288   3.256
13478TIP3   OH240376   6.401   1.680   4.354
13478TIP3    H140377   6.330   1.683   4.290
13478TIP3    H240378   6.416   1.771   4.379
13479TIP3   OH240379   3.154   3.679   5.481
13479TIP3    H140380   3.206   3.616   5.432
13479TIP3    H240381   3.117   3.628   5.553
13480TIP3   OH240382   3.082   6.670   3.120
13480TIP3    H140383   3.033   6.604   3.171
13480TIP3    H240384   3.083   6.634   3.031
13481TIP3   OH240385   6.964   0.128   5.990
13481TIP3    H140386   7.018   0.114   6.068
13481TIP3    H240387   7.007   0.077   5.922
13482TIP3   OH240388   6.808   5.232   0.100
13482TIP3    H140389   6.902   5.250   0.089
13482TIP3    H240390   6.771   5.314   0.131
13483TIP3   OH240391   0.208   4.663   3.680
13483TIP3    H140392   0.176   4.752   3.663
13483TIP3    H240393   0.210   4.622   3.593
13484TIP3   OH240394   1.966   1.311   0.691
13484TIP3    H140395   1.930   1.375   0.753
13484TIP3    H240396   2.021   1.255   0.745
13485TIP3   OH240397   2.395   7.602   4.557
13485TIP3    H140398   2.386   7.548   4.479
13485TIP3    H240399   2.469   7.660   4.538
13486TIP3   OH240400   1.584   5.328   1.809
13486TIP3    H140401   1.652   5.280   1.856
13486TIP3    H240402   1.623   5.351   1.725
13487TIP3   OH240403   1.145   6.185   1.630
13487TIP3    H140404   1.144   6.241   1.553
13487TIP3    H240405   1.211   6.118   1.611
13488TIP3   OH240406   1.176   2.483   0.010
13488TIP3    H140407   1.175   2.512   0.102
13488TIP3    H240408   1.166   2.388   0.015
13489TIP3   OH240409   0.564   7.317   4.824
13489TIP3    H140410   0.549   7.398   4.775
13489TIP3    H240411   0.547   7.341   4.915
13490TIP3   OH240412   5.130   3.244   4.506
13490TIP3    H140413   5.110   3.204   4.591
13490TIP3    H240414   5.225   3.239   4.498
13491TIP3   OH240415   4.527   2.196   1.654
13491TIP3    H140416   4.583   2.271   1.670
13491TIP3    H240417   4.507   2.162   1.741
13492TIP3   OH240418   0.604   3.156   2.795
13492TIP3    H140419   0.633   3.140   2.885
13492TIP3    H240420   0.521   3.109   2.788
13493TIP3   OH240421   4.238   2.544   5.188
13493TIP3    H140422   4.292   2.610   5.144
13493TIP3    H240423   4.301   2.489   5.234
13494TIP3   OH240424   1.482   3.703   3.765
13494TIP3    H140425   1.571   3.724   3.795
13494TIP3    H240426   1.468   3.613   3.793
13495TIP3   OH240427   5.950   4.277   2.334
13495TIP3    H140428   5.901   4.358   2.322
13495TIP3    H240429   6.002   4.267   2.254
13496TIP3   OH240430   1.561   0.454   5.230
13496TIP3    H140431   1.627   0.402   5.183
13496TIP3    H240432   1.562   0.539   5.186
13497TIP3   OH240433   1.797   4.001   5.410
13497TIP3    H140434   1.753   3.927   5.452
13497TIP3    H240435   1.734   4.072   5.416
13498TIP3   OH240436   7.271   3.786   6.411
13498TIP3    H140437   7.178   3.779   6.431
13498TIP3    H240438   7.278   3.767   6.318
13499TIP3   OH240439   3.416   3.891   0.747
13499TIP3    H140440   3.453   3.913   0.662
13499TIP3    H240441   3.463   3.812   0.774
13500TIP3   OH240442   1.715   6.341   4.651
13500TIP3    H140443   1.718   6.428   4.689
13500TIP3    H240444   1.622   6.317   4.653
13501TIP3   OH240445   2.144   3.656   4.382
13501TIP3    H140446   2.208   3.698   4.324
13501TIP3    H240447   2.170   3.564   4.383
13502TIP3   OH240448   5.723   7.283   4.405
13502TIP3    H140449   5.665   7.302   4.478
13502TIP3    H240450   5.671   7.301   4.326
13503TIP3   OH240451   5.365   5.903   1.583
13503TIP3    H140452   5.372   5.872   1.492
13503TIP3    H240453   5.298   5.847   1.622
13504TIP3   OH240454   6.626   5.672   3.624
13504TIP3    H140455   6.572   5.719   3.687
13504TIP3    H240456   6.674   5.740   3.577
13505TIP3   OH240457   3.775   6.797   0.801
13505TIP3    H140458   3.797   6.850   0.724
13505TIP3    H240459   3.792   6.855   0.875
13506TIP3   OH240460   2.071   3.110   6.718
13506TIP3    H140461   2.059   3.191   6.767
13506TIP3    H240462   2.143   3.065   6.762
13507TIP3   OH240463   5.457   4.205   5.337
13507TIP3    H140464   5.369   4.196   5.299
13507TIP3    H240465   5.441   4.212   5.431
13508TIP3   OH240466   2.680   4.746   3.250
13508TIP3    H140467   2.643   4.802   3.319
13508TIP3    H240468   2.605   4.721   3.196
13509TIP3   OH240469   1.611   7.146   1.883
13509TIP3    H140470   1.530   7.157   1.932
13509TIP3    H240471   1.614   7.223   1.825
13510TIP3   OH240472   1.006   1.813   0.231
13510TIP3    H140473   0.980   1.890   0.180
13510TIP3    H240474   0.930   1.754   0.226
13511TIP3   OH240475   3.254   1.045   5.398
13511TIP3    H140476   3.267   1.110   5.467
13511TIP3    H240477   3.159   1.035   5.391
13512TIP3   OH240478   2.101   0.521   0.772
13512TIP3    H140479   2.180   0.489   0.816
13512TIP3    H240480   2.043   0.445   0.768
13513TIP3   OH240481   1.265   5.232   4.755
13513TIP3    H140482   1.285   5.280   4.675
13513TIP3    H240483   1.194   5.172   4.730
13514TIP3   OH240484   0.722   6.411   2.538
13514TIP3    H140485   0.647   6.457   2.575
13514TIP3    H240486   0.684   6.335   2.495
13515TIP3   OH240487   6.480   6.297   5.435
13515TIP3    H140488   6.519   6.370   5.482
13515TIP3    H240489   6.466   6.330   5.346
13516TIP3   OH240490   4.885   7.773   3.665
13516TIP3    H140491   4.882   7.685   3.703
13516TIP3    H240492   4.978   7.790   3.651
13517TIP3   OH240493   7.959   5.076   2.845
13517TIP3    H140494   7.960   5.018   2.921
13517TIP3    H240495   7.883   5.049   2.795
13518TIP3   OH240496   3.302   0.208   5.926
13518TIP3    H140497   3.358   0.134   5.903
13518TIP3    H240498   3.318   0.222   6.019
13519TIP3   OH240499   0.124   2.500   4.987
13519TIP3    H140500   0.161   2.559   4.921
13519TIP3    H240501   0.037   2.477   4.953
13520TIP3   OH240502   4.082   4.826   4.375
13520TIP3    H140503   3.991   4.842   4.401
13520TIP3    H240504   4.115   4.766   4.442
13521TIP3   OH240505   3.730   4.975   0.489
13521TIP3    H140506   3.713   4.946   0.400
13521TIP3    H240507   3.684   5.059   0.497
13522TIP3   OH240508   3.666   7.550   0.099
13522TIP3    H140509   3.746   7.537   0.150
13522TIP3    H240510   3.595   7.523   0.157
13523TIP3   OH240511   5.807   3.799   5.774
13523TIP3    H140512   5.775   3.830   5.858
13523TIP3    H240513   5.872   3.864   5.747
13524TIP3   OH240514   7.384   6.157   2.507
13524TIP3    H140515   7.428   6.204   2.578
13524TIP3    H240516   7.434   6.076   2.498
13525TIP3   OH240517   3.086   1.751   2.075
13525TIP3    H140518   3.086   1.676   2.015
13525TIP3    H240519   3.173   1.749   2.116
13526TIP3   OH240520   5.437   0.113   1.893
13526TIP3    H140521   5.362   0.171   1.883
13526TIP3    H240522   5.487   0.124   1.812
13527TIP3   OH240523   4.091   4.276   3.079
13527TIP3    H140524   4.049   4.262   2.994
13527TIP3    H240525   4.147   4.198   3.090
13528TIP3   OH240526   0.040   0.465   6.012
13528TIP3    H140527   0.075   0.518   6.083
13528TIP3    H240528   0.021   0.380   6.053
13529TIP3   OH240529   6.047   2.853   3.744
13529TIP3    H140530   6.017   2.894   3.825
13529TIP3    H240531   5.972   2.802   3.714
13530TIP3   OH240532   2.695   1.588   5.708
13530TIP3    H140533   2.711   1.682   5.720
13530TIP3    H240534   2.732   1.548   5.787
13531TIP3   OH240535   2.853   4.221   2.429
13531TIP3    H140536   2.894   4.138   2.405
13531TIP3    H240537   2.815   4.253   2.347
13532TIP3   OH240538   1.142   0.606   3.847
13532TIP3    H140539   1.210   0.584   3.911
13532TIP3    H240540   1.190   0.624   3.767
13533TIP3   OH240541   7.111   5.985   3.801
13533TIP3    H140542   7.158   6.049   3.854
13533TIP3    H240543   7.113   5.904   3.853
13534TIP3   OH240544   0.593   1.054   5.594
13534TIP3    H140545   0.541   1.125   5.557
13534TIP3    H240546   0.536   0.977   5.591
13535TIP3   OH240547   2.145   6.573   5.143
13535TIP3    H140548   2.238   6.557   5.160
13535TIP3    H240549   2.107   6.589   5.229
13536TIP3   OH240550   4.888   5.294   4.844
13536TIP3    H140551   4.970   5.250   4.864
13536TIP3    H240552   4.864   5.261   4.757
13537TIP3   OH240553   5.174   5.793   4.748
13537TIP3    H140554   5.185   5.869   4.805
13537TIP3    H240555   5.259   5.782   4.705
13538TIP3   OH240556   5.786   7.232   4.086
13538TIP3    H140557   5.700   7.239   4.128
13538TIP3    H240558   5.768   7.238   3.992
13539TIP3   OH240559   7.878   3.967   3.786
13539TIP3    H140560   7.832   3.995   3.866
13539TIP3    H240561   7.816   3.988   3.716
13540TIP3   OH240562   6.270   1.725   4.112
13540TIP3    H140563   6.265   1.819   4.095
13540TIP3    H240564   6.197   1.688   4.063
13541TIP3   OH240565   2.436   3.542   3.942
13541TIP3    H140566   2.525   3.509   3.946
13541TIP3    H240567   2.383   3.466   3.918
13542TIP3   OH240568   1.448   5.537   0.334
13542TIP3    H140569   1.474   5.462   0.387
13542TIP3    H240570   1.528   5.562   0.287
13543TIP3   OH240571   6.964   3.706   0.929
13543TIP3    H140572   7.029   3.766   0.966
13543TIP3    H240573   7.004   3.673   0.849
13544TIP3   OH240574   6.071   1.710   6.534
13544TIP3    H140575   6.017   1.787   6.516
13544TIP3    H240576   6.148   1.721   6.477
13545TIP3   OH240577   7.264   6.555   1.158
13545TIP3    H140578   7.215   6.615   1.101
13545TIP3    H240579   7.356   6.571   1.136
13546TIP3   OH240580   0.907   5.769   0.376
13546TIP3    H140581   0.820   5.806   0.395
13546TIP3    H240582   0.951   5.838   0.325
13547TIP3   OH240583   6.451   5.146   0.516
13547TIP3    H140584   6.467   5.229   0.560
13547TIP3    H240585   6.450   5.166   0.423
13548TIP3   OH240586   7.858   1.776   0.590
13548TIP3    H140587   7.812   1.799   0.509
13548TIP3    H240588   7.911   1.852   0.611
13549TIP3   OH240589   4.117   2.743   0.948
13549TIP3    H140590   4.116   2.657   0.905
13549TIP3    H240591   4.198   2.783   0.919
13550TIP3   OH240592   3.582   1.017   3.745
13550TIP3    H140593   3.559   1.056   3.660
13550TIP3    H240594   3.675   0.996   3.737
13551TIP3   OH240595   2.053   6.155   0.710
13551TIP3    H140596   2.124   6.090   0.706
13551TIP3    H240597   1.976   6.109   0.677
13552TIP3   OH240598   2.198   4.152   6.703
13552TIP3    H140599   2.170   4.242   6.717
13552TIP3    H240600   2.284   4.160   6.661
13553TIP3   OH240601   0.572   3.013   6.708
13553TIP3    H140602   0.478   2.994   6.707
13553TIP3    H240603   0.613   2.930   6.685
13554TIP3   OH240604   1.161   0.233   0.347
13554TIP3    H140605   1.206   0.191   0.421
13554TIP3    H240606   1.179   0.175   0.272
13555TIP3   OH240607   7.481   6.607   1.407
13555TIP3    H140608   7.539   6.577   1.337
13555TIP3    H240609   7.475   6.533   1.467
13556TIP3   OH240610   1.005   3.616   4.431
13556TIP3    H140611   1.020   3.529   4.396
13556TIP3    H240612   1.016   3.675   4.356
13557TIP3   OH240613   2.432   1.805   2.150
13557TIP3    H140614   2.407   1.800   2.242
13557TIP3    H240615   2.351   1.825   2.104
13558TIP3   OH240616   4.612   0.171   5.094
13558TIP3    H140617   4.558   0.134   5.164
13558TIP3    H240618   4.582   0.127   5.014
13559TIP3   OH240619   1.999   2.346   0.779
13559TIP3    H140620   1.906   2.366   0.789
13559TIP3    H240621   2.013   2.268   0.833
13560TIP3   OH240622   2.447   1.970   2.540
13560TIP3    H140623   2.413   1.948   2.627
13560TIP3    H240624   2.408   1.904   2.483
13561TIP3   OH240625   6.179   3.907   0.483
13561TIP3    H140626   6.266   3.905   0.523
13561TIP3    H240627   6.196   3.919   0.390
13562TIP3   OH240628   5.191   7.440   5.076
13562TIP3    H140629   5.207   7.494   5.153
13562TIP3    H240630   5.271   7.450   5.023
13563TIP3   OH240631   0.351   1.008   1.765
13563TIP3    H140632   0.431   0.990   1.814
13563TIP3    H240633   0.293   1.051   1.829
13564TIP3   OH240634   6.441   3.395   3.016
13564TIP3    H140635   6.475   3.349   2.939
13564TIP3    H240636   6.513   3.394   3.078
13565TIP3   OH240637   4.794   3.689   1.919
13565TIP3    H140638   4.792   3.613   1.861
13565TIP3    H240639   4.870   3.674   1.975
13566TIP3   OH240640   2.562   1.465   4.952
13566TIP3    H140641   2.578   1.426   5.038
13566TIP3    H240642   2.469   1.489   4.953
13567TIP3   OH240643   1.281   3.380   5.949
13567TIP3    H140644   1.291   3.294   5.990
13567TIP3    H240645   1.293   3.363   5.856
13568TIP3   OH240646   5.494   6.165   2.852
13568TIP3    H140647   5.457   6.231   2.793
13568TIP3    H240648   5.419   6.133   2.903
13569TIP3   OH240649   7.528   4.531   4.292
13569TIP3    H140650   7.558   4.502   4.378
13569TIP3    H240651   7.445   4.576   4.309
13570TIP3   OH240652   0.184   0.417   4.844
13570TIP3    H140653   0.215   0.357   4.777
13570TIP3    H240654   0.256   0.420   4.908
13571TIP3   OH240655   2.015   2.945   5.626
13571TIP3    H140656   2.077   3.016   5.617
13571TIP3    H240657   1.929   2.986   5.613
13572TIP3   OH240658   5.914   2.126   1.596
13572TIP3    H140659   5.967   2.163   1.525
13572TIP3    H240660   5.855   2.197   1.622
13573TIP3   OH240661   7.447   0.753   0.413
13573TIP3    H140662   7.418   0.684   0.473
13573TIP3    H240663   7.426   0.835   0.458
13574TIP3   OH240664   3.815   4.628   3.127
13574TIP3    H140665   3.902   4.656   3.100
13574TIP3    H240666   3.817   4.533   3.116
13575TIP3   OH240667   1.626   2.789   6.437
13575TIP3    H140668   1.572   2.723   6.481
13575TIP3    H240669   1.573   2.817   6.362
13576TIP3   OH240670   1.555   4.362   3.300
13576TIP3    H140671   1.544   4.409   3.383
13576TIP3    H240672   1.573   4.272   3.326
13577TIP3   OH240673   4.837   1.518   3.508
13577TIP3    H140674   4.766   1.490   3.567
13577TIP3    H240675   4.866   1.436   3.467
13578TIP3   OH240676   7.615   3.131   2.525
13578TIP3    H140677   7.588   3.082   2.603
13578TIP3    H240678   7.573   3.085   2.452
13579TIP3   OH240679   4.086   0.806   0.194
13579TIP3    H140680   4.082   0.807   0.099
13579TIP3    H240681   4.177   0.785   0.214
13580TIP3   OH240682   3.255   5.307   1.975
13580TIP3    H140683   3.198   5.351   2.038
13580TIP3    H240684   3.330   5.278   2.027
13581TIP3   OH240685   5.901   7.668   4.894
13581TIP3    H140686   5.874   7.617   4.971
13581TIP3    H240687   5.934   7.750   4.930
13582TIP3   OH240688   2.891   7.231   2.783
13582TIP3    H140689   2.887   7.241   2.688
13582TIP3    H240690   2.910   7.319   2.816
13583TIP3   OH240691   6.541   1.164   3.156
13583TIP3    H140692   6.479   1.139   3.224
13583TIP3    H240693   6.605   1.092   3.154
13584TIP3   OH240694   1.166   4.014   4.732
13584TIP3    H140695   1.238   4.060   4.775
13584TIP3    H240696   1.204   3.931   4.704
13585TIP3   OH240697   5.977   7.462   1.055
13585TIP3    H140698   5.890   7.501   1.065
13585TIP3    H240699   6.035   7.536   1.037
13586TIP3   OH240700   2.037   2.022   4.313
13586TIP3    H140701   2.072   2.056   4.230
13586TIP3    H240702   1.946   2.000   4.294
13587TIP3   OH240703   4.930   4.026   6.505
13587TIP3    H140704   5.003   4.074   6.544
13587TIP3    H240705   4.873   4.093   6.468
13588TIP3   OH240706   6.513   0.532   5.050
13588TIP3    H140707   6.566   0.454   5.033
13588TIP3    H240708   6.547   0.598   4.990
13589TIP3   OH240709   1.622   1.409   0.655
13589TIP3    H140710   1.650   1.334   0.708
13589TIP3    H240711   1.575   1.466   0.716
13590TIP3   OH240712   4.971   4.901   6.574
13590TIP3    H140713   5.053   4.933   6.537
13590TIP3    H240714   4.921   4.871   6.498
13591TIP3   OH240715   2.270   6.032   3.259
13591TIP3    H140716   2.264   5.974   3.335
13591TIP3    H240717   2.182   6.032   3.222
13592TIP3   OH240718   0.819   4.209   3.005
13592TIP3    H140719   0.770   4.277   3.052
13592TIP3    H240720   0.797   4.223   2.913
13593TIP3   OH240721   6.237   5.867   1.372
13593TIP3    H140722   6.308   5.821   1.417
13593TIP3    H240723   6.157   5.831   1.410
13594TIP3   OH240724   5.695   1.645   6.094
13594TIP3    H140725   5.755   1.715   6.120
13594TIP3    H240726   5.629   1.688   6.039
13595TIP3   OH240727   3.093   7.582   2.845
13595TIP3    H140728   3.170   7.603   2.898
13595TIP3    H240729   3.118   7.503   2.797
13596TIP3   OH240730   7.479   3.297   6.572
13596TIP3    H140731   7.442   3.314   6.659
13596TIP3    H240732   7.427   3.225   6.538
13597TIP3   OH240733   6.902   3.848   5.629
13597TIP3    H140734   6.972   3.828   5.691
13597TIP3    H240735   6.858   3.764   5.615
13598TIP3   OH240736   4.356   0.667   2.205
13598TIP3    H140737   4.432   0.642   2.153
13598TIP3    H240738   4.387   0.738   2.261
13599TIP3   OH240739   3.665   5.937   5.353
13599TIP3    H140740   3.684   6.031   5.364
13599TIP3    H240741   3.740   5.903   5.306
13600TIP3   OH240742   0.495   0.839   0.169
13600TIP3    H140743   0.525   0.911   0.225
13600TIP3    H240744   0.569   0.779   0.166
13601TIP3   OH240745   2.437   3.362   1.863
13601TIP3    H140746   2.530   3.349   1.877
13601TIP3    H240747   2.415   3.441   1.912
13602TIP3   OH240748   3.360   6.344   0.229
13602TIP3    H140749   3.412   6.264   0.238
13602TIP3    H240750   3.270   6.317   0.247
13603TIP3   OH240751   7.772   1.671   0.198
13603TIP3    H140752   7.844   1.685   0.137
13603TIP3    H240753   7.792   1.588   0.241
13604TIP3   OH240754   5.976   1.600   1.439
13604TIP3    H140755   5.989   1.548   1.518
13604TIP3    H240756   5.985   1.537   1.367
13605TIP3   OH240757   3.463   4.600   1.569
13605TIP3    H140758   3.437   4.681   1.614
13605TIP3    H240759   3.447   4.618   1.476
13606TIP3   OH240760   5.423   5.800   0.613
13606TIP3    H140761   5.461   5.870   0.664
13606TIP3    H240762   5.458   5.719   0.651
13607TIP3   OH240763   2.252   1.330   5.993
13607TIP3    H140764   2.336   1.353   6.032
13607TIP3    H240765   2.200   1.295   6.066
13608TIP3   OH240766   2.193   2.532   1.112
13608TIP3    H140767   2.141   2.454   1.094
13608TIP3    H240768   2.212   2.528   1.205
13609TIP3   OH240769   5.110   1.567   4.645
13609TIP3    H140770   5.102   1.655   4.608
13609TIP3    H240771   5.188   1.570   4.699
13610TIP3   OH240772   0.935   0.924   1.326
13610TIP3    H140773   1.021   0.925   1.367
13610TIP3    H240774   0.877   0.885   1.391
13611TIP3   OH240775   3.467   4.920   5.676
13611TIP3    H140776   3.485   4.881   5.761
13611TIP3    H240777   3.412   4.996   5.696
13612TIP3   OH240778   3.429   6.589   2.756
13612TIP3    H140779   3.430   6.684   2.744
13612TIP3    H240780   3.516   6.568   2.791
13613TIP3   OH240781   0.528   2.159   1.685
13613TIP3    H140782   0.622   2.173   1.698
13613TIP3    H240783   0.521   2.066   1.663
13614TIP3   OH240784   4.706   6.502   2.602
13614TIP3    H140785   4.671   6.578   2.649
13614TIP3    H240786   4.739   6.444   2.670
13615TIP3   OH240787   3.140   4.623   1.755
13615TIP3    H140788   3.062   4.567   1.753
13615TIP3    H240789   3.212   4.564   1.774
13616TIP3   OH240790   4.069   1.531   5.401
13616TIP3    H140791   4.107   1.489   5.478
13616TIP3    H240792   4.023   1.460   5.356
13617TIP3   OH240793   0.393   7.529   2.604
13617TIP3    H140794   0.459   7.574   2.657
13617TIP3    H240795   0.434   7.446   2.581
13618TIP3   OH240796   6.045   3.083   5.346
13618TIP3    H140797   5.981   3.103   5.278
13618TIP3    H240798   6.130   3.101   5.305
13619TIP3   OH240799   7.948   5.041   0.298
13619TIP3    H140800   7.949   4.996   0.382
13619TIP3    H240801   7.960   5.133   0.320
13620TIP3   OH240802   7.029   1.413   6.099
13620TIP3    H140803   7.037   1.506   6.118
13620TIP3    H240804   6.941   1.389   6.129
13621TIP3   OH240805   7.197   3.690   4.966
13621TIP3    H140806   7.285   3.661   4.945
13621TIP3    H240807   7.169   3.741   4.890
13622TIP3   OH240808   1.084   5.688   5.791
13622TIP3    H140809   1.108   5.606   5.835
13622TIP3    H240810   1.092   5.668   5.697
13623TIP3   OH240811   7.623   2.860   2.118
13623TIP3    H140812   7.694   2.913   2.081
13623TIP3    H240813   7.667   2.793   2.169
13624TIP3   OH240814   7.700   2.070   3.553
13624TIP3    H140815   7.751   1.998   3.514
13624TIP3    H240816   7.698   2.050   3.646
13625TIP3   OH240817   6.217   1.544   6.314
13625TIP3    H140818   6.269   1.624   6.322
13625TIP3    H240819   6.198   1.538   6.221
13626TIP3   OH240820   3.689   6.412   0.877
13626TIP3    H140821   3.645   6.436   0.959
13626TIP3    H240822   3.662   6.480   0.815
13627TIP3   OH240823   5.579   7.124   2.350
13627TIP3    H140824   5.540   7.044   2.314
13627TIP3    H240825   5.530   7.141   2.430
13628TIP3   OH240826   6.378   0.857   6.254
13628TIP3    H140827   6.459   0.904   6.274
13628TIP3    H240828   6.405   0.791   6.190
13629TIP3   OH240829   7.574   3.666   1.701
13629TIP3    H140830   7.522   3.741   1.731
13629TIP3    H240831   7.664   3.686   1.726
13630TIP3   OH240832   4.468   5.113   5.896
13630TIP3    H140833   4.464   5.114   5.992
13630TIP3    H240834   4.550   5.067   5.876
13631TIP3   OH240835   0.859   6.287   1.848
13631TIP3    H140836   0.790   6.328   1.797
13631TIP3    H240837   0.857   6.333   1.932
13632TIP3   OH240838   2.750   1.865   1.106
13632TIP3    H140839   2.656   1.856   1.090
13632TIP3    H240840   2.786   1.778   1.086
13633TIP3   OH240841   7.900   1.443   2.216
13633TIP3    H140842   7.840   1.374   2.187
13633TIP3    H240843   7.850   1.491   2.282
13634TIP3   OH240844   7.547   4.396   6.387
13634TIP3    H140845   7.458   4.415   6.417
13634TIP3    H240846   7.536   4.357   6.300
13635TIP3   OH240847   4.639   2.824   1.615
13635TIP3    H140848   4.733   2.805   1.620
13635TIP3    H240849   4.625   2.894   1.679
13636TIP3   OH240850   4.114   4.838   3.101
13636TIP3    H140851   4.136   4.865   3.190
13636TIP3    H240852   4.136   4.745   3.097
13637TIP3   OH240853   2.669   2.845   5.483
13637TIP3    H140854   2.633   2.771   5.532
13637TIP3    H240855   2.591   2.893   5.453
13638TIP3   OH240856   4.012   2.060   2.183
13638TIP3    H140857   4.000   1.969   2.155
13638TIP3    H240858   3.934   2.078   2.236
13639TIP3   OH240859   6.880   3.144   5.930
13639TIP3    H140860   6.931   3.105   6.001
13639TIP3    H240861   6.864   3.234   5.959
13640TIP3   OH240862   2.592   7.721   3.754
13640TIP3    H140863   2.610   7.656   3.822
13640TIP3    H240864   2.618   7.804   3.794
13641TIP3   OH240865   7.724   4.520   0.967
13641TIP3    H140866   7.630   4.508   0.951
13641TIP3    H240867   7.749   4.444   1.020
13642TIP3   OH240868   1.330   0.710   1.897
13642TIP3    H140869   1.358   0.626   1.862
13642TIP3    H240870   1.405   0.768   1.884
13643TIP3   OH240871   2.056   0.329   1.661
13643TIP3    H140872   1.994   0.316   1.589
13643TIP3    H240873   2.124   0.263   1.646
13644TIP3   OH240874   6.222   4.024   6.192
13644TIP3    H140875   6.254   4.047   6.105
13644TIP3    H240876   6.240   3.931   6.201
13645TIP3   OH240877   7.447   5.586   0.300
13645TIP3    H140878   7.369   5.533   0.318
13645TIP3    H240879   7.421   5.644   0.229
13646TIP3   OH240880   3.536   5.007   0.907
13646TIP3    H140881   3.453   5.031   0.865
13646TIP3    H240882   3.516   4.930   0.959
13647TIP3   OH240883   3.630   6.019   3.229
13647TIP3    H140884   3.544   6.055   3.248
13647TIP3    H240885   3.668   6.000   3.314
13648TIP3   OH240886   3.983   6.007   0.106
13648TIP3    H140887   3.964   5.927   0.057
13648TIP3    H240888   3.976   6.078   0.041
13649TIP3   OH240889   3.102   6.223   0.326
13649TIP3    H140890   3.121   6.195   0.415
13649TIP3    H240891   3.019   6.271   0.333
13650TIP3   OH240892   1.787   4.562   1.743
13650TIP3    H140893   1.809   4.528   1.829
13650TIP3    H240894   1.710   4.511   1.716
13651TIP3   OH240895   4.700   1.321   3.292
13651TIP3    H140896   4.696   1.300   3.199
13651TIP3    H240897   4.792   1.344   3.307
13652TIP3   OH240898   7.823   7.304   6.633
13652TIP3    H140899   7.851   7.339   6.718
13652TIP3    H240900   7.886   7.233   6.615
13653TIP3   OH240901   3.500   7.008   0.139
13653TIP3    H140902   3.537   7.081   0.089
13653TIP3    H240903   3.434   6.971   0.081
13654TIP3   OH240904   5.830   5.153   1.789
13654TIP3    H140905   5.798   5.173   1.877
13654TIP3    H240906   5.752   5.155   1.735
13655TIP3   OH240907   2.947   0.398   6.699
13655TIP3    H140908   2.863   0.426   6.735
13655TIP3    H240909   2.930   0.310   6.664
13656TIP3   OH240910   8.182   6.541   1.938
13656TIP3    H140911   8.115   6.539   2.007
13656TIP3    H240912   8.171   6.627   1.897
13657TIP3   OH240913   0.169   5.662   3.459
13657TIP3    H140914   0.203   5.751   3.458
13657TIP3    H240915   0.198   5.624   3.376
13658TIP3   OH240916   2.900   3.447   0.590
13658TIP3    H140917   2.988   3.477   0.613
13658TIP3    H240918   2.852   3.446   0.673
13659TIP3   OH240919   4.499   6.540   2.231
13659TIP3    H140920   4.465   6.626   2.208
13659TIP3    H240921   4.444   6.478   2.183
13660TIP3   OH240922   0.372   1.708   1.474
13660TIP3    H140923   0.400   1.620   1.499
13660TIP3    H240924   0.300   1.694   1.413
13661TIP3   OH240925   0.627   1.707   4.138
13661TIP3    H140926   0.659   1.750   4.216
13661TIP3    H240927   0.531   1.706   4.149
13662TIP3   OH240928   3.375   7.674   4.768
13662TIP3    H140929   3.439   7.604   4.758
13662TIP3    H240930   3.427   7.751   4.794
13663TIP3   OH240931   5.868   4.488   5.795
13663TIP3    H140932   5.867   4.394   5.815
13663TIP3    H240933   5.882   4.530   5.880
13664TIP3   OH240934   3.455   0.858   3.092
13664TIP3    H140935   3.469   0.937   3.039
13664TIP3    H240936   3.370   0.826   3.064
13665TIP3   OH240937   1.731   3.533   3.967
13665TIP3    H140938   1.748   3.493   3.882
13665TIP3    H240939   1.793   3.606   3.971
13666TIP3   OH240940   6.467   1.084   6.420
13666TIP3    H140941   6.373   1.088   6.399
13666TIP3    H240942   6.489   1.174   6.442
13667TIP3   OH240943   3.087   4.891   5.770
13667TIP3    H140944   2.992   4.890   5.766
13667TIP3    H240945   3.114   4.952   5.701
13668TIP3   OH240946   1.057   6.487   1.543
13668TIP3    H140947   1.098   6.443   1.618
13668TIP3    H240948   0.988   6.427   1.515
13669TIP3   OH240949   0.491   5.204   5.222
13669TIP3    H140950   0.495   5.294   5.189
13669TIP3    H240951   0.545   5.205   5.301
13670TIP3   OH240952   6.209   5.425   6.678
13670TIP3    H140953   6.273   5.355   6.685
13670TIP3    H240954   6.124   5.381   6.682
13671TIP3   OH240955   1.137   3.868   5.836
13671TIP3    H140956   1.161   3.794   5.891
13671TIP3    H240957   1.077   3.920   5.890
13672TIP3   OH240958   1.999   2.686   0.502
13672TIP3    H140959   2.093   2.679   0.519
13672TIP3    H240960   1.966   2.596   0.513
13673TIP3   OH240961   2.193   6.393   4.803
13673TIP3    H140962   2.273   6.446   4.804
13673TIP3    H240963   2.167   6.389   4.711
13674TIP3   OH240964   0.097   4.928   3.653
13674TIP3    H140965   0.115   4.989   3.725
13674TIP3    H240966   0.115   4.978   3.574
13675TIP3   OH240967   0.830   5.501   0.179
13675TIP3    H140968   0.810   5.459   0.262
13675TIP3    H240969   0.865   5.587   0.202
13676TIP3   OH240970   7.757   4.391   3.101
13676TIP3    H140971   7.820   4.417   3.169
13676TIP3    H240972   7.791   4.307   3.070
13677TIP3   OH240973   0.226   2.648   3.303
13677TIP3    H140974   0.264   2.681   3.222
13677TIP3    H240975   0.297   2.655   3.367
13678TIP3   OH240976   0.504   5.783   4.802
13678TIP3    H140977   0.529   5.814   4.889
13678TIP3    H240978   0.464   5.859   4.760
13679TIP3   OH240979   7.729   6.375   6.190
13679TIP3    H140980   7.668   6.413   6.126
13679TIP3    H240981   7.815   6.404   6.160
13680TIP3   OH240982   3.000   7.022   4.332
13680TIP3    H140983   2.939   6.971   4.279
13680TIP3    H240984   2.965   7.016   4.421
13681TIP3   OH240985   2.908   4.322   4.951
13681TIP3    H140986   2.857   4.365   5.019
13681TIP3    H240987   2.850   4.252   4.918
13682TIP3   OH240988   3.954   6.446   0.790
13682TIP3    H140989   3.997   6.401   0.862
13682TIP3    H240990   3.862   6.418   0.796
13683TIP3   OH240991   4.639   1.964   1.613
13683TIP3    H140992   4.591   1.893   1.656
13683TIP3    H240993   4.591   2.043   1.636
13684TIP3   OH240994   4.977   1.236   4.637
13684TIP3    H140995   4.953   1.265   4.726
13684TIP3    H240996   5.070   1.214   4.644
13685TIP3   OH240997   1.835   1.878   3.378
13685TIP3    H140998   1.895   1.952   3.370
13685TIP3    H240999   1.865   1.832   3.457
13686TIP3   OH241000   2.761   5.405   5.544
13686TIP3    H141001   2.671   5.436   5.553
13686TIP3    H241002   2.813   5.472   5.590
13687TIP3   OH241003   6.007   3.456   6.071
13687TIP3    H141004   6.086   3.509   6.060
13687TIP3    H241005   6.003   3.403   5.992
13688TIP3   OH241006   4.653   3.952   2.072
13688TIP3    H141007   4.585   3.921   2.131
13688TIP3    H241008   4.681   3.873   2.025
13689TIP3   OH241009   1.351   1.034   5.183
13689TIP3    H141010   1.293   1.094   5.230
13689TIP3    H241011   1.340   0.951   5.229
13690TIP3   OH241012   7.085   3.787   4.744
13690TIP3    H141013   7.030   3.711   4.765
13690TIP3    H241014   7.033   3.862   4.773
13691TIP3   OH241015   1.299   5.803   0.787
13691TIP3    H141016   1.350   5.741   0.735
13691TIP3    H241017   1.220   5.818   0.736
13692TIP3   OH241018   3.653   2.381   1.950
13692TIP3    H141019   3.735   2.343   1.980
13692TIP3    H241020   3.606   2.308   1.909
13693TIP3   OH241021   2.443   5.278   6.071
13693TIP3    H141022   2.518   5.334   6.092
13693TIP3    H241023   2.403   5.319   5.995
13694TIP3   OH241024   1.039   5.031   3.493
13694TIP3    H141025   1.031   4.943   3.457
13694TIP3    H241026   1.018   5.089   3.420
13695TIP3   OH241027   2.679   3.492   0.372
13695TIP3    H141028   2.731   3.434   0.426
13695TIP3    H241029   2.741   3.533   0.312
13696TIP3   OH241030   5.825   1.663   5.336
13696TIP3    H141031   5.729   1.669   5.333
13696TIP3    H241032   5.842   1.577   5.375
13697TIP3   OH241033   6.764   2.268   5.831
13697TIP3    H141034   6.787   2.324   5.905
13697TIP3    H241035   6.695   2.211   5.865
13698TIP3   OH241036   0.118   7.375   6.310
13698TIP3    H141037   0.066   7.299   6.337
13698TIP3    H241038   0.208   7.342   6.303
13699TIP3   OH241039   6.209   6.369   0.037
13699TIP3    H141040   6.151   6.444   0.047
13699TIP3    H241041   6.250   6.359   0.123
13700TIP3   OH241042   4.281   7.434   6.393
13700TIP3    H141043   4.276   7.469   6.482
13700TIP3    H241044   4.239   7.500   6.338
13701TIP3   OH241045   6.013   1.756   4.353
13701TIP3    H141046   6.093   1.803   4.378
13701TIP3    H241047   5.951   1.825   4.329
13702TIP3   OH241048   0.019   2.899   5.775
13702TIP3    H141049   0.093   2.849   5.741
13702TIP3    H241050  -0.057   2.844   5.757
13703TIP3   OH241051   6.460   2.444   3.720
13703TIP3    H141052   6.411   2.525   3.711
13703TIP3    H241053   6.540   2.458   3.668
13704TIP3   OH241054   4.621   4.952   6.657
13704TIP3    H141055   4.662   5.025   6.611
13704TIP3    H241056   4.540   4.935   6.609
13705TIP3   OH241057   5.615   2.550   2.319
13705TIP3    H141058   5.586   2.474   2.269
13705TIP3    H241059   5.610   2.522   2.411
13706TIP3   OH241060   7.778   3.577   0.325
13706TIP3    H141061   7.842   3.610   0.263
13706TIP3    H241062   7.823   3.504   0.369
13707TIP3   OH241063   4.698   5.987   5.815
13707TIP3    H141064   4.731   5.989   5.725
13707TIP3    H241065   4.613   5.943   5.808
13708TIP3   OH241066   5.382   6.494   2.349
13708TIP3    H141067   5.449   6.428   2.327
13708TIP3    H241068   5.422   6.547   2.418
13709TIP3   OH241069   3.878   7.214   0.051
13709TIP3    H141070   3.889   7.291   0.106
13709TIP3    H241071   3.883   7.139   0.111
13710TIP3   OH241072   5.921   5.469   0.073
13710TIP3    H141073   5.952   5.528   0.004
13710TIP3    H241074   5.991   5.470   0.139
13711TIP3   OH241075   0.514   0.517   2.406
13711TIP3    H141076   0.592   0.531   2.353
13711TIP3    H241077   0.444   0.502   2.342
13712TIP3   OH241078   5.869   0.697   6.543
13712TIP3    H141079   5.931   0.732   6.479
13712TIP3    H241080   5.878   0.753   6.620
13713TIP3   OH241081   6.505   0.745   1.240
13713TIP3    H141082   6.572   0.777   1.180
13713TIP3    H241083   6.470   0.823   1.282
13714TIP3   OH241084   8.149   3.431   4.259
13714TIP3    H141085   8.197   3.348   4.250
13714TIP3    H241086   8.065   3.414   4.216
13715TIP3   OH241087   4.159   0.438   3.752
13715TIP3    H141088   4.176   0.473   3.839
13715TIP3    H241089   4.222   0.366   3.741
13716TIP3   OH241090   5.325   3.224   6.668
13716TIP3    H141091   5.362   3.151   6.619
13716TIP3    H241092   5.236   3.195   6.690
13717TIP3   OH241093   6.983   7.175   1.717
13717TIP3    H141094   7.005   7.083   1.703
13717TIP3    H241095   7.060   7.211   1.762
13718TIP3   OH241096   3.694   2.268   1.288
13718TIP3    H141097   3.706   2.194   1.228
13718TIP3    H241098   3.639   2.329   1.240
13719TIP3   OH241099   0.852   5.690   2.380
13719TIP3    H141100   0.759   5.700   2.403
13719TIP3    H241101   0.899   5.709   2.462
13720TIP3   OH241102   5.344   5.377   3.840
13720TIP3    H141103   5.346   5.416   3.752
13720TIP3    H241104   5.401   5.434   3.892
13721TIP3   OH241105   4.735   4.696   4.927
13721TIP3    H141106   4.812   4.679   4.873
13721TIP3    H241107   4.711   4.786   4.907
13722TIP3   OH241108   1.924   4.380   6.028
13722TIP3    H141109   1.831   4.396   6.044
13722TIP3    H241110   1.964   4.376   6.115
13723TIP3   OH241111   7.845   5.328   3.548
13723TIP3    H141112   7.783   5.256   3.552
13723TIP3    H241113   7.849   5.352   3.456
13724TIP3   OH241114   6.416   4.384   3.792
13724TIP3    H141115   6.363   4.305   3.795
13724TIP3    H241116   6.401   4.426   3.877
13725TIP3   OH241117   6.824   6.698   4.925
13725TIP3    H141118   6.788   6.785   4.944
13725TIP3    H241119   6.763   6.660   4.862
13726TIP3   OH241120   4.097   7.359   2.526
13726TIP3    H141121   4.064   7.295   2.463
13726TIP3    H241122   4.113   7.309   2.605
13727TIP3   OH241123   7.242   3.372   0.722
13727TIP3    H141124   7.328   3.332   0.707
13727TIP3    H241125   7.263   3.462   0.746
13728TIP3   OH241126   3.290   0.007   3.423
13728TIP3    H141127   3.255   0.094   3.443
13728TIP3    H241128   3.219  -0.036   3.376
13729TIP3   OH241129   5.273   6.937   4.523
13729TIP3    H141130   5.181   6.911   4.534
13729TIP3    H241131   5.309   6.874   4.461
13730TIP3   OH241132   0.120   1.174   6.150
13730TIP3    H141133   0.053   1.116   6.187
13730TIP3    H241134   0.139   1.136   6.064
13731TIP3   OH241135   5.361   4.144   2.656
13731TIP3    H141136   5.335   4.229   2.620
13731TIP3    H241137   5.321   4.080   2.597
13732TIP3   OH241138   3.565   4.798   1.138
13732TIP3    H141139   3.585   4.755   1.055
13732TIP3    H241140   3.638   4.775   1.196
13733TIP3   OH241141   7.253   7.672   3.448
13733TIP3    H141142   7.252   7.744   3.511
13733TIP3    H241143   7.176   7.686   3.393
13734TIP3   OH241144   5.524   7.193   1.173
13734TIP3    H141145   5.609   7.213   1.133
13734TIP3    H241146   5.531   7.102   1.201
13735TIP3   OH241147   3.253   5.183   5.088
13735TIP3    H141148   3.262   5.277   5.104
13735TIP3    H241149   3.178   5.176   5.029
13736TIP3   OH241150   2.711   7.591   1.818
13736TIP3    H141151   2.760   7.589   1.900
13736TIP3    H241152   2.705   7.499   1.792
13737TIP3   OH241153   2.528   5.232   3.147
13737TIP3    H141154   2.488   5.191   3.223
13737TIP3    H241155   2.502   5.324   3.152
13738TIP3   OH241156   8.113   6.564   5.616
13738TIP3    H141157   8.122   6.594   5.706
13738TIP3    H241158   8.129   6.470   5.620
13739TIP3   OH241159   0.091   1.447   1.560
13739TIP3    H141160   0.107   1.486   1.646
13739TIP3    H241161   0.014   1.492   1.527
13740TIP3   OH241162   0.128   1.537   1.845
13740TIP3    H141163   0.176   1.457   1.864
13740TIP3    H241164   0.113   1.576   1.931
13741TIP3   OH241165   4.957   0.696   2.335
13741TIP3    H141166   4.959   0.646   2.417
13741TIP3    H241167   4.874   0.743   2.339
13742TIP3   OH241168   7.195   5.042   0.794
13742TIP3    H141169   7.182   5.059   0.888
13742TIP3    H241170   7.141   4.965   0.776
13743TIP3   OH241171   2.866   4.934   0.229
13743TIP3    H141172   2.858   4.992   0.153
13743TIP3    H241173   2.848   4.847   0.194
13744TIP3   OH241174   3.760   1.756   3.342
13744TIP3    H141175   3.783   1.702   3.266
13744TIP3    H241176   3.668   1.736   3.359
13745TIP3   OH241177   3.944   6.284   1.371
13745TIP3    H141178   3.966   6.215   1.309
13745TIP3    H241179   4.025   6.334   1.381
13746TIP3   OH241180   7.223   3.682   5.664
13746TIP3    H141181   7.178   3.728   5.735
13746TIP3    H241182   7.312   3.716   5.666
13747TIP3   OH241183   3.244   0.180   4.923
13747TIP3    H141184   3.244   0.257   4.980
13747TIP3    H241185   3.158   0.181   4.882
13748TIP3   OH241186   1.697   3.125   1.780
13748TIP3    H141187   1.620   3.068   1.783
13748TIP3    H241188   1.707   3.147   1.687
13749TIP3   OH241189   5.858   1.530   0.443
13749TIP3    H141190   5.876   1.595   0.375
13749TIP3    H241191   5.917   1.458   0.423
13750TIP3   OH241192   7.981   5.931   1.318
13750TIP3    H141193   7.941   5.880   1.388
13750TIP3    H241194   7.916   5.998   1.297
13751TIP3   OH241195   8.226   1.939   5.239
13751TIP3    H141196   8.237   1.877   5.168
13751TIP3    H241197   8.196   1.886   5.313
13752TIP3   OH241198   3.413   7.601   0.271
13752TIP3    H141199   3.435   7.557   0.353
13752TIP3    H241200   3.326   7.568   0.248
13753TIP3   OH241201   1.516   2.228   2.901
13753TIP3    H141202   1.554   2.303   2.856
13753TIP3    H241203   1.469   2.266   2.975
13754TIP3   OH241204   3.549   3.780   3.077
13754TIP3    H141205   3.546   3.864   3.033
13754TIP3    H241206   3.619   3.789   3.141
13755TIP3   OH241207   0.544   4.951   6.731
13755TIP3    H141208   0.530   4.933   6.824
13755TIP3    H241209   0.508   5.039   6.718
13756TIP3   OH241210   3.860   5.618   6.328
13756TIP3    H141211   3.902   5.692   6.371
13756TIP3    H241212   3.774   5.650   6.303
13757TIP3   OH241213   1.368   2.189   4.913
13757TIP3    H141214   1.311   2.166   4.840
13757TIP3    H241215   1.321   2.157   4.991
13758TIP3   OH241216   4.037   4.062   5.173
13758TIP3    H141217   4.004   4.130   5.114
13758TIP3    H241218   3.960   4.037   5.225
13759TIP3   OH241219   2.977   5.095   0.670
13759TIP3    H141220   2.986   5.135   0.757
13759TIP3    H241221   3.033   5.147   0.613
13760TIP3   OH241222   2.490   1.582   6.342
13760TIP3    H141223   2.567   1.639   6.332
13760TIP3    H241224   2.475   1.579   6.437
13761TIP3   OH241225   6.128   6.933   2.769
13761TIP3    H141226   6.174   6.865   2.720
13761TIP3    H241227   6.040   6.896   2.782
13762TIP3   OH241228   1.684   4.417   4.966
13762TIP3    H141229   1.765   4.429   5.015
13762TIP3    H241230   1.614   4.428   5.031
13763TIP3   OH241231   6.197   3.913   0.205
13763TIP3    H141232   6.290   3.897   0.192
13763TIP3    H241233   6.170   3.964   0.128
13764TIP3   OH241234   5.003   2.409   2.623
13764TIP3    H141235   4.985   2.346   2.693
13764TIP3    H241236   5.094   2.435   2.636
13765TIP3   OH241237   2.288   6.199   3.032
13765TIP3    H141238   2.196   6.173   3.036
13765TIP3    H241239   2.332   6.137   3.091
13766TIP3   OH241240   5.499   4.445   0.071
13766TIP3    H141241   5.526   4.448   0.162
13766TIP3    H241242   5.407   4.473   0.072
13767TIP3   OH241243   5.365   6.525   0.321
13767TIP3    H141244   5.310   6.558   0.249
13767TIP3    H241245   5.450   6.507   0.281
13768TIP3   OH241246   6.404   0.677   2.078
13768TIP3    H141247   6.314   0.693   2.049
13768TIP3    H241248   6.425   0.752   2.133
13769TIP3   OH241249   0.032   6.503   2.344
13769TIP3    H141250   0.120   6.489   2.380
13769TIP3    H241251  -0.027   6.469   2.411
13770TIP3   OH241252   4.967   7.524   6.497
13770TIP3    H141253   4.879   7.547   6.467
13770TIP3    H241254   4.960   7.520   6.592
13771TIP3   OH241255   2.664   5.441   6.098
13771TIP3    H141256   2.686   5.524   6.140
13771TIP3    H241257   2.735   5.426   6.036
13772TIP3   OH241258   5.023   0.760   3.218
13772TIP3    H141259   5.021   0.668   3.243
13772TIP3    H241260   5.106   0.793   3.252
13773TIP3   OH241261   4.391   6.052   0.626
13773TIP3    H141262   4.415   6.079   0.537
13773TIP3    H241263   4.368   5.959   0.617
13774TIP3   OH241264   5.869   7.306   2.855
13774TIP3    H141265   5.840   7.389   2.817
13774TIP3    H241266   5.795   7.246   2.842
13775TIP3   OH241267   3.872   1.180   6.689
13775TIP3    H141268   3.893   1.223   6.605
13775TIP3    H241269   3.921   1.230   6.754
13776TIP3   OH241270   6.248   7.403   0.577
13776TIP3    H141271   6.157   7.374   0.571
13776TIP3    H241272   6.288   7.371   0.497
13777TIP3   OH241273   1.322   6.461   0.799
13777TIP3    H141274   1.304   6.386   0.855
13777TIP3    H241275   1.411   6.445   0.766
13778TIP3   OH241276   2.401   1.171   2.997
13778TIP3    H141277   2.362   1.255   3.019
13778TIP3    H241278   2.495   1.188   2.989
13779TIP3   OH241279   4.739   1.708   1.942
13779TIP3    H141280   4.817   1.758   1.966
13779TIP3    H241281   4.755   1.620   1.977
13780TIP3   OH241282   4.763   5.539   3.836
13780TIP3    H141283   4.684   5.553   3.889
13780TIP3    H241284   4.795   5.627   3.816
13781TIP3   OH241285   0.138   7.401   1.198
13781TIP3    H141286   0.141   7.316   1.241
13781TIP3    H241287   0.198   7.392   1.124
13782TIP3   OH241288   6.431   0.603   1.668
13782TIP3    H141289   6.378   0.567   1.739
13782TIP3    H241290   6.445   0.530   1.608
13783TIP3   OH241291   3.739   3.420   3.277
13783TIP3    H141292   3.780   3.463   3.203
13783TIP3    H241293   3.674   3.483   3.309
13784TIP3   OH241294   4.112   4.846   3.398
13784TIP3    H141295   4.086   4.758   3.427
13784TIP3    H241296   4.033   4.883   3.360
13785TIP3   OH241297   4.134   2.207   5.183
13785TIP3    H141298   4.098   2.246   5.103
13785TIP3    H241299   4.104   2.264   5.254
13786TIP3   OH241300   6.455   3.689   5.879
13786TIP3    H141301   6.524   3.623   5.869
13786TIP3    H241302   6.497   3.771   5.853
13787TIP3   OH241303   1.475   2.647   4.709
13787TIP3    H141304   1.551   2.590   4.720
13787TIP3    H241305   1.424   2.606   4.640
13788TIP3   OH241306   2.316   0.722   0.839
13788TIP3    H141307   2.339   0.728   0.932
13788TIP3    H241308   2.329   0.629   0.817
13789TIP3   OH241309   1.196   7.738   3.358
13789TIP3    H141310   1.174   7.751   3.266
13789TIP3    H241311   1.291   7.751   3.362
13790TIP3   OH241312   7.885   6.262   5.199
13790TIP3    H141313   7.919   6.312   5.273
13790TIP3    H241314   7.837   6.326   5.147
13791TIP3   OH241315   1.717   3.602   2.499
13791TIP3    H141316   1.686   3.546   2.429
13791TIP3    H241317   1.808   3.622   2.475
13792TIP3   OH241318   5.968   6.042   1.613
13792TIP3    H141319   5.905   6.050   1.541
13792TIP3    H241320   5.989   6.132   1.637
13793TIP3   OH241321   2.798   4.123   1.905
13793TIP3    H141322   2.859   4.060   1.865
13793TIP3    H241323   2.792   4.194   1.841
13794TIP3   OH241324   4.237   3.671   4.736
13794TIP3    H141325   4.159   3.615   4.731
13794TIP3    H241326   4.202   3.761   4.730
13795TIP3   OH241327   5.786   2.871   5.612
13795TIP3    H141328   5.813   2.898   5.525
13795TIP3    H241329   5.864   2.833   5.651
13796TIP3   OH241330   4.515   2.802   3.588
13796TIP3    H141331   4.439   2.761   3.547
13796TIP3    H241332   4.480   2.882   3.628
13797TIP3   OH241333   1.285   3.686   1.124
13797TIP3    H141334   1.312   3.608   1.172
13797TIP3    H241335   1.217   3.725   1.177
13798TIP3   OH241336   1.280   1.816   2.088
13798TIP3    H141337   1.309   1.757   2.018
13798TIP3    H241338   1.349   1.810   2.154
13799TIP3   OH241339   3.782   5.830   1.742
13799TIP3    H141340   3.877   5.821   1.745
13799TIP3    H241341   3.763   5.907   1.796
13800TIP3   OH241342   8.013   7.093   6.242
13800TIP3    H141343   7.937   7.042   6.271
13800TIP3    H241344   7.983   7.183   6.242
13801TIP3   OH241345   5.615   4.955   5.868
13801TIP3    H141346   5.536   4.929   5.917
13801TIP3    H241347   5.592   4.941   5.777
13802TIP3   OH241348   8.236   6.296   5.365
13802TIP3    H141349   8.239   6.215   5.417
13802TIP3    H241350   8.146   6.327   5.374
13803TIP3   OH241351   2.351   0.370   5.658
13803TIP3    H141352   2.322   0.460   5.646
13803TIP3    H241353   2.305   0.340   5.736
13804TIP3   OH241354   2.639   1.104   1.953
13804TIP3    H141355   2.544   1.105   1.955
13804TIP3    H241356   2.661   1.032   1.894
13805TIP3   OH241357   5.308   0.623   2.144
13805TIP3    H141358   5.381   0.651   2.089
13805TIP3    H241359   5.323   0.529   2.157
13806TIP3   OH241360   6.910   6.263   3.894
13806TIP3    H141361   6.961   6.337   3.926
13806TIP3    H241362   6.830   6.263   3.948
13807TIP3   OH241363   1.520   5.467   3.519
13807TIP3    H141364   1.429   5.495   3.514
13807TIP3    H241365   1.548   5.487   3.608
13808TIP3   OH241366   6.554   5.431   6.051
13808TIP3    H141367   6.580   5.412   6.141
13808TIP3    H241368   6.472   5.383   6.040
13809TIP3   OH241369   5.391   3.406   6.258
13809TIP3    H141370   5.306   3.385   6.298
13809TIP3    H241371   5.423   3.482   6.307
13810TIP3   OH241372   3.880   2.717   1.065
13810TIP3    H141373   3.964   2.751   1.034
13810TIP3    H241374   3.863   2.641   1.010
13811TIP3   OH241375   2.662   6.344   4.751
13811TIP3    H141376   2.681   6.283   4.822
13811TIP3    H241377   2.720   6.316   4.680
13812TIP3   OH241378   3.907   4.947   5.880
13812TIP3    H141379   3.882   4.886   5.950
13812TIP3    H241380   3.857   5.026   5.899
13813TIP3   OH241381   3.821   0.729   2.357
13813TIP3    H141382   3.832   0.635   2.345
13813TIP3    H241383   3.837   0.767   2.271
13814TIP3   OH241384   7.150   6.077   5.678
13814TIP3    H141385   7.088   6.017   5.636
13814TIP3    H241386   7.156   6.151   5.618
13815TIP3   OH241387   0.463   4.362   1.333
13815TIP3    H141388   0.457   4.268   1.349
13815TIP3    H241389   0.473   4.370   1.238
13816TIP3   OH241390   5.859   5.681   2.493
13816TIP3    H141391   5.840   5.601   2.445
13816TIP3    H241392   5.952   5.674   2.516
13817TIP3   OH241393   7.516   4.577   3.557
13817TIP3    H141394   7.540   4.578   3.465
13817TIP3    H241395   7.431   4.621   3.560
13818TIP3   OH241396   5.163   3.576   2.965
13818TIP3    H141397   5.105   3.615   2.899
13818TIP3    H241398   5.109   3.572   3.044
13819TIP3   OH241399   2.543   0.514   6.551
13819TIP3    H141400   2.471   0.489   6.492
13819TIP3    H241401   2.614   0.455   6.527
13820TIP3   OH241402   4.129   1.164   5.888
13820TIP3    H141403   4.034   1.158   5.896
13820TIP3    H241404   4.160   1.074   5.902
13821TIP3   OH241405   5.299   2.647   2.853
13821TIP3    H141406   5.211   2.651   2.815
13821TIP3    H241407   5.358   2.666   2.780
13822TIP3   OH241408   7.800   0.975   2.233
13822TIP3    H141409   7.788   0.898   2.289
13822TIP3    H241410   7.894   0.989   2.231
13823TIP3   OH241411   8.061   3.148   4.623
13823TIP3    H141412   7.989   3.211   4.623
13823TIP3    H241413   8.026   3.073   4.672
13824TIP3   OH241414   1.349   1.303   5.959
13824TIP3    H141415   1.255   1.317   5.971
13824TIP3    H241416   1.384   1.389   5.935
13825TIP3   OH241417   7.568   4.539   3.268
13825TIP3    H141418   7.480   4.542   3.230
13825TIP3    H241419   7.603   4.455   3.239
13826TIP3   OH241420   2.158   3.608   5.471
13826TIP3    H141421   2.241   3.622   5.426
13826TIP3    H241422   2.117   3.694   5.472
13827TIP3   OH241423   7.615   6.008   4.753
13827TIP3    H141424   7.658   6.093   4.748
13827TIP3    H241425   7.654   5.966   4.830
13828TIP3   OH241426   7.916   7.008   0.348
13828TIP3    H141427   7.876   6.927   0.316
13828TIP3    H241428   7.851   7.075   0.332
13829TIP3   OH241429   3.359   7.698   6.387
13829TIP3    H141430   3.271   7.718   6.419
13829TIP3    H241431   3.399   7.647   6.458
13830TIP3   OH241432   6.574   6.394   3.838
13830TIP3    H141433   6.483   6.366   3.832
13830TIP3    H241434   6.601   6.370   3.927
13831TIP3   OH241435   7.153   2.728   5.201
13831TIP3    H141436   7.226   2.677   5.168
13831TIP3    H241437   7.182   2.758   5.287
13832TIP3   OH241438   7.674   7.084   1.881
13832TIP3    H141439   7.641   7.075   1.971
13832TIP3    H241440   7.597   7.108   1.830
13833TIP3   OH241441   7.093   7.256   4.800
13833TIP3    H141442   7.145   7.240   4.721
13833TIP3    H241443   7.084   7.170   4.841
13834TIP3   OH241444   6.358   6.649   0.432
13834TIP3    H141445   6.413   6.576   0.403
13834TIP3    H241446   6.398   6.726   0.392
13835TIP3   OH241447   7.129   0.016   4.744
13835TIP3    H141448   7.171   0.102   4.734
13835TIP3    H241449   7.203  -0.045   4.747
13836TIP3   OH241450   5.031   7.060   0.160
13836TIP3    H141451   5.118   7.097   0.144
13836TIP3    H241452   4.983   7.130   0.203
13837TIP3   OH241453   3.148   7.441   5.150
13837TIP3    H141454   3.143   7.483   5.236
13837TIP3    H241455   3.214   7.491   5.102
13838TIP3   OH241456   3.503   7.300   0.156
13838TIP3    H141457   3.555   7.298   0.076
13838TIP3    H241458   3.414   7.319   0.126
13839TIP3   OH241459   1.271   2.057   4.339
13839TIP3    H141460   1.286   2.008   4.258
13839TIP3    H241461   1.348   2.037   4.393
13840TIP3   OH241462   4.653   0.809   2.971
13840TIP3    H141463   4.697   0.775   2.893
13840TIP3    H241464   4.560   0.805   2.950
13841TIP3   OH241465   3.132   0.435   5.571
13841TIP3    H141466   3.062   0.498   5.591
13841TIP3    H241467   3.141   0.437   5.476
13842TIP3   OH241468   1.076   6.947   1.751
13842TIP3    H141469   1.042   7.037   1.754
13842TIP3    H241470   1.101   6.928   1.842
13843TIP3   OH241471   8.308   7.768   0.769
13843TIP3    H141472   8.268   7.853   0.754
13843TIP3    H241473   8.264   7.735   0.848
13844TIP3   OH241474   5.120   0.228   3.049
13844TIP3    H141475   5.094   0.237   2.957
13844TIP3    H241476   5.156   0.314   3.072
13845TIP3   OH241477   0.218   4.456   5.237
13845TIP3    H141478   0.288   4.472   5.173
13845TIP3    H241479   0.161   4.532   5.230
13846TIP3   OH241480   1.390   2.275   5.833
13846TIP3    H141481   1.422   2.308   5.749
13846TIP3    H241482   1.469   2.251   5.881
13847TIP3   OH241483   4.146   5.795   1.822
13847TIP3    H141484   4.096   5.858   1.875
13847TIP3    H241485   4.192   5.849   1.758
13848TIP3   OH241486   4.398   1.234   1.529
13848TIP3    H141487   4.432   1.190   1.607
13848TIP3    H241488   4.457   1.308   1.515
13849TIP3   OH241489   6.252   1.967   4.025
13849TIP3    H141490   6.169   2.012   4.032
13849TIP3    H241491   6.311   2.015   4.084
13850TIP3   OH241492   4.492   5.468   5.031
13850TIP3    H141493   4.514   5.515   4.951
13850TIP3    H241494   4.453   5.386   5.000
13851TIP3   OH241495   5.123   7.459   2.087
13851TIP3    H141496   5.143   7.464   2.181
13851TIP3    H241497   5.184   7.394   2.053
13852TIP3   OH241498   6.895   6.954   3.043
13852TIP3    H141499   6.833   7.018   3.010
13852TIP3    H241500   6.945   7.001   3.110
13853TIP3   OH241501   6.092   6.835   5.463
13853TIP3    H141502   6.163   6.892   5.492
13853TIP3    H241503   6.052   6.804   5.545
13854TIP3   OH241504   5.807   0.901   5.465
13854TIP3    H141505   5.840   0.840   5.400
13854TIP3    H241506   5.823   0.859   5.550
13855TIP3   OH241507   6.713   7.497   4.832
13855TIP3    H141508   6.759   7.572   4.868
13855TIP3    H241509   6.777   7.455   4.774
13856TIP3   OH241510   6.381   2.893   4.760
13856TIP3    H141511   6.353   2.958   4.695
13856TIP3    H241512   6.303   2.841   4.777
13857TIP3   OH241513   4.076   5.496   3.822
13857TIP3    H141514   4.160   5.456   3.797
13857TIP3    H241515   4.064   5.568   3.761
13858TIP3   OH241516   0.580   6.563   4.740
13858TIP3    H141517   0.660   6.578   4.790
13858TIP3    H241518   0.520   6.631   4.769
13859TIP3   OH241519   6.530   7.783   1.535
13859TIP3    H141520   6.569   7.871   1.526
13859TIP3    H241521   6.571   7.747   1.613
13860TIP3   OH241522   4.251   2.779   5.962
13860TIP3    H141523   4.277   2.729   6.040
13860TIP3    H241524   4.165   2.816   5.985
13861TIP3   OH241525   2.816   1.717   2.173
13861TIP3    H141526   2.745   1.750   2.118
13861TIP3    H241527   2.895   1.729   2.120
13862TIP3   OH241528   6.633   4.942   0.637
13862TIP3    H141529   6.673   5.020   0.676
13862TIP3    H241530   6.567   4.976   0.577
13863TIP3   OH241531   2.957   6.579   5.974
13863TIP3    H141532   3.048   6.607   5.982
13863TIP3    H241533   2.929   6.609   5.888
13864TIP3   OH241534   7.066   2.531   2.251
13864TIP3    H141535   7.102   2.510   2.165
13864TIP3    H241536   7.032   2.448   2.284
13865TIP3   OH241537   3.637   7.096   4.499
13865TIP3    H141538   3.558   7.103   4.445
13865TIP3    H241539   3.640   7.005   4.526
13866TIP3   OH241540   7.444   3.144   0.679
13866TIP3    H141541   7.502   3.176   0.610
13866TIP3    H241542   7.501   3.091   0.735
13867TIP3   OH241543   6.237   4.427   6.776
13867TIP3    H141544   6.245   4.402   6.684
13867TIP3    H241545   6.165   4.375   6.810
13868TIP3   OH241546   5.679   0.064   3.703
13868TIP3    H141547   5.610   0.117   3.742
13868TIP3    H241548   5.725   0.025   3.777
13869TIP3   OH241549   6.659   2.161   6.250
13869TIP3    H141550   6.738   2.109   6.261
13869TIP3    H241551   6.689   2.252   6.253
13870TIP3   OH241552   1.843   0.393   1.448
13870TIP3    H141553   1.780   0.325   1.422
13870TIP3    H241554   1.833   0.462   1.383
13871TIP3   OH241555   6.057   6.885   4.996
13871TIP3    H141556   6.129   6.869   5.057
13871TIP3    H241557   6.075   6.971   4.959
13872TIP3   OH241558   3.250   0.748   6.389
13872TIP3    H141559   3.213   0.683   6.449
13872TIP3    H241560   3.181   0.815   6.381
13873TIP3   OH241561   3.603   5.517   2.102
13873TIP3    H141562   3.614   5.578   2.029
13873TIP3    H241563   3.524   5.547   2.147
13874TIP3   OH241564   7.380   0.581   0.645
13874TIP3    H141565   7.368   0.486   0.643
13874TIP3    H241566   7.312   0.612   0.705
13875TIP3   OH241567   8.072   0.726   3.157
13875TIP3    H141568   8.022   0.670   3.098
13875TIP3    H241569   8.052   0.692   3.244
13876TIP3   OH241570   0.292   1.585   3.217
13876TIP3    H141571   0.209   1.547   3.188
13876TIP3    H241572   0.274   1.678   3.227
13877TIP3   OH241573   2.610   7.265   1.048
13877TIP3    H141574   2.572   7.353   1.037
13877TIP3    H241575   2.605   7.226   0.961
13878TIP3   OH241576   7.778   0.817   5.998
13878TIP3    H141577   7.765   0.823   5.903
13878TIP3    H241578   7.764   0.907   6.029
13879TIP3   OH241579   4.545   1.157   6.262
13879TIP3    H141580   4.467   1.207   6.285
13879TIP3    H241581   4.602   1.220   6.218
13880TIP3   OH241582   2.908   0.843   5.904
13880TIP3    H141583   2.948   0.823   5.988
13880TIP3    H241584   2.973   0.896   5.858
13881TIP3   OH241585   4.584   1.136   3.906
13881TIP3    H141586   4.603   1.046   3.930
13881TIP3    H241587   4.601   1.141   3.812
13882TIP3   OH241588   8.273   5.046   4.974
13882TIP3    H141589   8.178   5.038   4.989
13882TIP3    H241590   8.307   5.081   5.057
13883TIP3   OH241591   4.849   4.469   5.678
13883TIP3    H141592   4.849   4.385   5.634
13883TIP3    H241593   4.805   4.453   5.761
13884TIP3   OH241594   7.933   1.640   1.987
13884TIP3    H141595   7.934   1.563   2.044
13884TIP3    H241596   7.987   1.704   2.032
13885TIP3   OH241597   1.103   7.644   2.289
13885TIP3    H141598   1.058   7.687   2.361
13885TIP3    H241599   1.037   7.584   2.252
13886TIP3   OH241600   2.684   0.773   6.102
13886TIP3    H141601   2.732   0.844   6.145
13886TIP3    H241602   2.706   0.783   6.009
13887TIP3   OH241603   4.333   4.419   5.130
13887TIP3    H141604   4.246   4.420   5.089
13887TIP3    H241605   4.320   4.460   5.215
13888TIP3   OH241606   3.155   5.242   3.964
13888TIP3    H141607   3.159   5.336   3.979
13888TIP3    H241608   3.076   5.229   3.913
13889TIP3   OH241609   7.065   5.100   1.441
13889TIP3    H141610   6.988   5.043   1.443
13889TIP3    H241611   7.043   5.171   1.502
13890TIP3   OH241612   1.779   5.222   2.962
13890TIP3    H141613   1.716   5.215   3.033
13890TIP3    H241614   1.732   5.267   2.892
13891TIP3   OH241615   3.021   1.915   6.153
13891TIP3    H141616   3.070   1.871   6.223
13891TIP3    H241617   2.961   1.973   6.200
13892TIP3   OH241618   5.862   7.030   3.258
13892TIP3    H141619   5.919   7.093   3.301
13892TIP3    H241620   5.778   7.075   3.249
13893TIP3   OH241621   3.024   5.950   4.064
13893TIP3    H141622   3.117   5.948   4.085
13893TIP3    H241623   2.981   5.917   4.143
13894TIP3   OH241624   4.140   1.999   4.817
13894TIP3    H141625   4.099   1.979   4.732
13894TIP3    H241626   4.100   2.082   4.843
13895TIP3   OH241627   1.299   5.810   1.212
13895TIP3    H141628   1.359   5.778   1.279
13895TIP3    H241629   1.212   5.787   1.244
13896TIP3   OH241630   7.602   0.181   5.221
13896TIP3    H141631   7.539   0.249   5.243
13896TIP3    H241632   7.628   0.201   5.131
13897TIP3   OH241633   7.568   6.195   5.520
13897TIP3    H141634   7.519   6.128   5.473
13897TIP3    H241635   7.547   6.181   5.612
13898TIP3   OH241636   7.941   3.333   1.934
13898TIP3    H141637   8.006   3.299   1.873
13898TIP3    H241638   7.863   3.347   1.880
13899TIP3   OH241639   1.200   6.586   3.235
13899TIP3    H141640   1.141   6.565   3.163
13899TIP3    H241641   1.246   6.504   3.253
13900TIP3   OH241642   5.421   2.374   1.694
13900TIP3    H141643   5.489   2.385   1.760
13900TIP3    H241644   5.439   2.441   1.629
13901TIP3   OH241645   7.330   5.290   2.295
13901TIP3    H141646   7.376   5.304   2.378
13901TIP3    H241647   7.374   5.350   2.234
13902TIP3   OH241648   3.772   4.512   3.860
13902TIP3    H141649   3.790   4.436   3.916
13902TIP3    H241650   3.699   4.556   3.903
13903TIP3   OH241651   1.402   5.804   3.278
13903TIP3    H141652   1.426   5.861   3.351
13903TIP3    H241653   1.408   5.860   3.201
13904TIP3   OH241654   3.788   1.584   6.228
13904TIP3    H141655   3.813   1.619   6.314
13904TIP3    H241656   3.743   1.502   6.248
13905TIP3   OH241657   3.149   7.464   3.569
13905TIP3    H141658   3.169   7.378   3.606
13905TIP3    H241659   3.220   7.481   3.507
13906TIP3   OH241660   5.918   0.790   2.511
13906TIP3    H141661   5.983   0.767   2.445
13906TIP3    H241662   5.946   0.743   2.589
13907TIP3   OH241663   6.102   2.259   1.429
13907TIP3    H141664   6.173   2.242   1.491
13907TIP3    H241665   6.074   2.349   1.448
13908TIP3   OH241666   1.258   0.898   3.377
13908TIP3    H141667   1.293   0.820   3.420
13908TIP3    H241668   1.211   0.864   3.301
13909TIP3   OH241669   7.579   2.688   4.785
13909TIP3    H141670   7.489   2.658   4.802
13909TIP3    H241671   7.624   2.676   4.869
13910TIP3   OH241672   3.623   0.291   5.084
13910TIP3    H141673   3.570   0.281   5.163
13910TIP3    H241674   3.614   0.384   5.061
13911TIP3   OH241675   6.833   1.645   4.915
13911TIP3    H141676   6.773   1.685   4.978
13911TIP3    H241677   6.902   1.607   4.968
13912TIP3   OH241678   1.365   4.224   0.327
13912TIP3    H141679   1.402   4.308   0.354
13912TIP3    H241680   1.284   4.247   0.281
13913TIP3   OH241681   1.759   0.134   1.369
13913TIP3    H141682   1.728   0.179   1.290
13913TIP3    H241683   1.680   0.107   1.415
13914TIP3   OH241684   3.520   3.793   4.320
13914TIP3    H141685   3.598   3.843   4.298
13914TIP3    H241686   3.523   3.785   4.416
13915TIP3   OH241687   3.482   4.665   6.507
13915TIP3    H141688   3.443   4.735   6.559
13915TIP3    H241689   3.450   4.584   6.548
13916TIP3   OH241690   6.428   0.949   6.633
13916TIP3    H141691   6.436   0.972   6.541
13916TIP3    H241692   6.451   1.029   6.680
13917TIP3   OH241693   5.728   3.230   5.575
13917TIP3    H141694   5.690   3.152   5.534
13917TIP3    H241695   5.765   3.279   5.502
13918TIP3   OH241696   7.596   1.779   5.005
13918TIP3    H141697   7.621   1.759   4.915
13918TIP3    H241698   7.553   1.700   5.036
13919TIP3   OH241699   2.528   3.130   1.263
13919TIP3    H141700   2.516   3.161   1.173
13919TIP3    H241701   2.483   3.045   1.265
13920TIP3   OH241702   7.263   5.035   2.949
13920TIP3    H141703   7.339   5.088   2.974
13920TIP3    H241704   7.193   5.066   3.007
13921TIP3   OH241705   7.417   5.738   3.871
13921TIP3    H141706   7.511   5.751   3.879
13921TIP3    H241707   7.408   5.654   3.826
13922TIP3   OH241708   4.757   5.974   2.799
13922TIP3    H141709   4.721   5.911   2.862
13922TIP3    H241710   4.852   5.957   2.800
13923TIP3   OH241711   3.279   0.581   3.651
13923TIP3    H141712   3.329   0.574   3.569
13923TIP3    H241713   3.200   0.530   3.635
13924TIP3   OH241714   2.020   2.562   6.309
13924TIP3    H141715   2.074   2.591   6.235
13924TIP3    H241716   1.988   2.643   6.349
13925TIP3   OH241717   3.511   7.322   2.472
13925TIP3    H141718   3.438   7.262   2.487
13925TIP3    H241719   3.572   7.272   2.417
13926TIP3   OH241720   1.913   3.758   4.026
13926TIP3    H141721   2.000   3.753   4.065
13926TIP3    H241722   1.926   3.733   3.935
13927TIP3   OH241723   3.826   5.790   2.036
13927TIP3    H141724   3.850   5.705   1.998
13927TIP3    H241725   3.900   5.847   2.016
13928TIP3   OH241726   4.941   4.608   3.050
13928TIP3    H141727   4.992   4.553   3.109
13928TIP3    H241728   4.865   4.635   3.101
13929TIP3   OH241729   1.263   6.896   4.040
13929TIP3    H141730   1.279   6.825   4.102
13929TIP3    H241731   1.259   6.975   4.093
13930TIP3   OH241732   3.345   7.592   0.708
13930TIP3    H141733   3.366   7.526   0.642
13930TIP3    H241734   3.256   7.570   0.736
13931TIP3   OH241735   1.398   6.764   4.247
13931TIP3    H141736   1.456   6.725   4.312
13931TIP3    H241737   1.433   6.852   4.233
13932TIP3   OH241738   2.330   2.558   5.009
13932TIP3    H141739   2.404   2.514   5.051
13932TIP3    H241740   2.262   2.560   5.076
13933TIP3   OH241741   7.409   3.930   0.100
13933TIP3    H141742   7.330   3.917   0.047
13933TIP3    H241743   7.481   3.921   0.039
13934TIP3   OH241744   0.986   2.073   5.991
13934TIP3    H141745   0.905   2.062   6.040
13934TIP3    H241746   0.966   2.140   5.926
13935TIP3   OH241747   5.781   5.021   2.792
13935TIP3    H141748   5.773   4.933   2.829
13935TIP3    H241749   5.719   5.074   2.843
13936TIP3   OH241750   0.810   0.761   0.605
13936TIP3    H141751   0.769   0.734   0.523
13936TIP3    H241752   0.853   0.682   0.637
13937TIP3   OH241753   2.781   0.496   2.394
13937TIP3    H141754   2.731   0.577   2.402
13937TIP3    H241755   2.735   0.434   2.451
13938TIP3   OH241756   4.187   1.698   2.861
13938TIP3    H141757   4.153   1.736   2.780
13938TIP3    H241758   4.244   1.627   2.832
13939TIP3   OH241759   3.723   3.965   4.240
13939TIP3    H141760   3.723   3.959   4.145
13939TIP3    H241761   3.733   4.058   4.258
13940TIP3   OH241762   1.504   6.391   1.171
13940TIP3    H141763   1.591   6.377   1.208
13940TIP3    H241764   1.494   6.486   1.168
13941TIP3   OH241765   6.681   4.401   1.190
13941TIP3    H141766   6.589   4.378   1.199
13941TIP3    H241767   6.706   4.365   1.104
13942TIP3   OH241768   3.439   4.439   1.158
13942TIP3    H141769   3.534   4.432   1.172
13942TIP3    H241770   3.415   4.523   1.195
13943TIP3   OH241771   2.015   1.227   6.089
13943TIP3    H141772   1.928   1.208   6.123
13943TIP3    H241773   2.011   1.199   5.997
13944TIP3   OH241774   7.623   6.434   5.747
13944TIP3    H141775   7.632   6.375   5.672
13944TIP3    H241776   7.708   6.477   5.755
13945TIP3   OH241777   2.459   2.656   6.579
13945TIP3    H141778   2.554   2.648   6.566
13945TIP3    H241779   2.428   2.566   6.584
13946TIP3   OH241780   2.332   0.761   2.011
13946TIP3    H141781   2.358   0.677   1.974
13946TIP3    H241782   2.301   0.739   2.099
13947TIP3   OH241783   2.962   6.439   0.038
13947TIP3    H141784   2.946   6.421   0.130
13947TIP3    H241785   2.999   6.527   0.036
13948TIP3   OH241786   5.973   5.617   6.022
13948TIP3    H141787   5.957   5.524   6.032
13948TIP3    H241788   5.928   5.641   5.940
13949TIP3   OH241789   7.788   0.257   2.683
13949TIP3    H141790   7.710   0.217   2.720
13949TIP3    H241791   7.829   0.302   2.758
13950TIP3   OH241792   3.224   3.489   4.062
13950TIP3    H141793   3.294   3.505   3.999
13950TIP3    H241794   3.256   3.528   4.144
13951TIP3   OH241795   0.256   3.384   3.438
13951TIP3    H141796   0.161   3.378   3.446
13951TIP3    H241797   0.286   3.404   3.527
13952TIP3   OH241798   1.596   6.965   4.203
13952TIP3    H141799   1.635   7.009   4.278
13952TIP3    H241800   1.666   6.908   4.170
13953TIP3   OH241801   2.424   7.452   2.500
13953TIP3    H141802   2.384   7.506   2.432
13953TIP3    H241803   2.353   7.435   2.562
13954TIP3   OH241804   5.038   0.510   1.491
13954TIP3    H141805   5.121   0.531   1.450
13954TIP3    H241806   5.060   0.453   1.564
13955TIP3   OH241807   3.992   1.433   3.200
13955TIP3    H141808   4.061   1.456   3.263
13955TIP3    H241809   4.036   1.381   3.133
13956TIP3   OH241810   5.889   5.727   3.398
13956TIP3    H141811   5.898   5.753   3.489
13956TIP3    H241812   5.822   5.785   3.363
13957TIP3   OH241813   4.980   6.497   6.285
13957TIP3    H141814   4.910   6.534   6.338
13957TIP3    H241815   4.972   6.541   6.201
13958TIP3   OH241816   7.499   1.899   4.519
13958TIP3    H141817   7.546   1.974   4.483
13958TIP3    H241818   7.480   1.844   4.443
13959TIP3   OH241819   4.546   0.290   1.651
13959TIP3    H141820   4.501   0.265   1.732
13959TIP3    H241821   4.511   0.376   1.630
13960TIP3   OH241822   7.328   3.903   3.074
13960TIP3    H141823   7.267   3.926   3.003
13960TIP3    H241824   7.414   3.927   3.040
13961TIP3   OH241825   7.391   4.456   4.947
13961TIP3    H141826   7.470   4.486   4.993
13961TIP3    H241827   7.334   4.423   5.016
13962TIP3   OH241828   4.101   1.575   1.901
13962TIP3    H141829   4.071   1.513   1.835
13962TIP3    H241830   4.102   1.659   1.856
13963TIP3   OH241831   5.813   4.445   6.487
13963TIP3    H141832   5.899   4.405   6.474
13963TIP3    H241833   5.754   4.394   6.431
13964TIP3   OH241834   6.237   0.628   4.927
13964TIP3    H141835   6.234   0.538   4.894
13964TIP3    H241836   6.321   0.635   4.971
13965TIP3   OH241837   2.110   4.604   5.545
13965TIP3    H141838   2.152   4.525   5.510
13965TIP3    H241839   2.128   4.601   5.639
13966TIP3   OH241840   7.837   5.621   2.382
13966TIP3    H141841   7.826   5.658   2.470
13966TIP3    H241842   7.917   5.662   2.349
13967TIP3   OH241843   5.252   2.482   0.452
13967TIP3    H141844   5.330   2.524   0.416
13967TIP3    H241845   5.209   2.550   0.504
13968TIP3   OH241846   3.396   0.476   0.644
13968TIP3    H141847   3.476   0.511   0.682
13968TIP3    H241848   3.424   0.432   0.564
13969TIP3   OH241849   5.601   3.783   0.284
13969TIP3    H141850   5.562   3.747   0.364
13969TIP3    H241851   5.561   3.869   0.275
13970TIP3   OH241852   6.513   2.939   6.116
13970TIP3    H141853   6.496   2.849   6.088
13970TIP3    H241854   6.604   2.956   6.090
13971TIP3   OH241855   4.849   3.296   0.552
13971TIP3    H141856   4.756   3.310   0.567
13971TIP3    H241857   4.876   3.368   0.495
13972TIP3   OH241858   4.360   2.800   6.428
13972TIP3    H141859   4.384   2.722   6.477
13972TIP3    H241860   4.418   2.869   6.463
13973TIP3   OH241861   2.414   7.833   4.966
13973TIP3    H141862   2.410   7.767   5.035
13973TIP3    H241863   2.340   7.813   4.909
13974TIP3   OH241864   0.845   3.103   5.431
13974TIP3    H141865   0.825   3.193   5.405
13974TIP3    H241866   0.916   3.112   5.495
13975TIP3   OH241867   6.421   4.873   3.551
13975TIP3    H141868   6.422   4.805   3.484
13975TIP3    H241869   6.436   4.827   3.633
13976TIP3   OH241870   3.267   1.669   0.166
13976TIP3    H141871   3.322   1.746   0.170
13976TIP3    H241872   3.204   1.688   0.097
13977TIP3   OH241873   4.593   5.407   2.570
13977TIP3    H141874   4.564   5.318   2.552
13977TIP3    H241875   4.659   5.399   2.639
13978TIP3   OH241876   3.748   0.813   1.424
13978TIP3    H141877   3.791   0.897   1.438
13978TIP3    H241878   3.704   0.794   1.507
13979TIP3   OH241879   3.905   6.128   4.209
13979TIP3    H141880   3.934   6.154   4.297
13979TIP3    H241881   3.896   6.210   4.162
13980TIP3   OH241882   6.506   3.038   6.551
13980TIP3    H141883   6.541   3.125   6.573
13980TIP3    H241884   6.449   3.054   6.476
13981TIP3   OH241885   3.750   1.883   2.679
13981TIP3    H141886   3.781   1.860   2.591
13981TIP3    H241887   3.661   1.914   2.665
13982TIP3   OH241888   1.157   0.008   6.147
13982TIP3    H141889   1.232   0.059   6.115
13982TIP3    H241890   1.082   0.065   6.132
13983TIP3   OH241891   5.546   5.107   2.941
13983TIP3    H141892   5.526   5.134   3.030
13983TIP3    H241893   5.553   5.189   2.892
13984TIP3   OH241894   4.318   0.517   3.365
13984TIP3    H141895   4.290   0.429   3.390
13984TIP3    H241896   4.275   0.575   3.428
13985TIP3   OH241897   4.289   6.698   6.214
13985TIP3    H141898   4.283   6.612   6.172
13985TIP3    H241899   4.212   6.703   6.270
13986TIP3   OH241900   4.482   5.790   4.564
13986TIP3    H141901   4.452   5.716   4.617
13986TIP3    H241902   4.434   5.782   4.481
13987TIP3   OH241903   6.273   6.954   5.167
13987TIP3    H141904   6.316   7.037   5.145
13987TIP3    H241905   6.345   6.892   5.177
13988TIP3   OH241906   2.181   0.724   4.016
13988TIP3    H141907   2.235   0.646   4.012
13988TIP3    H241908   2.143   0.732   3.928
13989TIP3   OH241909   1.193   1.890   0.561
13989TIP3    H141910   1.239   1.925   0.485
13989TIP3    H241911   1.262   1.857   0.618
13990TIP3   OH241912   3.373   5.197   0.700
13990TIP3    H141913   3.323   5.122   0.735
13990TIP3    H241914   3.316   5.234   0.633
13991TIP3   OH241915   4.220   3.341   5.520
13991TIP3    H141916   4.137   3.383   5.541
13991TIP3    H241917   4.197   3.248   5.510
13992TIP3   OH241918   0.744   3.068   0.560
13992TIP3    H141919   0.663   3.022   0.540
13992TIP3    H241920   0.787   3.014   0.626
13993TIP3   OH241921   0.398   4.248   6.736
13993TIP3    H141922   0.413   4.161   6.699
13993TIP3    H241923   0.373   4.231   6.827
13994TIP3   OH241924   4.663   3.176   6.432
13994TIP3    H141925   4.629   3.107   6.375
13994TIP3    H241926   4.593   3.240   6.436
13995TIP3   OH241927   1.458   6.149   4.887
13995TIP3    H141928   1.499   6.150   4.974
13995TIP3    H241929   1.365   6.159   4.904
13996TIP3   OH241930   2.177   4.412   0.067
13996TIP3    H141931   2.209   4.342   0.124
13996TIP3    H241932   2.102   4.449   0.114
13997TIP3   OH241933   0.417   1.349   6.291
13997TIP3    H141934   0.414   1.256   6.313
13997TIP3    H241935   0.434   1.393   6.374
13998TIP3   OH241936   7.847   1.856   5.975
13998TIP3    H141937   7.939   1.872   5.954
13998TIP3    H241938   7.799   1.888   5.899
13999TIP3   OH241939   6.779   1.532   6.544
13999TIP3    H141940   6.820   1.562   6.625
13999TIP3    H241941   6.852   1.498   6.491
14000TIP3   OH241942   5.546   6.878   3.397
14000TIP3    H141943   5.494   6.864   3.318
14000TIP3    H241944   5.599   6.955   3.377
14001TIP3   OH241945   6.445   2.943   3.912
14001TIP3    H141946   6.501   3.019   3.926
14001TIP3    H241947   6.470   2.910   3.826
14002TIP3   OH241948   7.805   4.272   4.116
14002TIP3    H141949   7.897   4.254   4.095
14002TIP3    H241950   7.757   4.198   4.078
14003TIP3   OH241951   4.270   3.032   5.011
14003TIP3    H141952   4.274   2.953   4.958
14003TIP3    H241953   4.361   3.050   5.035
14004TIP3   OH241954   3.299   0.939   2.698
14004TIP3    H141955   3.369   0.993   2.661
14004TIP3    H241956   3.344   0.874   2.751
14005TIP3   OH241957   5.953   6.614   0.747
14005TIP3    H141958   5.957   6.554   0.821
14005TIP3    H241959   6.002   6.691   0.776
14006TIP3   OH241960   3.458   0.905   2.116
14006TIP3    H141961   3.373   0.860   2.109
14006TIP3    H241962   3.521   0.835   2.134
14007TIP3   OH241963   1.365   7.739   0.448
14007TIP3    H141964   1.456   7.714   0.466
14007TIP3    H241965   1.317   7.715   0.527
14008TIP3   OH241966   1.037   6.767   5.433
14008TIP3    H141967   1.027   6.729   5.520
14008TIP3    H241968   0.959   6.739   5.385
14009TIP3   OH241969   3.453   3.063   4.904
14009TIP3    H141970   3.442   3.015   4.986
14009TIP3    H241971   3.547   3.060   4.888
14010TIP3   OH241972   3.627   7.239   4.897
14010TIP3    H141973   3.676   7.169   4.940
14010TIP3    H241974   3.561   7.193   4.845
14011TIP3   OH241975   0.683   0.468   4.836
14011TIP3    H141976   0.699   0.560   4.860
14011TIP3    H241977   0.769   0.427   4.841
14012TIP3   OH241978   8.121   6.157   6.094
14012TIP3    H141979   8.148   6.080   6.143
14012TIP3    H241980   8.052   6.125   6.036
14013TIP3   OH241981   4.123   1.105   0.708
14013TIP3    H141982   4.035   1.140   0.701
14013TIP3    H241983   4.114   1.012   0.686
14014TIP3   OH241984   0.530   7.420   5.082
14014TIP3    H141985   0.547   7.511   5.058
14014TIP3    H241986   0.590   7.402   5.154
14015TIP3   OH241987   1.887   5.940   1.135
14015TIP3    H141988   1.970   5.984   1.148
14015TIP3    H241989   1.898   5.854   1.176
14016TIP3   OH241990   5.582   7.118   3.234
14016TIP3    H141991   5.524   7.187   3.269
14016TIP3    H241992   5.525   7.066   3.178
14017TIP3   OH241993   8.256   0.781   2.010
14017TIP3    H141994   8.161   0.768   2.011
14017TIP3    H241995   8.292   0.698   1.978
14018TIP3   OH241996   6.889   4.691   6.636
14018TIP3    H141997   6.919   4.607   6.669
14018TIP3    H241998   6.837   4.669   6.558
14019TIP3   OH241999   5.946   3.031   3.517
14019TIP3    H142000   5.898   3.059   3.595
14019TIP3    H242001   5.993   2.952   3.545
14020TIP3   OH242002   6.370   1.015   5.129
14020TIP3    H142003   6.455   1.051   5.156
14020TIP3    H242004   6.308   1.058   5.188
14021TIP3   OH242005   6.753   1.027   3.222
14021TIP3    H142006   6.834   1.012   3.172
14021TIP3    H242007   6.755   0.960   3.291
14022TIP3   OH242008   3.885   0.395   5.701
14022TIP3    H142009   3.914   0.348   5.779
14022TIP3    H242010   3.920   0.344   5.628
14023TIP3   OH242011   0.548   6.582   5.080
14023TIP3    H142012   0.625   6.638   5.067
14023TIP3    H242013   0.474   6.637   5.054
14024TIP3   OH242014   6.126   6.326   5.992
14024TIP3    H142015   6.073   6.262   6.039
14024TIP3    H242016   6.105   6.410   6.033
14025TIP3   OH242017   4.231   5.799   0.847
14025TIP3    H142018   4.174   5.870   0.879
14025TIP3    H242019   4.237   5.815   0.753
14026TIP3   OH242020   5.952   2.258   3.544
14026TIP3    H142021   5.896   2.208   3.484
14026TIP3    H242022   6.035   2.266   3.498
14027TIP3   OH242023   7.352   3.166   4.998
14027TIP3    H142024   7.308   3.124   5.072
14027TIP3    H242025   7.445   3.153   5.015
14028TIP3   OH242026   4.595   5.740   1.666
14028TIP3    H142027   4.553   5.670   1.716
14028TIP3    H242028   4.598   5.707   1.576
14029TIP3   OH242029   6.634   0.141   1.365
14029TIP3    H142030   6.558   0.084   1.376
14029TIP3    H242031   6.653   0.174   1.453
14030TIP3   OH242032   5.680   4.829   5.203
14030TIP3    H142033   5.755   4.815   5.146
14030TIP3    H242034   5.689   4.761   5.270
14031TIP3   OH242035   0.402   1.807   1.834
14031TIP3    H142036   0.442   1.722   1.848
14031TIP3    H242037   0.424   1.829   1.743
14032TIP3   OH242038   7.954   4.842   0.127
14032TIP3    H142039   8.007   4.770   0.161
14032TIP3    H242040   7.974   4.916   0.184
14033TIP3   OH242041   3.900   4.062   2.509
14033TIP3    H142042   3.842   4.005   2.460
14033TIP3    H242043   3.841   4.127   2.549
14034TIP3   OH242044   7.805   6.892   3.848
14034TIP3    H142045   7.738   6.934   3.794
14034TIP3    H242046   7.859   6.843   3.787
14035TIP3   OH242047   2.662   3.564   1.135
14035TIP3    H142048   2.694   3.634   1.078
14035TIP3    H242049   2.721   3.490   1.118
14036TIP3   OH242050   6.641   4.008   0.342
14036TIP3    H142051   6.661   3.985   0.251
14036TIP3    H242052   6.724   4.001   0.388
14037TIP3   OH242053   1.969   0.643   0.988
14037TIP3    H142054   2.019   0.724   1.003
14037TIP3    H242055   2.017   0.599   0.918
14038TIP3   OH242056   5.119   0.628   0.991
14038TIP3    H142057   5.038   0.593   1.029
14038TIP3    H242058   5.189   0.576   1.032
14039TIP3   OH242059   6.062   6.618   0.489
14039TIP3    H142060   6.021   6.608   0.574
14039TIP3    H242061   6.135   6.556   0.490
14040TIP3   OH242062   2.407   2.233   5.385
14040TIP3    H142063   2.500   2.254   5.398
14040TIP3    H242064   2.377   2.205   5.472
14041TIP3   OH242065   3.128   2.242   4.906
14041TIP3    H142066   3.081   2.246   4.989
14041TIP3    H242067   3.194   2.311   4.913
14042TIP3   OH242068   8.252   0.970   6.225
14042TIP3    H142069   8.228   0.886   6.188
14042TIP3    H242070   8.177   0.995   6.279
14043TIP3   OH242071   2.571   6.064   5.813
14043TIP3    H142072   2.560   6.156   5.790
14043TIP3    H242073   2.542   6.059   5.904
14044TIP3   OH242074   7.499   6.407   6.000
14044TIP3    H142075   7.547   6.393   5.918
14044TIP3    H242076   7.410   6.379   5.980
14045TIP3   OH242077   0.351   3.155   5.360
14045TIP3    H142078   0.312   3.228   5.313
14045TIP3    H242079   0.322   3.166   5.450
14046TIP3   OH242080   1.897   3.173   3.667
14046TIP3    H142081   1.841   3.100   3.640
14046TIP3    H242082   1.923   3.215   3.585
14047TIP3   OH242083   7.840   4.308   3.833
14047TIP3    H142084   7.798   4.223   3.848
14047TIP3    H242085   7.902   4.317   3.906
14048TIP3   OH242086   3.769   4.831   6.133
14048TIP3    H142087   3.852   4.847   6.176
14048TIP3    H242088   3.745   4.742   6.158
14049TIP3   OH242089   1.536   4.747   6.613
14049TIP3    H142090   1.569   4.664   6.647
14049TIP3    H242091   1.556   4.811   6.680
14050TIP3   OH242092   7.167   0.721   5.088
14050TIP3    H142093   7.211   0.707   5.005
14050TIP3    H242094   7.189   0.811   5.112
14051TIP3   OH242095   5.571   3.005   4.244
14051TIP3    H142096   5.570   3.098   4.266
14051TIP3    H242097   5.493   2.970   4.287
14052TIP3   OH242098   6.141   7.577   2.172
14052TIP3    H142099   6.206   7.645   2.150
14052TIP3    H242100   6.059   7.625   2.182
14053TIP3   OH242101   5.352   1.548   3.711
14053TIP3    H142102   5.296   1.593   3.774
14053TIP3    H242103   5.325   1.584   3.626
14054TIP3   OH242104   6.755   4.469   4.834
14054TIP3    H142105   6.838   4.453   4.879
14054TIP3    H242106   6.766   4.554   4.793
14055TIP3   OH242107   3.842   1.605   5.953
14055TIP3    H142108   3.899   1.673   5.916
14055TIP3    H242109   3.870   1.598   6.044
14056TIP3   OH242110   1.382   7.194   0.411
14056TIP3    H142111   1.317   7.242   0.360
14056TIP3    H242112   1.393   7.111   0.366
14057TIP3   OH242113   5.096   3.112   6.756
14057TIP3    H142114   5.124   3.023   6.777
14057TIP3    H242115   5.013   3.101   6.709
14058TIP3   OH242116   3.391   4.407   1.725
14058TIP3    H142117   3.423   4.430   1.812
14058TIP3    H242118   3.422   4.478   1.669
14059TIP3   OH242119   1.362   1.111   2.442
14059TIP3    H142120   1.404   1.138   2.523
14059TIP3    H242121   1.352   1.016   2.450
14060TIP3   OH242122   4.474   1.175   4.261
14060TIP3    H142123   4.429   1.106   4.310
14060TIP3    H242124   4.406   1.215   4.207
14061TIP3   OH242125   5.917   5.193   3.021
14061TIP3    H142126   5.957   5.208   3.106
14061TIP3    H242127   5.854   5.123   3.036
14062TIP3   OH242128   0.452   6.860   0.846
14062TIP3    H142129   0.533   6.909   0.855
14062TIP3    H242130   0.438   6.821   0.933
14063TIP3   OH242131   8.032   0.846   2.498
14063TIP3    H142132   8.097   0.840   2.427
14063TIP3    H242133   8.040   0.936   2.529
14064TIP3   OH242134   0.298   0.144   4.970
14064TIP3    H142135   0.359   0.092   5.022
14064TIP3    H242136   0.345   0.225   4.951
14065TIP3   OH242137   3.008   3.102   2.951
14065TIP3    H142138   3.100   3.075   2.959
14065TIP3    H242139   2.958   3.029   2.988
14066TIP3   OH242140   6.569   6.794   0.762
14066TIP3    H142141   6.584   6.856   0.690
14066TIP3    H242142   6.477   6.770   0.754
14067TIP3   OH242143   4.585   0.505   3.325
14067TIP3    H142144   4.494   0.478   3.332
14067TIP3    H242145   4.616   0.467   3.243
14068TIP3   OH242146   3.848   6.994   1.003
14068TIP3    H142147   3.917   6.944   1.047
14068TIP3    H242148   3.893   7.072   0.970
14069TIP3   OH242149   6.563   7.789   6.681
14069TIP3    H142150   6.557   7.868   6.629
14069TIP3    H242151   6.586   7.720   6.619
14070TIP3   OH242152   7.160   3.810   1.093
14070TIP3    H142153   7.240   3.806   1.041
14070TIP3    H242154   7.148   3.903   1.110
14071TIP3   OH242155   2.484   3.003   1.617
14071TIP3    H142156   2.464   2.993   1.524
14071TIP3    H242157   2.445   3.087   1.641
14072TIP3   OH242158   2.778   5.315   1.636
14072TIP3    H142159   2.750   5.250   1.572
14072TIP3    H242160   2.700   5.369   1.650
14073TIP3   OH242161   1.038   5.666   2.613
14073TIP3    H142162   1.123   5.641   2.579
14073TIP3    H242163   1.057   5.727   2.684
14074TIP3   OH242164   0.619   6.707   5.427
14074TIP3    H142165   0.534   6.680   5.463
14074TIP3    H242166   0.623   6.802   5.444
14075TIP3   OH242167   3.657   4.790   2.917
14075TIP3    H142168   3.629   4.708   2.957
14075TIP3    H242169   3.645   4.856   2.985
14076TIP3   OH242170   7.389   0.713   2.537
14076TIP3    H142171   7.334   0.784   2.506
14076TIP3    H242172   7.478   0.747   2.531
14077TIP3   OH242173   5.453   1.032   1.275
14077TIP3    H142174   5.532   1.067   1.234
14077TIP3    H242175   5.449   1.076   1.360
14078TIP3   OH242176   1.906   7.378   2.592
14078TIP3    H142177   1.862   7.425   2.521
14078TIP3    H242178   1.871   7.417   2.672
14079TIP3   OH242179   1.333   7.507   2.138
14079TIP3    H142180   1.371   7.595   2.131
14079TIP3    H242181   1.240   7.522   2.154
14080TIP3   OH242182   2.238   7.730   3.885
14080TIP3    H142183   2.255   7.767   3.799
14080TIP3    H242184   2.225   7.636   3.869
14081TIP3   OH242185   5.708   6.524   2.065
14081TIP3    H142186   5.732   6.537   2.157
14081TIP3    H242187   5.788   6.542   2.016
14082TIP3   OH242188   4.029   6.419   4.134
14082TIP3    H142189   4.031   6.485   4.065
14082TIP3    H242190   3.951   6.439   4.186
14083TIP3   OH242191   7.803   4.793   4.109
14083TIP3    H142192   7.823   4.816   4.018
14083TIP3    H242193   7.776   4.701   4.105
14084TIP3   OH242194   8.169   6.791   5.463
14084TIP3    H142195   8.204   6.840   5.537
14084TIP3    H242196   8.157   6.702   5.496
14085TIP3   OH242197   4.039   1.123   0.208
14085TIP3    H142198   4.107   1.118   0.141
14085TIP3    H242199   3.960   1.093   0.163
14086TIP3   OH242200   6.489   5.923   2.625
14086TIP3    H142201   6.546   5.944   2.699
14086TIP3    H242202   6.525   5.842   2.590
14087TIP3   OH242203   1.946   4.805   6.687
14087TIP3    H142204   1.888   4.870   6.727
14087TIP3    H242205   1.974   4.750   6.761
14088TIP3   OH242206   6.494   3.787   3.399
14088TIP3    H142207   6.428   3.854   3.378
14088TIP3    H242208   6.451   3.704   3.380
14089TIP3   OH242209   0.629   6.353   3.847
14089TIP3    H142210   0.535   6.343   3.834
14089TIP3    H242211   0.637   6.401   3.930
14090TIP3   OH242212   0.224   4.773   1.732
14090TIP3    H142213   0.192   4.685   1.715
14090TIP3    H242214   0.177   4.828   1.669
14091TIP3   OH242215   1.279   5.675   4.309
14091TIP3    H142216   1.205   5.735   4.319
14091TIP3    H242217   1.341   5.702   4.377
14092TIP3   OH242218   6.929   6.451   1.670
14092TIP3    H142219   6.965   6.367   1.696
14092TIP3    H242220   7.005   6.500   1.635
14093TIP3   OH242221   2.220   7.572   6.753
14093TIP3    H142222   2.174   7.651   6.725
14093TIP3    H242223   2.153   7.517   6.793
14094TIP3   OH242224   4.187   5.890   0.292
14094TIP3    H142225   4.128   5.938   0.233
14094TIP3    H242226   4.132   5.820   0.329
14095TIP3   OH242227   6.668   6.244   3.382
14095TIP3    H142228   6.662   6.239   3.477
14095TIP3    H242229   6.684   6.337   3.364
14096TIP3   OH242230   5.699   0.951   1.887
14096TIP3    H142231   5.709   1.006   1.964
14096TIP3    H242232   5.698   0.862   1.921
14097TIP3   OH242233   1.359   2.086   2.027
14097TIP3    H142234   1.329   1.995   2.024
14097TIP3    H242235   1.342   2.119   1.939
14098TIP3   OH242236   6.095   2.559   4.065
14098TIP3    H142237   6.024   2.617   4.036
14098TIP3    H242238   6.174   2.598   4.028
14099TIP3   OH242239   0.394   2.082   0.659
14099TIP3    H142240   0.346   2.072   0.576
14099TIP3    H242241   0.471   2.026   0.649
14100TIP3   OH242242   3.550   1.216   5.465
14100TIP3    H142243   3.638   1.181   5.456
14100TIP3    H242244   3.559   1.289   5.526
14101TIP3   OH242245   2.791   2.064   5.935
14101TIP3    H142246   2.860   2.112   5.980
14101TIP3    H242247   2.812   1.972   5.950
14102TIP3   OH242248   6.955   7.556   3.209
14102TIP3    H142249   6.864   7.570   3.235
14102TIP3    H242250   6.955   7.471   3.164
14103TIP3   OH242251   5.122   1.549   0.625
14103TIP3    H142252   5.092   1.636   0.600
14103TIP3    H242253   5.215   1.561   0.646
14104TIP3   OH242254   8.145   2.449   4.808
14104TIP3    H142255   8.054   2.421   4.798
14104TIP3    H242256   8.149   2.534   4.764
14105TIP3   OH242257   3.547   7.654   3.339
14105TIP3    H142258   3.596   7.682   3.262
14105TIP3    H242259   3.456   7.678   3.321
14106TIP3   OH242260   7.510   5.065   2.706
14106TIP3    H142261   7.597   5.027   2.698
14106TIP3    H242262   7.513   5.116   2.787
14107TIP3   OH242263   5.524   4.125   6.509
14107TIP3    H142264   5.479   4.174   6.440
14107TIP3    H242265   5.488   4.160   6.590
14108TIP3   OH242266   7.130   6.070   6.320
14108TIP3    H142267   7.178   6.033   6.394
14108TIP3    H242268   7.039   6.042   6.332
14109TIP3   OH242269   0.212   7.504   2.229
14109TIP3    H142270   0.232   7.560   2.304
14109TIP3    H242271   0.291   7.509   2.175
14110TIP3   OH242272   3.756   4.212   0.368
14110TIP3    H142273   3.817   4.245   0.434
14110TIP3    H242274   3.676   4.193   0.417
14111TIP3   OH242275   5.537   2.694   4.743
14111TIP3    H142276   5.508   2.773   4.790
14111TIP3    H242277   5.550   2.723   4.653
14112TIP3   OH242278   3.619   4.018   5.715
14112TIP3    H142279   3.652   3.986   5.799
14112TIP3    H242280   3.696   4.053   5.671
14113TIP3   OH242281   0.687   6.180   0.339
14113TIP3    H142282   0.734   6.256   0.375
14113TIP3    H242283   0.755   6.115   0.324
14114TIP3   OH242284   1.405   7.408   1.197
14114TIP3    H142285   1.465   7.388   1.269
14114TIP3    H242286   1.452   7.473   1.145
14115TIP3   OH242287   6.923   6.789   2.187
14115TIP3    H142288   7.003   6.840   2.198
14115TIP3    H242289   6.951   6.697   2.194
14116TIP3   OH242290   0.986   5.429   1.992
14116TIP3    H142291   0.913   5.452   1.935
14116TIP3    H242292   0.977   5.334   2.004
14117TIP3   OH242293   8.225   5.949   3.029
14117TIP3    H142294   8.267   6.018   3.079
14117TIP3    H242295   8.281   5.872   3.043
14118TIP3   OH242296   0.034   5.359   2.610
14118TIP3    H142297   0.097   5.365   2.539
14118TIP3    H242298   0.064   5.423   2.675
14119TIP3   OH242299   1.981   4.279   1.679
14119TIP3    H142300   2.062   4.229   1.668
14119TIP3    H242301   1.997   4.334   1.756
14120TIP3   OH242302   7.486   1.006   4.157
14120TIP3    H142303   7.391   1.016   4.166
14120TIP3    H242304   7.523   1.082   4.202
14121TIP3   OH242305   4.594   1.159   5.415
14121TIP3    H142306   4.670   1.168   5.356
14121TIP3    H242307   4.601   1.069   5.448
14122TIP3   OH242308   4.925   2.811   1.637
14122TIP3    H142309   5.010   2.769   1.647
14122TIP3    H242310   4.890   2.814   1.727
14123TIP3   OH242311   7.854   0.968   5.770
14123TIP3    H142312   7.852   1.053   5.813
14123TIP3    H242313   7.944   0.959   5.739
14124TIP3   OH242314   5.461   1.895   5.524
14124TIP3    H142315   5.521   1.954   5.570
14124TIP3    H242316   5.510   1.814   5.514
14125TIP3   OH242317   4.106   6.385   5.372
14125TIP3    H142318   4.176   6.325   5.397
14125TIP3    H242319   4.046   6.384   5.447
14126TIP3   OH242320   2.574   7.618   5.524
14126TIP3    H142321   2.645   7.563   5.490
14126TIP3    H242322   2.495   7.584   5.481
14127TIP3   OH242323   0.105   3.611   3.123
14127TIP3    H142324   0.038   3.619   3.190
14127TIP3    H242325   0.074   3.540   3.067
14128TIP3   OH242326   0.843   6.400   5.781
14128TIP3    H142327   0.915   6.338   5.787
14128TIP3    H242328   0.842   6.444   5.866
14129TIP3   OH242329   2.809   3.370   3.738
14129TIP3    H142330   2.847   3.290   3.701
14129TIP3    H242331   2.884   3.416   3.777
14130TIP3   OH242332   2.845   5.053   4.736
14130TIP3    H142333   2.787   5.004   4.678
14130TIP3    H242334   2.879   5.124   4.682
14131TIP3   OH242335   2.812   1.061   6.776
14131TIP3    H142336   2.799   1.025   6.688
14131TIP3    H242337   2.725   1.058   6.816
14132TIP3   OH242338   5.753   0.433   2.247
14132TIP3    H142339   5.721   0.521   2.225
14132TIP3    H242340   5.714   0.414   2.332
14133TIP3   OH242341   6.219   4.043   5.770
14133TIP3    H142342   6.186   3.961   5.807
14133TIP3    H242343   6.269   4.016   5.693
14134TIP3   OH242344   7.875   7.528   2.437
14134TIP3    H142345   7.823   7.460   2.394
14134TIP3    H242346   7.894   7.492   2.524
14135TIP3   OH242347   7.322   5.550   3.452
14135TIP3    H142348   7.341   5.578   3.362
14135TIP3    H242349   7.353   5.460   3.456
14136TIP3   OH242350   7.238   4.969   4.475
14136TIP3    H142351   7.173   4.899   4.474
14136TIP3    H242352   7.209   5.027   4.545
14137TIP3   OH242353   5.322   2.939   5.870
14137TIP3    H142354   5.269   2.996   5.814
14137TIP3    H242355   5.364   2.878   5.809
14138TIP3   OH242356   2.406   6.894   1.244
14138TIP3    H142357   2.444   6.814   1.209
14138TIP3    H242358   2.355   6.931   1.172
14139TIP3   OH242359   0.400   3.694   6.658
14139TIP3    H142360   0.331   3.755   6.685
14139TIP3    H242361   0.363   3.646   6.585
14140TIP3   OH242362   2.119   6.164   0.355
14140TIP3    H142363   2.199   6.215   0.366
14140TIP3    H242364   2.138   6.079   0.395
14141TIP3   OH242365   3.306   3.882   6.037
14141TIP3    H142366   3.367   3.810   6.022
14141TIP3    H242367   3.219   3.842   6.030
14142TIP3   OH242368   3.510   0.145   2.529
14142TIP3    H142369   3.479   0.153   2.620
14142TIP3    H242370   3.479   0.226   2.487
14143TIP3   OH242371   2.845   3.750   2.502
14143TIP3    H142372   2.786   3.697   2.448
14143TIP3    H242373   2.894   3.686   2.553
14144TIP3   OH242374   0.587   4.649   6.409
14144TIP3    H142375   0.542   4.567   6.385
14144TIP3    H242376   0.637   4.672   6.331
14145TIP3   OH242377   1.376   2.537   4.129
14145TIP3    H142378   1.312   2.599   4.096
14145TIP3    H242379   1.334   2.451   4.118
14146TIP3   OH242380   6.874   4.110   1.166
14146TIP3    H142381   6.825   4.048   1.111
14146TIP3    H242382   6.828   4.108   1.250
14147TIP3   OH242383   0.376   5.814   1.091
14147TIP3    H142384   0.303   5.837   1.034
14147TIP3    H242385   0.403   5.897   1.131
14148TIP3   OH242386   5.201   5.387   1.715
14148TIP3    H142387   5.180   5.393   1.622
14148TIP3    H242388   5.290   5.421   1.722
14149TIP3   OH242389   5.014   3.491   5.640
14149TIP3    H142390   5.080   3.448   5.693
14149TIP3    H242391   4.930   3.459   5.676
14150TIP3   OH242392   0.610   6.314   2.238
14150TIP3    H142393   0.608   6.245   2.304
14150TIP3    H242394   0.532   6.299   2.184
14151TIP3   OH242395   2.743   0.800   6.451
14151TIP3    H142396   2.795   0.798   6.531
14151TIP3    H242397   2.775   0.727   6.399
14152TIP3   OH242398   4.828   4.843   6.334
14152TIP3    H142399   4.737   4.865   6.313
14152TIP3    H242400   4.834   4.749   6.318
14153TIP3   OH242401   4.274   2.121   0.150
14153TIP3    H142402   4.321   2.152   0.072
14153TIP3    H242403   4.183   2.143   0.134
14154TIP3   OH242404   5.627   0.034   4.940
14154TIP3    H142405   5.709  -0.011   4.960
14154TIP3    H242406   5.639   0.122   4.976
14155TIP3   OH242407   0.093   3.006   2.791
14155TIP3    H142408   0.071   3.056   2.870
14155TIP3    H242409   0.095   2.915   2.821
14156TIP3   OH242410   2.983   2.882   5.896
14156TIP3    H142411   3.077   2.875   5.877
14156TIP3    H242412   2.942   2.894   5.811
14157TIP3   OH242413   7.971   7.523   2.715
14157TIP3    H142414   8.040   7.588   2.700
14157TIP3    H242415   7.970   7.510   2.810
14158TIP3   OH242416   7.500   6.396   2.676
14158TIP3    H142417   7.493   6.463   2.743
14158TIP3    H242418   7.536   6.441   2.600
14159TIP3   OH242419   5.193   5.880   5.946
14159TIP3    H142420   5.212   5.918   5.861
14159TIP3    H242421   5.196   5.954   6.007
14160TIP3   OH242422   2.097   7.774   4.923
14160TIP3    H142423   2.004   7.775   4.947
14160TIP3    H242424   2.097   7.784   4.828
14161TIP3   OH242425   5.334   5.586   3.332
14161TIP3    H142426   5.275   5.647   3.288
14161TIP3    H242427   5.415   5.588   3.281
14162TIP3   OH242428   5.722   3.866   3.989
14162TIP3    H142429   5.798   3.840   3.936
14162TIP3    H242430   5.756   3.935   4.046
14163TIP3   OH242431   6.259   4.668   3.265
14163TIP3    H142432   6.345   4.690   3.230
14163TIP3    H242433   6.249   4.574   3.250
14164TIP3   OH242434   3.616   4.652   0.878
14164TIP3    H142435   3.662   4.580   0.834
14164TIP3    H242436   3.592   4.712   0.807
14165TIP3   OH242437   8.243   3.637   2.275
14165TIP3    H142438   8.258   3.694   2.199
14165TIP3    H242439   8.159   3.594   2.255
14166TIP3   OH242440   0.023   4.057   4.058
14166TIP3    H142441  -0.039   4.008   4.113
14166TIP3    H242442   0.027   4.006   3.977
14167TIP3   OH242443   3.379   3.456   0.960
14167TIP3    H142444   3.285   3.448   0.947
14167TIP3    H242445   3.389   3.491   1.048
14168TIP3   OH242446   4.928   2.880   0.322
14168TIP3    H142447   4.852   2.929   0.291
14168TIP3    H242448   4.905   2.852   0.410
14169TIP3   OH242449   5.701   4.308   0.744
14169TIP3    H142450   5.681   4.320   0.651
14169TIP3    H242451   5.758   4.381   0.765
14170TIP3   OH242452   5.866   1.548   6.473
14170TIP3    H142453   5.939   1.611   6.470
14170TIP3    H242454   5.878   1.495   6.394
14171TIP3   OH242455   0.850   3.885   5.490
14171TIP3    H142456   0.861   3.792   5.513
14171TIP3    H242457   0.770   3.911   5.536
14172TIP3   OH242458   7.491   3.019   2.295
14172TIP3    H142459   7.403   2.991   2.269
14172TIP3    H242460   7.549   2.952   2.260
14173TIP3   OH242461   4.666   4.055   3.171
14173TIP3    H142462   4.708   4.050   3.257
14173TIP3    H242463   4.658   4.149   3.154
14174TIP3   OH242464   7.888   7.192   3.322
14174TIP3    H142465   7.920   7.152   3.403
14174TIP3    H242466   7.952   7.262   3.304
14175TIP3   OH242467   3.400   3.465   3.814
14175TIP3    H142468   3.361   3.550   3.794
14175TIP3    H242469   3.458   3.447   3.739
14176TIP3   OH242470   6.742   5.760   0.822
14176TIP3    H142471   6.760   5.847   0.787
14176TIP3    H242472   6.684   5.776   0.896
14177TIP3   OH242473   2.551   0.089   2.484
14177TIP3    H142474   2.596   0.006   2.475
14177TIP3    H242475   2.474   0.081   2.428
14178TIP3   OH242476   2.463   3.763   0.142
14178TIP3    H142477   2.411   3.801   0.071
14178TIP3    H242478   2.424   3.801   0.222
14179TIP3   OH242479   5.910   4.613   1.280
14179TIP3    H142480   5.855   4.627   1.357
14179TIP3    H242481   5.977   4.681   1.287
14180TIP3   OH242482   5.119   1.429   2.563
14180TIP3    H142483   5.055   1.359   2.553
14180TIP3    H242484   5.163   1.409   2.646
14181TIP3   OH242485   6.249   2.199   2.827
14181TIP3    H142486   6.202   2.116   2.832
14181TIP3    H242487   6.338   2.178   2.857
14182TIP3   OH242488   4.440   1.450   3.420
14182TIP3    H142489   4.364   1.464   3.364
14182TIP3    H242490   4.514   1.447   3.360
14183TIP3   OH242491   4.714   2.583   0.505
14183TIP3    H142492   4.720   2.492   0.476
14183TIP3    H242493   4.792   2.597   0.558
14184TIP3   OH242494   0.523   2.270   6.695
14184TIP3    H142495   0.452   2.312   6.646
14184TIP3    H242496   0.483   2.241   6.776
14185TIP3   OH242497   3.540   3.142   0.950
14185TIP3    H142498   3.597   3.208   0.910
14185TIP3    H242499   3.516   3.180   1.035
14186TIP3   OH242500   4.623   6.915   2.317
14186TIP3    H142501   4.644   6.866   2.238
14186TIP3    H242502   4.703   6.911   2.370
14187TIP3   OH242503   8.153   7.597   2.148
14187TIP3    H142504   8.238   7.589   2.105
14187TIP3    H242505   8.130   7.507   2.172
14188TIP3   OH242506   5.522   3.533   0.886
14188TIP3    H142507   5.552   3.609   0.936
14188TIP3    H242508   5.438   3.510   0.924
14189TIP3   OH242509   7.419   3.509   2.527
14189TIP3    H142510   7.442   3.594   2.490
14189TIP3    H242511   7.493   3.487   2.584
14190TIP3   OH242512   4.507   2.574   6.487
14190TIP3    H142513   4.452   2.524   6.547
14190TIP3    H242514   4.550   2.507   6.432
14191TIP3   OH242515   6.745   6.120   2.420
14191TIP3    H142516   6.840   6.130   2.415
14191TIP3    H242517   6.717   6.189   2.480
14192TIP3   OH242518   8.178   2.040   4.585
14192TIP3    H142519   8.240   1.978   4.547
14192TIP3    H242520   8.232   2.116   4.608
14193TIP3   OH242521   3.048   6.803   6.232
14193TIP3    H142522   3.069   6.755   6.312
14193TIP3    H242523   3.130   6.846   6.207
14194TIP3   OH242524   2.406   1.389   1.416
14194TIP3    H142525   2.465   1.461   1.391
14194TIP3    H242526   2.441   1.357   1.499
14195TIP3   OH242527   3.135   0.260   0.648
14195TIP3    H142528   3.213   0.230   0.601
14195TIP3    H242529   3.063   0.238   0.589
14196TIP3   OH242530   7.074   3.634   2.185
14196TIP3    H142531   7.045   3.565   2.125
14196TIP3    H242532   7.028   3.616   2.267
14197TIP3   OH242533   3.451   2.869   6.735
14197TIP3    H142534   3.541   2.853   6.765
14197TIP3    H242535   3.398   2.810   6.788
14198TIP3   OH242536   4.778   0.370   4.060
14198TIP3    H142537   4.773   0.462   4.085
14198TIP3    H242538   4.797   0.323   4.141
14199TIP3   OH242539   2.808   5.599   3.189
14199TIP3    H142540   2.805   5.593   3.284
14199TIP3    H242541   2.810   5.692   3.170
14200TIP3   OH242542   3.943   6.046   6.348
14200TIP3    H142543   4.009   6.107   6.381
14200TIP3    H242544   3.950   5.970   6.407
14201TIP3   OH242545   1.613   1.235   4.893
14201TIP3    H142546   1.554   1.302   4.861
14201TIP3    H242547   1.678   1.224   4.823
14202TIP3   OH242548   2.745   2.980   5.031
14202TIP3    H142549   2.826   2.979   4.980
14202TIP3    H242550   2.676   2.985   4.965
14203TIP3   OH242551   1.992   6.563   0.597
14203TIP3    H142552   1.986   6.614   0.678
14203TIP3    H242553   1.951   6.479   0.618
14204TIP3   OH242554   2.098   5.277   2.200
14204TIP3    H142555   2.141   5.331   2.266
14204TIP3    H242556   2.170   5.229   2.159
14205TIP3   OH242557   6.045   2.886   1.074
14205TIP3    H142558   6.104   2.877   1.149
14205TIP3    H242559   6.018   2.978   1.076
14206TIP3   OH242560   0.708   4.154   2.269
14206TIP3    H142561   0.738   4.076   2.315
14206TIP3    H242562   0.679   4.214   2.338
14207TIP3   OH242563   8.152   2.742   5.549
14207TIP3    H142564   8.167   2.819   5.495
14207TIP3    H242565   8.159   2.668   5.488
14208TIP3   OH242566   4.373   0.277   6.743
14208TIP3    H142567   4.451   0.306   6.695
14208TIP3    H242568   4.390   0.302   6.834
14209TIP3   OH242569   0.260   7.755   5.044
14209TIP3    H142570   0.202   7.832   5.042
14209TIP3    H242571   0.324   7.775   5.112
14210TIP3   OH242572   1.086   5.182   1.777
14210TIP3    H142573   1.158   5.237   1.808
14210TIP3    H242574   1.043   5.152   1.857
14211TIP3   OH242575   1.372   5.301   2.412
14211TIP3    H142576   1.390   5.208   2.425
14211TIP3    H242577   1.440   5.330   2.352
14212TIP3   OH242578   0.172   5.834   0.893
14212TIP3    H142579   0.228   5.868   0.823
14212TIP3    H242580   0.124   5.911   0.925
14213TIP3   OH242581   1.089   4.268   4.922
14213TIP3    H142582   1.048   4.332   4.863
14213TIP3    H242583   1.017   4.210   4.947
14214TIP3   OH242584   6.974   6.946   4.744
14214TIP3    H142585   6.972   6.856   4.711
14214TIP3    H242586   7.047   6.947   4.806
14215TIP3   OH242587   3.102   2.808   6.605
14215TIP3    H142588   3.093   2.750   6.681
14215TIP3    H242589   3.020   2.858   6.604
14216TIP3   OH242590   6.789   4.257   6.374
14216TIP3    H142591   6.797   4.302   6.458
14216TIP3    H242592   6.856   4.299   6.319
14217TIP3   OH242593   2.737   3.903   2.094
14217TIP3    H142594   2.823   3.888   2.133
14217TIP3    H242595   2.752   3.970   2.028
14218TIP3   OH242596   1.670   5.625   1.816
14218TIP3    H142597   1.658   5.537   1.852
14218TIP3    H242598   1.593   5.674   1.844
14219TIP3   OH242599   8.027   6.787   1.973
14219TIP3    H142600   7.944   6.750   2.004
14219TIP3    H242601   8.002   6.870   1.933
14220TIP3   OH242602   1.976   3.666   3.210
14220TIP3    H142603   1.985   3.694   3.302
14220TIP3    H242604   2.037   3.721   3.162
14221TIP3   OH242605   0.979   6.709   2.109
14221TIP3    H142606   0.951   6.731   2.199
14221TIP3    H242607   0.901   6.726   2.056
14222TIP3   OH242608   5.213   2.300   2.840
14222TIP3    H142609   5.249   2.322   2.754
14222TIP3    H242610   5.165   2.218   2.825
14223TIP3   OH242611   0.604   5.622   5.338
14223TIP3    H142612   0.644   5.703   5.371
14223TIP3    H242613   0.646   5.553   5.388
14224TIP3   OH242614   4.389   1.142   2.973
14224TIP3    H142615   4.480   1.172   2.965
14224TIP3    H242616   4.381   1.114   3.064
14225TIP3   OH242617   2.751   1.776   5.437
14225TIP3    H142618   2.682   1.834   5.403
14225TIP3    H242619   2.761   1.802   5.528
14226TIP3   OH242620   3.651   6.182   0.738
14226TIP3    H142621   3.689   6.102   0.775
14226TIP3    H242622   3.679   6.252   0.797
14227TIP3   OH242623   7.102   6.734  -0.001
14227TIP3    H142624   7.075   6.758   0.087
14227TIP3    H242625   7.062   6.649  -0.016
14228TIP3   OH242626   4.075   6.614   5.746
14228TIP3    H142627   4.011   6.632   5.677
14228TIP3    H242628   4.060   6.523   5.770
14229TIP3   OH242629   0.186   6.656   4.723
14229TIP3    H142630   0.115   6.719   4.734
14229TIP3    H242631   0.150   6.589   4.665
14230TIP3   OH242632   5.793   3.571   3.344
14230TIP3    H142633   5.839   3.588   3.426
14230TIP3    H242634   5.763   3.481   3.351
14231TIP3   OH242635   1.529   6.308   2.133
14231TIP3    H142636   1.553   6.400   2.141
14231TIP3    H242637   1.434   6.308   2.123
14232TIP3   OH242638   3.619   3.752   3.755
14232TIP3    H142639   3.685   3.688   3.728
14232TIP3    H242640   3.632   3.761   3.849
14233TIP3   OH242641   4.515   2.227   6.012
14233TIP3    H142642   4.569   2.161   6.055
14233TIP3    H242643   4.431   2.183   5.997
14234TIP3   OH242644   4.873   1.583   0.925
14234TIP3    H142645   4.949   1.640   0.920
14234TIP3    H242646   4.908   1.494   0.932
14235TIP3   OH242647   4.058   5.572   4.089
14235TIP3    H142648   4.055   5.544   3.998
14235TIP3    H242649   4.041   5.666   4.086
14236TIP3   OH242650   5.447   0.685   3.420
14236TIP3    H142651   5.359   0.693   3.458
14236TIP3    H242652   5.502   0.659   3.494
14237TIP3   OH242653   1.309   2.445   5.529
14237TIP3    H142654   1.325   2.503   5.604
14237TIP3    H242655   1.386   2.389   5.524
14238TIP3   OH242656   4.103   3.663   2.712
14238TIP3    H142657   4.068   3.727   2.651
14238TIP3    H242658   4.048   3.672   2.790
14239TIP3   OH242659   3.434   6.474   6.287
14239TIP3    H142660   3.453   6.533   6.359
14239TIP3    H242661   3.515   6.425   6.273
14240TIP3   OH242662   0.116   1.870   6.001
14240TIP3    H142663   0.157   1.919   6.072
14240TIP3    H242664   0.167   1.893   5.923
14241TIP3   OH242665   7.156   3.402   3.092
14241TIP3    H142666   7.233   3.346   3.082
14241TIP3    H242667   7.163   3.436   3.182
14242TIP3   OH242668   5.317   0.445   3.613
14242TIP3    H142669   5.262   0.519   3.588
14242TIP3    H242670   5.385   0.484   3.669
14243TIP3   OH242671   6.231   3.343   0.610
14243TIP3    H142672   6.166   3.411   0.594
14243TIP3    H242673   6.278   3.335   0.527
14244TIP3   OH242674   6.044   7.113   4.138
14244TIP3    H142675   6.073   7.152   4.221
14244TIP3    H242676   5.956   7.149   4.125
14245TIP3   OH242677   3.109   5.733   1.929
14245TIP3    H142678   3.197   5.767   1.914
14245TIP3    H242679   3.089   5.756   2.020
14246TIP3   OH242680   7.960   4.975   5.314
14246TIP3    H142681   7.887   5.031   5.340
14246TIP3    H242682   7.920   4.889   5.298
14247TIP3   OH242683   2.775   3.632   1.946
14247TIP3    H142684   2.772   3.653   2.039
14247TIP3    H242685   2.727   3.703   1.904
14248TIP3   OH242686   7.080   0.193   4.062
14248TIP3    H142687   7.015   0.166   3.997
14248TIP3    H242688   7.062   0.139   4.139
14249TIP3   OH242689   2.211   6.987   1.046
14249TIP3    H142690   2.127   6.960   1.010
14249TIP3    H242691   2.197   7.079   1.071
14250TIP3   OH242692   5.589   5.024   5.401
14250TIP3    H142693   5.681   5.004   5.415
14250TIP3    H242694   5.565   4.978   5.321
14251TIP3   OH242695   2.664   5.588   6.508
14251TIP3    H142696   2.573   5.577   6.482
14251TIP3    H242697   2.692   5.502   6.537
14252TIP3   OH242698   3.735   3.717   5.367
14252TIP3    H142699   3.679   3.737   5.442
14252TIP3    H242700   3.751   3.801   5.326
14253TIP3   OH242701   2.318   3.437   4.973
14253TIP3    H142702   2.373   3.371   5.015
14253TIP3    H242703   2.327   3.420   4.879
14254TIP3   OH242704   1.605   6.172   1.518
14254TIP3    H142705   1.643   6.252   1.482
14254TIP3    H242706   1.624   6.105   1.453
14255TIP3   OH242707   6.353   3.306   3.584
14255TIP3    H142708   6.428   3.364   3.598
14255TIP3    H242709   6.391   3.229   3.541
14256TIP3   OH242710   5.775   5.737   1.170
14256TIP3    H142711   5.771   5.699   1.258
14256TIP3    H242712   5.684   5.760   1.150
14257TIP3   OH242713   5.506   2.656   3.299
14257TIP3    H142714   5.585   2.710   3.295
14257TIP3    H242715   5.443   2.703   3.245
14258TIP3   OH242716   2.768   3.150   4.159
14258TIP3    H142717   2.812   3.083   4.212
14258TIP3    H242718   2.834   3.178   4.095
14259TIP3   OH242719   3.801   1.903   4.356
14259TIP3    H142720   3.804   1.982   4.303
14259TIP3    H242721   3.766   1.932   4.440
14260TIP3   OH242722   3.422   4.561   4.776
14260TIP3    H142723   3.328   4.546   4.771
14260TIP3    H242724   3.433   4.625   4.846
14261TIP3   OH242725   4.388   3.953   1.863
14261TIP3    H142726   4.435   3.873   1.839
14261TIP3    H242727   4.304   3.922   1.896
14262TIP3   OH242728   1.985   5.236   4.631
14262TIP3    H142729   2.011   5.194   4.713
14262TIP3    H242730   1.969   5.327   4.655
14263TIP3   OH242731   5.105   0.374   4.848
14263TIP3    H142732   5.086   0.373   4.754
14263TIP3    H242733   5.113   0.282   4.871
14264TIP3   OH242734   2.333   1.102   2.733
14264TIP3    H142735   2.348   1.096   2.828
14264TIP3    H242736   2.406   1.156   2.701
14265TIP3   OH242737   6.042   6.582   3.544
14265TIP3    H142738   5.953   6.591   3.578
14265TIP3    H242739   6.037   6.616   3.455
14266TIP3   OH242740   4.878   3.540   6.454
14266TIP3    H142741   4.956   3.575   6.496
14266TIP3    H242742   4.808   3.602   6.476
14267TIP3   OH242743   5.942   0.631   5.557
14267TIP3    H142744   6.004   0.654   5.487
14267TIP3    H242745   5.966   0.541   5.581
14268TIP3   OH242746   3.068   7.326   1.976
14268TIP3    H142747   3.105   7.309   1.889
14268TIP3    H242748   3.071   7.241   2.020
14269TIP3   OH242749   1.723   6.050   0.942
14269TIP3    H142750   1.651   5.988   0.930
14269TIP3    H242751   1.777   6.012   1.010
14270TIP3   OH242752   4.411   6.056   0.345
14270TIP3    H142753   4.432   6.099   0.262
14270TIP3    H242754   4.332   6.006   0.327
14271TIP3   OH242755   1.276   5.672   6.074
14271TIP3    H142756   1.272   5.745   6.013
14271TIP3    H242757   1.188   5.666   6.111
14272TIP3   OH242758   2.869   7.371   4.182
14272TIP3    H142759   2.910   7.291   4.216
14272TIP3    H242760   2.787   7.378   4.231
14273TIP3   OH242761   5.052   3.756   5.330
14273TIP3    H142762   5.029   3.814   5.257
14273TIP3    H242763   5.144   3.775   5.347
14274TIP3   OH242764   6.545   3.925   5.740
14274TIP3    H142765   6.637   3.901   5.744
14274TIP3    H242766   6.511   3.877   5.664
14275TIP3   OH242767   4.973   6.375   3.232
14275TIP3    H142768   4.999   6.294   3.277
14275TIP3    H242769   4.879   6.383   3.250
14276TIP3   OH242770   8.100   5.437   0.784
14276TIP3    H142771   8.053   5.356   0.806
14276TIP3    H242772   8.123   5.426   0.692
14277TIP3   OH242773   1.816   4.743   3.756
14277TIP3    H142774   1.840   4.692   3.834
14277TIP3    H242775   1.813   4.833   3.787
14278TIP3   OH242776   5.848   2.149   5.083
14278TIP3    H142777   5.796   2.110   5.154
14278TIP3    H242778   5.934   2.109   5.091
14279TIP3   OH242779   2.168   6.917   3.300
14279TIP3    H142780   2.088   6.963   3.327
14279TIP3    H242781   2.202   6.878   3.380
14280TIP3   OH242782   4.087   0.496   6.028
14280TIP3    H142783   3.992   0.504   6.035
14280TIP3    H242784   4.112   0.441   6.102
14281TIP3   OH242785   0.865   7.730   3.144
14281TIP3    H142786   0.792   7.784   3.113
14281TIP3    H242787   0.870   7.748   3.238
14282TIP3   OH242788   7.558   1.355   1.378
14282TIP3    H142789   7.577   1.408   1.456
14282TIP3    H242790   7.521   1.417   1.316
14283TIP3   OH242791   0.673   1.096   2.767
14283TIP3    H142792   0.590   1.100   2.720
14283TIP3    H242793   0.728   1.160   2.723
14284TIP3   OH242794   0.280   1.371   3.421
14284TIP3    H142795   0.347   1.426   3.382
14284TIP3    H242796   0.275   1.295   3.363
14285TIP3   OH242797   1.027   5.008   1.094
14285TIP3    H142798   0.998   4.926   1.053
14285TIP3    H242799   1.091   5.043   1.033
14286TIP3   OH242800   1.856   2.641   5.469
14286TIP3    H142801   1.808   2.712   5.428
14286TIP3    H242802   1.866   2.667   5.561
14287TIP3   OH242803   0.428   4.872   0.439
14287TIP3    H142804   0.520   4.893   0.424
14287TIP3    H242805   0.408   4.913   0.523
14288TIP3   OH242806   8.298   6.768   3.270
14288TIP3    H142807   8.255   6.793   3.188
14288TIP3    H242808   8.262   6.829   3.335
14289TIP3   OH242809   6.215   1.073   3.187
14289TIP3    H142810   6.230   0.983   3.159
14289TIP3    H242811   6.277   1.086   3.259
14290TIP3   OH242812   3.443   0.165   1.721
14290TIP3    H142813   3.451   0.082   1.768
14290TIP3    H242814   3.355   0.197   1.743
14291TIP3   OH242815   7.575   3.831   4.088
14291TIP3    H142816   7.484   3.806   4.105
14291TIP3    H242817   7.611   3.757   4.039
14292TIP3   OH242818   7.363   5.864   0.766
14292TIP3    H142819   7.381   5.772   0.785
14292TIP3    H242820   7.394   5.911   0.843
14293TIP3   OH242821   2.182   4.476   5.047
14293TIP3    H142822   2.154   4.537   5.115
14293TIP3    H242823   2.277   4.488   5.041
14294TIP3   OH242824   5.395   7.157   3.808
14294TIP3    H142825   5.389   7.185   3.899
14294TIP3    H242826   5.312   7.184   3.769
14295TIP3   OH242827   3.404   6.534   4.875
14295TIP3    H142828   3.396   6.439   4.871
14295TIP3    H242829   3.492   6.549   4.907
14296TIP3   OH242830   1.774   1.122   6.168
14296TIP3    H142831   1.691   1.168   6.175
14296TIP3    H242832   1.762   1.043   6.221
14297TIP3   OH242833   8.200   2.622   5.297
14297TIP3    H142834   8.240   2.535   5.304
14297TIP3    H242835   8.269   2.683   5.323
14298TIP3   OH242836   3.327   0.138   0.452
14298TIP3    H142837   3.386   0.123   0.378
14298TIP3    H242838   3.272   0.212   0.423
14299TIP3   OH242839   2.911   3.627   4.323
14299TIP3    H142840   2.867   3.543   4.336
14299TIP3    H242841   2.849   3.692   4.355
14300TIP3   OH242842   5.938   0.524   1.314
14300TIP3    H142843   5.984   0.446   1.282
14300TIP3    H242844   5.972   0.596   1.260
14301TIP3   OH242845   1.358   6.026   1.529
14301TIP3    H142846   1.387   5.949   1.577
14301TIP3    H242847   1.438   6.069   1.501
14302TIP3   OH242848   0.204   1.429   6.550
14302TIP3    H142849   0.124   1.402   6.506
14302TIP3    H242850   0.219   1.361   6.616
14303TIP3   OH242851   6.454   6.865   2.794
14303TIP3    H142852   6.497   6.813   2.727
14303TIP3    H242853   6.429   6.946   2.750
14304TIP3   OH242854   5.809   4.729   4.631
14304TIP3    H142855   5.784   4.657   4.572
14304TIP3    H242856   5.762   4.805   4.596
14305TIP3   OH242857   4.558   7.184   0.386
14305TIP3    H142858   4.489   7.238   0.348
14305TIP3    H242859   4.512   7.106   0.419
14306TIP3   OH242860   2.109   5.972   3.925
14306TIP3    H142861   2.148   5.933   3.847
14306TIP3    H242862   2.154   6.055   3.936
14307TIP3   OH242863   1.583   3.732   6.466
14307TIP3    H142864   1.675   3.756   6.455
14307TIP3    H242865   1.580   3.690   6.553
14308TIP3   OH242866   6.630   2.329   2.463
14308TIP3    H142867   6.681   2.324   2.381
14308TIP3    H242868   6.592   2.242   2.473
14309TIP3   OH242869   3.900   7.718   0.681
14309TIP3    H142870   3.880   7.630   0.713
14309TIP3    H242871   3.994   7.728   0.698
14310TIP3   OH242872   3.724   2.806   3.229
14310TIP3    H142873   3.697   2.736   3.170
14310TIP3    H242874   3.645   2.857   3.245
14311TIP3   OH242875   7.015   4.979   2.122
14311TIP3    H142876   7.095   4.990   2.173
14311TIP3    H242877   6.988   4.888   2.139
14312TIP3   OH242878   1.830   0.825   1.659
14312TIP3    H142879   1.756   0.884   1.639
14312TIP3    H242880   1.908   0.879   1.646
14313TIP3   OH242881   1.630   5.022   1.089
14313TIP3    H142882   1.634   5.109   1.048
14313TIP3    H242883   1.704   4.975   1.051
14314TIP3   OH242884   7.382   1.601   2.402
14314TIP3    H142885   7.356   1.655   2.476
14314TIP3    H242886   7.449   1.652   2.357
14315TIP3   OH242887   6.446   5.386   1.134
14315TIP3    H142888   6.512   5.338   1.184
14315TIP3    H242889   6.439   5.470   1.178
14316TIP3   OH242890   0.638   2.832   2.943
14316TIP3    H142891   0.653   2.862   3.032
14316TIP3    H242892   0.562   2.882   2.913
14317TIP3   OH242893   1.255   5.949   2.079
14317TIP3    H142894   1.179   5.976   2.027
14317TIP3    H242895   1.330   5.984   2.030
14318TIP3   OH242896   3.255   5.576   5.978
14318TIP3    H142897   3.194   5.641   5.943
14318TIP3    H242898   3.329   5.627   6.010
14319TIP3   OH242899   7.561   7.491   5.537
14319TIP3    H142900   7.623   7.462   5.470
14319TIP3    H242901   7.603   7.470   5.620
14320TIP3   OH242902   0.762   4.881   2.284
14320TIP3    H142903   0.714   4.928   2.352
14320TIP3    H242904   0.747   4.932   2.204
14321TIP3   OH242905   4.147   4.903   1.570
14321TIP3    H142906   4.081   4.973   1.569
14321TIP3    H242907   4.228   4.948   1.595
14322TIP3   OH242908   5.129   1.553   3.210
14322TIP3    H142909   5.110   1.616   3.141
14322TIP3    H242910   5.213   1.514   3.184
14323TIP3   OH242911   1.362   5.873   4.485
14323TIP3    H142912   1.376   5.920   4.403
14323TIP3    H242913   1.444   5.825   4.499
14324TIP3   OH242914   2.512   2.641   2.043
14324TIP3    H142915   2.554   2.612   1.962
14324TIP3    H242916   2.434   2.586   2.050
14325TIP3   OH242917   1.841   5.923   6.120
14325TIP3    H142918   1.787   5.848   6.095
14325TIP3    H242919   1.778   5.995   6.129
14326TIP3   OH242920   0.210   3.653   3.822
14326TIP3    H142921   0.283   3.636   3.881
14326TIP3    H242922   0.133   3.658   3.879
14327TIP3   OH242923   2.649   2.944   2.314
14327TIP3    H142924   2.696   3.026   2.330
14327TIP3    H242925   2.691   2.907   2.237
14328TIP3   OH242926   6.825   6.469   3.246
14328TIP3    H142927   6.843   6.546   3.300
14328TIP3    H242928   6.912   6.441   3.216
14329TIP3   OH242929   7.439   2.260   2.637
14329TIP3    H142930   7.391   2.232   2.715
14329TIP3    H242931   7.517   2.304   2.671
14330TIP3   OH242932   7.273   4.211   3.330
14330TIP3    H142933   7.202   4.262   3.290
14330TIP3    H242934   7.295   4.259   3.409
14331TIP3   OH242935   6.243   4.489   1.486
14331TIP3    H142936   6.195   4.444   1.556
14331TIP3    H242937   6.334   4.461   1.498
14332TIP3   OH242938   1.249   4.628   5.576
14332TIP3    H142939   1.251   4.690   5.648
14332TIP3    H242940   1.200   4.673   5.507
14333TIP3   OH242941   1.450   6.182   6.522
14333TIP3    H142942   1.476   6.099   6.561
14333TIP3    H242943   1.437   6.162   6.430
14334TIP3   OH242944   4.977   4.276   4.390
14334TIP3    H142945   4.883   4.266   4.382
14334TIP3    H242946   5.006   4.301   4.302
14335TIP3   OH242947   2.973   0.779   2.186
14335TIP3    H142948   2.952   0.763   2.278
14335TIP3    H242949   2.970   0.874   2.177
14336TIP3   OH242950   0.042   5.903   6.625
14336TIP3    H142951  -0.008   5.979   6.652
14336TIP3    H242952  -0.024   5.837   6.605
14337TIP3   OH242953   6.051   2.206   0.892
14337TIP3    H142954   6.003   2.215   0.809
14337TIP3    H242955   6.116   2.138   0.875
14338TIP3   OH242956   5.333   2.515   4.773
14338TIP3    H142957   5.302   2.602   4.797
14338TIP3    H242958   5.423   2.528   4.743
14339TIP3   OH242959   0.472   2.451   2.743
14339TIP3    H142960   0.420   2.371   2.734
14339TIP3    H242961   0.502   2.470   2.654
14340TIP3   OH242962   4.468   0.255   3.146
14340TIP3    H142963   4.555   0.292   3.158
14340TIP3    H242964   4.472   0.208   3.063
14341TIP3   OH242965   3.872   2.102   2.796
14341TIP3    H142966   3.810   2.057   2.738
14341TIP3    H242967   3.943   2.129   2.738
14342TIP3   OH242968   4.901   6.069   4.475
14342TIP3    H142969   4.859   5.986   4.496
14342TIP3    H242970   4.962   6.084   4.547
14343TIP3   OH242971   4.848   4.561   4.525
14343TIP3    H142972   4.754   4.544   4.533
14343TIP3    H242973   4.863   4.569   4.431
14344TIP3   OH242974   8.147   3.168   3.761
14344TIP3    H142975   8.240   3.189   3.750
14344TIP3    H242976   8.106   3.252   3.782
14345TIP3   OH242977   6.330   7.441   3.443
14345TIP3    H142978   6.393   7.489   3.497
14345TIP3    H242979   6.346   7.349   3.464
14346TIP3   OH242980   3.753   4.433   1.720
14346TIP3    H142981   3.746   4.342   1.693
14346TIP3    H242982   3.722   4.434   1.811
14347TIP3   OH242983   1.314   1.173   3.286
14347TIP3    H142984   1.244   1.125   3.242
14347TIP3    H242985   1.391   1.117   3.276
14348TIP3   OH242986   0.878   3.871   4.791
14348TIP3    H142987   0.956   3.831   4.753
14348TIP3    H242988   0.889   3.965   4.774
14349TIP3   OH242989   1.442   2.666   1.104
14349TIP3    H142990   1.438   2.645   1.011
14349TIP3    H242991   1.352   2.654   1.135
14350TIP3   OH242992   1.669   2.427   1.426
14350TIP3    H142993   1.620   2.393   1.351
14350TIP3    H242994   1.759   2.399   1.410
14351TIP3   OH242995   6.795   3.441   4.554
14351TIP3    H142996   6.793   3.346   4.559
14351TIP3    H242997   6.847   3.468   4.629
14352TIP3   OH242998   3.447   1.071   0.193
14352TIP3    H142999   3.452   0.989   0.145
14352TIP3    H243000   3.354   1.094   0.193
14353TIP3   OH243001   5.525   1.000   2.162
14353TIP3    H143002   5.458   1.068   2.160
14353TIP3    H243003   5.606   1.048   2.182
14354TIP3   OH243004   0.756   2.189   1.147
14354TIP3    H143005   0.787   2.175   1.236
14354TIP3    H243006   0.668   2.152   1.145
14355TIP3   OH243007   2.996   3.143   4.389
14355TIP3    H143008   3.011   3.055   4.354
14355TIP3    H243009   3.072   3.193   4.359
14356TIP3   OH243010   8.078   1.196   3.285
14356TIP3    H143011   8.123   1.266   3.332
14356TIP3    H243012   8.050   1.237   3.203
14357TIP3   OH243013   3.335   6.615   3.698
14357TIP3    H143014   3.419   6.582   3.730
14357TIP3    H243015   3.302   6.546   3.641
14358TIP3   OH243016   0.792   3.083   5.899
14358TIP3    H143017   0.858   3.151   5.913
14358TIP3    H243018   0.737   3.118   5.829
14359TIP3   OH243019   4.545   1.567   0.583
14359TIP3    H143020   4.526   1.659   0.564
14359TIP3    H243021   4.637   1.557   0.559
14360TIP3   OH243022   7.040   5.403   3.949
14360TIP3    H143023   7.133   5.382   3.941
14360TIP3    H243024   7.027   5.477   3.890
14361TIP3   OH243025   7.541   5.393   3.509
14361TIP3    H143026   7.526   5.300   3.526
14361TIP3    H243027   7.607   5.395   3.440
14362TIP3   OH243028   4.000   2.860   5.392
14362TIP3    H143029   4.046   2.844   5.310
14362TIP3    H243030   3.980   2.773   5.426
14363TIP3   OH243031   7.985   2.235   4.392
14363TIP3    H143032   8.058   2.283   4.352
14363TIP3    H243033   7.911   2.295   4.386
14364TIP3   OH243034   2.928   2.870   3.474
14364TIP3    H143035   2.893   2.903   3.557
14364TIP3    H243036   2.984   2.797   3.499
14365TIP3   OH243037   2.093   4.387   6.272
14365TIP3    H143038   2.114   4.461   6.328
14365TIP3    H243039   2.176   4.344   6.255
14366TIP3   OH243040   1.344   5.733   5.464
14366TIP3    H143041   1.393   5.725   5.382
14366TIP3    H243042   1.412   5.747   5.531
14367TIP3   OH243043   7.765   0.626   2.720
14367TIP3    H143044   7.803   0.550   2.674
14367TIP3    H243045   7.671   0.607   2.724
14368TIP3   OH243046   7.694   5.463   0.313
14368TIP3    H143047   7.613   5.508   0.287
14368TIP3    H243048   7.762   5.530   0.303
14369TIP3   OH243049   3.736   7.020   3.055
14369TIP3    H143050   3.652   7.023   3.008
14369TIP3    H243051   3.731   6.939   3.106
14370TIP3   OH243052   0.060   3.844   2.121
14370TIP3    H143053   0.111   3.918   2.155
14370TIP3    H243054  -0.027   3.881   2.104
14371TIP3   OH243055   2.146   6.450   3.005
14371TIP3    H143056   2.109   6.482   3.088
14371TIP3    H243057   2.220   6.396   3.031
14372TIP3   OH243058   7.659   4.274   1.288
14372TIP3    H143059   7.710   4.213   1.235
14372TIP3    H243060   7.616   4.219   1.354
14373TIP3   OH243061   1.131   1.797   3.759
14373TIP3    H143062   1.068   1.838   3.818
14373TIP3    H243063   1.090   1.802   3.672
14374TIP3   OH243064   4.108   2.412   4.632
14374TIP3    H143065   4.130   2.381   4.544
14374TIP3    H243066   4.051   2.345   4.668
14375TIP3   OH243067   4.846   0.904   2.042
14375TIP3    H143068   4.918   0.844   2.063
14375TIP3    H243069   4.829   0.950   2.124
14376TIP3   OH243070   7.553   2.332   4.573
14376TIP3    H143071   7.534   2.333   4.667
14376TIP3    H243072   7.496   2.264   4.537
14377TIP3   OH243073   7.518   5.395   1.481
14377TIP3    H143074   7.473   5.315   1.510
14377TIP3    H243075   7.521   5.451   1.559
14378TIP3   OH243076   6.716   6.874   3.625
14378TIP3    H143077   6.698   6.780   3.632
14378TIP3    H243078   6.714   6.892   3.531
14379TIP3   OH243079   5.541   2.873   1.853
14379TIP3    H143080   5.630   2.903   1.836
14379TIP3    H243081   5.491   2.901   1.776
14380TIP3   OH243082   5.277   0.534   6.241
14380TIP3    H143083   5.296   0.509   6.332
14380TIP3    H243084   5.219   0.609   6.249
14381TIP3   OH243085   0.828   5.327   0.407
14381TIP3    H143086   0.811   5.321   0.501
14381TIP3    H243087   0.748   5.293   0.367
14382TIP3   OH243088   8.032   1.242   0.734
14382TIP3    H143089   7.946   1.276   0.757
14382TIP3    H243090   8.086   1.321   0.720
14383TIP3   OH243091   1.937   2.762   3.688
14383TIP3    H143092   1.854   2.774   3.735
14383TIP3    H243093   1.911   2.739   3.599
14384TIP3   OH243094   0.250   4.735   0.286
14384TIP3    H143095   0.158   4.754   0.304
14384TIP3    H243096   0.298   4.805   0.329
14385TIP3   OH243097   2.085   4.597   3.235
14385TIP3    H143098   2.008   4.636   3.276
14385TIP3    H243099   2.076   4.503   3.251
14386TIP3   OH243100   4.800   3.594   4.170
14386TIP3    H143101   4.812   3.499   4.160
14386TIP3    H243102   4.829   3.612   4.259
14387TIP3   OH243103   1.105   4.124   0.849
14387TIP3    H143104   1.060   4.151   0.929
14387TIP3    H243105   1.151   4.043   0.874
14388TIP3   OH243106   3.129   7.512   4.236
14388TIP3    H143107   3.161   7.469   4.156
14388TIP3    H243108   3.042   7.475   4.250
14389TIP3   OH243109   6.749   4.073   4.616
14389TIP3    H143110   6.723   3.982   4.605
14389TIP3    H243111   6.783   4.078   4.705
14390TIP3   OH243112   1.814   1.398   4.279
14390TIP3    H143113   1.820   1.309   4.314
14390TIP3    H243114   1.838   1.389   4.187
14391TIP3   OH243115   7.357   1.513   1.787
14391TIP3    H143116   7.267   1.545   1.785
14391TIP3    H243117   7.387   1.531   1.876
14392TIP3   OH243118   2.152   6.965   4.835
14392TIP3    H143119   2.119   6.896   4.778
14392TIP3    H243120   2.074   7.008   4.869
14393TIP3   OH243121   5.342   4.396   2.563
14393TIP3    H143122   5.411   4.445   2.519
14393TIP3    H243123   5.261   4.419   2.516
14394TIP3   OH243124   3.797   1.078   5.357
14394TIP3    H143125   3.830   0.992   5.381
14394TIP3    H243126   3.873   1.125   5.323
14395TIP3   OH243127   6.473   3.289   1.293
14395TIP3    H143128   6.506   3.201   1.277
14395TIP3    H243129   6.504   3.311   1.381
14396TIP3   OH243130   3.049   2.001   2.204
14396TIP3    H143131   3.069   1.924   2.150
14396TIP3    H243132   2.957   1.991   2.227
14397TIP3   OH243133   5.530   3.840   1.410
14397TIP3    H143134   5.495   3.758   1.376
14397TIP3    H243135   5.521   3.902   1.337
14398TIP3   OH243136   6.064   1.434   1.647
14398TIP3    H143137   6.090   1.355   1.601
14398TIP3    H243138   5.994   1.406   1.706
14399TIP3   OH243139   4.172   4.500   2.805
14399TIP3    H143140   4.128   4.532   2.726
14399TIP3    H243141   4.254   4.462   2.772
14400TIP3   OH243142   4.150   1.541   4.557
14400TIP3    H143143   4.056   1.528   4.574
14400TIP3    H243144   4.153   1.589   4.475
14401TIP3   OH243145   6.653   4.740   4.792
14401TIP3    H143146   6.603   4.716   4.870
14401TIP3    H243147   6.707   4.813   4.820
14402TIP3   OH243148   5.886   0.038   0.745
14402TIP3    H143149   5.875  -0.030   0.679
14402TIP3    H243150   5.804   0.087   0.743
14403TIP3   OH243151   7.007   5.632   3.815
14403TIP3    H143152   6.939   5.700   3.814
14403TIP3    H243153   7.066   5.655   3.744
14404TIP3   OH243154   0.378   2.707   6.472
14404TIP3    H143155   0.338   2.738   6.391
14404TIP3    H243156   0.471   2.694   6.450
14405TIP3   OH243157   4.738   0.891   1.287
14405TIP3    H143158   4.728   0.864   1.196
14405TIP3    H243159   4.827   0.863   1.311
14406TIP3   OH243160   2.137   3.489   2.179
14406TIP3    H143161   2.190   3.414   2.151
14406TIP3    H243162   2.047   3.460   2.166
14407TIP3   OH243163   1.414   0.644   0.622
14407TIP3    H143164   1.496   0.657   0.575
14407TIP3    H243165   1.416   0.552   0.648
14408TIP3   OH243166   3.666   3.575   0.608
14408TIP3    H143167   3.630   3.615   0.687
14408TIP3    H243168   3.591   3.532   0.566
14409TIP3   OH243169   5.955   3.127   3.263
14409TIP3    H143170   5.873   3.177   3.265
14409TIP3    H243171   5.967   3.098   3.353
14410TIP3   OH243172   5.632   0.927   1.610
14410TIP3    H143173   5.688   0.861   1.571
14410TIP3    H243174   5.645   0.918   1.705
14411TIP3   OH243175   1.477   4.101   3.011
14411TIP3    H143176   1.424   4.078   2.934
14411TIP3    H243177   1.553   4.146   2.975
14412TIP3   OH243178   4.556   2.976   6.669
14412TIP3    H143179   4.518   3.037   6.605
14412TIP3    H243180   4.482   2.949   6.723
14413TIP3   OH243181   1.909   4.840   3.261
14413TIP3    H143182   1.924   4.807   3.349
14413TIP3    H243183   1.827   4.889   3.267
14414TIP3   OH243184   4.948   5.641   6.452
14414TIP3    H143185   4.898   5.711   6.410
14414TIP3    H243186   5.036   5.677   6.462
14415TIP3   OH243187   3.018   2.290   3.355
14415TIP3    H143188   2.928   2.294   3.388
14415TIP3    H243189   3.029   2.199   3.326
14416TIP3   OH243190   2.252   2.855   4.008
14416TIP3    H143191   2.318   2.924   4.001
14416TIP3    H243192   2.199   2.865   3.929
14417TIP3   OH243193   6.577   5.995   4.713
14417TIP3    H143194   6.634   6.064   4.747
14417TIP3    H243195   6.577   6.008   4.618
14418TIP3   OH243196   3.274   6.022   4.154
14418TIP3    H143197   3.340   6.082   4.188
14418TIP3    H243198   3.293   6.017   4.060
14419TIP3   OH243199   2.759   2.826   1.738
14419TIP3    H143200   2.851   2.835   1.715
14419TIP3    H243201   2.728   2.916   1.748
14420TIP3   OH243202   6.104   0.867   1.152
14420TIP3    H143203   6.128   0.777   1.132
14420TIP3    H243204   6.016   0.876   1.115
14421TIP3   OH243205   4.421   2.363   2.908
14421TIP3    H143206   4.403   2.313   2.989
14421TIP3    H243207   4.503   2.325   2.875
14422TIP3   OH243208   0.339   3.951   0.123
14422TIP3    H143209   0.281   3.951   0.046
14422TIP3    H243210   0.297   4.010   0.185
14423TIP3   OH243211   6.002   0.613   2.696
14423TIP3    H143212   5.971   0.535   2.650
14423TIP3    H243213   6.033   0.580   2.780
14424TIP3   OH243214   5.056   0.631   5.876
14424TIP3    H143215   5.007   0.622   5.958
14424TIP3    H243216   5.048   0.545   5.834
14425TIP3   OH243217   1.717   2.103   1.470
14425TIP3    H143218   1.723   2.157   1.390
14425TIP3    H243219   1.687   2.164   1.537
14426TIP3   OH243220   4.961   4.616   0.050
14426TIP3    H143221   4.882   4.669   0.039
14426TIP3    H243222   4.985   4.629   0.142
14427TIP3   OH243223   5.303   1.161   2.154
14427TIP3    H143224   5.292   1.244   2.200
14427TIP3    H243225   5.233   1.105   2.188
14428TIP3   OH243226   0.432   3.629   0.886
14428TIP3    H143227   0.433   3.674   0.971
14428TIP3    H243228   0.351   3.577   0.888
14429TIP3   OH243229   0.121   6.437   6.681
14429TIP3    H143230   0.182   6.409   6.613
14429TIP3    H243231   0.082   6.518   6.646
14430TIP3   OH243232   2.832   4.702   4.412
14430TIP3    H143233   2.876   4.720   4.329
14430TIP3    H243234   2.811   4.609   4.409
14431TIP3   OH243235   0.682   4.358   2.453
14431TIP3    H143236   0.741   4.424   2.417
14431TIP3    H243237   0.636   4.404   2.524
14432TIP3   OH243238   5.582   1.547   3.538
14432TIP3    H143239   5.592   1.466   3.587
14432TIP3    H243240   5.487   1.556   3.526
14433TIP3   OH243241   4.212   1.491   5.154
14433TIP3    H143242   4.190   1.542   5.232
14433TIP3    H243243   4.307   1.481   5.158
14434TIP3   OH243244   4.053   5.265   5.125
14434TIP3    H143245   4.086   5.254   5.214
14434TIP3    H243246   4.059   5.179   5.085
14435TIP3   OH243247   3.999   6.841   5.037
14435TIP3    H143248   3.910   6.863   5.010
14435TIP3    H243249   4.004   6.870   5.128
14436TIP3   OH243250   7.288   5.397   0.362
14436TIP3    H143251   7.374   5.363   0.387
14436TIP3    H243252   7.251   5.329   0.306
14437TIP3   OH243253   4.574   7.750   3.170
14437TIP3    H143254   4.492   7.710   3.143
14437TIP3    H243255   4.578   7.832   3.121
14438TIP3   OH243256   7.878   1.875   3.471
14438TIP3    H143257   7.845   1.786   3.485
14438TIP3    H243258   7.887   1.883   3.376
14439TIP3   OH243259   1.584   5.351   2.238
14439TIP3    H143260   1.679   5.342   2.235
14439TIP3    H243261   1.569   5.442   2.261
14440TIP3   OH243262   4.879   1.988   2.944
14440TIP3    H143263   4.903   2.064   2.997
14440TIP3    H243264   4.815   1.941   2.998
14441TIP3   OH243265   7.195   5.815   3.393
14441TIP3    H143266   7.220   5.763   3.469
14441TIP3    H243267   7.221   5.904   3.416
14442TIP3   OH243268   5.349   3.552   5.562
14442TIP3    H143269   5.355   3.640   5.525
14442TIP3    H243270   5.265   3.551   5.608
14443TIP3   OH243271   5.063   7.507   6.116
14443TIP3    H143272   5.084   7.481   6.206
14443TIP3    H243273   5.084   7.601   6.114
14444TIP3   OH243274   5.882   6.497   3.228
14444TIP3    H143275   5.917   6.575   3.185
14444TIP3    H243276   5.810   6.530   3.282
14445TIP3   OH243277   1.508   7.462   2.352
14445TIP3    H143278   1.549   7.388   2.306
14445TIP3    H243279   1.439   7.492   2.292
14446TIP3   OH243280   4.419   6.527   0.185
14446TIP3    H143281   4.445   6.616   0.208
14446TIP3    H243282   4.367   6.498   0.260
14447TIP3   OH243283   4.732   6.669   4.742
14447TIP3    H143284   4.750   6.640   4.653
14447TIP3    H243285   4.681   6.598   4.781
14448TIP3   OH243286   1.323   5.389   1.831
14448TIP3    H143287   1.417   5.376   1.845
14448TIP3    H243288   1.289   5.413   1.918
14449TIP3   OH243289   5.252   5.872   3.402
14449TIP3    H143290   5.274   5.961   3.372
14449TIP3    H243291   5.334   5.824   3.394
14450TIP3   OH243292   0.882   1.008   5.126
14450TIP3    H143293   0.857   1.100   5.134
14450TIP3    H243294   0.909   0.983   5.214
14451TIP3   OH243295   3.037   4.581   2.906
14451TIP3    H143296   3.001   4.492   2.901
14451TIP3    H243297   3.092   4.580   2.985
14452TIP3   OH243298   5.958   2.388   1.963
14452TIP3    H143299   5.893   2.320   1.981
14452TIP3    H243300   5.999   2.404   2.048
14453TIP3   OH243301   0.641   7.455   5.366
14453TIP3    H143302   0.651   7.360   5.380
14453TIP3    H243303   0.598   7.486   5.446
14454TIP3   OH243304   0.464   5.998   5.293
14454TIP3    H143305   0.526   6.048   5.346
14454TIP3    H243306   0.417   6.064   5.242
14455TIP3   OH243307   2.298   2.461   2.041
14455TIP3    H143308   2.242   2.393   2.003
14455TIP3    H243309   2.249   2.494   2.116
14456TIP3   OH243310   5.611   6.536   2.579
14456TIP3    H143311   5.692   6.544   2.629
14456TIP3    H243312   5.640   6.539   2.487
14457TIP3   OH243313   5.706   0.426   0.182
14457TIP3    H143314   5.688   0.516   0.209
14457TIP3    H243315   5.657   0.416   0.100
14458TIP3   OH243316   4.558   0.997   5.960
14458TIP3    H143317   4.619   0.925   5.975
14458TIP3    H243318   4.553   1.043   6.044
14459TIP3   OH243319   8.228   3.695   5.413
14459TIP3    H143320   8.276   3.776   5.394
14459TIP3    H243321   8.222   3.652   5.328
14460TIP3   OH243322   5.639   2.030   5.274
14460TIP3    H143323   5.600   1.943   5.263
14460TIP3    H243324   5.672   2.031   5.364
14461TIP3   OH243325   5.940   4.591   0.525
14461TIP3    H143326   5.979   4.527   0.585
14461TIP3    H243327   5.891   4.650   0.583
14462TIP3   OH243328   3.298   4.140   5.003
14462TIP3    H143329   3.266   4.050   4.991
14462TIP3    H243330   3.235   4.180   5.062
14463TIP3   OH243331   5.013   5.248   2.772
14463TIP3    H143332   4.967   5.208   2.847
14463TIP3    H243333   5.004   5.184   2.702
14464TIP3   OH243334   6.566   4.983   2.017
14464TIP3    H143335   6.494   4.949   1.965
14464TIP3    H243336   6.645   4.953   1.972
14465TIP3   OH243337   2.686   1.585   2.399
14465TIP3    H143338   2.675   1.582   2.304
14465TIP3    H243339   2.759   1.645   2.412
14466TIP3   OH243340   3.235   0.140   2.018
14466TIP3    H143341   3.283   0.068   1.976
14466TIP3    H243342   3.298   0.180   2.078
14467TIP3   OH243343   0.989   5.102   2.020
14467TIP3    H143344   1.042   5.061   2.089
14467TIP3    H243345   0.901   5.069   2.033
14468TIP3   OH243346   0.269   0.437   1.656
14468TIP3    H143347   0.192   0.383   1.638
14468TIP3    H243348   0.326   0.423   1.581
14469TIP3   OH243349   5.482   3.779   0.715
14469TIP3    H143350   5.508   3.707   0.773
14469TIP3    H243351   5.402   3.749   0.672
14470TIP3   OH243352   2.744   7.762   4.225
14470TIP3    H143353   2.791   7.842   4.201
14470TIP3    H243354   2.707   7.731   4.143
14471TIP3   OH243355   2.581   1.268   2.667
14471TIP3    H143356   2.609   1.250   2.757
14471TIP3    H243357   2.658   1.309   2.626
14472TIP3   OH243358   4.131   4.381   1.921
14472TIP3    H143359   4.120   4.289   1.942
14472TIP3    H243360   4.158   4.382   1.829
14473TIP3   OH243361   7.066   6.383   2.131
14473TIP3    H143362   7.012   6.450   2.172
14473TIP3    H243363   7.140   6.371   2.191
14474TIP3   OH243364   7.969   7.038   1.938
14474TIP3    H143365   8.015   7.104   1.885
14474TIP3    H243366   7.877   7.047   1.914
14475TIP3   OH243367   2.563   4.672   0.678
14475TIP3    H143368   2.521   4.616   0.744
14475TIP3    H243369   2.556   4.761   0.714
14476TIP3   OH243370   2.832   3.901   0.386
14476TIP3    H143371   2.804   3.881   0.297
14476TIP3    H243372   2.888   3.978   0.377
14477TIP3   OH243373   2.044   3.963   5.677
14477TIP3    H143374   2.054   3.958   5.772
14477TIP3    H243375   1.954   3.937   5.660
14478TIP3   OH243376   7.926   3.428   4.117
14478TIP3    H143377   7.909   3.466   4.031
14478TIP3    H243378   7.868   3.352   4.122
14479TIP3   OH243379   1.556   4.267   0.076
14479TIP3    H143380   1.484   4.212   0.108
14479TIP3    H243381   1.594   4.304   0.156
14480TIP3   OH243382   1.551   7.475   1.833
14480TIP3    H143383   1.586   7.422   1.761
14480TIP3    H243384   1.469   7.432   1.856
14481TIP3   OH243385   5.704   4.324   6.243
14481TIP3    H143386   5.610   4.326   6.262
14481TIP3    H243387   5.713   4.259   6.173
14482TIP3   OH243388   1.206   6.359   6.395
14482TIP3    H143389   1.159   6.402   6.466
14482TIP3    H243390   1.270   6.302   6.438
14483TIP3   OH243391   7.860   6.725   0.342
14483TIP3    H143392   7.916   6.708   0.418
14483TIP3    H243393   7.782   6.671   0.358
14484TIP3   OH243394   3.231   4.223   1.419
14484TIP3    H143395   3.239   4.218   1.514
14484TIP3    H243396   3.204   4.313   1.402
14485TIP3   OH243397   6.417   0.060   5.613
14485TIP3    H143398   6.439  -0.032   5.603
14485TIP3    H243399   6.424   0.076   5.708
14486TIP3   OH243400   0.641   1.983   0.628
14486TIP3    H143401   0.667   1.913   0.568
14486TIP3    H243402   0.722   2.009   0.672
14487TIP3   OH243403   8.218   4.780   1.248
14487TIP3    H143404   8.288   4.728   1.287
14487TIP3    H243405   8.252   4.870   1.248
14488TIP3   OH243406   6.377   0.190   3.241
14488TIP3    H143407   6.384   0.098   3.216
14488TIP3    H243408   6.467   0.217   3.260
14489TIP3   OH243409   7.802   0.469   4.106
14489TIP3    H143410   7.753   0.536   4.152
14489TIP3    H243411   7.794   0.391   4.161
14490TIP3   OH243412   0.872   5.898   4.576
14490TIP3    H143413   0.777   5.889   4.564
14490TIP3    H243414   0.882   5.911   4.671
14491TIP3   OH243415   0.544   0.684   4.472
14491TIP3    H143416   0.485   0.693   4.397
14491TIP3    H243417   0.505   0.614   4.525
14492TIP3   OH243418   0.927   0.456   3.979
14492TIP3    H143419   0.967   0.450   4.066
14492TIP3    H243420   0.989   0.509   3.929
14493TIP3   OH243421   7.297   6.746   5.591
14493TIP3    H143422   7.320   6.694   5.668
14493TIP3    H243423   7.241   6.688   5.538
14494TIP3   OH243424   4.920   3.280   6.396
14494TIP3    H143425   4.841   3.231   6.418
14494TIP3    H243426   4.901   3.369   6.425
14495TIP3   OH243427   5.899   1.724   1.817
14495TIP3    H143428   5.806   1.704   1.822
14495TIP3    H243429   5.943   1.640   1.829
14496TIP3   OH243430   5.461   7.666   1.527
14496TIP3    H143431   5.392   7.617   1.571
14496TIP3    H243432   5.414   7.735   1.480
14497TIP3   OH243433   0.923   6.704   0.261
14497TIP3    H143434   0.997   6.758   0.289
14497TIP3    H243435   0.884   6.752   0.188
14498TIP3   OH243436   1.316   7.697   3.860
14498TIP3    H143437   1.313   7.629   3.927
14498TIP3    H243438   1.410   7.712   3.845
14499TIP3   OH243439   6.641   4.014   0.065
14499TIP3    H143440   6.724   3.986   0.026
14499TIP3    H243441   6.586   4.036  -0.011
14500TIP3   OH243442   6.541   6.402   5.159
14500TIP3    H143443   6.563   6.321   5.112
14500TIP3    H243444   6.542   6.470   5.091
14501TIP3   OH243445   2.561   7.070   1.647
14501TIP3    H143446   2.589   6.980   1.631
14501TIP3    H243447   2.479   7.062   1.696
14502TIP3   OH243448   2.199   1.811   5.712
14502TIP3    H143449   2.283   1.776   5.742
14502TIP3    H243450   2.152   1.832   5.792
14503TIP3   OH243451   8.136   4.308   3.422
14503TIP3    H143452   8.109   4.218   3.438
14503TIP3    H243453   8.215   4.301   3.370
14504TIP3   OH243454   0.566   2.573   2.994
14504TIP3    H143455   0.561   2.527   2.911
14504TIP3    H243456   0.582   2.664   2.971
14505TIP3   OH243457   4.477   7.699   6.343
14505TIP3    H143458   4.427   7.642   6.285
14505TIP3    H243459   4.437   7.686   6.429
14506TIP3   OH243460   7.993   5.733   2.908
14506TIP3    H143461   7.916   5.785   2.884
14506TIP3    H243462   8.067   5.785   2.878
14507TIP3   OH243463   4.733   0.675   5.868
14507TIP3    H143464   4.786   0.597   5.881
14507TIP3    H243465   4.654   0.660   5.919
14508TIP3   OH243466   4.405   7.092   2.377
14508TIP3    H143467   4.493   7.058   2.363
14508TIP3    H243468   4.352   7.048   2.311
14509TIP3   OH243469   2.006   5.831   3.371
14509TIP3    H143470   1.983   5.831   3.278
14509TIP3    H243471   1.949   5.765   3.410
14510TIP3   OH243472   0.415   2.060   4.734
14510TIP3    H143473   0.364   2.140   4.751
14510TIP3    H243474   0.498   2.092   4.699
14511TIP3   OH243475   2.288   3.460   2.870
14511TIP3    H143476   2.206   3.445   2.917
14511TIP3    H243477   2.319   3.373   2.847
14512TIP3   OH243478   3.243   4.997   3.605
14512TIP3    H143479   3.310   5.057   3.574
14512TIP3    H243480   3.291   4.917   3.627
14513TIP3   OH243481   6.246   3.243   5.063
14513TIP3    H143482   6.253   3.262   4.969
14513TIP3    H243483   6.296   3.163   5.075
14514TIP3   OH243484   0.754   6.236   4.760
14514TIP3    H143485   0.714   6.245   4.847
14514TIP3    H243486   0.821   6.305   4.757
14515TIP3   OH243487   5.526   0.607   1.380
14515TIP3    H143488   5.598   0.645   1.330
14515TIP3    H243489   5.551   0.619   1.471
14516TIP3   OH243490   5.394   2.008   4.289
14516TIP3    H143491   5.401   1.913   4.283
14516TIP3    H243492   5.318   2.023   4.346
14517TIP3   OH243493   4.442   1.110   3.255
14517TIP3    H143494   4.495   1.033   3.275
14517TIP3    H243495   4.475   1.177   3.315
14518TIP3   OH243496   6.856   6.633   1.369
14518TIP3    H143497   6.884   6.579   1.443
14518TIP3    H243498   6.936   6.677   1.340
14519TIP3   OH243499   0.354   6.901   5.975
14519TIP3    H143500   0.364   6.832   5.909
14519TIP3    H243501   0.417   6.968   5.949
14520TIP3   OH243502   0.174   5.656   1.910
14520TIP3    H143503   0.081   5.654   1.934
14520TIP3    H243504   0.218   5.606   1.978
14521TIP3   OH243505   3.018   7.518   1.699
14521TIP3    H143506   3.040   7.426   1.708
14521TIP3    H243507   2.962   7.523   1.621
14522TIP3   OH243508   6.815   4.998   3.227
14522TIP3    H143509   6.843   4.994   3.318
14522TIP3    H243510   6.791   4.908   3.205
14523TIP3   OH243511   4.245   7.487   5.594
14523TIP3    H143512   4.250   7.419   5.661
14523TIP3    H243513   4.251   7.440   5.511
14524TIP3   OH243514   2.224   5.898   4.488
14524TIP3    H143515   2.137   5.909   4.450
14524TIP3    H243516   2.228   5.806   4.512
14525TIP3   OH243517   1.708   5.451   3.316
14525TIP3    H143518   1.690   5.529   3.263
14525TIP3    H243519   1.651   5.460   3.392
14526TIP3   OH243520   3.709   3.873   5.931
14526TIP3    H143521   3.723   3.967   5.944
14526TIP3    H243522   3.797   3.838   5.914
14527TIP3   OH243523   4.879   5.137   4.372
14527TIP3    H143524   4.818   5.085   4.320
14527TIP3    H243525   4.948   5.161   4.310
14528TIP3   OH243526   1.179   4.844   4.671
14528TIP3    H143527   1.271   4.828   4.652
14528TIP3    H243528   1.162   4.931   4.635
14529TIP3   OH243529   4.453   1.552   4.573
14529TIP3    H143530   4.388   1.616   4.603
14529TIP3    H243531   4.449   1.557   4.477
14530TIP3   OH243532   2.181   5.355   4.988
14530TIP3    H143533   2.246   5.287   5.006
14530TIP3    H243534   2.097   5.315   5.010
14531TIP3   OH243535   6.041   4.721   5.676
14531TIP3    H143536   6.072   4.641   5.632
14531TIP3    H243537   6.026   4.694   5.767
14532TIP3   OH243538   1.612   7.034   3.035
14532TIP3    H143539   1.612   7.116   3.085
14532TIP3    H243540   1.663   6.973   3.088
14533TIP3   OH243541   3.349   6.530   3.156
14533TIP3    H143542   3.296   6.461   3.196
14533TIP3    H243543   3.305   6.551   3.074
14534TIP3   OH243544   3.438   2.176   1.893
14534TIP3    H143545   3.425   2.218   1.978
14534TIP3    H243546   3.527   2.140   1.897
14535TIP3   OH243547   6.112   7.705   2.765
14535TIP3    H143548   6.142   7.632   2.818
14535TIP3    H243549   6.081   7.665   2.684
14536TIP3   OH243550   8.081   1.206   6.067
14536TIP3    H143551   8.144   1.152   6.019
14536TIP3    H243552   8.115   1.295   6.059
14537TIP3   OH243553   2.212   0.646   3.046
14537TIP3    H143554   2.230   0.737   3.072
14537TIP3    H243555   2.295   0.614   3.011
14538TIP3   OH243556   4.933   5.831   1.739
14538TIP3    H143557   4.897   5.900   1.794
14538TIP3    H243558   4.886   5.839   1.656
14539TIP3   OH243559   2.200   2.843   0.197
14539TIP3    H143560   2.195   2.853   0.102
14539TIP3    H243561   2.203   2.748   0.211
14540TIP3   OH243562   4.997   2.949   1.377
14540TIP3    H143563   5.034   3.020   1.325
14540TIP3    H243564   4.979   2.990   1.462
14541TIP3   OH243565   1.677   1.581   4.610
14541TIP3    H143566   1.706   1.667   4.580
14541TIP3    H243567   1.608   1.557   4.549
14542TIP3   OH243568   3.398   2.363   2.641
14542TIP3    H143569   3.478   2.396   2.683
14542TIP3    H243570   3.355   2.311   2.709
14543TIP3   OH243571   2.521   5.898   5.446
14543TIP3    H143572   2.445   5.943   5.484
14543TIP3    H243573   2.483   5.828   5.394
14544TIP3   OH243574   6.942   6.317   4.940
14544TIP3    H143575   6.923   6.327   5.034
14544TIP3    H243576   6.984   6.399   4.915
14545TIP3   OH243577   3.944   5.700   0.722
14545TIP3    H143578   3.985   5.770   0.671
14545TIP3    H243579   3.894   5.650   0.657
14546TIP3   OH243580   2.349   2.418   5.833
14546TIP3    H143581   2.310   2.332   5.819
14546TIP3    H243582   2.372   2.420   5.926
14547TIP3   OH243583   5.833   0.441   0.834
14547TIP3    H143584   5.863   0.364   0.882
14547TIP3    H243585   5.890   0.511   0.864
14548TIP3   OH243586   3.216   6.149   2.761
14548TIP3    H143587   3.164   6.229   2.753
14548TIP3    H243588   3.299   6.170   2.716
14549TIP3   OH243589   6.031   4.727   3.901
14549TIP3    H143590   5.979   4.767   3.831
14549TIP3    H243591   6.112   4.777   3.903
14550TIP3   OH243592   4.699   6.382   3.266
14550TIP3    H143593   4.634   6.422   3.208
14550TIP3    H243594   4.687   6.288   3.254
14551TIP3   OH243595   5.594   2.498   5.806
14551TIP3    H143596   5.516   2.553   5.802
14551TIP3    H243597   5.583   2.435   5.735
14552TIP3   OH243598   3.726   4.097   2.830
14552TIP3    H143599   3.715   4.069   2.920
14552TIP3    H243600   3.639   4.092   2.792
14553TIP3   OH243601   3.925   7.350   6.332
14553TIP3    H143602   3.902   7.424   6.275
14553TIP3    H243603   3.845   7.333   6.382
14554TIP3   OH243604   6.282   4.784   0.810
14554TIP3    H143605   6.294   4.789   0.715
14554TIP3    H243606   6.227   4.707   0.823
14555TIP3   OH243607   1.819   7.494   6.091
14555TIP3    H143608   1.825   7.506   5.997
14555TIP3    H243609   1.797   7.581   6.126
14556TIP3   OH243610   4.540   1.529   5.250
14556TIP3    H143611   4.521   1.606   5.196
14556TIP3    H243612   4.635   1.527   5.256
14557TIP3   OH243613   0.577   3.155   3.887
14557TIP3    H143614   0.498   3.127   3.934
14557TIP3    H243615   0.649   3.124   3.942
14558TIP3   OH243616   1.517   6.991   3.380
14558TIP3    H143617   1.599   6.978   3.334
14558TIP3    H243618   1.451   6.946   3.327
14559TIP3   OH243619   3.760   3.056   1.787
14559TIP3    H143620   3.821   3.090   1.721
14559TIP3    H243621   3.770   2.961   1.781
14560TIP3   OH243622   3.800   6.988   5.738
14560TIP3    H143623   3.816   7.039   5.818
14560TIP3    H243624   3.801   7.053   5.668
14561TIP3   OH243625   4.175   6.164   4.295
14561TIP3    H143626   4.233   6.219   4.347
14561TIP3    H243627   4.134   6.224   4.233
14562TIP3   OH243628   1.269   5.197   2.106
14562TIP3    H143629   1.223   5.137   2.165
14562TIP3    H243630   1.295   5.142   2.032
14563TIP3   OH243631   2.514   2.734   1.702
14563TIP3    H143632   2.609   2.741   1.702
14563TIP3    H243633   2.483   2.824   1.691
14564TIP3   OH243634   0.277   3.747   1.315
14564TIP3    H143635   0.238   3.716   1.233
14564TIP3    H243636   0.338   3.679   1.340
14565TIP3   OH243637   8.282   7.597   6.181
14565TIP3    H143638   8.306   7.520   6.232
14565TIP3    H243639   8.193   7.617   6.208
14566TIP3   OH243640   0.456   0.491   0.856
14566TIP3    H143641   0.390   0.560   0.870
14566TIP3    H243642   0.530   0.517   0.911
14567TIP3   OH243643   7.278   3.371   4.495
14567TIP3    H143644   7.193   3.370   4.449
14567TIP3    H243645   7.290   3.282   4.526
14568TIP3   OH243646   2.930   3.151   3.611
14568TIP3    H143647   3.024   3.158   3.627
14568TIP3    H243648   2.920   3.169   3.517
14569TIP3   OH243649   4.885   6.446   0.707
14569TIP3    H143650   4.797   6.410   0.719
14569TIP3    H243651   4.889   6.467   0.613
14570TIP3   OH243652   8.227   7.005   5.755
14570TIP3    H143653   8.299   6.964   5.707
14570TIP3    H243654   8.267   7.036   5.836
14571TIP3   OH243655   3.402   1.888   0.124
14571TIP3    H143656   3.427   1.957   0.186
14571TIP3    H243657   3.388   1.935   0.042
14572TIP3   OH243658   4.084   3.653   6.591
14572TIP3    H143659   4.047   3.620   6.673
14572TIP3    H243660   4.178   3.632   6.597
14573TIP3   OH243661   3.885   1.207   2.436
14573TIP3    H143662   3.824   1.143   2.472
14573TIP3    H243663   3.906   1.175   2.349
14574TIP3   OH243664   0.719   4.653   5.442
14574TIP3    H143665   0.691   4.742   5.422
14574TIP3    H243666   0.738   4.655   5.536
14575TIP3   OH243667   5.612   6.838   5.912
14575TIP3    H143668   5.602   6.911   5.851
14575TIP3    H243669   5.581   6.873   5.996
14576TIP3   OH243670   4.395   4.204   4.889
14576TIP3    H143671   4.326   4.241   4.834
14576TIP3    H243672   4.417   4.274   4.951
14577TIP3   OH243673   6.430   0.009   6.340
14577TIP3    H143674   6.437   0.087   6.284
14577TIP3    H243675   6.336  -0.001   6.355
14578TIP3   OH243676   4.365   2.481   0.050
14578TIP3    H143677   4.340   2.571   0.029
14578TIP3    H243678   4.376   2.480   0.145
14579TIP3   OH243679   0.973   4.724   6.126
14579TIP3    H143680   0.913   4.787   6.086
14579TIP3    H243681   1.037   4.777   6.172
14580TIP3   OH243682   5.565   4.515   2.443
14580TIP3    H143683   5.569   4.592   2.501
14580TIP3    H243684   5.656   4.503   2.414
14581TIP3   OH243685   0.082   0.869   3.756
14581TIP3    H143686   0.148   0.854   3.689
14581TIP3    H243687   0.030   0.788   3.756
14582TIP3   OH243688   6.377   7.323   5.851
14582TIP3    H143689   6.309   7.389   5.864
14582TIP3    H243690   6.420   7.316   5.936
14583TIP3   OH243691   3.224   3.221   3.231
14583TIP3    H143692   3.223   3.126   3.241
14583TIP3    H243693   3.276   3.236   3.153
14584TIP3   OH243694   7.472   2.205   6.373
14584TIP3    H143695   7.567   2.215   6.379
14584TIP3    H243696   7.437   2.269   6.435
14585TIP3   OH243697   6.384   2.670   6.397
14585TIP3    H143698   6.334   2.601   6.440
14585TIP3    H243699   6.319   2.731   6.365
14586TIP3   OH243700   1.069   4.376   5.746
14586TIP3    H143701   1.086   4.340   5.833
14586TIP3    H243702   1.085   4.469   5.755
14587TIP3   OH243703   0.660   0.608   4.081
14587TIP3    H143704   0.754   0.614   4.097
14587TIP3    H243705   0.636   0.521   4.113
14588TIP3   OH243706   7.464   7.167   1.702
14588TIP3    H143707   7.428   7.078   1.703
14588TIP3    H243708   7.401   7.218   1.753
14589TIP3   OH243709   1.671   5.585   4.243
14589TIP3    H143710   1.630   5.503   4.273
14589TIP3    H243711   1.764   5.573   4.260
14590TIP3   OH243712   2.144   7.494   2.870
14590TIP3    H143713   2.202   7.560   2.910
14590TIP3    H243714   2.114   7.441   2.944
14591TIP3   OH243715   3.035   6.485   1.053
14591TIP3    H143716   3.022   6.463   1.146
14591TIP3    H243717   2.964   6.547   1.034
14592TIP3   OH243718   7.055   2.578   5.817
14592TIP3    H143719   6.997   2.637   5.867
14592TIP3    H243720   7.077   2.509   5.879
14593TIP3   OH243721   4.855   0.322   5.159
14593TIP3    H143722   4.792   0.268   5.112
14593TIP3    H243723   4.803   0.367   5.226
14594TIP3   OH243724   6.263   7.468   2.391
14594TIP3    H143725   6.221   7.496   2.310
14594TIP3    H243726   6.332   7.533   2.406
14595TIP3   OH243727   1.782   0.134   6.630
14595TIP3    H143728   1.736   0.204   6.676
14595TIP3    H243729   1.712   0.076   6.600
14596TIP3   OH243730   6.072   1.008   1.486
14596TIP3    H143731   6.139   0.944   1.510
14596TIP3    H243732   6.039   1.042   1.569
14597TIP3   OH243733   4.687   6.872   5.824
14597TIP3    H143734   4.640   6.921   5.757
14597TIP3    H243735   4.627   6.866   5.897
14598TIP3   OH243736   2.436   6.182   0.483
14598TIP3    H143737   2.528   6.183   0.459
14598TIP3    H243738   2.395   6.249   0.428
14599TIP3   OH243739   0.135   7.042   1.228
14599TIP3    H143740   0.107   7.106   1.163
14599TIP3    H243741   0.056   7.024   1.279
14600TIP3   OH243742   6.660   0.321   3.889
14600TIP3    H143743   6.658   0.412   3.861
14600TIP3    H243744   6.568   0.298   3.902
14601TIP3   OH243745   3.136   7.771   3.123
14601TIP3    H143746   3.065   7.761   3.060
14601TIP3    H243747   3.113   7.712   3.195
14602TIP3   OH243748   6.814   2.448   0.069
14602TIP3    H143749   6.854   2.487  -0.009
14602TIP3    H243750   6.783   2.363   0.040
14603TIP3   OH243751   0.819   2.496   5.506
14603TIP3    H143752   0.752   2.542   5.455
14603TIP3    H243753   0.806   2.404   5.484
14604TIP3   OH243754   0.537   3.307   5.856
14604TIP3    H143755   0.550   3.245   5.785
14604TIP3    H243756   0.483   3.376   5.818
14605TIP3   OH243757   6.194   5.779   5.710
14605TIP3    H143758   6.187   5.701   5.656
14605TIP3    H243759   6.273   5.765   5.762
14606TIP3   OH243760   4.258   2.355   5.879
14606TIP3    H143761   4.267   2.382   5.787
14606TIP3    H243762   4.245   2.260   5.874
14607TIP3   OH243763   5.769   0.130   4.671
14607TIP3    H143764   5.722   0.180   4.738
14607TIP3    H243765   5.724   0.151   4.589
14608TIP3   OH243766   4.410   3.018   3.685
14608TIP3    H143767   4.441   3.088   3.628
14608TIP3    H243768   4.335   3.057   3.731
14609TIP3   OH243769   5.848   2.151   0.624
14609TIP3    H143770   5.888   2.236   0.605
14609TIP3    H243771   5.771   2.147   0.567
14610TIP3   OH243772   1.653   3.929   1.084
14610TIP3    H143773   1.723   3.880   1.040
14610TIP3    H243774   1.666   4.019   1.056
14611TIP3   OH243775   3.362   4.486   6.148
14611TIP3    H143776   3.298   4.429   6.105
14611TIP3    H243777   3.316   4.569   6.161
14612TIP3   OH243778   5.456   0.311   5.937
14612TIP3    H143779   5.537   0.342   5.896
14612TIP3    H243780   5.387   0.367   5.901
14613TIP3   OH243781   5.095   7.534   5.834
14613TIP3    H143782   5.058   7.511   5.919
14613TIP3    H243783   5.022   7.527   5.773
14614TIP3   OH243784   1.009   3.625   2.647
14614TIP3    H143785   0.965   3.702   2.612
14614TIP3    H243786   0.976   3.552   2.594
14615TIP3   OH243787   2.781   5.380   3.555
14615TIP3    H143788   2.725   5.389   3.632
14615TIP3    H243789   2.787   5.286   3.540
14616TIP3   OH243790   5.908   6.781   3.091
14616TIP3    H143791   5.833   6.791   3.033
14616TIP3    H243792   5.903   6.855   3.151
14617TIP3   OH243793   5.988   1.885   2.028
14617TIP3    H143794   6.026   1.815   2.081
14617TIP3    H243795   6.000   1.856   1.938
14618TIP3   OH243796   2.771   0.504   1.142
14618TIP3    H143797   2.774   0.553   1.224
14618TIP3    H243798   2.839   0.543   1.088
14619TIP3   OH243799   3.466   1.120   2.984
14619TIP3    H143800   3.555   1.149   2.966
14619TIP3    H243801   3.414   1.155   2.911
14620TIP3   OH243802   0.999   2.079   2.070
14620TIP3    H143803   1.027   2.043   1.986
14620TIP3    H243804   0.934   2.017   2.102
14621TIP3   OH243805   2.049   1.294   5.551
14621TIP3    H143806   1.983   1.359   5.525
14621TIP3    H243807   2.104   1.340   5.614
14622TIP3   OH243808   7.083   4.662   5.440
14622TIP3    H143809   7.047   4.671   5.351
14622TIP3    H243810   7.172   4.697   5.433
14623TIP3   OH243811   3.844   2.322   5.018
14623TIP3    H143812   3.842   2.417   5.033
14623TIP3    H243813   3.794   2.285   5.091
14624TIP3   OH243814   4.009   5.433   6.192
14624TIP3    H143815   4.090   5.484   6.187
14624TIP3    H243816   3.942   5.498   6.215
14625TIP3   OH243817   1.617   5.552   2.937
14625TIP3    H143818   1.544   5.579   2.992
14625TIP3    H243819   1.587   5.471   2.895
14626TIP3   OH243820   6.713   7.111   4.767
14626TIP3    H143821   6.715   7.070   4.680
14626TIP3    H243822   6.804   7.133   4.786
14627TIP3   OH243823   1.257   5.476   3.497
14627TIP3    H143824   1.266   5.391   3.453
14627TIP3    H243825   1.179   5.466   3.551
14628TIP3   OH243826   2.980   2.544   1.475
14628TIP3    H143827   2.937   2.502   1.550
14628TIP3    H243828   2.936   2.628   1.466
14629TIP3   OH243829   2.053   3.930   6.232
14629TIP3    H143830   2.015   4.007   6.275
14629TIP3    H243831   2.079   3.960   6.146
14630TIP3   OH243832   0.418   6.461   0.019
14630TIP3    H143833   0.387   6.401   0.088
14630TIP3    H243834   0.511   6.470   0.036
14631TIP3   OH243835   1.555   0.689   1.208
14631TIP3    H143836   1.496   0.613   1.208
14631TIP3    H243837   1.606   0.680   1.128
14632TIP3   OH243838   2.410   6.342   2.463
14632TIP3    H143839   2.448   6.256   2.445
14632TIP3    H243840   2.320   6.323   2.492
14633TIP3   OH243841   0.656   5.834   6.545
14633TIP3    H143842   0.729   5.890   6.571
14633TIP3    H243843   0.668   5.754   6.597
14634TIP3   OH243844   0.823   4.450   1.204
14634TIP3    H143845   0.736   4.409   1.206
14634TIP3    H243846   0.855   4.436   1.115
14635TIP3   OH243847   3.167   3.642   3.503
14635TIP3    H143848   3.194   3.556   3.473
14635TIP3    H243849   3.073   3.646   3.485
14636TIP3   OH243850   6.811   3.013   6.315
14636TIP3    H143851   6.824   3.011   6.410
14636TIP3    H243852   6.757   3.091   6.300
14637TIP3   OH243853   1.725   2.556   4.596
14637TIP3    H143854   1.735   2.648   4.620
14637TIP3    H243855   1.811   2.529   4.565
14638TIP3   OH243856   4.581   5.090   2.319
14638TIP3    H143857   4.594   5.002   2.284
14638TIP3    H243858   4.669   5.127   2.326
14639TIP3   OH243859   7.799   5.466   1.825
14639TIP3    H143860   7.806   5.536   1.760
14639TIP3    H243861   7.826   5.507   1.908
14640TIP3   OH243862   5.872   3.527   3.613
14640TIP3    H143863   5.956   3.515   3.567
14640TIP3    H243864   5.849   3.439   3.643
14641TIP3   OH243865   1.744   7.491   2.775
14641TIP3    H143866   1.811   7.554   2.800
14641TIP3    H243867   1.729   7.439   2.854
14642TIP3   OH243868   1.357   2.440   0.642
14642TIP3    H143869   1.402   2.396   0.570
14642TIP3    H243870   1.331   2.525   0.605
14643TIP3   OH243871   1.481   0.418   1.454
14643TIP3    H143872   1.560   0.471   1.455
14643TIP3    H243873   1.448   0.425   1.365
14644TIP3   OH243874   2.773   2.708   0.527
14644TIP3    H143875   2.708   2.648   0.493
14644TIP3    H243876   2.750   2.793   0.489
14645TIP3   OH243877   1.311   5.866   6.571
14645TIP3    H143878   1.401   5.872   6.603
14645TIP3    H243879   1.311   5.790   6.512
14646TIP3   OH243880   6.736   2.961   3.252
14646TIP3    H143881   6.770   2.892   3.195
14646TIP3    H243882   6.812   3.015   3.272
14647TIP3   OH243883   3.905   1.199   5.000
14647TIP3    H143884   3.997   1.222   5.009
14647TIP3    H243885   3.870   1.266   4.941
14648TIP3   OH243886   7.079   2.196   2.795
14648TIP3    H143887   6.986   2.173   2.797
14648TIP3    H243888   7.083   2.280   2.839
14649TIP3   OH243889   4.731   4.263   0.056
14649TIP3    H143890   4.814   4.239   0.014
14649TIP3    H243891   4.693   4.180   0.084
14650TIP3   OH243892   1.592   7.699   5.161
14650TIP3    H143893   1.635   7.750   5.230
14650TIP3    H243894   1.531   7.761   5.120
14651TIP3   OH243895   4.613   4.347   2.202
14651TIP3    H143896   4.558   4.418   2.172
14651TIP3    H243897   4.625   4.291   2.125
14652TIP3   OH243898   6.154   3.743   3.236
14652TIP3    H143899   6.229   3.692   3.204
14652TIP3    H243900   6.078   3.692   3.209
14653TIP3   OH243901   5.268   1.515   5.953
14653TIP3    H143902   5.175   1.498   5.940
14653TIP3    H243903   5.286   1.485   6.042
14654TIP3   OH243904   6.459   2.358   6.525
14654TIP3    H143905   6.407   2.285   6.493
14654TIP3    H243906   6.395   2.425   6.549
14655TIP3   OH243907   5.493   0.326   1.339
14655TIP3    H143908   5.444   0.365   1.266
14655TIP3    H243909   5.425   0.291   1.397
14656TIP3   OH243910   4.312   2.114   2.716
14656TIP3    H143911   4.330   2.065   2.796
14656TIP3    H243912   4.261   2.189   2.745
14657TIP3   OH243913   1.341   0.352   4.594
14657TIP3    H143914   1.307   0.337   4.682
14657TIP3    H243915   1.382   0.439   4.599
14658TIP3   OH243916   6.173   4.765   5.352
14658TIP3    H143917   6.180   4.672   5.374
14658TIP3    H243918   6.112   4.768   5.278
14659TIP3   OH243919   2.386   5.739   3.201
14659TIP3    H143920   2.416   5.799   3.133
14659TIP3    H243921   2.447   5.665   3.196
14660TIP3   OH243922   5.906   1.925   0.737
14660TIP3    H143923   5.969   1.879   0.682
14660TIP3    H243924   5.880   2.001   0.685
14661TIP3   OH243925   0.841   1.764   2.685
14661TIP3    H143926   0.845   1.749   2.591
14661TIP3    H243927   0.929   1.743   2.717
14662TIP3   OH243928   3.571   4.764   1.968
14662TIP3    H143929   3.534   4.852   1.961
14662TIP3    H243930   3.638   4.772   2.035
14663TIP3   OH243931   0.069   5.106   0.215
14663TIP3    H143932   0.008   5.180   0.214
14663TIP3    H243933   0.068   5.076   0.306
14664TIP3   OH243934   5.432   4.671   5.052
14664TIP3    H143935   5.439   4.658   5.147
14664TIP3    H243936   5.356   4.728   5.042
14665TIP3   OH243937   7.638   7.405   1.719
14665TIP3    H143938   7.732   7.419   1.709
14665TIP3    H243939   7.623   7.409   1.813
14666TIP3   OH243940   0.578   3.610   2.516
14666TIP3    H143941   0.644   3.557   2.561
14666TIP3    H243942   0.548   3.672   2.583
14667TIP3   OH243943   0.621   3.682   0.287
14667TIP3    H143944   0.690   3.636   0.239
14667TIP3    H243945   0.623   3.771   0.253
14668TIP3   OH243946   1.274   6.758   2.511
14668TIP3    H143947   1.199   6.800   2.468
14668TIP3    H243948   1.294   6.682   2.456
14669TIP3   OH243949   4.612   7.663   5.712
14669TIP3    H143950   4.597   7.758   5.705
14669TIP3    H243951   4.544   7.633   5.771
14670TIP3   OH243952   4.781   2.432   3.974
14670TIP3    H143953   4.840   2.414   3.900
14670TIP3    H243954   4.735   2.512   3.950
14671TIP3   OH243955   5.394   6.396   6.190
14671TIP3    H143956   5.392   6.490   6.173
14671TIP3    H243957   5.427   6.389   6.280
14672TIP3   OH243958   4.186   0.827   4.543
14672TIP3    H143959   4.238   0.889   4.492
14672TIP3    H243960   4.096   0.839   4.511
14673TIP3   OH243961   7.110   7.233   5.997
14673TIP3    H143962   7.026   7.187   6.000
14673TIP3    H243963   7.164   7.181   5.937
14674TIP3   OH243964   5.249   4.947   3.162
14674TIP3    H143965   5.235   4.880   3.094
14674TIP3    H243966   5.183   5.014   3.143
14675TIP3   OH243967   3.885   4.656   2.774
14675TIP3    H143968   3.817   4.707   2.817
14675TIP3    H243969   3.869   4.566   2.802
14676TIP3   OH243970   6.842   0.212   1.839
14676TIP3    H143971   6.905   0.145   1.816
14676TIP3    H243972   6.863   0.235   1.930
14677TIP3   OH243973   5.815   3.460   6.272
14677TIP3    H143974   5.867   3.460   6.191
14677TIP3    H243975   5.753   3.388   6.260
14678TIP3   OH243976   7.966   2.400   6.667
14678TIP3    H143977   7.941   2.324   6.719
14678TIP3    H243978   7.883   2.441   6.643
14679TIP3   OH243979   5.898   3.008   6.477
14679TIP3    H143980   5.862   2.974   6.560
14679TIP3    H243981   5.858   3.095   6.468
14680TIP3   OH243982   6.037   7.384   0.212
14680TIP3    H143983   5.986   7.452   0.256
14680TIP3    H243984   6.047   7.415   0.122
14681TIP3   OH243985   0.822   5.173   0.986
14681TIP3    H143986   0.864   5.100   1.032
14681TIP3    H243987   0.799   5.235   1.055
14682TIP3   OH243988   0.116   0.615   4.401
14682TIP3    H143989   0.069   0.680   4.453
14682TIP3    H243990   0.058   0.598   4.326
14683TIP3   OH243991   1.476   0.077   5.090
14683TIP3    H143992   1.533   0.107   5.161
14683TIP3    H243993   1.510  -0.010   5.067
14684TIP3   OH243994   4.235   3.649   6.294
14684TIP3    H143995   4.277   3.642   6.380
14684TIP3    H243996   4.173   3.721   6.303
14685TIP3   OH243997   3.043   2.569   4.249
14685TIP3    H143998   3.093   2.600   4.325
14685TIP3    H243999   3.089   2.490   4.222
14686TIP3   OH244000   6.555   3.876   2.402
14686TIP3    H144001   6.538   3.880   2.307
14686TIP3    H244002   6.621   3.943   2.417
14687TIP3   OH244003   0.437   5.468   1.979
14687TIP3    H144004   0.371   5.398   1.976
14687TIP3    H244005   0.517   5.427   1.945
14688TIP3   OH244006   0.388   1.327   5.528
14688TIP3    H144007   0.375   1.233   5.523
14688TIP3    H244008   0.351   1.361   5.447
14689TIP3   OH244009   0.119   2.422   2.039
14689TIP3    H144010   0.025   2.439   2.037
14689TIP3    H244011   0.158   2.506   2.062
14690TIP3   OH244012   0.409   5.992   2.363
14690TIP3    H144013   0.346   5.985   2.291
14690TIP3    H244014   0.486   5.943   2.332
14691TIP3   OH244015   2.141   2.925   3.747
14691TIP3    H144016   2.146   3.006   3.696
14691TIP3    H244017   2.071   2.875   3.706
14692TIP3   OH244018   7.027   0.669   0.406
14692TIP3    H144019   7.080   0.672   0.327
14692TIP3    H244020   7.015   0.576   0.424
14693TIP3   OH244021   5.077   6.866   5.957
14693TIP3    H144022   5.042   6.870   5.869
14693TIP3    H244023   5.068   6.955   5.991
14694TIP3   OH244024   7.111   1.369   1.600
14694TIP3    H144025   7.167   1.333   1.668
14694TIP3    H244026   7.159   1.351   1.518
14695TIP3   OH244027   8.115   3.104   6.430
14695TIP3    H144028   8.055   3.030   6.432
14695TIP3    H244029   8.168   3.090   6.352
14696TIP3   OH244030   3.406   7.537   2.325
14696TIP3    H144031   3.360   7.486   2.258
14696TIP3    H244032   3.453   7.472   2.376
14697TIP3   OH244033   1.150   5.971   6.107
14697TIP3    H144034   1.079   5.908   6.107
14697TIP3    H244035   1.150   6.008   6.018
14698TIP3   OH244036   2.286   2.649   5.293
14698TIP3    H144037   2.247   2.679   5.375
14698TIP3    H244038   2.293   2.554   5.303
14699TIP3   OH244039   0.589   5.082   2.459
14699TIP3    H144040   0.628   5.169   2.469
14699TIP3    H244041   0.495   5.098   2.451
14700TIP3   OH244042   0.705   7.452   1.504
14700TIP3    H144043   0.679   7.455   1.596
14700TIP3    H244044   0.801   7.452   1.506
14701TIP3   OH244045   7.447   3.528   3.597
14701TIP3    H144046   7.424   3.556   3.685
14701TIP3    H244047   7.399   3.588   3.539
14702TIP3   OH244048   0.608   6.286   4.987
14702TIP3    H144049   0.517   6.303   4.961
14702TIP3    H244050   0.633   6.364   5.036
14703TIP3   OH244051   2.678   4.665   1.292
14703TIP3    H144052   2.656   4.632   1.205
14703TIP3    H244053   2.764   4.705   1.281
14704TIP3   OH244054   3.438   0.229   2.773
14704TIP3    H144055   3.394   0.147   2.794
14704TIP3    H244056   3.404   0.291   2.837
14705TIP3   OH244057   4.887   6.733   3.091
14705TIP3    H144058   4.795   6.749   3.109
14705TIP3    H244059   4.906   6.787   3.014
14706TIP3   OH244060   6.942   5.357   6.184
14706TIP3    H144061   6.884   5.406   6.242
14706TIP3    H244062   6.932   5.400   6.099
14707TIP3   OH244063   1.729   2.906   2.281
14707TIP3    H144064   1.824   2.900   2.291
14707TIP3    H244065   1.696   2.921   2.370
14708TIP3   OH244066   7.226   0.673   2.010
14708TIP3    H144067   7.250   0.602   1.950
14708TIP3    H244068   7.304   0.687   2.064
14709TIP3   OH244069   6.397   3.543   1.859
14709TIP3    H144070   6.362   3.595   1.786
14709TIP3    H244071   6.324   3.537   1.921
14710TIP3   OH244072   6.584   5.026   4.566
14710TIP3    H144073   6.667   5.014   4.613
14710TIP3    H244074   6.609   5.034   4.474
14711TIP3   OH244075   4.168   1.648   4.906
14711TIP3    H144076   4.219   1.726   4.929
14711TIP3    H244077   4.153   1.604   4.990
14712TIP3   OH244078   1.652   1.770   0.282
14712TIP3    H144079   1.668   1.680   0.256
14712TIP3    H244080   1.739   1.810   0.285
14713TIP3   OH244081   0.930   0.980   2.174
14713TIP3    H144082   0.996   0.923   2.136
14713TIP3    H244083   0.975   1.062   2.191
14714TIP3   OH244084   2.745   1.232   3.831
14714TIP3    H144085   2.699   1.152   3.859
14714TIP3    H244086   2.787   1.264   3.911
14715TIP3   OH244087   0.521   0.030   5.750
14715TIP3    H144088   0.597   0.083   5.772
14715TIP3    H244089   0.557  -0.050   5.714
14716TIP3   OH244090   3.411   6.887   3.388
14716TIP3    H144091   3.507   6.888   3.386
14716TIP3    H244092   3.386   6.979   3.386
14717TIP3   OH244093   4.995   1.822   5.082
14717TIP3    H144094   4.986   1.730   5.056
14717TIP3    H244095   5.031   1.865   5.005
14718TIP3   OH244096   3.357   7.164   0.539
14718TIP3    H144097   3.351   7.117   0.622
14718TIP3    H244098   3.293   7.122   0.482
14719TIP3   OH244099   5.604   2.463   2.586
14719TIP3    H144100   5.628   2.403   2.656
14719TIP3    H244101   5.544   2.525   2.628
14720TIP3   OH244102   2.199   5.083  -0.005
14720TIP3    H144103   2.185   5.073   0.089
14720TIP3    H244104   2.269   5.148  -0.012
14721TIP3   OH244105   7.274   7.209   1.462
14721TIP3    H144106   7.223   7.128   1.456
14721TIP3    H244107   7.277   7.229   1.555
14722TIP3   OH244108   7.018   1.229   1.021
14722TIP3    H144109   6.941   1.283   1.002
14722TIP3    H244110   7.086   1.293   1.041
14723TIP3   OH244111   4.056   3.191   2.562
14723TIP3    H144112   4.056   3.285   2.577
14723TIP3    H244113   4.058   3.153   2.650
14724TIP3   OH244114   4.349   1.595   2.444
14724TIP3    H144115   4.264   1.637   2.450
14724TIP3    H244116   4.378   1.588   2.535
14725TIP3   OH244117   3.206   0.252   3.711
14725TIP3    H144118   3.203   0.299   3.794
14725TIP3    H244119   3.258   0.309   3.653
14726TIP3   OH244120   2.038   5.097   6.644
14726TIP3    H144121   2.090   5.019   6.665
14726TIP3    H244122   2.076   5.166   6.698
14727TIP3   OH244123   1.623   5.601   6.632
14727TIP3    H144124   1.605   5.667   6.699
14727TIP3    H244125   1.704   5.630   6.591
14728TIP3   OH244126   3.646   1.018   4.019
14728TIP3    H144127   3.601   1.079   4.078
14728TIP3    H244128   3.608   1.037   3.933
14729TIP3   OH244129   4.329   0.555   1.166
14729TIP3    H144130   4.281   0.576   1.086
14729TIP3    H244131   4.403   0.615   1.167
14730TIP3   OH244132   5.584   3.218   0.326
14730TIP3    H144133   5.601   3.299   0.277
14730TIP3    H244134   5.496   3.191   0.298
14731TIP3   OH244135   0.987   5.585   5.215
14731TIP3    H144136   0.944   5.668   5.235
14731TIP3    H244137   0.979   5.576   5.120
14732TIP3   OH244138   2.523   7.258   3.878
14732TIP3    H144139   2.471   7.178   3.874
14732TIP3    H244140   2.579   7.254   3.800
14733TIP3   OH244141   4.837   0.128   0.497
14733TIP3    H144142   4.858   0.037   0.476
14733TIP3    H244143   4.823   0.170   0.412
14734TIP3   OH244144   1.832   3.679   2.072
14734TIP3    H144145   1.854   3.594   2.109
14734TIP3    H244146   1.833   3.739   2.147
14735TIP3   OH244147   6.186   6.080   0.357
14735TIP3    H144148   6.223   6.002   0.400
14735TIP3    H244149   6.262   6.129   0.327
14736TIP3   OH244150   4.497   5.806   5.006
14736TIP3    H144151   4.560   5.766   5.066
14736TIP3    H244152   4.476   5.736   4.944
14737TIP3   OH244153   2.217   7.146   2.307
14737TIP3    H144154   2.195   7.237   2.289
14737TIP3    H244155   2.132   7.102   2.314
14738TIP3   OH244156   1.884   2.722   5.744
14738TIP3    H144157   1.954   2.787   5.750
14738TIP3    H244158   1.812   2.760   5.794
14739TIP3   OH244159   4.036   3.831   2.497
14739TIP3    H144160   4.112   3.860   2.445
14739TIP3    H244161   3.997   3.911   2.529
14740TIP3   OH244162   5.235   2.893   6.144
14740TIP3    H144163   5.272   2.894   6.056
14740TIP3    H244164   5.157   2.948   6.138
14741TIP3   OH244165   7.726   4.721   5.764
14741TIP3    H144166   7.765   4.634   5.752
14741TIP3    H244167   7.650   4.706   5.820
14742TIP3   OH244168   2.243   2.918   1.793
14742TIP3    H144169   2.229   3.000   1.744
14742TIP3    H244170   2.313   2.939   1.854
14743TIP3   OH244171   3.122   2.514   2.133
14743TIP3    H144172   3.157   2.603   2.123
14743TIP3    H244173   3.053   2.522   2.199
14744TIP3   OH244174   6.257   3.660   0.744
14744TIP3    H144175   6.206   3.741   0.746
14744TIP3    H244176   6.299   3.659   0.658
14745TIP3   OH244177   1.226   0.393   2.311
14745TIP3    H144178   1.174   0.389   2.231
14745TIP3    H244179   1.283   0.317   2.307
14746TIP3   OH244180   2.700   5.870   0.983
14746TIP3    H144181   2.678   5.953   0.940
14746TIP3    H244182   2.754   5.823   0.919
14747TIP3   OH244183   4.206   6.715   1.570
14747TIP3    H144184   4.275   6.733   1.506
14747TIP3    H244185   4.252   6.708   1.653
14748TIP3   OH244186   2.017   6.170   2.919
14748TIP3    H144187   2.059   6.224   2.852
14748TIP3    H244188   1.975   6.233   2.977
14749TIP3   OH244189   7.020   0.922   0.597
14749TIP3    H144190   7.007   0.841   0.549
14749TIP3    H244191   7.024   0.990   0.529
14750TIP3   OH244192   3.165   5.947   6.202
14750TIP3    H144193   3.160   5.864   6.249
14750TIP3    H244194   3.259   5.962   6.192
14751TIP3   OH244195   5.905   3.085   1.382
14751TIP3    H144196   5.853   3.025   1.436
14751TIP3    H244197   5.845   3.156   1.361
14752TIP3   OH244198   6.491   6.318   1.213
14752TIP3    H144199   6.540   6.295   1.133
14752TIP3    H244200   6.404   6.342   1.182
14753TIP3   OH244201   5.626   6.737   0.409
14753TIP3    H144202   5.670   6.752   0.493
14753TIP3    H244203   5.681   6.673   0.364
14754TIP3   OH244204   2.882   0.202   1.469
14754TIP3    H144205   2.800   0.214   1.422
14754TIP3    H244206   2.863   0.227   1.559
14755TIP3   OH244207   4.874   6.516   0.203
14755TIP3    H144208   4.944   6.568   0.243
14755TIP3    H244209   4.854   6.563   0.121
14756TIP3   OH244210   7.500   4.922   5.732
14756TIP3    H144211   7.494   4.868   5.811
14756TIP3    H244212   7.566   4.987   5.753
14757TIP3   OH244213   0.861   2.571   0.117
14757TIP3    H144214   0.877   2.562   0.023
14757TIP3    H244215   0.934   2.624   0.149
14758TIP3   OH244216   5.575   5.056   0.637
14758TIP3    H144217   5.505   5.000   0.672
14758TIP3    H244218   5.612   5.006   0.565
14759TIP3   OH244219   5.314   7.547   3.152
14759TIP3    H144220   5.361   7.555   3.069
14759TIP3    H244221   5.290   7.636   3.175
14760TIP3   OH244222   5.481   2.313   0.798
14760TIP3    H144223   5.500   2.407   0.800
14760TIP3    H244224   5.543   2.275   0.861
14761TIP3   OH244225   1.802   4.202   3.465
14761TIP3    H144226   1.815   4.189   3.559
14761TIP3    H244227   1.833   4.121   3.425
14762TIP3   OH244228   7.780   2.220   6.417
14762TIP3    H144229   7.766   2.220   6.511
14762TIP3    H244230   7.871   2.246   6.405
14763TIP3   OH244231   7.491   7.169   0.070
14763TIP3    H144232   7.450   7.255   0.078
14763TIP3    H244233   7.424   7.108   0.102
14764TIP3   OH244234   1.184   5.270   2.626
14764TIP3    H144235   1.243   5.270   2.551
14764TIP3    H244236   1.230   5.220   2.694
14765TIP3   OH244237   6.087   1.356   4.759
14765TIP3    H144238   6.142   1.434   4.750
14765TIP3    H244239   6.006   1.378   4.711
14766TIP3   OH244240   3.465   7.259   1.342
14766TIP3    H144241   3.558   7.237   1.336
14766TIP3    H244242   3.422   7.196   1.284
14767TIP3   OH244243   3.895   4.251   0.145
14767TIP3    H144244   3.927   4.340   0.158
14767TIP3    H244245   3.844   4.233   0.225
14768TIP3   OH244246   8.062   1.498   4.662
14768TIP3    H144247   8.148   1.530   4.689
14768TIP3    H244248   8.059   1.515   4.568
14769TIP3   OH244249   6.088   3.383   3.467
14769TIP3    H144250   6.179   3.365   3.489
14769TIP3    H244251   6.038   3.328   3.527
14770TIP3   OH244252   3.011   6.367   2.690
14770TIP3    H144253   2.960   6.437   2.649
14770TIP3    H244254   3.087   6.356   2.633
14771TIP3   OH244255   5.324   6.105   2.191
14771TIP3    H144256   5.384   6.163   2.143
14771TIP3    H244257   5.304   6.153   2.271
14772TIP3   OH244258   5.762   4.473   3.848
14772TIP3    H144259   5.779   4.510   3.762
14772TIP3    H244260   5.720   4.543   3.897
14773TIP3   OH244261   5.527   2.730   4.463
14773TIP3    H144262   5.620   2.729   4.438
14773TIP3    H244263   5.496   2.642   4.443
14774TIP3   OH244264   5.979   0.890   1.747
14774TIP3    H144265   5.951   0.838   1.671
14774TIP3    H244266   5.902   0.892   1.804
14775TIP3   OH244267   3.831   6.049   3.436
14775TIP3    H144268   3.912   6.063   3.484
14775TIP3    H244269   3.859   6.033   3.346
14776TIP3   OH244270   8.180   1.466   0.743
14776TIP3    H144271   8.205   1.424   0.825
14776TIP3    H244272   8.095   1.506   0.761
14777TIP3   OH244273   0.783   4.086   4.552
14777TIP3    H144274   0.733   4.137   4.615
14777TIP3    H244275   0.873   4.089   4.583
14778TIP3   OH244276   4.204   0.199   4.885
14778TIP3    H144277   4.237   0.255   4.815
14778TIP3    H244278   4.109   0.214   4.886
14779TIP3   OH244279   4.387   6.583   4.004
14779TIP3    H144280   4.321   6.641   4.041
14779TIP3    H244281   4.435   6.550   4.080
14780TIP3   OH244282   2.245   4.625   1.918
14780TIP3    H144283   2.262   4.545   1.968
14780TIP3    H244284   2.289   4.610   1.835
14781TIP3   OH244285   4.247   4.725   3.849
14781TIP3    H144286   4.272   4.644   3.893
14781TIP3    H244287   4.161   4.707   3.811
14782TIP3   OH244288   5.882   6.839   2.677
14782TIP3    H144289   5.839   6.873   2.598
14782TIP3    H244290   5.813   6.840   2.744
14783TIP3   OH244291   1.105   3.364   3.925
14783TIP3    H144292   1.087   3.277   3.962
14783TIP3    H244293   1.020   3.406   3.918
14784TIP3   OH244294   3.669   0.501   1.091
14784TIP3    H144295   3.613   0.577   1.079
14784TIP3    H244296   3.741   0.532   1.145
14785TIP3   OH244297   4.209   3.834   5.896
14785TIP3    H144298   4.232   3.847   5.988
14785TIP3    H244299   4.261   3.758   5.869
14786TIP3   OH244300   1.853   2.783   0.698
14786TIP3    H144301   1.898   2.734   0.630
14786TIP3    H244302   1.891   2.752   0.780
14787TIP3   OH244303   4.339   6.088   2.738
14787TIP3    H144304   4.343   5.997   2.708
14787TIP3    H244305   4.251   6.117   2.715
14788TIP3   OH244306   8.064   7.139   0.580
14788TIP3    H144307   8.132   7.159   0.515
14788TIP3    H244308   8.003   7.081   0.534
14789TIP3   OH244309   5.743   3.662   1.908
14789TIP3    H144310   5.699   3.725   1.851
14789TIP3    H244311   5.720   3.577   1.872
14790TIP3   OH244312   2.298   0.163   6.127
14790TIP3    H144313   2.262   0.243   6.089
14790TIP3    H244314   2.393   0.177   6.129
14791TIP3   OH244315   7.420   4.935   3.383
14791TIP3    H144316   7.328   4.927   3.405
14791TIP3    H244317   7.459   4.983   3.456
14792TIP3   OH244318   4.461   4.954   4.083
14792TIP3    H144319   4.450   4.860   4.099
14792TIP3    H244320   4.377   4.981   4.046
14793TIP3   OH244321   6.297   4.033   2.829
14793TIP3    H144322   6.320   3.987   2.748
14793TIP3    H244323   6.263   4.117   2.799
14794TIP3   OH244324   2.475   7.730   0.539
14794TIP3    H144325   2.558   7.764   0.573
14794TIP3    H244326   2.452   7.659   0.598
14795TIP3   OH244327   6.083   4.459   4.341
14795TIP3    H144328   6.161   4.407   4.323
14795TIP3    H244329   6.070   4.511   4.261
14796TIP3   OH244330   1.154   0.579   0.528
14796TIP3    H144331   1.160   0.542   0.439
14796TIP3    H244332   1.243   0.572   0.562
14797TIP3   OH244333   3.158   2.264   1.594
14797TIP3    H144334   3.170   2.170   1.603
14797TIP3    H244335   3.102   2.289   1.667
14798TIP3   OH244336   6.673   0.154   2.726
14798TIP3    H144337   6.768   0.164   2.718
14798TIP3    H244338   6.639   0.186   2.642
14799TIP3   OH244339   0.173   1.854   0.430
14799TIP3    H144340   0.144   1.775   0.476
14799TIP3    H244341   0.097   1.912   0.432
14800TIP3   OH244342   4.776   6.531   6.657
14800TIP3    H144343   4.750   6.586   6.583
14800TIP3    H244344   4.693   6.506   6.698
14801TIP3   OH244345   7.373   7.697   1.749
14801TIP3    H144346   7.444   7.758   1.767
14801TIP3    H244347   7.352   7.660   1.834
14802TIP3   OH244348   2.552   6.096   2.648
14802TIP3    H144349   2.637   6.100   2.605
14802TIP3    H244350   2.489   6.095   2.575
14803TIP3   OH244351   4.620   1.920   4.277
14803TIP3    H144352   4.567   1.883   4.207
14803TIP3    H244353   4.658   1.999   4.239
14804TIP3   OH244354   7.684   0.530   0.649
14804TIP3    H144355   7.630   0.473   0.595
14804TIP3    H244356   7.646   0.523   0.737
14805TIP3   OH244357   7.117   2.993   3.023
14805TIP3    H144358   7.202   3.037   3.030
14805TIP3    H244359   7.061   3.056   2.978
14806TIP3   OH244360   4.292   3.330   4.272
14806TIP3    H144361   4.372   3.317   4.322
14806TIP3    H244362   4.317   3.314   4.181
14807TIP3   OH244363   0.044   1.585   5.294
14807TIP3    H144364  -0.036   1.628   5.264
14807TIP3    H244365   0.040   1.498   5.256
14808TIP3   OH244366   6.228   2.980   1.792
14808TIP3    H144367   6.291   2.911   1.771
14808TIP3    H244368   6.233   3.041   1.718
14809TIP3   OH244369   7.210   6.873   5.228
14809TIP3    H144370   7.305   6.872   5.240
14809TIP3    H244371   7.183   6.957   5.265
14810TIP3   OH244372   1.086   2.321   1.585
14810TIP3    H144373   1.105   2.414   1.586
14810TIP3    H244374   1.046   2.304   1.671
14811TIP3   OH244375   3.699   2.221   5.258
14811TIP3    H144376   3.755   2.146   5.279
14811TIP3    H244377   3.637   2.226   5.332
14812TIP3   OH244378   6.957   2.490   1.437
14812TIP3    H144379   7.032   2.517   1.382
14812TIP3    H244380   6.902   2.439   1.378
14813TIP3   OH244381   2.432   7.212   6.285
14813TIP3    H144382   2.484   7.199   6.364
14813TIP3    H244383   2.342   7.222   6.318
14814TIP3   OH244384   4.418   7.373   3.448
14814TIP3    H144385   4.340   7.383   3.393
14814TIP3    H244386   4.459   7.459   3.449
14815TIP3   OH244387   4.393   0.390   0.549
14815TIP3    H144388   4.381   0.397   0.644
14815TIP3    H244389   4.314   0.347   0.517
   8.28538   7.81153   6.76498   0.00000   0.00000  -2.76179   0.00000  -2.76179  -3.90577
