Title
29212
    1ASP      N    1   1.721   0.852   1.808 -0.6609  0.2121 -0.0258
    1ASP    HT1    2   1.667   0.873   1.723  1.0178 -2.2813 -1.8504
    1ASP    HT2    3   1.665   0.796   1.876  1.3817 -1.5592  0.3222
    1ASP    HT3    4   1.782   0.774   1.777 -1.3780 -0.5734  0.5005
    1ASP     CA    5   1.811   0.964   1.858 -0.3341  0.2317  0.0534
    1ASP     HA    6   1.875   0.924   1.934 -0.8590 -1.6347 -0.4510
    1ASP     CB    7   1.889   1.035   1.746  0.2817  0.5225  0.4524
    1ASP    HB1    8   1.947   1.119   1.789  1.7828 -0.0389 -0.4037
    1ASP    HB2    9   1.827   1.085   1.668  0.5232  1.2073  0.6912
    1ASP     CG   10   1.989   0.939   1.684 -0.2025 -0.5469 -0.4945
    1ASP    OD1   11   2.055   0.973   1.582  0.3481  0.6927 -0.8201
    1ASP    OD2   12   2.012   0.831   1.742 -0.2843  0.9455  0.3336
    1ASP      C   13   1.722   1.056   1.939  0.7191  0.5830  0.0298
    1ASP      O   14   1.707   1.029   2.060 -0.0287  0.2674  0.5396
    2GLY      N   15   1.676   1.161   1.886  0.5731  0.1452 -0.4558
    2GLY     HN   16   1.689   1.177   1.789  1.1993 -0.2453 -0.4430
    2GLY     CA   17   1.589   1.254   1.953 -0.4781 -0.2183  0.5137
    2GLY    HA1   18   1.524   1.207   2.026  0.3059  0.9474  2.0232
    2GLY    HA2   19   1.530   1.303   1.877 -0.0855 -2.2901 -1.2170
    2GLY      C   20   1.661   1.367   2.034  0.7219 -0.6698  0.1094
    2GLY      O   21   1.768   1.339   2.092 -0.3828 -0.1125 -0.1515
    3ASP      N   22   1.609   1.491   2.038  0.1249  0.0822  0.0743
    3ASP     HN   23   1.520   1.507   1.997 -0.5530 -3.5039 -0.1758
    3ASP     CA   24   1.665   1.609   2.109 -0.2631  1.2189  0.2632
    3ASP     HA   25   1.753   1.627   2.049  0.3649 -2.6855 -0.2487
    3ASP     CB   26   1.561   1.723   2.112  0.2099 -0.3786 -0.4368
    3ASP    HB1   27   1.617   1.809   2.152  2.0502 -1.5216 -0.4514
    3ASP    HB2   28   1.473   1.700   2.177  0.6659  3.0822  1.6283
    3ASP     CG   29   1.517   1.769   1.973 -0.3928 -0.2355  0.2384
    3ASP    OD1   30   1.393   1.783   1.958 -0.2959 -0.2779  0.0835
    3ASP    OD2   31   1.596   1.797   1.881 -0.0299  0.4463 -0.1436
    3ASP      C   32   1.709   1.585   2.249 -0.4728 -0.9176  0.5057
    3ASP      O   33   1.655   1.506   2.320  0.1636  0.4379  0.2231
    4GLY      N   34   1.828   1.648   2.284  0.3004  0.3868  0.7964
    4GLY     HN   35   1.880   1.695   2.212  0.1312 -1.2150 -0.4268
    4GLY     CA   36   1.888   1.642   2.420  0.6497 -0.1705  0.0559
    4GLY    HA1   37   1.967   1.713   2.403 -0.4146  0.8914 -0.6584
    4GLY    HA2   38   1.916   1.539   2.433  2.3873 -0.1102 -2.4753
    4GLY      C   39   1.792   1.685   2.534 -0.3741 -0.6052  0.3929
    4GLY      O   40   1.685   1.744   2.508  0.2508  0.6042  0.3397
    5PRO      N   41   1.828   1.651   2.658  0.1633  0.3804 -0.5920
    5PRO     CD   42   1.951   1.571   2.684 -0.7002 -0.1139 -0.2184
    5PRO    HD1   43   2.035   1.640   2.663  1.2948 -2.3739 -0.0174
    5PRO    HD2   44   1.966   1.482   2.619 -1.1294 -1.8169  1.8951
    5PRO     CA   45   1.771   1.695   2.784  0.1233  0.8935 -0.2960
    5PRO     HA   46   1.686   1.630   2.799 -0.6408  2.3868  2.5477
    5PRO     CB   47   1.878   1.654   2.892  0.0342  0.0167 -0.5339
    5PRO    HB1   48   1.840   1.646   2.995 -1.3063  0.3277 -0.9927
    5PRO    HB2   49   1.938   1.747   2.901 -1.6543  1.0835  0.0363
    5PRO     CG   50   1.944   1.528   2.831 -0.0364  0.0790  0.6011
    5PRO    HG1   51   2.047   1.503   2.866  0.5476  0.7147 -0.5855
    5PRO    HG2   52   1.888   1.434   2.848  1.6033 -1.1107 -0.2906
    5PRO      C   53   1.724   1.842   2.786  0.2960 -0.5229  0.8045
    5PRO      O   54   1.812   1.934   2.778  0.0197 -0.1668  0.3712
    6GLY      N   55   1.591   1.862   2.809 -0.6769 -0.7351 -0.3427
    6GLY     HN   56   1.530   1.783   2.807 -1.0409 -0.5334  1.3931
    6GLY     CA   57   1.551   1.998   2.855  0.3439  0.1036  0.2167
    6GLY    HA1   58   1.446   2.008   2.831  0.4689 -0.5193 -0.6495
    6GLY    HA2   59   1.598   2.073   2.794 -0.2495 -0.2580 -0.6987
    6GLY      C   60   1.573   2.026   3.008 -0.2351  0.2125 -0.1776
    6GLY      O   61   1.637   1.948   3.077  0.0458  0.1265  0.1336
    7ASP      N   62   1.518   2.141   3.056  0.0903 -0.1998 -0.5785
    7ASP     HN   63   1.471   2.196   2.988  0.6138  1.1300  0.1063
    7ASP     CA   64   1.528   2.170   3.200  0.5617 -0.1892  0.3983
    7ASP     HA   65   1.634   2.167   3.221  0.5452  0.1454  0.5490
    7ASP     CB   66   1.472   2.308   3.240 -0.0835  0.1529 -0.1515
    7ASP    HB1   67   1.480   2.334   3.348 -1.4566  1.2256 -0.2678
    7ASP    HB2   68   1.366   2.320   3.209 -0.1133  1.0761  0.2450
    7ASP     CG   69   1.544   2.428   3.177  0.6204 -0.0302 -0.1630
    7ASP    OD1   70   1.671   2.424   3.167  1.2103 -0.1799 -0.1780
    7ASP    OD2   71   1.476   2.527   3.148 -0.1239  0.0177  0.0694
    7ASP      C   72   1.456   2.061   3.288 -0.3663 -0.5416  0.7373
    7ASP      O   73   1.342   2.031   3.250  0.0723 -0.3580  0.2532
    8PRO      N   74   1.519   2.003   3.391  0.8000 -0.1989 -0.2425
    8PRO     CD   75   1.659   2.014   3.424 -0.0996 -0.9732  0.2480
    8PRO    HD1   76   1.694   2.114   3.456  1.4294 -1.2342 -0.4895
    8PRO    HD2   77   1.728   1.982   3.343  0.5869  0.8057  0.0765
    8PRO     CA   78   1.436   1.960   3.502  0.4536  0.1852  0.1866
    8PRO     HA   79   1.392   1.864   3.479 -0.6643  0.1288  2.2366
    8PRO     CB   80   1.532   1.961   3.620  0.2767  0.0043 -0.2315
    8PRO    HB1   81   1.499   1.893   3.701 -0.2033  2.0654  1.3796
    8PRO    HB2   82   1.543   2.064   3.660  1.9048  0.3749 -1.5140
    8PRO     CG   83   1.667   1.937   3.555  0.7893  0.6532 -0.2002
    8PRO    HG1   84   1.760   1.956   3.613  0.7404  0.1700  0.0365
    8PRO    HG2   85   1.674   1.831   3.522 -1.0462 -0.0913  1.6638
    8PRO      C   86   1.320   2.049   3.546  1.1258 -0.1940  0.0445
    8PRO      O   87   1.342   2.170   3.543 -0.2645  0.1819  0.4626
    9GLY      N   88   1.202   1.990   3.576  0.3507 -0.0594 -0.0353
    9GLY     HN   89   1.215   1.892   3.587  1.5261 -0.0290 -0.8856
    9GLY     CA   90   1.080   2.061   3.618 -0.1709 -0.4855 -0.0916
    9GLY    HA1   91   1.004   1.986   3.637 -1.1026  0.5315  0.3289
    9GLY    HA2   92   1.051   2.145   3.557 -0.8941 -0.9868 -0.4525
    9GLY      C   93   1.089   2.114   3.753 -0.3001 -0.6544  0.5072
    9GLY      O   94   1.199   2.134   3.800 -0.4094  0.4600 -0.7010
   10ASP      N   95   0.979   2.142   3.826 -0.4495  0.4537  0.3646
   10ASP     HN   96   0.889   2.132   3.784 -0.4377  0.3866  0.3553
   10ASP     CA   97   0.988   2.187   3.962 -0.8273  0.1399  0.1796
   10ASP     HA   98   1.072   2.255   3.963 -1.1850  0.6233 -0.7178
   10ASP     CB   99   0.852   2.260   4.001 -0.3894  0.3050  0.3845
   10ASP    HB1  100   0.864   2.295   4.106  3.2204 -1.2075  0.6413
   10ASP    HB2  101   0.768   2.189   3.988 -0.2115  0.2359 -0.4262
   10ASP     CG  102   0.833   2.384   3.920 -0.5791 -0.1577 -0.0816
   10ASP    OD1  103   0.925   2.447   3.862 -0.0682 -0.0628  0.5319
   10ASP    OD2  104   0.713   2.435   3.924 -0.0312 -1.0478  0.5180
   10ASP      C  105   1.023   2.077   4.068  0.5031 -0.0464 -0.5796
   10ASP      O  106   1.041   2.107   4.189  0.3028  0.2174  0.2399
   11GLY      N  107   1.022   1.946   4.034 -0.0186 -0.0394  0.5107
   11GLY     HN  108   0.997   1.942   3.938  1.9634  1.4313 -0.1308
   11GLY     CA  109   1.047   1.830   4.115 -0.2888  0.0445 -0.5233
   11GLY    HA1  110   1.133   1.839   4.180 -0.9352  1.3512  0.1975
   11GLY    HA2  111   1.053   1.758   4.034  1.3633 -0.2149 -0.2205
   11GLY      C  112   0.923   1.803   4.208  0.6225  0.2053  0.8460
   11GLY    OT1  113   0.851   1.703   4.180 -0.2600  0.4058  0.3346
   11GLY    OT2  114   0.894   1.858   4.314  0.3847  0.2122 -0.1862
   12LIT    LIT  115   2.191   1.615   5.494  0.3411  0.2083  1.1639
   13LIT    LIT  116   0.973   2.016   4.353 -0.2550 -0.6133 -0.2434
   14LIT    LIT  117   2.939   2.954   2.547 -0.6743 -0.9443  0.2561
   15LIT    LIT  118   6.314   6.680   0.765  0.0325 -0.8530  0.6673
   16LIT    LIT  119   0.729   1.755   4.345  0.3656  0.5639 -1.2070
   17LIT    LIT  120   1.996   3.775   1.442  0.2853  0.2017 -0.4356
   18LIT    LIT  121   2.787   1.410   4.172 -0.1309  0.4350 -0.8924
   19LIT    LIT  122   5.358   6.643   3.705 -0.2245  0.8484 -0.1283
   20LIT    LIT  123   5.105   3.792   1.834 -0.6235  0.3431 -0.0652
   21LIT    LIT  124   6.184   5.135   1.548  0.2079  0.0075  0.3665
   22LIT    LIT  125   0.317   3.629   1.820  0.6991 -1.0030  0.6675
   23LIT    LIT  126   5.660   1.618   3.984  0.4796  0.4728 -0.6477
   24LIT    LIT  127   5.421   3.143   2.067 -0.2807  0.1390  0.2268
   25LIT    LIT  128   1.648   2.577   3.053  0.5972  0.0703 -0.0725
   26LIT    LIT  129   0.801   2.595   3.879 -0.5643 -0.0814 -0.8726
   27LIT    LIT  130   0.945   2.856   1.276  0.1849  0.0728 -0.0700
   28LIT    LIT  131   4.916   0.649   4.778  1.1763  1.0662  0.2110
   29LIT    LIT  132   2.023   1.913   3.905 -0.1767  0.8363 -0.3515
   30LIT    LIT  133   4.766   0.250   0.101 -0.6096 -0.6468 -0.0782
   31LIT    LIT  134   5.551   6.141   5.815  0.8548  0.3044 -0.1435
   32LIT    LIT  135   0.746   1.986   3.249 -0.7370 -0.0098  0.1206
   33LIT    LIT  136   4.919   6.611   0.633  0.6161  0.1813 -0.2219
   34LIT    LIT  137   2.062   4.329   4.048  0.1078 -1.3620 -0.2420
   35LIT    LIT  138   0.327   6.386   3.872  0.0537 -0.2586 -0.3358
   36LIT    LIT  139   2.731   5.231   3.266 -0.1961 -0.8186 -1.0646
   37LIT    LIT  140   1.173   6.564   1.000 -0.6564  0.2142 -1.1424
   38LIT    LIT  141   6.115   1.252   0.428 -0.8471  0.8637  0.4970
   39LIT    LIT  142   2.138   0.810   1.563 -1.0095  1.5456  0.0285
   40LIT    LIT  143   2.754   0.071   0.008  0.4442  0.1410  0.1294
   41LIT    LIT  144   5.563   0.818   2.143 -0.6254  0.7071 -1.3930
   42LIT    LIT  145   1.225   1.713   1.914  0.1426  0.4387  0.5942
   43CLA    CLA  146   2.762   0.092   0.255  0.2413 -0.6069 -0.0258
   44CLA    CLA  147   1.888   3.763   5.089  0.0700  0.1918 -0.0624
   45CLA    CLA  148   6.211   4.249   5.724 -0.2375 -0.1076  0.3902
   46CLA    CLA  149   4.014   0.513   4.236 -0.2355  0.1991  0.2105
   47CLA    CLA  150   7.150   0.960   2.966  0.5131 -0.2523  0.2621
   48CLA    CLA  151   4.530   2.480   5.395  0.2450  0.3654  0.3980
   49CLA    CLA  152   3.449   0.898   2.749 -0.0849 -0.1249 -0.3008
   50CLA    CLA  153   1.716   6.409   1.966 -0.3173 -0.2019 -0.1850
   51CLA    CLA  154   0.424   3.859   2.157  0.0081 -0.0500 -0.2182
   52CLA    CLA  155   2.107   6.661   1.979 -0.0887  0.0282 -0.2607
   53CLA    CLA  156   2.260   1.858   4.665  0.3880 -0.4691 -0.2228
   54CLA    CLA  157   0.668   3.062   2.336  0.3399  0.0543 -0.0635
   55CLA    CLA  158   4.605   2.981   4.472  0.1110 -0.1905 -0.3927
   56CLA    CLA  159   5.329   2.513   2.335  0.1492 -0.2307  0.1337
   57CLA    CLA  160   3.176   4.809   4.728  0.2531 -0.3206  0.1524
   58CLA    CLA  161   6.088   4.752   2.134  0.1861 -0.5607  0.1001
   59CLA    CLA  162   3.530   3.594   2.933 -0.2545  0.0103  0.2405
   60CLA    CLA  163   1.177   6.162   0.904 -0.1397  0.0682  0.2756
   61CLA    CLA  164   0.542   2.054   2.833 -0.0635  0.0314  0.1634
   62CLA    CLA  165   0.412   6.427   5.305 -0.2772  0.4657 -0.4273
   63CLA    CLA  166   0.486   4.151   1.515 -0.1348  0.0292 -0.0261
   64CLA    CLA  167   6.645   3.558   3.352 -0.6049  0.1672  0.1740
   65CLA    CLA  168   6.216   4.257   1.297 -0.0387 -0.6307 -0.4345
   66CLA    CLA  169   3.889   1.253   1.397  0.0346  0.0343 -0.1733
   67CLA    CLA  170   2.002   2.268   2.497  0.1274 -0.4207  0.5210
   68CLA    CLA  171   1.237   1.220   1.573  0.0315 -0.0045  0.1871
   69CLA    CLA  172   7.177   0.027   1.040  0.5038 -0.1319 -0.0072
   70TIP3   OH2  173   1.384   3.907   3.375  0.2316  0.2826 -0.0893
   70TIP3    H1  174   1.399   3.999   3.354  0.5069  0.2390 -0.0873
   70TIP3    H2  175   1.416   3.896   3.465  0.2417  0.1773 -0.1046
   71TIP3   OH2  176   1.568   2.907   5.420 -0.1254  0.0974  0.1198
   71TIP3    H1  177   1.500   2.884   5.357 -0.5542 -0.8864  0.9083
   71TIP3    H2  178   1.628   2.832   5.418  0.6796  0.7308 -0.2023
   72TIP3   OH2  179   3.831   0.171   3.203  0.1634  0.2843 -0.3705
   72TIP3    H1  180   3.789   0.124   3.131 -2.9667  0.7579  1.0094
   72TIP3    H2  181   3.838   0.261   3.171  0.7204  0.0860 -0.8282
   73TIP3   OH2  182   3.896   4.506   1.947  0.1814  0.2911  0.6747
   73TIP3    H1  183   3.862   4.422   1.975  0.9657 -0.0460  0.6540
   73TIP3    H2  184   3.821   4.551   1.909  0.0057 -0.8796 -0.4231
   74TIP3   OH2  185   5.315   2.799   5.762  0.0325 -0.0223  1.0206
   74TIP3    H1  186   5.243   2.860   5.776  1.4283  1.3753  2.5597
   74TIP3    H2  187   5.382   2.826   5.825  1.2398 -2.3403  0.8432
   75TIP3   OH2  188   0.723   3.554   1.836 -0.0272 -0.6192 -0.4054
   75TIP3    H1  189   0.742   3.524   1.925 -2.6835 -0.8968  0.1469
   75TIP3    H2  190   0.716   3.650   1.844 -1.9616 -0.7592  0.1238
   76TIP3   OH2  191   4.044   3.827   1.103  0.4423 -0.5077 -0.0294
   76TIP3    H1  192   4.003   3.823   1.016 -0.0477 -0.5653  0.1962
   76TIP3    H2  193   4.076   3.738   1.117  1.3168 -0.2745 -0.5195
   77TIP3   OH2  194   3.189   2.962   3.599  0.1723 -0.3091 -0.1008
   77TIP3    H1  195   3.224   2.984   3.513 -0.7980  1.7591 -0.0141
   77TIP3    H2  196   3.104   2.922   3.581 -0.6740  1.3997 -0.1242
   78TIP3   OH2  197   5.871   0.738   2.391  0.3118 -0.0585  0.7919
   78TIP3    H1  198   5.928   0.814   2.405 -0.0238  0.4303 -0.3945
   78TIP3    H2  199   5.822   0.730   2.473  1.5946 -0.0848  1.5829
   79TIP3   OH2  200   4.760   4.955   4.008  0.2677 -0.3659  0.7738
   79TIP3    H1  201   4.805   5.034   4.037  1.3509 -0.8306  0.4489
   79TIP3    H2  202   4.693   4.986   3.948  0.8518  0.3052  0.4480
   80TIP3   OH2  203   6.338   3.529   3.363  0.2644 -0.1710 -0.2766
   80TIP3    H1  204   6.434   3.529   3.365  0.3489  2.5947  0.2407
   80TIP3    H2  205   6.312   3.527   3.455 -0.1720 -0.4461 -0.4022
   81TIP3   OH2  206   5.794   0.433   4.487 -0.2836  0.3878  0.2624
   81TIP3    H1  207   5.792   0.522   4.523 -0.2610  0.4356  0.1495
   81TIP3    H2  208   5.850   0.441   4.409 -0.3028  0.2799  0.2372
   82TIP3   OH2  209   0.049   0.207   2.181  0.0819 -0.0959 -0.6155
   82TIP3    H1  210   0.067   0.232   2.091 -1.6066 -0.1560 -1.0021
   82TIP3    H2  211   0.036   0.290   2.227 -0.5570 -0.1034 -0.7758
   83TIP3   OH2  212   0.646   3.056   2.788  0.4551 -0.2837  0.5101
   83TIP3    H1  213   0.703   3.130   2.806 -0.5301  1.1373 -1.7151
   83TIP3    H2  214   0.596   3.043   2.868 -0.6397  2.7189  0.4360
   84TIP3   OH2  215   0.571   4.730   5.855  0.0333  0.4713 -0.6983
   84TIP3    H1  216   0.559   4.642   5.892  1.6079  0.1476 -0.9098
   84TIP3    H2  217   0.581   4.715   5.761  1.2728  0.7742 -0.6206
   85TIP3   OH2  218   6.885   2.132   0.327 -0.0427  0.1711 -0.1043
   85TIP3    H1  219   6.841   2.087   0.398 -2.1865 -0.2167 -1.5845
   85TIP3    H2  220   6.863   2.224   0.339 -1.0241  0.0189 -0.6459
   86TIP3   OH2  221   6.632   3.783   1.240 -0.3724  0.0064  0.3995
   86TIP3    H1  222   6.604   3.737   1.161 -0.2199  0.6784 -0.0548
   86TIP3    H2  223   6.567   3.760   1.306 -0.7930 -0.1465 -0.0656
   87TIP3   OH2  224   1.421   6.088   3.458 -0.4027  0.2764  0.1538
   87TIP3    H1  225   1.386   6.014   3.508 -0.2208 -1.4762 -2.1534
   87TIP3    H2  226   1.493   6.051   3.407  0.2988  2.2747 -0.4241
   88TIP3   OH2  227   6.103   0.433   5.699  0.2940 -0.0001  0.2213
   88TIP3    H1  228   6.155   0.469   5.771 -0.2339  2.6743 -0.6190
   88TIP3    H2  229   6.013   0.455   5.723  0.0379  0.0793 -0.7886
   89TIP3   OH2  230   2.076   3.900   0.566  0.3332  0.0801 -0.1511
   89TIP3    H1  231   2.004   3.962   0.554 -0.5283 -1.1671 -1.7456
   89TIP3    H2  232   2.131   3.912   0.489  0.3384 -0.8746 -0.3110
   90TIP3   OH2  233   1.022   3.524   3.386  0.6186 -0.2082  0.3609
   90TIP3    H1  234   0.944   3.575   3.365  1.0160 -0.1253 -1.0404
   90TIP3    H2  235   1.045   3.480   3.304  1.0609 -1.5938  1.1969
   91TIP3   OH2  236   2.286   6.390   2.816 -0.1837  0.2666 -0.6709
   91TIP3    H1  237   2.247   6.439   2.743 -4.4719 -0.1241  1.0465
   91TIP3    H2  238   2.308   6.305   2.778 -1.7244  0.2933 -1.7287
   92TIP3   OH2  239   3.608   1.460   5.408 -0.3225 -0.7261 -0.3726
   92TIP3    H1  240   3.610   1.445   5.502 -1.9399 -0.9342 -0.3309
   92TIP3    H2  241   3.698   1.447   5.379  0.4146  0.3170  1.2747
   93TIP3   OH2  242   5.320   5.235   1.100 -0.3386 -0.2027 -0.0407
   93TIP3    H1  243   5.307   5.329   1.106 -1.8697 -0.4003 -0.0240
   93TIP3    H2  244   5.235   5.200   1.074  0.6499 -1.4215 -1.8266
   94TIP3   OH2  245   0.989   0.700   0.076 -0.2016  0.2166  0.5534
   94TIP3    H1  246   0.953   0.729  -0.007  1.6065  0.6329 -0.1417
   94TIP3    H2  247   1.030   0.615   0.056  0.4469  0.4294  0.9470
   95TIP3   OH2  248   4.818   1.593   1.446 -0.0764 -0.1016  0.1515
   95TIP3    H1  249   4.872   1.573   1.369 -0.4667 -0.9980  0.0974
   95TIP3    H2  250   4.866   1.662   1.491  2.0904 -2.0601  1.0879
   96TIP3   OH2  251   2.853   1.672   1.538  0.0124  0.3432  0.3329
   96TIP3    H1  252   2.841   1.659   1.444 -1.3472  3.8275 -0.1421
   96TIP3    H2  253   2.766   1.658   1.576  0.8125 -2.3708  1.4004
   97TIP3   OH2  254   1.079   0.813   4.361 -0.3996 -0.3560 -0.3326
   97TIP3    H1  255   1.028   0.752   4.415 -1.1878  1.8610  1.5937
   97TIP3    H2  256   1.164   0.818   4.404 -0.1618 -0.4358 -0.7833
   98TIP3   OH2  257   6.596   2.500   2.903  0.2826 -0.5757 -0.1072
   98TIP3    H1  258   6.677   2.474   2.860  1.0941  0.8241  0.5049
   98TIP3    H2  259   6.568   2.579   2.856 -1.1234 -1.4351 -0.7633
   99TIP3   OH2  260   6.084   3.340   0.341  0.4710  0.3141 -0.1312
   99TIP3    H1  261   6.007   3.393   0.319  0.4642  0.3593  0.0004
   99TIP3    H2  262   6.049   3.268   0.393  0.7065  1.1815  1.2821
  100TIP3   OH2  263   2.592   2.898   5.828  0.0431 -0.2383  0.4553
  100TIP3    H1  264   2.624   2.823   5.778  0.6939  0.0601  0.4189
  100TIP3    H2  265   2.607   2.874   5.919 -0.9831 -0.7074  0.5271
  101TIP3   OH2  266   1.167   0.838   1.006 -1.0306 -0.4046  0.6040
  101TIP3    H1  267   1.179   0.753   1.049  2.1363  0.2821  1.3187
  101TIP3    H2  268   1.242   0.846   0.947 -0.8511  2.1217  1.0413
  102TIP3   OH2  269   1.295   3.512   5.305 -0.3687 -0.0980 -0.2017
  102TIP3    H1  270   1.315   3.598   5.269  0.6616 -0.2840 -0.1304
  102TIP3    H2  271   1.201   3.514   5.323 -0.4414  0.8471 -0.6132
  103TIP3   OH2  272   4.616   1.009   3.321  0.2273  0.7534  0.3930
  103TIP3    H1  273   4.521   1.020   3.314 -0.1291 -2.2989 -1.8313
  103TIP3    H2  274   4.652   1.065   3.252 -0.5565 -2.0423 -2.5472
  104TIP3   OH2  275   2.214   1.995   5.100 -0.4926 -0.5029 -0.3432
  104TIP3    H1  276   2.267   2.060   5.054 -2.4734  1.1935 -0.3303
  104TIP3    H2  277   2.237   2.006   5.192 -0.0138 -0.5993 -0.4489
  105TIP3   OH2  278   4.641   6.577   5.544 -0.6722 -0.3742  0.3640
  105TIP3    H1  279   4.667   6.642   5.609 -0.0570  1.7834 -1.8966
  105TIP3    H2  280   4.670   6.493   5.581  1.6662  0.9880  1.8530
  106TIP3   OH2  281   5.388   3.117   4.895  0.2377  0.1869  0.1955
  106TIP3    H1  282   5.339   3.130   4.977  0.0727  1.6636 -0.1051
  106TIP3    H2  283   5.410   3.024   4.895  0.9862  0.3023  2.3526
  107TIP3   OH2  284   5.916   2.963   0.792  0.1280  0.1427 -0.6419
  107TIP3    H1  285   5.833   2.972   0.839  0.3932  0.2492 -0.1831
  107TIP3    H2  286   5.973   3.028   0.832  0.9359 -1.0125  0.1732
  108TIP3   OH2  287   2.536   0.083   2.948  0.2896  0.2963 -0.8095
  108TIP3    H1  288   2.624   0.081   2.912  0.4342  0.8814 -0.4955
  108TIP3    H2  289   2.545   0.042   3.034  0.0413 -0.6375 -1.2166
  109TIP3   OH2  290   6.685   3.211   2.360 -0.2542 -0.2350 -0.1943
  109TIP3    H1  291   6.655   3.153   2.289 -2.9100  0.5812  0.1375
  109TIP3    H2  292   6.780   3.200   2.361 -0.1588 -0.7842 -3.4257
  110TIP3   OH2  293   4.141   3.697   2.899 -0.4055 -0.3809 -0.2251
  110TIP3    H1  294   4.055   3.660   2.881 -0.4856 -1.3774  1.9548
  110TIP3    H2  295   4.199   3.621   2.907  0.5194  0.2421 -0.8415
  111TIP3   OH2  296   0.768   4.330   3.122 -0.3515 -0.2215 -0.0237
  111TIP3    H1  297   0.713   4.378   3.059 -2.0971 -0.3265  1.3576
  111TIP3    H2  298   0.740   4.239   3.113  0.4938 -0.4801 -0.1529
  112TIP3   OH2  299   2.412   2.739   3.888 -0.0495  0.0460 -0.1849
  112TIP3    H1  300   2.383   2.657   3.929  0.5488 -1.1187 -1.9472
  112TIP3    H2  301   2.483   2.712   3.829 -0.0360  1.7935 -1.0309
  113TIP3   OH2  302   4.117   6.248   5.910  0.1331 -0.0260  0.0815
  113TIP3    H1  303   4.148   6.283   5.826  0.3172  0.6583  0.4246
  113TIP3    H2  304   4.041   6.195   5.887  2.6041 -3.4198 -1.0435
  114TIP3   OH2  305   4.507   0.609   3.913  0.2838 -0.2685  0.1787
  114TIP3    H1  306   4.490   0.625   3.820  0.1936  0.2579  0.2823
  114TIP3    H2  307   4.420   0.594   3.950  0.1583  0.9568  0.4364
  115TIP3   OH2  308   0.158   6.299   2.433  0.0068 -0.5947  0.1856
  115TIP3    H1  309   0.124   6.340   2.512 -1.9904  0.5541 -1.1705
  115TIP3    H2  310   0.127   6.208   2.438 -0.5085 -0.4062  0.5192
  116TIP3   OH2  311   1.164   6.259   2.415 -0.6391  0.4545  0.3933
  116TIP3    H1  312   1.232   6.325   2.426 -0.4818  0.9160 -2.4642
  116TIP3    H2  313   1.189   6.212   2.335 -2.7065 -0.5941  0.2875
  117TIP3   OH2  314   0.820   3.817   0.312  0.0362  0.9467  0.6439
  117TIP3    H1  315   0.836   3.726   0.336  0.4567  1.0472  0.7555
  117TIP3    H2  316   0.727   3.821   0.292  0.1705  0.3222 -0.1246
  118TIP3   OH2  317   6.334   1.132   4.151  0.0000 -0.0982 -0.1022
  118TIP3    H1  318   6.310   1.076   4.078  0.7060 -0.9327  0.2911
  118TIP3    H2  319   6.425   1.155   4.135 -0.5611  1.8563 -0.8227
  119TIP3   OH2  320   6.681   6.645   5.611 -0.4019 -0.4565 -0.9775
  119TIP3    H1  321   6.652   6.557   5.635  0.7120 -0.6373 -0.2221
  119TIP3    H2  322   6.738   6.632   5.535  1.6975 -0.7080  0.5588
  120TIP3   OH2  323   6.662   1.049   3.298 -0.0442 -0.2453  0.4887
  120TIP3    H1  324   6.747   1.022   3.263  0.0834  1.1988 -0.4228
  120TIP3    H2  325   6.684   1.101   3.375 -0.2062 -1.2977  1.2657
  121TIP3   OH2  326   6.911   1.034   3.153 -0.7565 -1.0518 -0.2500
  121TIP3    H1  327   6.935   1.077   3.071  0.0184 -0.9507  0.0248
  121TIP3    H2  328   6.930   0.941   3.137  1.0537 -0.8347  0.3708
  122TIP3   OH2  329   1.783   2.347   1.560 -0.2274  0.0318  0.2630
  122TIP3    H1  330   1.706   2.397   1.534 -0.2639 -0.1217  0.0674
  122TIP3    H2  331   1.777   2.267   1.508 -0.0557 -0.0788  0.4138
  123TIP3   OH2  332   6.132   6.023   1.726 -0.0692 -0.5374  0.0897
  123TIP3    H1  333   6.174   6.032   1.641 -0.7254 -0.1270 -0.1931
  123TIP3    H2  334   6.128   5.928   1.741 -2.3039 -0.7832 -1.5416
  124TIP3   OH2  335   7.176   4.591   0.147  0.7033 -0.2723  0.2021
  124TIP3    H1  336   7.267   4.564   0.133  0.4979 -0.4629 -0.8449
  124TIP3    H2  337   7.147   4.624   0.062 -0.4421 -0.9106  0.3200
  125TIP3   OH2  338   7.083   3.568   4.154 -0.8985  0.3651  0.4726
  125TIP3    H1  339   7.164   3.552   4.107 -0.9825  0.6543  0.2214
  125TIP3    H2  340   7.097   3.651   4.200 -1.2507  0.7186 -0.0386
  126TIP3   OH2  341   1.885   5.997   3.952 -0.4869 -0.6680  0.4279
  126TIP3    H1  342   1.855   5.907   3.944 -3.8928  0.2259  1.6765
  126TIP3    H2  343   1.836   6.046   3.887  1.5874  0.3312 -0.5008
  127TIP3   OH2  344   6.745   1.713   3.525 -0.0466  0.7455  0.7529
  127TIP3    H1  345   6.725   1.775   3.596  1.2395  1.2076  0.7377
  127TIP3    H2  346   6.730   1.763   3.445 -0.5423  0.5306  0.7073
  128TIP3   OH2  347   4.697   4.571   3.667 -0.5513 -0.1086 -0.0536
  128TIP3    H1  348   4.702   4.666   3.662  1.9696 -0.1615  0.3231
  128TIP3    H2  349   4.779   4.544   3.709  0.0275 -2.6047 -2.4627
  129TIP3   OH2  350   6.845   1.293   2.516  0.5325  0.0348 -0.0693
  129TIP3    H1  351   6.884   1.379   2.536  1.8823 -0.2604 -1.3294
  129TIP3    H2  352   6.906   1.230   2.554  0.3308 -0.4007 -0.4686
  130TIP3   OH2  353   1.981   1.071   3.296  0.8649  0.2705 -0.1598
  130TIP3    H1  354   1.950   1.156   3.266  0.7790  0.2702 -0.0690
  130TIP3    H2  355   2.076   1.074   3.282  0.9174  0.5420  0.2487
  131TIP3   OH2  356   0.499   3.982   1.245  0.1690  0.0149 -0.6194
  131TIP3    H1  357   0.519   4.027   1.162 -0.2169 -0.1141 -0.7848
  131TIP3    H2  358   0.500   4.051   1.311  1.4125 -0.0198 -0.5725
  132TIP3   OH2  359   1.174   3.333   0.229 -0.2740  0.2646  0.8299
  132TIP3    H1  360   1.093   3.306   0.271 -0.3487 -0.2682  0.3623
  132TIP3    H2  361   1.147   3.399   0.165 -0.6859 -1.5252 -0.9315
  133TIP3   OH2  362   2.063   4.135   5.702 -0.3940 -0.2526 -0.4284
  133TIP3    H1  363   2.026   4.144   5.614 -1.1703 -2.4664 -0.4139
  133TIP3    H2  364   2.155   4.114   5.687 -0.5237 -0.6259 -0.7278
  134TIP3   OH2  365   1.338   2.679   1.128 -0.3511 -0.3994 -0.2880
  134TIP3    H1  366   1.427   2.714   1.129 -0.7689  0.7050  1.1023
  134TIP3    H2  367   1.316   2.671   1.035  0.8302  0.2912 -0.6391
  135TIP3   OH2  368   0.122   2.207   1.319 -0.6120  0.2019  0.0916
  135TIP3    H1  369   0.099   2.121   1.284  0.7092 -0.4033  0.6400
  135TIP3    H2  370   0.211   2.223   1.289  0.5393 -0.2762  2.8976
  136TIP3   OH2  371   2.880   0.111   4.530  0.3946  0.5043  0.2343
  136TIP3    H1  372   2.931   0.142   4.455 -0.3870  1.4903  0.0978
  136TIP3    H2  373   2.945   0.066   4.585  1.0152 -0.0832 -0.9212
  137TIP3   OH2  374   6.642   4.834   2.471 -0.3911  0.3500  0.3164
  137TIP3    H1  375   6.695   4.902   2.429  0.8544  0.5009  2.0388
  137TIP3    H2  376   6.566   4.824   2.413  1.4675  0.1151 -2.2750
  138TIP3   OH2  377   5.105   5.557   5.151  0.3077  0.8267  0.2646
  138TIP3    H1  378   5.143   5.488   5.098  1.6770  1.8905 -0.2099
  138TIP3    H2  379   5.119   5.530   5.242 -1.5335 -0.7296  0.1423
  139TIP3   OH2  380   1.977   4.203   4.203  0.2107 -0.2214 -0.4189
  139TIP3    H1  381   1.999   4.173   4.292 -1.7026  1.0572  0.5612
  139TIP3    H2  382   1.893   4.161   4.184 -0.8486  1.7844 -0.3838
  140TIP3   OH2  383   1.561   6.030   0.273  0.2208 -0.4252 -0.1385
  140TIP3    H1  384   1.635   6.073   0.315  0.9018 -2.5348  1.0130
  140TIP3    H2  385   1.571   6.048   0.180  0.2121  2.1400  0.3075
  141TIP3   OH2  386   1.973   1.464   4.921 -0.2355 -0.1166 -0.2664
  141TIP3    H1  387   2.036   1.458   4.993  0.0475  1.3581 -0.3499
  141TIP3    H2  388   2.027   1.459   4.842 -0.3875 -0.3404 -0.3553
  142TIP3   OH2  389   5.997   4.150   0.399 -0.1474  0.5523  0.0166
  142TIP3    H1  390   5.992   4.155   0.304 -0.9783 -0.4888 -0.0213
  142TIP3    H2  391   6.015   4.239   0.428  0.4005  0.8205 -1.1317
  143TIP3   OH2  392   0.712   6.624   1.044  0.0290 -0.3239 -0.0704
  143TIP3    H1  393   0.698   6.668   1.129 -1.4718 -1.2611  0.2061
  143TIP3    H2  394   0.683   6.534   1.059  0.0057 -0.5730 -1.5129
  144TIP3   OH2  395   7.187   6.551   0.805 -0.1896 -0.6535 -0.6977
  144TIP3    H1  396   7.264   6.607   0.813 -0.2931 -0.6508  0.6531
  144TIP3    H2  397   7.171   6.520   0.895 -1.5647 -0.9048 -1.0061
  145TIP3   OH2  398   7.233   3.097   0.382  0.1076 -0.3436  0.0797
  145TIP3    H1  399   7.227   3.030   0.450 -1.1050 -1.4173 -1.0318
  145TIP3    H2  400   7.176   3.167   0.413  0.5065 -0.2946  0.7259
  146TIP3   OH2  401   5.629   2.613   4.511 -0.3170 -0.1131 -0.0918
  146TIP3    H1  402   5.651   2.524   4.481  0.2834 -0.0692  0.2102
  146TIP3    H2  403   5.656   2.669   4.438  1.7634  0.0547  0.7601
  147TIP3   OH2  404   1.534   1.358   1.642  0.2826  0.3221 -0.1460
  147TIP3    H1  405   1.498   1.446   1.642  0.0781  0.2501  0.6625
  147TIP3    H2  406   1.460   1.301   1.622 -0.0044  0.2061  1.1239
  148TIP3   OH2  407   0.077   6.678   2.730 -0.4688 -0.6203  0.4265
  148TIP3    H1  408   0.046   6.768   2.716  0.2201 -0.3501  0.6084
  148TIP3    H2  409   0.113   6.678   2.819 -2.3332 -1.6215  1.2475
  149TIP3   OH2  410   5.439   3.956   1.744  0.2059 -0.3541 -0.4812
  149TIP3    H1  411   5.485   3.990   1.667 -1.2609 -0.5066 -1.4504
  149TIP3    H2  412   5.418   4.034   1.796  2.6764 -0.3696  0.6789
  150TIP3   OH2  413   4.594   0.108   0.779 -0.1118  0.0618 -0.0092
  150TIP3    H1  414   4.514   0.146   0.815  0.7219  0.3201  1.6808
  150TIP3    H2  415   4.601   0.022   0.821  1.3707  0.7538  1.3152
  151TIP3   OH2  416   1.307   2.301   4.988  0.0012 -0.4051 -0.5884
  151TIP3    H1  417   1.260   2.377   4.953  0.2674 -0.6710 -1.5301
  151TIP3    H2  418   1.267   2.225   4.946  0.1762 -0.7486 -0.1500
  152TIP3   OH2  419   5.736   1.448   3.547  0.1699  0.0434  0.3803
  152TIP3    H1  420   5.818   1.453   3.497  0.0206 -0.4203  0.0760
  152TIP3    H2  421   5.763   1.418   3.634  0.2952 -0.3523  0.2058
  153TIP3   OH2  422   6.557   4.675   4.806  0.2443 -0.1232 -0.2850
  153TIP3    H1  423   6.484   4.616   4.828  0.6590 -0.8943 -0.9253
  153TIP3    H2  424   6.594   4.700   4.890 -0.4176 -0.1576  0.0257
  154TIP3   OH2  425   5.375   0.782   2.166 -0.2584 -0.1706  0.3119
  154TIP3    H1  426   5.318   0.856   2.147 -0.2559  0.2863  1.9493
  154TIP3    H2  427   5.318   0.717   2.208  0.2974  0.1146  1.5601
  155TIP3   OH2  428   0.213   4.429   4.440  0.1087  0.4095  0.7451
  155TIP3    H1  429   0.283   4.381   4.484  0.9487  0.0691 -0.8756
  155TIP3    H2  430   0.245   4.519   4.435 -1.0603  1.0202  2.9446
  156TIP3   OH2  431   3.449   2.037   4.915 -0.0532  0.4209  0.3012
  156TIP3    H1  432   3.491   1.989   4.844  0.1014  0.3402  0.4465
  156TIP3    H2  433   3.377   1.981   4.943 -0.0007  0.3683  0.3311
  157TIP3   OH2  434   2.502   3.608   2.869 -0.6011 -0.4010  0.2574
  157TIP3    H1  435   2.542   3.685   2.828  1.5343 -0.7556  1.5356
  157TIP3    H2  436   2.485   3.548   2.796  0.5604  0.0739 -0.4273
  158TIP3   OH2  437   1.184   2.792   0.360 -0.7173 -0.2622 -0.5346
  158TIP3    H1  438   1.164   2.860   0.296 -0.7605 -0.2891 -0.5497
  158TIP3    H2  439   1.229   2.838   0.430  0.4541 -0.4455 -1.1488
  159TIP3   OH2  440   5.816   1.257   1.485 -0.3906 -0.5246 -0.3853
  159TIP3    H1  441   5.868   1.178   1.499 -0.1602 -0.3749 -0.3899
  159TIP3    H2  442   5.732   1.238   1.526  0.4873  0.1500  1.8511
  160TIP3   OH2  443   0.227   6.790   5.612 -0.1654  0.0777  0.2702
  160TIP3    H1  444   0.273   6.805   5.695 -0.6181  0.6006  0.4305
  160TIP3    H2  445   0.211   6.696   5.611  1.7034 -0.2921 -0.2117
  161TIP3   OH2  446   6.237   2.747   5.534  0.4778  0.0647  0.1260
  161TIP3    H1  447   6.168   2.682   5.527 -0.2027  0.9132 -1.6288
  161TIP3    H2  448   6.193   2.824   5.573  0.7633  0.1714  0.2414
  162TIP3   OH2  449   4.987   6.540   0.239 -0.5033  0.6818 -0.4347
  162TIP3    H1  450   4.958   6.608   0.178 -1.8267  1.2484  0.7775
  162TIP3    H2  451   5.079   6.560   0.256 -0.3796  1.0667 -1.4947
  163TIP3   OH2  452   2.618   6.386   4.048 -0.1081  0.5657 -0.4176
  163TIP3    H1  453   2.702   6.393   4.003  1.2024  0.5269  1.8572
  163TIP3    H2  454   2.553   6.410   3.982  1.6156 -0.0141 -2.4320
  164TIP3   OH2  455   0.905   6.623   1.575  0.2037 -0.2435  0.3450
  164TIP3    H1  456   0.813   6.651   1.574  0.1113 -0.5542  0.1966
  164TIP3    H2  457   0.954   6.702   1.550 -0.0804 -0.3021 -0.4062
  165TIP3   OH2  458   1.874   6.304   4.001 -0.1559 -0.1274 -0.4803
  165TIP3    H1  459   1.875   6.397   3.981  0.2120 -0.2434 -1.0382
  165TIP3    H2  460   1.791   6.273   3.966 -1.1765  0.3270  1.4066
  166TIP3   OH2  461   5.193   4.859   0.344  0.1377 -0.0828 -0.2272
  166TIP3    H1  462   5.099   4.845   0.328  0.0057 -0.5676  0.8687
  166TIP3    H2  463   5.209   4.818   0.429  1.2952  0.2326 -0.2767
  167TIP3   OH2  464   2.814   6.385   2.557 -0.1638 -0.4887  0.0392
  167TIP3    H1  465   2.907   6.405   2.548 -0.2282 -0.3038 -0.2363
  167TIP3    H2  466   2.771   6.470   2.550 -0.3198 -0.5069  0.7229
  168TIP3   OH2  467   3.011   5.149   2.578 -0.2111  0.2803  0.4874
  168TIP3    H1  468   2.981   5.083   2.640  1.4529  0.1270  1.1722
  168TIP3    H2  469   3.097   5.118   2.549  0.2848  1.7689  0.2677
  169TIP3   OH2  470   2.308   1.550   2.962  0.2360 -0.2305  0.3187
  169TIP3    H1  471   2.254   1.626   2.943 -0.5653 -0.5437  1.2868
  169TIP3    H2  472   2.385   1.585   3.007  0.4113  0.1131 -0.2371
  170TIP3   OH2  473   4.405   2.573   1.908 -0.2009  0.1242  0.3760
  170TIP3    H1  474   4.334   2.605   1.963 -0.5833  1.8682 -1.0310
  170TIP3    H2  475   4.481   2.567   1.966 -0.4862  2.3017  1.0439
  171TIP3   OH2  476   6.115   4.535   3.566 -0.0216 -0.2462  0.3481
  171TIP3    H1  477   6.025   4.557   3.545  0.3452  1.1634  0.1578
  171TIP3    H2  478   6.159   4.620   3.578  1.8844 -0.7414 -2.1127
  172TIP3   OH2  479   4.264   5.058   3.151  0.1298  0.3483 -0.6684
  172TIP3    H1  480   4.169   5.048   3.161  0.0847  1.7828  0.7707
  172TIP3    H2  481   4.275   5.144   3.111  0.7974 -0.7124 -2.9245
  173TIP3   OH2  482   4.532   1.937   3.813 -0.1286  0.3583 -0.2315
  173TIP3    H1  483   4.558   1.974   3.898  0.1386 -0.9160  0.2517
  173TIP3    H2  484   4.438   1.918   3.823 -0.0952  0.2002 -0.2266
  174TIP3   OH2  485   4.538   6.601   2.925 -0.4774 -0.0132 -0.1605
  174TIP3    H1  486   4.529   6.542   2.999 -0.6161 -0.6850 -0.7118
  174TIP3    H2  487   4.605   6.664   2.953 -1.1813  0.3009  0.8853
  175TIP3   OH2  488   4.951   1.646   0.950  0.1647  0.1070  0.3595
  175TIP3    H1  489   4.923   1.637   0.858  1.7299  1.0394 -0.2558
  175TIP3    H2  490   5.042   1.618   0.950  0.5560  1.2641  1.3725
  176TIP3   OH2  491   5.892   4.069   3.631 -0.0348  0.0330  0.4668
  176TIP3    H1  492   5.803   4.063   3.667 -0.0853  0.6957  0.4610
  176TIP3    H2  493   5.913   4.162   3.636  1.6938 -0.3843  2.9641
  177TIP3   OH2  494   5.876   4.579   2.897 -0.3710 -0.1075 -0.4462
  177TIP3    H1  495   5.911   4.494   2.870 -0.9733 -0.5642  0.1676
  177TIP3    H2  496   5.912   4.592   2.985  1.7042  1.4319 -1.4352
  178TIP3   OH2  497   0.909   1.648   2.078 -0.3422 -0.1991 -0.2046
  178TIP3    H1  498   0.914   1.673   2.170 -0.9454  0.0480 -0.2364
  178TIP3    H2  499   0.908   1.552   2.080  0.9286 -0.2375 -0.0339
  179TIP3   OH2  500   2.731   6.500   3.402  0.3621  0.1508  0.4932
  179TIP3    H1  501   2.810   6.452   3.376  2.1183  1.5839  2.7986
  179TIP3    H2  502   2.760   6.556   3.473 -2.7694  0.8260  1.3621
  180TIP3   OH2  503   4.675   5.139   4.287 -0.0185 -0.1164  0.2527
  180TIP3    H1  504   4.747   5.149   4.225 -0.3220  1.0536  0.0622
  180TIP3    H2  505   4.598   5.171   4.240 -0.3242  0.4416  1.1052
  181TIP3   OH2  506   0.441   6.230   1.854  0.2227  0.1370 -0.0018
  181TIP3    H1  507   0.452   6.205   1.946  0.3430 -0.2195 -0.1102
  181TIP3    H2  508   0.346   6.240   1.843 -0.0766 -2.4878 -0.4977
  182TIP3   OH2  509   3.170   3.205   5.005  0.1010  0.6204 -0.3163
  182TIP3    H1  510   3.192   3.252   4.925 -1.3469  0.3620 -0.8914
  182TIP3    H2  511   3.103   3.259   5.047  0.0616  0.2013  0.1675
  183TIP3   OH2  512   0.332   5.306   2.422  0.1486  0.1767  0.1956
  183TIP3    H1  513   0.406   5.250   2.399  0.5319  0.5382  0.5409
  183TIP3    H2  514   0.318   5.360   2.345 -0.0879 -0.2515 -0.0617
  184TIP3   OH2  515   1.880   2.534   5.009  0.3697 -0.0099 -0.4336
  184TIP3    H1  516   1.794   2.495   5.000  0.0263  1.0542 -2.2389
  184TIP3    H2  517   1.906   2.556   4.919  2.3311  0.1033  0.1117
  185TIP3   OH2  518   3.714   0.085   5.780 -0.1533 -0.1442 -0.5177
  185TIP3    H1  519   3.681   0.053   5.696 -0.6184  0.3157 -0.5173
  185TIP3    H2  520   3.724   0.006   5.833 -1.6106 -0.2775 -0.4033
  186TIP3   OH2  521   6.864   2.826   3.434 -0.1941  0.1766 -0.2650
  186TIP3    H1  522   6.948   2.788   3.459 -0.2628 -0.0867 -0.4268
  186TIP3    H2  523   6.877   2.921   3.442 -0.0404  0.1197  0.2037
  187TIP3   OH2  524   1.337   5.915   4.686  0.4959  0.5582  0.0656
  187TIP3    H1  525   1.416   5.876   4.724  0.4852  0.2890 -0.1851
  187TIP3    H2  526   1.367   5.955   4.604  0.6732  1.8322  0.7282
  188TIP3   OH2  527   4.698   1.823   2.372 -0.2704 -0.2697 -0.7498
  188TIP3    H1  528   4.634   1.760   2.405 -0.2343 -1.1055 -2.1832
  188TIP3    H2  529   4.653   1.868   2.300 -0.1180  1.0126 -0.0822
  189TIP3   OH2  530   0.098   5.015   3.624  0.2578 -0.3668  0.0771
  189TIP3    H1  531   0.086   5.094   3.571  0.9808 -1.3176 -1.5803
  189TIP3    H2  532   0.192   5.004   3.630  0.1678 -0.7865  0.7989
  190TIP3   OH2  533   5.913   2.455   2.330 -0.0703  0.5920 -0.0596
  190TIP3    H1  534   5.858   2.404   2.390 -3.4068  3.5957 -0.2209
  190TIP3    H2  535   5.972   2.504   2.387  2.7412 -2.5695  0.1213
  191TIP3   OH2  536   0.087   6.007   5.775  0.0212 -0.3569 -0.1334
  191TIP3    H1  537   0.134   6.043   5.850  0.8947 -0.1934 -0.7487
  191TIP3    H2  538   0.103   5.913   5.778  2.2208 -0.0943 -1.5340
  192TIP3   OH2  539   5.123   1.713   2.109 -0.4204  0.0181  0.0181
  192TIP3    H1  540   5.174   1.787   2.144  1.6333 -1.0488 -0.5966
  192TIP3    H2  541   5.159   1.698   2.022 -2.1852 -0.4693 -0.6627
  193TIP3   OH2  542   0.607   4.560   0.170  0.7478 -0.1675 -0.4309
  193TIP3    H1  543   0.552   4.484   0.188 -1.6195  1.4604 -0.3506
  193TIP3    H2  544   0.665   4.566   0.246 -1.5766  0.1968  1.4483
  194TIP3   OH2  545   2.226   2.983   0.996 -0.5121 -0.2926  0.2109
  194TIP3    H1  546   2.316   2.956   1.014 -0.3462  0.1499  0.0743
  194TIP3    H2  547   2.227   3.012   0.905 -1.0853 -1.4363 -0.1788
  195TIP3   OH2  548   5.088   0.165   3.232 -0.2389  0.0510 -0.1297
  195TIP3    H1  549   5.117   0.181   3.322 -0.9466 -0.8435  0.2829
  195TIP3    H2  550   5.061   0.073   3.232  2.1986 -0.7714 -1.9446
  196TIP3   OH2  551   6.195   3.718   0.860  0.2518 -0.1648  0.1962
  196TIP3    H1  552   6.104   3.708   0.832  0.1513  1.0568  0.0305
  196TIP3    H2  553   6.223   3.801   0.821  1.3861 -0.4474  0.3860
  197TIP3   OH2  554   1.537   1.482   5.048 -0.3234 -0.2546 -0.2531
  197TIP3    H1  555   1.618   1.467   4.999 -1.0615 -0.4842 -1.4508
  197TIP3    H2  556   1.498   1.395   5.057  0.7397 -0.5385  2.5382
  198TIP3   OH2  557   5.153   6.739   1.851 -0.0934 -0.2691 -0.0263
  198TIP3    H1  558   5.185   6.772   1.935 -0.5106 -1.4036  0.6086
  198TIP3    H2  559   5.138   6.817   1.799  0.1929  0.4652  0.9528
  199TIP3   OH2  560   5.587   1.911   4.157  0.5731 -0.0492 -0.2036
  199TIP3    H1  561   5.595   1.952   4.071 -0.6407 -3.6986 -2.2565
  199TIP3    H2  562   5.670   1.931   4.201  1.6928  0.9897 -2.6232
  200TIP3   OH2  563   2.343   0.238   1.003 -0.1407 -0.3638 -0.6014
  200TIP3    H1  564   2.249   0.225   0.992 -0.2593  0.3856 -0.5095
  200TIP3    H2  565   2.373   0.272   0.918 -0.3580  1.5648  0.0541
  201TIP3   OH2  566   7.129   4.102   4.608  0.0611  0.5020 -0.0753
  201TIP3    H1  567   7.097   4.182   4.568 -1.5313 -0.7179 -1.3908
  201TIP3    H2  568   7.052   4.045   4.614  0.8634 -0.4682  2.0614
  202TIP3   OH2  569   5.430   2.286   2.537  0.0710 -0.1642  0.2624
  202TIP3    H1  570   5.415   2.340   2.459  1.8136  0.0175  0.0158
  202TIP3    H2  571   5.386   2.333   2.608 -2.6122 -0.9543 -0.7635
  203TIP3   OH2  572   0.932   6.436   3.060  0.0912 -0.2456  0.2963
  203TIP3    H1  573   0.950   6.472   3.147  0.2846  1.1871 -0.3090
  203TIP3    H2  574   0.837   6.426   3.058 -0.3018  2.6938 -0.3719
  204TIP3   OH2  575   4.829   6.379   2.145  0.2721  0.6201  0.1101
  204TIP3    H1  576   4.818   6.470   2.169  0.4406  1.0762 -1.3979
  204TIP3    H2  577   4.909   6.377   2.092 -0.0219 -0.2954 -0.3372
  205TIP3   OH2  578   5.959   4.139   4.505 -0.2870  0.5670  0.2148
  205TIP3    H1  579   5.966   4.046   4.485  0.9960  0.2499  1.8760
  205TIP3    H2  580   5.961   4.143   4.601 -1.0810  2.2602  0.1952
  206TIP3   OH2  581   5.465   4.674   4.389 -0.3564  0.2107  0.0645
  206TIP3    H1  582   5.485   4.581   4.399  0.3515  0.3527 -0.0116
  206TIP3    H2  583   5.515   4.717   4.458 -0.5249  0.5568 -0.0269
  207TIP3   OH2  584   4.022   5.394   0.310  0.2512 -0.5808 -0.6240
  207TIP3    H1  585   4.019   5.301   0.288  1.4174 -0.5828 -0.8359
  207TIP3    H2  586   4.115   5.413   0.322 -0.0008  0.4790 -0.2164
  208TIP3   OH2  587   1.457   4.391   1.948  0.4138  0.2081 -0.5300
  208TIP3    H1  588   1.437   4.438   2.029  0.3676  1.0072 -0.9892
  208TIP3    H2  589   1.450   4.298   1.971  1.5104  0.4048  0.6441
  209TIP3   OH2  590   3.747   2.539   5.435  0.0032  0.4247 -0.3387
  209TIP3    H1  591   3.795   2.457   5.424 -0.0585  0.2225  0.7323
  209TIP3    H2  592   3.798   2.603   5.385  0.8354  0.0105 -0.0540
  210TIP3   OH2  593   5.256   4.591   2.089  0.3791 -0.2882 -0.6134
  210TIP3    H1  594   5.164   4.616   2.077  0.3913  0.4134  0.6131
  210TIP3    H2  595   5.252   4.508   2.136  0.3620  0.3629  0.5651
  211TIP3   OH2  596   0.022   3.094   2.439 -0.7549 -0.5692  0.8812
  211TIP3    H1  597   0.038   3.060   2.350  0.3351 -1.2390  1.3153
  211TIP3    H2  598   0.105   3.135   2.464 -2.4714  4.4135 -0.3799
  212TIP3   OH2  599   2.285   3.137   5.605 -0.0637  0.3830  0.8194
  212TIP3    H1  600   2.237   3.098   5.533  1.0157 -0.9182  0.7741
  212TIP3    H2  601   2.377   3.115   5.588  0.4251  1.6816  1.5917
  213TIP3   OH2  602   6.391   2.292   0.660  0.3325  0.2897  0.4792
  213TIP3    H1  603   6.378   2.377   0.702  3.6663  1.3922 -0.4291
  213TIP3    H2  604   6.419   2.312   0.571  0.9018 -1.7813  0.1242
  214TIP3   OH2  605   5.426   5.598   5.031 -0.2097  0.5225  0.7073
  214TIP3    H1  606   5.397   5.689   5.038 -1.0642  0.3762 -0.5320
  214TIP3    H2  607   5.505   5.593   5.085 -1.1129  1.5654  2.1975
  215TIP3   OH2  608   1.647   1.953   4.808  0.1274  0.1571  0.0631
  215TIP3    H1  609   1.629   2.033   4.857 -1.6714  0.4265 -0.9408
  215TIP3    H2  610   1.714   1.978   4.744  1.8061  0.0307  1.7029
  216TIP3   OH2  611   4.671   6.173   4.021 -0.3189  0.2793  0.0952
  216TIP3    H1  612   4.635   6.099   4.069 -0.5593  1.7330  2.2671
  216TIP3    H2  613   4.756   6.142   3.990 -1.0542 -1.3791 -0.3939
  217TIP3   OH2  614   1.304   4.393   5.039 -0.0365 -0.1661 -0.1778
  217TIP3    H1  615   1.365   4.375   5.111  0.1620  0.4811 -0.1810
  217TIP3    H2  616   1.228   4.338   5.059 -0.1653  0.3291  0.7675
  218TIP3   OH2  617   0.694   6.750   5.501 -0.3952 -0.0420 -0.0250
  218TIP3    H1  618   0.700   6.771   5.408 -0.2196  1.9000  0.3784
  218TIP3    H2  619   0.752   6.813   5.543 -0.0032 -1.2874  1.3645
  219TIP3   OH2  620   1.079   0.038   2.188  0.6224  0.2145  0.2602
  219TIP3    H1  621   0.987   0.037   2.215  0.7850 -0.6196  0.8039
  219TIP3    H2  622   1.110   0.125   2.211  0.7307 -0.4187  2.7054
  220TIP3   OH2  623   1.415   1.830   0.460  0.0400 -0.3323 -0.1388
  220TIP3    H1  624   1.480   1.869   0.518  0.7535 -1.4855 -0.1496
  220TIP3    H2  625   1.350   1.791   0.518 -0.0544 -0.1636 -0.1291
  221TIP3   OH2  626   2.304   6.213   0.123  0.7038  0.0116 -0.2173
  221TIP3    H1  627   2.397   6.223   0.102  0.7666  0.3459  0.2048
  221TIP3    H2  628   2.299   6.133   0.176  1.1479  1.3677  2.0239
  222TIP3   OH2  629   0.365   6.359   0.064  0.2000 -0.2308 -0.0434
  222TIP3    H1  630   0.305   6.319   0.126  1.8707 -1.4944  0.8288
  222TIP3    H2  631   0.414   6.423   0.116 -0.7087  1.2288 -0.8801
  223TIP3   OH2  632   3.032   4.240   3.513 -0.0779  0.3551  0.1319
  223TIP3    H1  633   3.024   4.146   3.496  2.7719  0.1057 -0.2965
  223TIP3    H2  634   2.952   4.262   3.561 -0.7941 -2.2830  0.3259
  224TIP3   OH2  635   6.723   1.709   5.280 -0.2100  0.5679 -1.0690
  224TIP3    H1  636   6.738   1.804   5.286  0.9540  0.3013  1.9291
  224TIP3    H2  637   6.633   1.697   5.312 -0.1734  0.6148 -0.9480
  225TIP3   OH2  638   4.111   2.685   3.627 -0.0289 -0.5053 -0.8266
  225TIP3    H1  639   4.131   2.608   3.680  0.5562  0.2863  0.1520
  225TIP3    H2  640   4.137   2.661   3.538 -1.4471 -2.0213 -0.8843
  226TIP3   OH2  641   6.359   2.686   5.878 -0.3644 -0.1226 -0.0832
  226TIP3    H1  642   6.325   2.766   5.918 -2.3722 -0.6497 -0.5983
  226TIP3    H2  643   6.403   2.717   5.799 -1.4683  0.4782 -0.4934
  227TIP3   OH2  644   6.961   6.028   2.501 -0.1174 -0.2242  0.2825
  227TIP3    H1  645   7.054   6.004   2.504 -0.4065 -1.3556  2.2932
  227TIP3    H2  646   6.938   6.043   2.593 -1.2599  2.9165 -0.4004
  228TIP3   OH2  647   4.241   6.164   5.235  0.0023  0.0487 -0.2898
  228TIP3    H1  648   4.208   6.128   5.152 -1.2232 -2.4364  1.1695
  228TIP3    H2  649   4.192   6.246   5.246 -0.4204 -0.0005 -1.6018
  229TIP3   OH2  650   3.696   2.276   5.797 -0.2807  0.3198  0.4193
  229TIP3    H1  651   3.674   2.368   5.782  2.3034  1.1650  1.2624
  229TIP3    H2  652   3.787   2.268   5.767 -1.0711 -2.5491 -1.7287
  230TIP3   OH2  653   3.492   2.492   4.292  0.1310  0.4764 -0.1764
  230TIP3    H1  654   3.524   2.520   4.378 -1.1357 -0.4646  0.6368
  230TIP3    H2  655   3.571   2.475   4.241  0.9311 -0.2406  1.2434
  231TIP3   OH2  656   5.832   0.949   3.623  0.5034  0.0025 -0.6933
  231TIP3    H1  657   5.870   0.963   3.536 -0.2829  2.1920 -0.7492
  231TIP3    H2  658   5.740   0.927   3.605  0.3837  0.2839 -0.4326
  232TIP3   OH2  659   2.057   4.897   5.444 -0.8399 -0.1726 -0.4691
  232TIP3    H1  660   1.995   4.963   5.475  0.6878  0.2185  2.0606
  232TIP3    H2  661   2.066   4.836   5.517  0.3509 -1.2828 -1.4768
  233TIP3   OH2  662   4.297   1.666   4.785  0.2767  0.7025  0.2037
  233TIP3    H1  663   4.250   1.750   4.781  0.1302  0.7050  1.5725
  233TIP3    H2  664   4.231   1.601   4.760  0.2612  0.9404 -0.3931
  234TIP3   OH2  665   2.336   4.733   2.196  0.1455  0.1766 -0.5854
  234TIP3    H1  666   2.412   4.714   2.140 -1.1366 -2.7035 -1.5441
  234TIP3    H2  667   2.288   4.801   2.149  0.2971 -0.5511 -1.8467
  235TIP3   OH2  668   1.041   0.793   2.879 -0.0432 -0.5578 -0.0390
  235TIP3    H1  669   1.064   0.803   2.786 -0.5442 -0.3956 -0.1545
  235TIP3    H2  670   0.946   0.782   2.878 -0.1524  0.2665  0.5103
  236TIP3   OH2  671   5.426   4.765   4.128 -0.9430 -0.3210  0.0470
  236TIP3    H1  672   5.444   4.760   4.222 -0.6026 -2.5589 -0.0944
  236TIP3    H2  673   5.334   4.791   4.123 -0.9280 -0.0559  0.9852
  237TIP3   OH2  674   1.155   1.424   4.948 -0.7260 -0.2638 -0.2079
  237TIP3    H1  675   1.102   1.500   4.969 -0.2080  0.1231 -0.2709
  237TIP3    H2  676   1.243   1.459   4.933 -0.5613 -0.8279 -0.6133
  238TIP3   OH2  677   2.141   2.551   1.391  0.5470 -0.0398 -0.1012
  238TIP3    H1  678   2.172   2.563   1.481  0.1910  2.1322 -0.2169
  238TIP3    H2  679   2.220   2.553   1.337  0.6918 -0.5692  0.0850
  239TIP3   OH2  680   5.788   1.277   0.609  0.5189  0.3184 -0.0612
  239TIP3    H1  681   5.839   1.348   0.648  2.8555 -0.2913 -1.8015
  239TIP3    H2  682   5.766   1.309   0.522 -1.2277  0.1105  0.2557
  240TIP3   OH2  683   1.213   3.527   4.230 -0.1628  0.2484  0.0626
  240TIP3    H1  684   1.244   3.490   4.313  2.4477  1.2819 -0.3512
  240TIP3    H2  685   1.193   3.618   4.250 -1.3054  0.0409 -0.0801
  241TIP3   OH2  686   5.137   2.119   5.761 -0.0503  0.4449 -0.7084
  241TIP3    H1  687   5.108   2.162   5.842 -0.9874 -0.5983 -0.4620
  241TIP3    H2  688   5.106   2.028   5.770  1.9432 -0.3200 -1.1679
  242TIP3   OH2  689   5.016   2.681   5.688  0.0570  0.3160 -0.1898
  242TIP3    H1  690   4.938   2.682   5.743 -1.7993 -0.6774 -2.6215
  242TIP3    H2  691   5.063   2.602   5.716  0.4367  1.0969  1.5147
  243TIP3   OH2  692   7.017   5.267   2.735 -0.3329  0.1227  0.0893
  243TIP3    H1  693   7.097   5.215   2.731  1.7338  3.1117 -0.7402
  243TIP3    H2  694   6.949   5.210   2.700  1.6183 -2.1914 -0.1520
  244TIP3   OH2  695   0.836   5.946   3.726  0.2543 -0.2837 -0.0207
  244TIP3    H1  696   0.818   5.852   3.720 -1.2230 -0.0252  0.1775
  244TIP3    H2  697   0.809   5.981   3.641 -2.5778  0.4713  1.1059
  245TIP3   OH2  698   3.209   5.511   2.352  0.4632  0.2207  0.0926
  245TIP3    H1  699   3.135   5.452   2.336 -0.6042  1.3274  0.7402
  245TIP3    H2  700   3.168   5.593   2.381  1.8698  1.3946 -1.0925
  246TIP3   OH2  701   5.293   4.672   1.766  0.0637 -0.0324  0.3694
  246TIP3    H1  702   5.311   4.688   1.673  2.3035  0.1563  0.8006
  246TIP3    H2  703   5.263   4.758   1.799  2.1482  0.7144  0.4337
  247TIP3   OH2  704   4.500   4.585   3.044  0.1384 -0.3610  0.2746
  247TIP3    H1  705   4.589   4.610   3.069 -0.0960  1.5214 -0.6344
  247TIP3    H2  706   4.445   4.658   3.074 -0.8459 -0.5909 -0.8813
  248TIP3   OH2  707   5.074   1.322   3.113  0.0923  0.7785  0.4607
  248TIP3    H1  708   5.114   1.395   3.067  0.2288  0.4753  0.0858
  248TIP3    H2  709   5.031   1.361   3.189 -0.9933  1.4264 -0.4589
  249TIP3   OH2  710   0.778   2.718   2.976 -0.1019 -0.2918 -0.2439
  249TIP3    H1  711   0.762   2.663   3.053 -2.3529 -0.9015 -1.0876
  249TIP3    H2  712   0.831   2.663   2.919  2.3932  0.4930  1.1594
  250TIP3   OH2  713   0.030   0.337   1.143 -0.1091  0.2462  0.3976
  250TIP3    H1  714  -0.006   0.250   1.127 -2.8214  1.2298  0.6392
  250TIP3    H2  715  -0.008   0.365   1.225  0.9115  1.5980  0.4535
  251TIP3   OH2  716   7.072   3.101   0.791 -0.3885  0.3233  0.4705
  251TIP3    H1  717   6.985   3.063   0.805  0.0899 -0.5375  1.1931
  251TIP3    H2  718   7.078   3.113   0.696 -0.8478 -0.6915  0.3044
  252TIP3   OH2  719   6.787   2.222   3.759  0.0090 -0.1838  0.5762
  252TIP3    H1  720   6.842   2.180   3.693  0.3080 -1.5189  1.6240
  252TIP3    H2  721   6.737   2.150   3.797 -2.0631  0.9244  0.0531
  253TIP3   OH2  722   1.797   6.668   1.457 -0.2208 -0.0398 -0.0265
  253TIP3    H1  723   1.760   6.580   1.454  0.0501 -0.1305 -1.7924
  253TIP3    H2  724   1.726   6.726   1.430 -0.0107  0.1212 -0.2460
  254TIP3   OH2  725   0.620   5.645   4.686  0.4071  0.6753 -0.5984
  254TIP3    H1  726   0.696   5.684   4.731  0.5480 -0.7810  0.5095
  254TIP3    H2  727   0.657   5.575   4.633 -0.1217  0.1525 -0.2906
  255TIP3   OH2  728   0.654   4.916   1.657  0.4978 -0.3430 -0.0275
  255TIP3    H1  729   0.683   4.941   1.569  0.0666 -0.6402 -0.2599
  255TIP3    H2  730   0.729   4.935   1.714  0.6760  0.1243 -0.4153
  256TIP3   OH2  731   1.362   5.634   0.862  0.4940  0.2126 -0.0561
  256TIP3    H1  732   1.330   5.721   0.889  0.8757  1.1155 -2.3339
  256TIP3    H2  733   1.340   5.577   0.936 -2.2927  1.6819  0.3897
  257TIP3   OH2  734   5.176   5.917   4.451 -0.0231  0.0547  0.6943
  257TIP3    H1  735   5.085   5.940   4.470 -0.2016  0.0138 -0.0888
  257TIP3    H2  736   5.173   5.825   4.426  0.1987  0.1298  0.3940
  258TIP3   OH2  737   0.661   0.993   0.767  0.1397 -0.4872 -0.1186
  258TIP3    H1  738   0.698   1.072   0.729  0.7583 -0.9275 -0.4439
  258TIP3    H2  739   0.733   0.954   0.818 -0.5962 -0.0261  1.3392
  259TIP3   OH2  740   3.067   0.701   4.235  0.5380 -0.5179 -0.2265
  259TIP3    H1  741   3.156   0.699   4.273  1.0944  2.0826 -1.2383
  259TIP3    H2  742   3.009   0.708   4.311  1.3769  0.3271  0.3595
  260TIP3   OH2  743   1.161   3.912   4.842 -0.3040  0.0872  0.1107
  260TIP3    H1  744   1.095   3.944   4.905  0.7236 -0.5520  1.5714
  260TIP3    H2  745   1.190   3.991   4.796 -0.9937  0.5921  0.5060
  261TIP3   OH2  746   5.643   5.632   3.670  0.3329  0.1749 -0.3568
  261TIP3    H1  747   5.609   5.549   3.635 -0.8696  1.3591 -2.1833
  261TIP3    H2  748   5.737   5.617   3.678  0.3952 -0.8591 -2.2891
  262TIP3   OH2  749   6.166   5.914   4.287 -0.0426  0.5328  0.5323
  262TIP3    H1  750   6.146   5.948   4.200 -0.1449  0.6786  0.6128
  262TIP3    H2  751   6.082   5.880   4.319 -0.0547  0.6943  0.6705
  263TIP3   OH2  752   7.046   6.670   1.416  0.0982 -0.0818  0.1272
  263TIP3    H1  753   6.960   6.639   1.388 -0.6076  0.5940  1.4869
  263TIP3    H2  754   7.078   6.722   1.342 -0.5951 -0.4473 -0.4397
  264TIP3   OH2  755   0.227   4.772   5.728 -0.3535 -0.2265  0.1413
  264TIP3    H1  756   0.216   4.740   5.639 -0.1839 -1.1300  0.4356
  264TIP3    H2  757   0.138   4.779   5.762 -0.5316  1.6250 -0.5900
  265TIP3   OH2  758   6.891   6.414   1.760 -0.2176  0.3403 -0.2417
  265TIP3    H1  759   6.957   6.378   1.700 -1.4254 -0.4090 -1.1820
  265TIP3    H2  760   6.940   6.440   1.837  1.1627 -0.2921 -0.8735
  266TIP3   OH2  761   3.632   5.513   0.098  0.3194 -0.4901 -0.2754
  266TIP3    H1  762   3.552   5.553   0.062  0.3175 -1.3747 -1.3052
  266TIP3    H2  763   3.702   5.573   0.073  0.2256 -0.7419 -1.2111
  267TIP3   OH2  764   6.642   2.392   3.513  0.1658  0.0551  0.0306
  267TIP3    H1  765   6.642   2.466   3.453  1.0252 -1.6441 -2.2015
  267TIP3    H2  766   6.555   2.354   3.503  0.1695  0.0096  0.1733
  268TIP3   OH2  767   1.072   3.660   3.902 -0.3636 -0.6386 -0.5843
  268TIP3    H1  768   1.049   3.679   3.993  1.7412  0.4949 -0.2341
  268TIP3    H2  769   1.108   3.571   3.905 -1.6299 -1.1646 -0.5833
  269TIP3   OH2  770   6.487   6.029   0.777  0.0269  0.0914 -0.5131
  269TIP3    H1  771   6.549   5.956   0.770  1.2652  0.8477  1.5306
  269TIP3    H2  772   6.418   5.997   0.833  0.3102  0.3026 -0.0351
  270TIP3   OH2  773   3.721   5.906   1.709 -0.2318  0.4951  0.5309
  270TIP3    H1  774   3.686   5.862   1.787  0.7751 -0.2614  0.5854
  270TIP3    H2  775   3.654   5.894   1.642 -0.4653 -0.1624  0.8700
  271TIP3   OH2  776   4.987   0.026   4.961 -0.7087 -0.5215 -0.0699
  271TIP3    H1  777   5.080   0.034   4.982 -0.5604 -0.1138 -0.8733
  271TIP3    H2  778   4.948  -0.011   5.040  0.0037  0.0522  0.5600
  272TIP3   OH2  779   0.505   2.846   0.076  0.0243 -0.1089 -0.0239
  272TIP3    H1  780   0.594   2.834   0.109 -0.1437 -1.0326  0.1224
  272TIP3    H2  781   0.473   2.757   0.059 -0.6016  0.2477 -0.8036
  273TIP3   OH2  782   1.695   5.890   1.004 -0.4854  0.0152  0.0300
  273TIP3    H1  783   1.641   5.858   1.076 -1.8312 -0.2354 -1.0423
  273TIP3    H2  784   1.632   5.924   0.940  0.5889 -0.6085 -1.4252
  274TIP3   OH2  785   5.229   1.869   0.401 -0.4748 -0.7643  0.1551
  274TIP3    H1  786   5.147   1.829   0.370  0.2529 -0.8676 -1.7906
  274TIP3    H2  787   5.298   1.816   0.361  0.5588 -0.3858  1.3836
  275TIP3   OH2  788   2.294   5.555   3.840 -0.3625 -0.5145  0.1654
  275TIP3    H1  789   2.214   5.604   3.861 -0.0102 -0.4241  1.3334
  275TIP3    H2  790   2.315   5.583   3.751 -0.8597  0.5315  0.3528
  276TIP3   OH2  791   5.821   1.285   1.176  0.3257  0.0949  0.5309
  276TIP3    H1  792   5.755   1.260   1.240  1.0586  0.8764  1.6391
  276TIP3    H2  793   5.898   1.233   1.200  0.5844  0.3401  0.2397
  277TIP3   OH2  794   3.610   0.241   0.110  0.0191  0.1177  0.7990
  277TIP3    H1  795   3.705   0.245   0.116  0.1895 -0.6836 -0.7584
  277TIP3    H2  796   3.592   0.164   0.056 -1.5041  0.4058  0.8329
  278TIP3   OH2  797   4.170   0.010   4.599  0.2230 -0.1568  0.2031
  278TIP3    H1  798   4.224   0.013   4.520  0.0019  2.9886  0.0441
  278TIP3    H2  799   4.232   0.000   4.670  0.5765 -1.1329 -0.2221
  279TIP3   OH2  800   0.750   2.654   3.696 -0.0483  0.3282 -0.1505
  279TIP3    H1  801   0.792   2.687   3.617 -1.3433  0.0455 -0.9924
  279TIP3    H2  802   0.657   2.674   3.684 -0.2486  0.4398  1.3918
  280TIP3   OH2  803   6.169   1.817   2.927  0.8003 -0.3800 -0.0429
  280TIP3    H1  804   6.178   1.722   2.923  1.1205 -0.3266 -0.6213
  280TIP3    H2  805   6.246   1.850   2.882 -0.3733  0.1354 -1.7463
  281TIP3   OH2  806   3.926   5.641   5.102  0.1074 -0.1184 -0.3575
  281TIP3    H1  807   3.870   5.573   5.140  0.7436 -0.1578  0.5379
  281TIP3    H2  808   3.987   5.593   5.046  1.1700 -0.4279  1.0046
  282TIP3   OH2  809  -0.025   5.138   2.265 -0.0604  0.2568 -0.0497
  282TIP3    H1  810   0.019   5.127   2.349  0.0951 -0.4223 -0.2096
  282TIP3    H2  811   0.023   5.207   2.221  1.2412 -0.8714 -0.4614
  283TIP3   OH2  812   3.401   4.750   1.628 -0.3482  0.2436  0.2221
  283TIP3    H1  813   3.348   4.753   1.548  1.7780  1.3687 -1.2587
  283TIP3    H2  814   3.480   4.701   1.602  0.3323  0.5263  1.6678
  284TIP3   OH2  815   4.448   4.750   1.900 -0.6684  0.6165  0.2461
  284TIP3    H1  816   4.433   4.656   1.908 -1.7088  0.6657 -0.9836
  284TIP3    H2  817   4.474   4.763   1.809 -1.5531  1.6527  0.1268
  285TIP3   OH2  818   5.780   0.022   1.166 -0.6425  0.3980 -0.2836
  285TIP3    H1  819   5.785  -0.054   1.108  0.8418  0.5960 -0.4556
  285TIP3    H2  820   5.792   0.097   1.109  0.6129  0.6095  0.2237
  286TIP3   OH2  821   3.651   5.456   4.808 -0.4125 -0.4279 -0.6241
  286TIP3    H1  822   3.660   5.421   4.720 -0.6800 -0.7759 -0.5125
  286TIP3    H2  823   3.664   5.381   4.866  0.1810 -0.1251 -0.3545
  287TIP3   OH2  824   1.737   3.624   1.701  0.4262  0.1110  0.6260
  287TIP3    H1  825   1.776   3.537   1.709 -1.7849 -0.9756  0.1014
  287TIP3    H2  826   1.695   3.640   1.786 -1.7372 -0.6896 -0.2314
  288TIP3   OH2  827   5.020   4.215   3.503  1.0523 -0.0877 -0.0618
  288TIP3    H1  828   5.008   4.310   3.500  0.8609 -0.1029  0.1768
  288TIP3    H2  829   5.072   4.200   3.582  1.5935 -0.1320 -0.4210
  289TIP3   OH2  830   0.985   3.432   4.107 -0.0214  0.6408 -0.3812
  289TIP3    H1  831   1.018   3.344   4.089 -0.2785  0.0681  1.7524
  289TIP3    H2  832   1.056   3.475   4.154 -0.7065  0.8174  0.5234
  290TIP3   OH2  833   5.496   2.084   3.357  0.5141  0.5463  0.0627
  290TIP3    H1  834   5.412   2.127   3.374  1.1768  1.7270  0.4559
  290TIP3    H2  835   5.561   2.154   3.361  1.8253 -0.6612  2.0843
  291TIP3   OH2  836   5.797   3.268   2.932 -0.0891  0.0453  0.1174
  291TIP3    H1  837   5.802   3.363   2.941  0.1164  0.1014 -0.4978
  291TIP3    H2  838   5.828   3.251   2.842  0.2848 -0.6313  0.3653
  292TIP3   OH2  839   3.768   3.876   4.233  0.2534  0.2412 -0.8798
  292TIP3    H1  840   3.764   3.908   4.142  0.0969 -0.3190 -1.0698
  292TIP3    H2  841   3.766   3.956   4.286 -4.7980  0.5672 -1.1273
  293TIP3   OH2  842   6.856   3.703   0.957  0.3131 -0.1341 -0.0950
  293TIP3    H1  843   6.817   3.790   0.966 -0.1983 -0.3698 -0.0069
  293TIP3    H2  844   6.781   3.643   0.955  0.6972 -0.6574  0.7917
  294TIP3   OH2  845   2.409   6.177   3.902  0.2709  0.0649  0.5074
  294TIP3    H1  846   2.420   6.268   3.875  1.1011 -0.6751 -1.9315
  294TIP3    H2  847   2.319   6.172   3.934 -0.4508  1.3777 -1.1210
  295TIP3   OH2  848   5.579   4.113   0.320 -0.4415  0.2029 -0.3818
  295TIP3    H1  849   5.640   4.114   0.394  1.2456 -0.6236 -1.7059
  295TIP3    H2  850   5.554   4.021   0.311 -0.5142  0.2755 -0.9384
  296TIP3   OH2  851   7.219   5.389   3.758  0.1786 -0.3900 -0.5144
  296TIP3    H1  852   7.174   5.328   3.700  0.7505  0.6415 -2.1281
  296TIP3    H2  853   7.151   5.420   3.818 -0.7295 -0.5957 -1.4082
  297TIP3   OH2  854   4.408   4.798   2.785  0.1559  0.3414 -0.0810
  297TIP3    H1  855   4.392   4.819   2.877  1.3228  0.3029  0.1479
  297TIP3    H2  856   4.381   4.706   2.777  0.1277  0.3180  0.2489
  298TIP3   OH2  857   0.732   3.477   2.690 -0.0190  0.6737  0.1509
  298TIP3    H1  858   0.679   3.455   2.614  0.6360  0.5729 -0.2849
  298TIP3    H2  859   0.766   3.393   2.721 -0.4123  0.6932  0.6621
  299TIP3   OH2  860   2.288   6.825   2.564 -0.0869 -0.0309 -0.4566
  299TIP3    H1  861   2.224   6.802   2.632 -0.4131 -0.5030 -0.9236
  299TIP3    H2  862   2.287   6.751   2.504 -0.3441  0.7047 -1.3796
  300TIP3   OH2  863   1.515   1.778   4.934  0.5247  0.5036 -0.0705
  300TIP3    H1  864   1.593   1.732   4.965 -0.5015  0.1441  2.1956
  300TIP3    H2  865   1.549   1.844   4.874  2.6592  0.7741  1.3093
  301TIP3   OH2  866   2.136   4.406   3.848 -0.4276 -0.2481 -0.1141
  301TIP3    H1  867   2.187   4.480   3.816  2.3788 -1.7850  0.4605
  301TIP3    H2  868   2.124   4.349   3.772 -0.5838 -0.2650 -0.0783
  302TIP3   OH2  869   5.264   2.865   2.295  0.0999 -0.3681 -0.0096
  302TIP3    H1  870   5.261   2.893   2.387 -1.5739  0.6256 -0.3182
  302TIP3    H2  871   5.200   2.793   2.291  1.1182 -1.2859 -0.1500
  303TIP3   OH2  872   0.277   1.208   3.870  0.4464  0.3359  0.4980
  303TIP3    H1  873   0.303   1.116   3.878 -0.6579 -0.1785 -1.0784
  303TIP3    H2  874   0.237   1.229   3.954  0.9465 -0.5587  0.9756
  304TIP3   OH2  875   3.382   5.094   5.272 -0.4410 -0.2282  0.6109
  304TIP3    H1  876   3.402   5.004   5.298 -1.2947 -0.7140 -0.3366
  304TIP3    H2  877   3.289   5.092   5.247  0.2795  0.1342 -2.5081
  305TIP3   OH2  878   6.119   0.662   2.247  0.2507 -0.3446 -0.4343
  305TIP3    H1  879   6.043   0.665   2.304 -1.8124 -0.7381 -3.0036
  305TIP3    H2  880   6.184   0.718   2.291 -1.3349 -0.2916  2.0082
  306TIP3   OH2  881   5.528   5.844   1.184  0.0764  0.2004  0.3389
  306TIP3    H1  882   5.534   5.924   1.236  0.1237 -0.8925  2.0833
  306TIP3    H2  883   5.545   5.773   1.246  1.4676 -1.1210 -1.4458
  307TIP3   OH2  884   6.098   5.517   2.280  0.1076 -0.4709  0.4791
  307TIP3    H1  885   6.101   5.421   2.276 -0.2664 -0.4845  0.5368
  307TIP3    H2  886   6.060   5.536   2.366  0.8041 -0.2626  0.7484
  308TIP3   OH2  887   1.750   4.015   5.546 -0.2217 -0.3974 -0.5513
  308TIP3    H1  888   1.807   4.020   5.470  1.1633 -0.1249  0.4751
  308TIP3    H2  889   1.775   3.934   5.590 -0.3449 -0.0814  0.1232
  309TIP3   OH2  890   4.570   5.880   2.380 -0.6865 -0.2035 -0.0144
  309TIP3    H1  891   4.519   5.802   2.359  0.4098 -1.1963  0.8698
  309TIP3    H2  892   4.573   5.929   2.298 -0.3772 -1.6921 -0.9266
  310TIP3   OH2  893   6.898   6.702   4.367  0.8007 -0.0383  0.5297
  310TIP3    H1  894   6.919   6.689   4.459  3.3274 -2.3329 -0.2293
  310TIP3    H2  895   6.844   6.627   4.344 -0.7736  1.1016  0.3167
  311TIP3   OH2  896   6.496   6.667   0.838 -0.0510  0.5420  0.0819
  311TIP3    H1  897   6.537   6.746   0.875 -0.5994  0.9496 -0.1739
  311TIP3    H2  898   6.570   6.613   0.810  0.4467 -0.0852  2.3206
  312TIP3   OH2  899   4.555   6.087   2.687 -0.5540  0.0943  0.1671
  312TIP3    H1  900   4.637   6.045   2.659 -1.1370 -0.9532 -0.0299
  312TIP3    H2  901   4.537   6.151   2.619 -0.6586 -0.7002 -0.5725
  313TIP3   OH2  902   6.460   5.983   1.979  0.1646  0.5744 -0.1054
  313TIP3    H1  903   6.375   6.002   2.020  0.5016  0.2467  0.7670
  313TIP3    H2  904   6.524   6.021   2.040  0.7173 -0.7105  0.1308
  314TIP3   OH2  905   3.558   2.020   1.282  0.1737  0.2598 -0.4526
  314TIP3    H1  906   3.626   2.085   1.265  2.0362 -1.6694 -0.7169
  314TIP3    H2  907   3.570   1.997   1.374 -2.2149  2.1163  0.4256
  315TIP3   OH2  908   2.557   3.135   0.438 -0.2936  0.0621  0.1309
  315TIP3    H1  909   2.519   3.152   0.352  1.1730 -2.0072 -1.0211
  315TIP3    H2  910   2.648   3.161   0.429  0.3608 -1.9836  0.3609
  316TIP3   OH2  911   0.207   3.356   0.259 -0.1454 -0.4067 -0.3816
  316TIP3    H1  912   0.259   3.431   0.231  0.6960 -0.2336  1.5251
  316TIP3    H2  913   0.247   3.281   0.214  0.4867 -0.0142 -0.4801
  317TIP3   OH2  914   3.934   5.441   5.623 -0.4134 -0.3287  0.2091
  317TIP3    H1  915   4.026   5.454   5.647 -0.3343  1.1418 -0.7821
  317TIP3    H2  916   3.894   5.402   5.701  1.2308 -1.8980  0.3370
  318TIP3   OH2  917   3.326   1.135   0.634 -0.1891  0.1053  0.8253
  318TIP3    H1  918   3.410   1.108   0.671  0.0259 -0.9404 -0.3552
  318TIP3    H2  919   3.302   1.064   0.575 -1.8763  0.4237  1.0679
  319TIP3   OH2  920   3.655   0.822   0.597  0.5680  0.5307 -0.3869
  319TIP3    H1  921   3.624   0.733   0.582  0.4398  0.6947 -1.1358
  319TIP3    H2  922   3.713   0.815   0.673  1.2984 -0.3654 -0.9971
  320TIP3   OH2  923   3.203   5.414   4.968 -0.0990 -0.0475  0.3684
  320TIP3    H1  924   3.241   5.345   5.023 -1.0595 -1.3603 -0.5479
  320TIP3    H2  925   3.141   5.368   4.911  0.2457  1.3867 -1.2420
  321TIP3   OH2  926   5.367   0.748   5.428 -0.2690  0.3029  0.0102
  321TIP3    H1  927   5.399   0.834   5.399 -0.1536 -0.0865 -1.0638
  321TIP3    H2  928   5.437   0.687   5.405 -0.5682 -0.1501  0.2912
  322TIP3   OH2  929   2.105   5.995   2.498  0.1175  0.1265  0.6860
  322TIP3    H1  930   2.114   6.004   2.403  1.1509 -0.5765  0.7020
  322TIP3    H2  931   2.040   6.061   2.522 -0.4183  0.0791 -0.5499
  323TIP3   OH2  932   1.469   3.211   5.781  0.1865  0.2702 -0.7790
  323TIP3    H1  933   1.496   3.238   5.693  0.2927 -0.5429 -1.0056
  323TIP3    H2  934   1.484   3.116   5.782 -1.5878 -0.0426 -0.5409
  324TIP3   OH2  935   3.236   3.136   0.152 -0.5508 -0.0789 -0.3573
  324TIP3    H1  936   3.315   3.088   0.128 -1.1275 -0.6454 -1.1534
  324TIP3    H2  937   3.187   3.074   0.207 -0.8339 -0.0427 -0.5688
  325TIP3   OH2  938   3.597   3.828   0.345  0.1270 -0.0884 -0.5899
  325TIP3    H1  939   3.689   3.804   0.353 -0.0700 -0.9659 -0.8410
  325TIP3    H2  940   3.560   3.808   0.431 -0.0050 -0.5686 -0.7530
  326TIP3   OH2  941   6.472   3.901   5.618  0.2711  0.3825 -0.4908
  326TIP3    H1  942   6.519   3.819   5.600  0.8580  0.5869  0.0612
  326TIP3    H2  943   6.394   3.874   5.666 -0.1547  0.0429 -1.3507
  327TIP3   OH2  944   1.781   4.903   5.266 -0.0584  0.1584 -0.2001
  327TIP3    H1  945   1.834   4.850   5.207  0.6607  0.8561 -0.1889
  327TIP3    H2  946   1.724   4.954   5.208 -1.2962 -1.1453 -0.1940
  328TIP3   OH2  947   0.577   0.038   0.328 -0.1023 -0.2820  0.2861
  328TIP3    H1  948   0.507  -0.017   0.294 -0.3552 -0.3246  0.8618
  328TIP3    H2  949   0.656   0.007   0.283 -0.7428  1.3095 -2.1507
  329TIP3   OH2  950   6.093   1.165   0.596  0.2387 -0.2838  0.0661
  329TIP3    H1  951   6.156   1.127   0.657 -0.8077 -1.0108  0.7249
  329TIP3    H2  952   6.027   1.206   0.652 -1.5644 -2.2734 -0.4574
  330TIP3   OH2  953   5.801   5.637   5.066  0.0622 -0.2357 -0.1908
  330TIP3    H1  954   5.869   5.570   5.056  1.8567  1.3191  0.9133
  330TIP3    H2  955   5.724   5.589   5.094  0.1846 -2.2775 -2.9631
  331TIP3   OH2  956   7.101   0.157   3.483 -0.2377  0.1313 -0.0589
  331TIP3    H1  957   7.142   0.202   3.557 -1.0368  0.3784  0.2544
  331TIP3    H2  958   7.019   0.122   3.519 -0.5889  0.1614 -0.7983
  332TIP3   OH2  959   3.640   4.973   0.523 -0.0338  0.3337  0.1708
  332TIP3    H1  960   3.651   5.064   0.548 -0.7875  1.3348 -2.7431
  332TIP3    H2  961   3.725   4.946   0.490  0.0977  0.0813  0.7080
  333TIP3   OH2  962   6.842   4.087   4.781  0.0160  0.0710 -0.3538
  333TIP3    H1  963   6.923   4.037   4.772 -0.2767 -0.2843 -1.1768
  333TIP3    H2  964   6.773   4.023   4.765 -0.3780  0.6198 -0.8875
  334TIP3   OH2  965   0.949   2.681   2.043  0.2123 -0.2230 -0.2915
  334TIP3    H1  966   0.894   2.757   2.025  1.4171  0.3870 -1.6321
  334TIP3    H2  967   0.909   2.610   1.994 -1.0973 -0.5736  1.2118
  335TIP3   OH2  968   0.268   3.483   4.685 -0.3777  0.5284  0.2366
  335TIP3    H1  969   0.193   3.430   4.713 -0.1774  1.0199  1.7894
  335TIP3    H2  970   0.228   3.563   4.648 -0.6420 -0.1201 -0.9402
  336TIP3   OH2  971   7.138   3.336   0.242 -0.2286 -0.0633 -0.3234
  336TIP3    H1  972   7.159   3.419   0.198 -1.8586 -0.1807 -1.4518
  336TIP3    H2  973   7.213   3.280   0.226 -0.1104  0.4295 -1.6678
  337TIP3   OH2  974   2.198   2.124   4.231 -0.2939  0.0206  0.1311
  337TIP3    H1  975   2.263   2.189   4.206 -0.5487 -0.2229 -1.2226
  337TIP3    H2  976   2.223   2.098   4.320  0.5935  0.9758  0.1789
  338TIP3   OH2  977   1.070   0.535   4.907  0.0931 -0.0293 -0.0179
  338TIP3    H1  978   1.006   0.472   4.874 -0.3287  0.8799 -0.9831
  338TIP3    H2  979   1.027   0.574   4.983  0.5365 -1.1975  0.8573
  339TIP3   OH2  980   2.284   1.197   5.527 -0.0441 -0.1829  0.0349
  339TIP3    H1  981   2.268   1.126   5.590 -0.3034  0.8719  1.1789
  339TIP3    H2  982   2.358   1.164   5.474  0.1138 -1.1355  0.8066
  340TIP3   OH2  983   6.561   5.074   4.159  0.2369 -0.3604 -0.0996
  340TIP3    H1  984   6.540   5.100   4.248 -0.5562 -0.0091 -0.3828
  340TIP3    H2  985   6.503   5.000   4.140 -0.0153 -0.0613 -0.5211
  341TIP3   OH2  986   1.579   2.751   3.006  0.7377 -0.9015 -0.3598
  341TIP3    H1  987   1.495   2.788   3.031  1.3548  0.6268 -0.4845
  341TIP3    H2  988   1.640   2.825   3.007  1.7926 -1.7115 -1.6341
  342TIP3   OH2  989   4.086   2.844   4.929  0.5423  0.1145 -0.2679
  342TIP3    H1  990   4.097   2.911   4.861 -0.7707  0.2121 -0.4099
  342TIP3    H2  991   4.022   2.881   4.989  1.6063 -0.0197  0.9894
  343TIP3   OH2  992   2.456   1.835   3.962  0.4064  0.0906  0.0722
  343TIP3    H1  993   2.537   1.868   3.922  0.2954  0.1864 -0.0722
  343TIP3    H2  994   2.427   1.765   3.904  0.9524 -0.6637  0.6855
  344TIP3   OH2  995   6.052   3.936   0.121 -0.1452  0.2156 -0.3699
  344TIP3    H1  996   5.993   3.870   0.157 -1.0588  1.1390 -0.1437
  344TIP3    H2  997   6.137   3.917   0.161 -0.9890  0.8333  1.8609
  345TIP3   OH2  998   2.046   0.247   4.796  0.4848  0.0054  0.1227
  345TIP3    H1  999   2.066   0.233   4.704  0.6048  3.2225 -0.4814
  345TIP3    H2 1000   2.126   0.285   4.832 -0.1378  0.4616  1.0759
  346TIP3   OH2 1001   6.146   5.842   3.619 -0.4533  1.2403 -0.5918
  346TIP3    H1 1002   6.124   5.810   3.532  0.3557  0.4925 -0.5325
  346TIP3    H2 1003   6.186   5.767   3.663 -0.7564  1.6348  0.3920
  347TIP3   OH2 1004   4.406   2.573   2.688  0.2392  0.4920 -0.6559
  347TIP3    H1 1005   4.378   2.511   2.755 -0.2945  0.7376 -0.6431
  347TIP3    H2 1006   4.340   2.643   2.691  1.3082  1.5237 -0.0485
  348TIP3   OH2 1007   4.166   3.887   1.459 -0.0950 -0.1767  0.0656
  348TIP3    H1 1008   4.241   3.896   1.400  0.3498  1.6685  0.8312
  348TIP3    H2 1009   4.097   3.848   1.405  0.7150  0.1857 -1.2807
  349TIP3   OH2 1010   6.073   3.622   3.064  0.0249 -0.9441 -0.6540
  349TIP3    H1 1011   6.146   3.562   3.077  0.0925 -0.8830 -0.7491
  349TIP3    H2 1012   6.107   3.688   3.003 -0.1843 -1.0472 -0.8800
  350TIP3   OH2 1013   6.910   0.938   4.034 -0.2255  0.1980  0.1779
  350TIP3    H1 1014   6.980   0.878   4.060  0.2665  0.2608 -0.9537
  350TIP3    H2 1015   6.830   0.886   4.041  0.1531 -0.4786 -0.4026
  351TIP3   OH2 1016   1.625   0.166   2.326  0.5023 -0.4310  0.4063
  351TIP3    H1 1017   1.636   0.072   2.315  0.1564 -0.7199  2.2091
  351TIP3    H2 1018   1.710   0.197   2.356  0.9646  0.0673 -1.2813
  352TIP3   OH2 1019   7.234   1.697   4.668 -0.0340  0.0671 -0.3678
  352TIP3    H1 1020   7.258   1.764   4.732 -0.1005 -0.7666  0.5442
  352TIP3    H2 1021   7.140   1.709   4.655 -0.2407 -0.4792  0.5534
  353TIP3   OH2 1022   2.754   2.640   1.397 -0.0609 -0.1494 -0.0350
  353TIP3    H1 1023   2.825   2.665   1.456  0.9703  0.8458 -1.5906
  353TIP3    H2 1024   2.714   2.723   1.371 -0.0852 -0.5010 -1.1865
  354TIP3   OH2 1025   3.148   4.121   3.265 -0.0625 -0.0523 -0.1989
  354TIP3    H1 1026   3.243   4.134   3.256  0.4051 -1.5662  1.7898
  354TIP3    H2 1027   3.116   4.204   3.299  0.5713  0.4162 -0.7111
  355TIP3   OH2 1028   4.815   4.168   3.826  0.6161 -0.7254 -0.4852
  355TIP3    H1 1029   4.804   4.164   3.731 -2.0826 -1.0412 -0.2425
  355TIP3    H2 1030   4.731   4.138   3.861  0.8149  1.2843  2.0107
  356TIP3   OH2 1031   5.889   4.519   0.056  0.2494 -0.6162 -0.1022
  356TIP3    H1 1032   5.812   4.561   0.017  1.8011  1.1951 -1.4317
  356TIP3    H2 1033   5.901   4.438   0.006 -0.8954 -1.0278  0.2716
  357TIP3   OH2 1034   6.745   0.981   0.766 -0.7203 -0.3923  0.0361
  357TIP3    H1 1035   6.716   0.977   0.675  0.0233  0.0829 -0.2275
  357TIP3    H2 1036   6.828   0.934   0.767  1.1847  2.6775 -0.3311
  358TIP3   OH2 1037   5.283   0.003   1.472  0.0403 -1.0162  0.3905
  358TIP3    H1 1038   5.330   0.006   1.556 -0.8016 -0.3170  0.8574
  358TIP3    H2 1039   5.190   0.004   1.497 -0.2310  0.3348 -0.5651
  359TIP3   OH2 1040   1.430   5.305   0.450  0.2711 -0.3678 -0.1185
  359TIP3    H1 1041   1.377   5.226   0.460 -0.1550  0.0909  1.5019
  359TIP3    H2 1042   1.483   5.309   0.530  0.1138  1.1107 -0.0686
  360TIP3   OH2 1043   6.897   3.775   3.309 -0.2346 -0.5455 -0.4006
  360TIP3    H1 1044   6.907   3.771   3.404 -0.6748  2.8666 -0.0754
  360TIP3    H2 1045   6.823   3.717   3.290  0.5054 -2.0569  1.1658
  361TIP3   OH2 1046   4.370   2.816   5.452 -0.1938 -0.1556  0.5808
  361TIP3    H1 1047   4.406   2.728   5.439  1.9079  0.8934 -1.4593
  361TIP3    H2 1048   4.306   2.827   5.382  1.2694  0.7006 -0.6908
  362TIP3   OH2 1049   6.619   6.458   3.265 -0.0314 -0.0151  0.1749
  362TIP3    H1 1050   6.692   6.466   3.204  0.6887 -0.8017  0.9113
  362TIP3    H2 1051   6.660   6.439   3.349 -1.0808 -0.2667  0.6448
  363TIP3   OH2 1052   6.250   6.272   1.059 -0.7846 -0.2898 -0.6429
  363TIP3    H1 1053   6.275   6.258   0.968  0.4529 -0.2956 -0.3218
  363TIP3    H2 1054   6.331   6.257   1.109 -1.6149 -1.0573  0.5264
  364TIP3   OH2 1055   6.270   3.364   2.573  0.2692 -0.4467  0.6037
  364TIP3    H1 1056   6.271   3.390   2.665 -0.3476 -1.3067  0.8667
  364TIP3    H2 1057   6.254   3.446   2.525  1.9530  0.2479  1.1408
  365TIP3   OH2 1058   6.705   6.509   1.584 -0.3413  0.0451  0.2240
  365TIP3    H1 1059   6.622   6.529   1.628  0.4351 -0.7346  2.1851
  365TIP3    H2 1060   6.763   6.481   1.655  1.9169  1.4866 -0.9426
  366TIP3   OH2 1061   6.548   5.469   2.200 -0.1771 -0.9006 -0.0315
  366TIP3    H1 1062   6.542   5.425   2.285  0.7255 -1.7722 -0.4055
  366TIP3    H2 1063   6.642   5.473   2.181 -0.3708 -0.7754 -1.0162
  367TIP3   OH2 1064   4.685   1.562   2.018 -0.0022  0.4901  0.5390
  367TIP3    H1 1065   4.779   1.568   2.003  0.0550  0.8674  1.0303
  367TIP3    H2 1066   4.677   1.531   2.108 -0.3368 -2.2395 -0.3287
  368TIP3   OH2 1067   6.943   0.349   3.622  0.6292 -0.2797 -0.6428
  368TIP3    H1 1068   6.912   0.388   3.541  1.1396 -0.0588 -0.7351
  368TIP3    H2 1069   6.879   0.280   3.641 -0.1112  0.3846 -0.6418
  369TIP3   OH2 1070   0.868   1.962   3.069 -0.2231 -0.5034 -0.0653
  369TIP3    H1 1071   0.914   1.897   3.016 -2.4723 -0.5640 -2.0746
  369TIP3    H2 1072   0.870   2.042   3.017  1.6670  0.9136  1.9535
  370TIP3   OH2 1073   3.150   1.739   1.626 -0.1191  0.6343  0.4834
  370TIP3    H1 1074   3.196   1.795   1.562 -0.2310 -1.9348 -2.0564
  370TIP3    H2 1075   3.057   1.759   1.613 -0.2076 -0.5427 -0.9386
  371TIP3   OH2 1076   2.781   4.694   3.022 -0.2296 -0.5171 -0.5900
  371TIP3    H1 1077   2.763   4.777   3.067 -0.9030 -0.3411 -1.1689
  371TIP3    H2 1078   2.840   4.647   3.081  0.1248  0.3557 -0.2345
  372TIP3   OH2 1079   4.707   5.963   3.762 -0.4487  0.2167  0.5916
  372TIP3    H1 1080   4.769   6.014   3.813 -0.7206  1.8967 -0.6902
  372TIP3    H2 1081   4.756   5.938   3.683 -1.2213  1.1347 -0.1986
  373TIP3   OH2 1082   5.126   1.246   2.212  0.7516 -0.4841 -0.0014
  373TIP3    H1 1083   5.043   1.282   2.243  0.3207  0.9570 -2.6241
  373TIP3    H2 1084   5.190   1.315   2.229  0.8546 -0.4292 -0.6015
  374TIP3   OH2 1085   0.123   3.513   4.091  0.1097  0.6676  0.2416
  374TIP3    H1 1086   0.201   3.544   4.045 -0.9289  1.9761 -0.7063
  374TIP3    H2 1087   0.140   3.533   4.183  1.5852 -0.6266  0.2911
  375TIP3   OH2 1088   1.093   5.820   4.526  0.3703 -0.3290 -0.1670
  375TIP3    H1 1089   1.183   5.851   4.537  0.3722  0.0126 -1.0839
  375TIP3    H2 1090   1.042   5.869   4.591  0.7138  0.0812 -0.2043
  376TIP3   OH2 1091   3.246   4.058   2.808 -0.3010 -0.1903  0.4156
  376TIP3    H1 1092   3.205   3.972   2.815 -2.0375  0.5495 -0.3104
  376TIP3    H2 1093   3.195   4.114   2.866  0.7728  0.3927  0.8238
  377TIP3   OH2 1094   3.674   4.315   4.277 -0.2253 -0.0279  0.0185
  377TIP3    H1 1095   3.753   4.360   4.306 -0.4724  0.4147  0.0035
  377TIP3    H2 1096   3.694   4.222   4.288  0.6501  0.0393 -0.8970
  378TIP3   OH2 1097   5.417   6.206   4.224  0.0156  0.1700  0.5118
  378TIP3    H1 1098   5.412   6.203   4.320  0.4047  0.5626  0.5500
  378TIP3    H2 1099   5.404   6.298   4.202  1.5677  0.3646  0.3042
  379TIP3   OH2 1100   3.251   2.526   1.112  0.1034 -0.5368 -0.2850
  379TIP3    H1 1101   3.229   2.496   1.200 -0.0408 -0.3618 -0.2609
  379TIP3    H2 1102   3.167   2.550   1.073  0.3421  1.1725  0.1882
  380TIP3   OH2 1103   3.839   6.244   0.186 -0.5531  0.1319  0.4618
  380TIP3    H1 1104   3.843   6.338   0.208 -0.0002  0.0822  0.5936
  380TIP3    H2 1105   3.900   6.203   0.247  2.3121  0.1719 -2.1105
  381TIP3   OH2 1106   1.292   1.146   2.786 -0.5404 -0.1250  0.1776
  381TIP3    H1 1107   1.324   1.057   2.771  0.1683 -0.0714  1.2625
  381TIP3    H2 1108   1.300   1.189   2.700 -0.6370 -1.0159 -0.2940
  382TIP3   OH2 1109   6.074   0.924   5.297  0.9625 -0.2503 -0.0240
  382TIP3    H1 1110   6.111   0.849   5.251  1.0574 -0.8833  1.0649
  382TIP3    H2 1111   6.074   0.899   5.389 -1.2271  0.1360  0.1300
  383TIP3   OH2 1112   0.759   2.044   1.550 -0.2069 -0.1603 -0.1277
  383TIP3    H1 1113   0.680   2.082   1.513  0.7253  1.0954 -0.8937
  383TIP3    H2 1114   0.748   2.053   1.645 -1.1253 -0.3312 -0.2144
  384TIP3   OH2 1115   4.450   5.839   3.697 -0.1791  0.1893  0.4790
  384TIP3    H1 1116   4.538   5.834   3.734  0.3548 -0.0009 -0.7827
  384TIP3    H2 1117   4.422   5.928   3.715 -0.0696  0.0142  1.6085
  385TIP3   OH2 1118   5.250   6.091   2.325 -0.6455  0.2851  0.4564
  385TIP3    H1 1119   5.173   6.100   2.381  0.5767 -0.4656  2.3962
  385TIP3    H2 1120   5.269   5.997   2.325 -1.2594  0.0821 -2.2680
  386TIP3   OH2 1121   0.226   4.468   2.893 -0.1995 -0.3743  0.4116
  386TIP3    H1 1122   0.259   4.502   2.976 -1.5999  0.6080  0.6046
  386TIP3    H2 1123   0.131   4.477   2.900 -0.3000  1.5187 -1.9904
  387TIP3   OH2 1124   0.383   5.070  -0.023  0.5846 -0.1385 -0.6622
  387TIP3    H1 1125   0.457   5.102   0.028 -0.0433  0.4876 -0.1361
  387TIP3    H2 1126   0.364   4.983   0.014  0.1778  0.2815  0.1406
  388TIP3   OH2 1127   0.976   4.174   0.657  0.4046  0.0786 -0.2935
  388TIP3    H1 1128   1.047   4.117   0.686  1.1360  1.2238  0.2090
  388TIP3    H2 1129   0.910   4.113   0.623  0.7936 -1.1253  0.9974
  389TIP3   OH2 1130   6.274   4.995   1.640 -0.7304 -0.7262 -0.1066
  389TIP3    H1 1131   6.368   4.986   1.627 -0.7940 -1.0455 -0.3584
  389TIP3    H2 1132   6.248   4.915   1.686 -1.0515 -1.1535 -1.0024
  390TIP3   OH2 1133   3.552   0.041   4.959  0.1461 -0.3329 -0.2399
  390TIP3    H1 1134   3.610  -0.032   4.936  2.5882  0.3218  3.0840
  390TIP3    H2 1135   3.572   0.060   5.051 -0.9432  3.9731 -0.6573
  391TIP3   OH2 1136   0.368   3.407   3.776  0.0975  0.4331 -0.2250
  391TIP3    H1 1137   0.423   3.480   3.805 -0.3793  0.7054  0.0098
  391TIP3    H2 1138   0.283   3.447   3.760 -0.5732 -0.3072  1.3023
  392TIP3   OH2 1139   4.597   1.918   5.651  0.0916  0.2646  0.1595
  392TIP3    H1 1140   4.638   2.005   5.657 -1.7366  1.1070  1.2836
  392TIP3    H2 1141   4.633   1.881   5.570  1.2873  1.8530 -0.1068
  393TIP3   OH2 1142   4.702   3.721   5.784 -0.6451 -0.2040 -0.1093
  393TIP3    H1 1143   4.683   3.801   5.735  1.0935 -0.4534 -1.2874
  393TIP3    H2 1144   4.629   3.663   5.763 -0.1085 -0.2014 -2.2804
  394TIP3   OH2 1145   3.375   2.818   4.658  0.6974 -0.3557 -0.3382
  394TIP3    H1 1146   3.304   2.882   4.653  1.2456  0.2341 -0.6945
  394TIP3    H2 1147   3.380   2.795   4.751 -0.0014 -0.4586 -0.3230
  395TIP3   OH2 1148   2.943   4.898   0.227  0.2698  0.2335  0.0736
  395TIP3    H1 1149   2.976   4.826   0.173 -0.0901  0.3457 -0.3025
  395TIP3    H2 1150   2.850   4.903   0.207  0.0065 -0.1040  1.1618
  396TIP3   OH2 1151   4.948   2.290   3.656  0.1364 -0.0928 -0.1951
  396TIP3    H1 1152   4.991   2.359   3.707 -1.0428 -0.6402  1.6375
  396TIP3    H2 1153   5.002   2.213   3.671  0.3221 -0.0316 -0.5583
  397TIP3   OH2 1154   5.739   4.714   0.578  0.3889  0.5528  0.6108
  397TIP3    H1 1155   5.653   4.747   0.550 -0.2971 -0.5463  1.3384
  397TIP3    H2 1156   5.759   4.765   0.657  0.5163  0.9644  0.3159
  398TIP3   OH2 1157   6.813   4.653   3.441 -0.7980  0.6444 -0.2293
  398TIP3    H1 1158   6.745   4.615   3.498 -0.6428 -0.8400 -0.9921
  398TIP3    H2 1159   6.890   4.597   3.455 -0.5866  0.6042 -1.4587
  399TIP3   OH2 1160   5.399   2.834   4.801  0.2690  0.1247 -0.2633
  399TIP3    H1 1161   5.398   2.818   4.706 -0.7865 -0.4954 -0.1697
  399TIP3    H2 1162   5.383   2.748   4.840  2.3368  0.0681  0.5549
  400TIP3   OH2 1163   0.372   6.071   3.306  0.3245 -0.0662  0.1476
  400TIP3    H1 1164   0.301   6.122   3.267  0.1591 -0.1824  0.2919
  400TIP3    H2 1165   0.383   6.108   3.393 -1.1462 -1.5207  1.0284
  401TIP3   OH2 1166   2.775   4.384   4.618 -0.2906  0.2635  0.6540
  401TIP3    H1 1167   2.680   4.388   4.624 -0.2597  2.0201  0.6617
  401TIP3    H2 1168   2.805   4.456   4.674  0.9608  0.8376 -0.6830
  402TIP3   OH2 1169   1.900   0.081   3.040  0.3444  0.0841  0.3610
  402TIP3    H1 1170   1.837   0.018   3.004  1.0097  0.0210 -0.7311
  402TIP3    H2 1171   1.854   0.165   3.035  0.1129 -0.0536  0.1416
  403TIP3   OH2 1172   2.290   5.525   1.613 -0.0111  0.0892  0.3409
  403TIP3    H1 1173   2.298   5.618   1.635  2.4206  0.1435 -0.3979
  403TIP3    H2 1174   2.260   5.524   1.522 -0.4783  0.1361  0.4938
  404TIP3   OH2 1175   1.058   1.722   0.759  0.4883  0.4159  0.2127
  404TIP3    H1 1176   1.064   1.630   0.787 -2.1943 -1.1520 -3.4815
  404TIP3    H2 1177   1.120   1.729   0.687  1.1725  1.8043  0.8943
  405TIP3   OH2 1178   1.169   4.853   5.491  0.4929  0.5208 -0.6707
  405TIP3    H1 1179   1.237   4.832   5.427 -0.0637  0.2095 -1.1746
  405TIP3    H2 1180   1.216   4.871   5.572  1.1237 -0.6876 -0.7492
  406TIP3   OH2 1181   0.047   3.516   4.984  0.6178  0.2413 -0.0505
  406TIP3    H1 1182   0.096   3.521   4.902  0.8710 -0.0621  0.0816
  406TIP3    H2 1183  -0.042   3.543   4.961  1.5791  4.4823  0.3761
  407TIP3   OH2 1184   2.336   1.750   5.541  0.1706  0.4067  1.2698
  407TIP3    H1 1185   2.424   1.739   5.504  0.0953  1.4905  0.7242
  407TIP3    H2 1186   2.351   1.794   5.625  0.0946  1.8150  0.5773
  408TIP3   OH2 1187   2.707   2.689   5.712  0.0283 -0.0103  0.3461
  408TIP3    H1 1188   2.784   2.699   5.656  0.4899 -1.0557  0.7859
  408TIP3    H2 1189   2.735   2.630   5.782 -1.3873 -1.0060  0.1069
  409TIP3   OH2 1190   1.290   3.369   0.661  0.2322  0.1372 -0.2378
  409TIP3    H1 1191   1.353   3.298   0.648 -1.8384 -2.0354  0.8885
  409TIP3    H2 1192   1.286   3.413   0.576  1.6204 -1.0774 -0.9798
  410TIP3   OH2 1193   2.603   6.555   2.247 -0.4776 -0.3444 -0.0760
  410TIP3    H1 1194   2.680   6.507   2.217 -0.4330 -0.5647  0.3741
  410TIP3    H2 1195   2.572   6.602   2.170  0.8954  0.8370  0.0487
  411TIP3   OH2 1196   0.286   5.079   5.326  0.4520 -0.0857  0.3057
  411TIP3    H1 1197   0.332   5.074   5.242 -1.3113 -0.5086 -0.6765
  411TIP3    H2 1198   0.321   5.006   5.377 -0.0454 -1.1906 -0.8949
  412TIP3   OH2 1199   5.319   3.818   5.488  0.0385  0.3349  0.3387
  412TIP3    H1 1200   5.387   3.874   5.449 -0.1515 -0.1575 -0.7299
  412TIP3    H2 1201   5.242   3.874   5.493 -0.7693 -0.3635 -2.7066
  413TIP3   OH2 1202   5.554   1.465   1.365 -0.1691  0.2996 -0.2424
  413TIP3    H1 1203   5.594   1.391   1.320 -0.4366  1.3841 -2.3867
  413TIP3    H2 1204   5.468   1.433   1.392  0.2144 -0.5415  0.0088
  414TIP3   OH2 1205   5.096   6.144   2.591 -0.2928  0.1865 -0.3612
  414TIP3    H1 1206   5.011   6.125   2.629 -0.0456 -1.0516 -0.3935
  414TIP3    H2 1207   5.152   6.164   2.666 -0.6685  1.3333 -0.3613
  415TIP3   OH2 1208   6.637   3.223   1.380 -0.0682  0.1984 -0.3598
  415TIP3    H1 1209   6.665   3.194   1.467 -0.4108  0.6860 -0.0852
  415TIP3    H2 1210   6.700   3.183   1.320  0.7688  0.6692  0.1952
  416TIP3   OH2 1211   2.256   6.385   1.186 -0.4958  0.6969 -0.2833
  416TIP3    H1 1212   2.330   6.332   1.215 -0.5019  0.8438 -0.0007
  416TIP3    H2 1213   2.296   6.453   1.132 -0.4692  0.5194 -0.4905
  417TIP3   OH2 1214   2.171   2.091   1.372  0.3599 -0.0322  0.1547
  417TIP3    H1 1215   2.161   2.062   1.281 -0.0213  6.3874 -2.3082
  417TIP3    H2 1216   2.265   2.103   1.383  0.4200 -0.9485  0.7552
  418TIP3   OH2 1217   4.311   5.110   4.440 -0.1182 -0.4678 -0.0624
  418TIP3    H1 1218   4.241   5.047   4.423 -1.7196  0.8503  1.2565
  418TIP3    H2 1219   4.278   5.163   4.513  1.2424  1.7344 -0.9465
  419TIP3   OH2 1220   3.846   5.499   1.335  0.0525  0.1039 -0.1858
  419TIP3    H1 1221   3.789   5.561   1.290  1.4454  1.1878 -0.5157
  419TIP3    H2 1222   3.786   5.433   1.370 -1.1948 -0.0905 -2.4845
  420TIP3   OH2 1223   1.527   0.297   2.113 -0.1001  0.5942 -0.2923
  420TIP3    H1 1224   1.560   0.286   2.202  0.7914 -0.7805 -0.7665
  420TIP3    H2 1225   1.493   0.211   2.090  1.9891  0.1931 -2.1742
  421TIP3   OH2 1226   4.345   0.966   3.823  0.3125 -0.8234  0.0128
  421TIP3    H1 1227   4.298   0.918   3.891  0.1626 -0.4312  0.1851
  421TIP3    H2 1228   4.324   0.920   3.742 -0.3295 -0.6749  0.0949
  422TIP3   OH2 1229   5.163   5.627   2.782 -0.0904 -0.5096 -0.2276
  422TIP3    H1 1230   5.209   5.546   2.803 -0.4177 -0.4249  0.8476
  422TIP3    H2 1231   5.193   5.690   2.847 -0.1821  0.1101 -0.7795
  423TIP3   OH2 1232   5.022   5.619   4.553  0.2243  0.1312  0.2751
  423TIP3    H1 1233   4.932   5.649   4.564  0.8449  1.9961  0.5688
  423TIP3    H2 1234   5.036   5.619   4.458 -0.0967 -0.1877  0.2285
  424TIP3   OH2 1235   0.086   2.903   1.894 -0.2841  0.2152 -0.0054
  424TIP3    H1 1236   0.050   2.827   1.940 -1.5606  1.8414  1.8015
  424TIP3    H2 1237   0.161   2.930   1.946 -0.2335  0.6136 -0.2817
  425TIP3   OH2 1238   4.007   4.248   5.415 -0.0442 -0.3260  0.0046
  425TIP3    H1 1239   3.962   4.171   5.451  0.0243 -0.5933 -0.4739
  425TIP3    H2 1240   4.045   4.217   5.332  2.1616 -0.4890  0.9981
  426TIP3   OH2 1241   4.994   1.973   0.041  0.2392  0.0608 -0.5718
  426TIP3    H1 1242   5.011   1.879   0.043 -1.3970 -0.2936 -1.1259
  426TIP3    H2 1243   5.031   2.007   0.123  0.6532 -1.0979 -0.2656
  427TIP3   OH2 1244   3.100   4.015   2.428 -0.6052 -0.4547 -0.0546
  427TIP3    H1 1245   3.061   4.101   2.439 -1.0553 -0.3965 -1.8993
  427TIP3    H2 1246   3.075   3.967   2.507  0.1374  1.2524  1.2704
  428TIP3   OH2 1247   5.237   2.013   4.084 -0.1294 -0.3682 -0.5700
  428TIP3    H1 1248   5.217   2.107   4.082 -1.1662 -0.5819 -1.8734
  428TIP3    H2 1249   5.202   1.983   4.168 -0.7654  0.2255 -0.6085
  429TIP3   OH2 1250   0.357   6.243   2.985 -0.3674  0.7973 -0.5026
  429TIP3    H1 1251   0.301   6.260   2.909 -1.9897  0.4901  0.5651
  429TIP3    H2 1252   0.360   6.327   3.031 -0.7963  0.5563 -0.0285
  430TIP3   OH2 1253   5.633   5.506   3.357 -0.3386  0.6435 -0.0601
  430TIP3    H1 1254   5.638   5.448   3.280  0.0441 -0.0612  0.4813
  430TIP3    H2 1255   5.705   5.478   3.413 -2.0697 -0.5664  1.7166
  431TIP3   OH2 1256   6.522   0.200   3.162  0.2604  0.0041  0.2047
  431TIP3    H1 1257   6.437   0.156   3.174 -0.2198  0.5174 -1.1448
  431TIP3    H2 1258   6.568   0.146   3.098 -0.1095  1.1031 -1.0386
  432TIP3   OH2 1259   5.738   0.857   1.373 -0.0756  0.8305 -0.1158
  432TIP3    H1 1260   5.671   0.828   1.437  1.1220 -0.9978  0.3997
  432TIP3    H2 1261   5.810   0.888   1.427  1.4170 -1.7929 -0.4406
  433TIP3   OH2 1262   3.522   3.895   0.062 -0.1828  0.5068 -0.2955
  433TIP3    H1 1263   3.565   3.875   0.145 -1.6840  1.0731  0.6464
  433TIP3    H2 1264   3.466   3.820   0.045 -1.1757  1.1431  0.0976
  434TIP3   OH2 1265   4.050   2.806   2.994 -0.0691  0.7107  0.0748
  434TIP3    H1 1266   3.966   2.847   3.015 -0.1256  1.3681 -1.3380
  434TIP3    H2 1267   4.115   2.873   3.014  0.1333  0.2380  1.0683
  435TIP3   OH2 1268   3.809   1.423   0.440  0.4993 -0.1749 -0.2921
  435TIP3    H1 1269   3.808   1.353   0.506  1.6353 -0.2087 -0.2821
  435TIP3    H2 1270   3.761   1.495   0.481  3.1931  0.6927  1.6521
  436TIP3   OH2 1271   2.226   3.662   5.752 -0.1272  0.2495 -0.1967
  436TIP3    H1 1272   2.255   3.571   5.746 -1.4252 -0.1787 -0.4515
  436TIP3    H2 1273   2.226   3.693   5.661 -1.8324 -0.2395 -0.3990
  437TIP3   OH2 1274   7.001   2.725   0.347  0.2439  0.6407 -0.3176
  437TIP3    H1 1275   7.026   2.652   0.290 -1.6521  0.6887 -1.3211
  437TIP3    H2 1276   6.981   2.796   0.287 -0.4617  1.1450  0.4881
  438TIP3   OH2 1277   5.746   2.510   2.794 -0.3696  0.2615 -0.7319
  438TIP3    H1 1278   5.831   2.468   2.798  1.5819  3.8504 -0.6876
  438TIP3    H2 1279   5.734   2.532   2.702 -1.1135  0.0828 -0.6895
  439TIP3   OH2 1280   2.465   3.004   1.941  0.0095 -0.0723 -0.3822
  439TIP3    H1 1281   2.504   2.955   1.869  0.4683  0.7726 -0.7278
  439TIP3    H2 1282   2.449   2.939   2.010 -2.5047 -1.3586 -2.0226
  440TIP3   OH2 1283   5.408   6.444   0.237  0.2043  0.2505 -0.3266
  440TIP3    H1 1284   5.431   6.369   0.182  1.4842  0.4014 -0.0384
  440TIP3    H2 1285   5.379   6.512   0.175  0.5316  0.0380 -0.7187
  441TIP3   OH2 1286   1.353   2.066   5.514  0.6826 -0.4615  0.4006
  441TIP3    H1 1287   1.431   2.039   5.466  0.0457 -1.6514  0.0185
  441TIP3    H2 1288   1.359   2.020   5.598 -0.5427 -2.0698 -0.3594
  442TIP3   OH2 1289   1.075   5.290   1.490 -0.0910 -0.2779  0.1903
  442TIP3    H1 1290   1.047   5.204   1.520 -0.9254 -0.1085 -0.0540
  442TIP3    H2 1291   0.996   5.328   1.450  0.1479  0.7552  0.6475
  443TIP3   OH2 1292   3.981   1.084   2.315  0.6189  0.0270 -0.5472
  443TIP3    H1 1293   3.946   1.033   2.243 -1.0379 -1.0663  0.9561
  443TIP3    H2 1294   4.073   1.057   2.321 -0.0280 -2.3048 -0.2378
  444TIP3   OH2 1295   6.598   5.845   3.767  0.0049 -0.3048  0.1026
  444TIP3    H1 1296   6.564   5.843   3.856 -0.1257  3.2944  0.3037
  444TIP3    H2 1297   6.691   5.867   3.777 -0.4445  2.2655 -0.5495
  445TIP3   OH2 1298   0.434   5.038   1.285  0.2422  0.1442 -0.5820
  445TIP3    H1 1299   0.520   5.005   1.311  0.4774  0.8917 -0.3800
  445TIP3    H2 1300   0.376   4.962   1.290  0.6377 -0.1003  0.4566
  446TIP3   OH2 1301   1.330   2.053   2.350 -0.0188  0.5200 -0.7439
  446TIP3    H1 1302   1.328   2.024   2.258  1.4615  1.4521 -1.1033
  446TIP3    H2 1303   1.327   2.148   2.345  0.6724  0.5966  0.1451
  447TIP3   OH2 1304   0.739   2.428   2.361  0.3097 -0.3909 -0.0209
  447TIP3    H1 1305   0.742   2.523   2.355  0.8672 -0.4515 -1.0965
  447TIP3    H2 1306   0.827   2.403   2.390  0.3911 -0.6114 -0.4532
  448TIP3   OH2 1307   4.765   5.648   3.432  0.6510 -0.4476  0.1571
  448TIP3    H1 1308   4.755   5.735   3.393  0.0706 -0.2195  0.7946
  448TIP3    H2 1309   4.798   5.593   3.361 -0.4687 -0.0638 -0.6901
  449TIP3   OH2 1310   1.483   3.469   1.208 -0.5592  0.0012  0.1635
  449TIP3    H1 1311   1.404   3.521   1.220  0.1017  0.8629  0.9598
  449TIP3    H2 1312   1.549   3.512   1.263  0.4357 -0.7575 -0.3920
  450TIP3   OH2 1313   0.061   0.802   5.063  0.1539  0.3643  0.0066
  450TIP3    H1 1314   0.149   0.762   5.061  0.2396  0.5796 -1.2457
  450TIP3    H2 1315   0.001   0.730   5.047 -0.0016  0.0236  1.9083
  451TIP3   OH2 1316   1.028   1.120   1.319 -0.5447 -0.1427  0.1165
  451TIP3    H1 1317   1.078   1.163   1.388  0.7779 -0.5383 -0.5492
  451TIP3    H2 1318   0.986   1.046   1.362 -0.9710  0.4805  0.7915
  452TIP3   OH2 1319   4.470   4.996   0.530 -0.4610 -0.3438  0.6239
  452TIP3    H1 1320   4.472   5.077   0.581  0.0366 -0.3302  0.5915
  452TIP3    H2 1321   4.398   4.945   0.567 -0.1723 -0.2910  1.2801
  453TIP3   OH2 1322   1.666   5.286   2.231  0.0988 -0.7020  0.3012
  453TIP3    H1 1323   1.725   5.311   2.159  1.6348 -1.2697  1.3074
  453TIP3    H2 1324   1.637   5.369   2.268 -0.7071 -0.3988 -0.9453
  454TIP3   OH2 1325   0.875   3.754   4.833  0.7280 -0.3209 -0.2576
  454TIP3    H1 1326   0.901   3.823   4.894 -0.1169  3.0228 -3.3331
  454TIP3    H2 1327   0.780   3.748   4.843  0.8222 -1.2940  0.1650
  455TIP3   OH2 1328   2.495   0.959   2.659  0.0525  0.0599 -0.3796
  455TIP3    H1 1329   2.448   0.889   2.703  0.8560 -0.7055 -0.7152
  455TIP3    H2 1330   2.540   0.916   2.587  0.0475  1.0330 -0.9754
  456TIP3   OH2 1331   5.792   6.700   2.900  0.2619 -0.0157  0.1641
  456TIP3    H1 1332   5.856   6.759   2.861  1.0235 -0.8326  0.1376
  456TIP3    H2 1333   5.725   6.689   2.833  0.2105  0.6552  0.0976
  457TIP3   OH2 1334   3.826   0.687   1.332 -0.2369  0.3316  0.0213
  457TIP3    H1 1335   3.895   0.753   1.341  0.9893 -0.4487 -2.6571
  457TIP3    H2 1336   3.775   0.716   1.256 -3.2082  1.0679  2.1184
  458TIP3   OH2 1337   3.775   1.745   0.758 -0.3101 -0.0539  0.2602
  458TIP3    H1 1338   3.751   1.687   0.831 -0.5848 -0.1634  0.0811
  458TIP3    H2 1339   3.870   1.735   0.750 -0.2146  0.2859  0.8874
  459TIP3   OH2 1340   1.465   3.029   4.618  0.2407 -1.3160  0.3528
  459TIP3    H1 1341   1.527   3.070   4.680  0.6688  0.9811 -1.4663
  459TIP3    H2 1342   1.386   3.082   4.626  0.0745 -1.4234 -0.5651
  460TIP3   OH2 1343   0.720   4.284   0.997 -0.1360 -0.0397  0.0977
  460TIP3    H1 1344   0.709   4.350   1.066  1.3918  0.8305 -0.4517
  460TIP3    H2 1345   0.815   4.276   0.986 -0.3334 -1.0099 -1.1125
  461TIP3   OH2 1346   7.178   6.410   0.585 -0.8949 -0.0098 -0.7627
  461TIP3    H1 1347   7.162   6.460   0.665 -1.1977 -0.1995 -0.7002
  461TIP3    H2 1348   7.248   6.349   0.608  0.1959  1.0793 -1.1429
  462TIP3   OH2 1349   5.154   1.631   4.994 -0.1665  0.0817  0.8424
  462TIP3    H1 1350   5.169   1.666   4.906 -0.6973 -2.4833 -0.3575
  462TIP3    H2 1351   5.238   1.590   5.017 -0.4973 -0.5634  0.8909
  463TIP3   OH2 1352   5.901   6.664   1.669  0.2248 -0.2303  0.5077
  463TIP3    H1 1353   5.990   6.655   1.634  0.1490 -1.0491  0.4925
  463TIP3    H2 1354   5.914   6.695   1.758  0.4444  1.3132 -0.0219
  464TIP3   OH2 1355   1.122   2.526   5.803 -0.2588 -0.0168 -0.5772
  464TIP3    H1 1356   1.210   2.527   5.764 -0.0205  0.7015 -0.0554
  464TIP3    H2 1357   1.096   2.618   5.804 -0.9837 -0.2215 -0.6439
  465TIP3   OH2 1358   2.051   3.932   2.822  0.2728  0.4088 -0.0413
  465TIP3    H1 1359   2.108   3.865   2.784  2.2569  0.5652  2.4330
  465TIP3    H2 1360   1.972   3.884   2.849  0.5566 -0.4249 -0.6510
  466TIP3   OH2 1361   6.428   2.794   4.902  0.4580  0.1141  0.4887
  466TIP3    H1 1362   6.423   2.883   4.936 -0.2448  1.1807 -2.1413
  466TIP3    H2 1363   6.409   2.803   4.809 -2.9698 -3.2095  0.6479
  467TIP3   OH2 1364   0.671   4.583   3.688  0.3241  0.1257 -0.0791
  467TIP3    H1 1365   0.663   4.641   3.764 -0.1873 -0.0615  0.0133
  467TIP3    H2 1366   0.587   4.590   3.644  0.5274  0.0283 -0.4872
  468TIP3   OH2 1367   6.809   3.350   2.935 -0.0760  0.0423  0.1482
  468TIP3    H1 1368   6.718   3.332   2.909 -0.1641  2.7006 -1.7462
  468TIP3    H2 1369   6.808   3.343   3.030 -2.0095 -1.0110  0.1148
  469TIP3   OH2 1370   6.884   6.725   2.328 -0.7081  0.1789 -0.3426
  469TIP3    H1 1371   6.909   6.809   2.366  0.1440 -0.5126  0.6899
  469TIP3    H2 1372   6.886   6.740   2.233 -0.6168  1.3265 -0.1753
  470TIP3   OH2 1373   2.293   3.087   5.211  0.0847 -0.0289 -0.2277
  470TIP3    H1 1374   2.254   3.050   5.132 -2.7905  2.2665 -0.0624
  470TIP3    H2 1375   2.254   3.037   5.283 -3.5797  2.7372 -0.0193
  471TIP3   OH2 1376   5.949   6.542   0.844  0.1780  0.2340 -0.1727
  471TIP3    H1 1377   5.904   6.457   0.847 -1.7443  1.2204  0.2376
  471TIP3    H2 1378   5.969   6.555   0.752 -0.9396  0.0451 -0.4532
  472TIP3   OH2 1379   3.366   0.511   5.141  0.5029  0.3267  0.5603
  472TIP3    H1 1380   3.274   0.486   5.147  0.1043  1.9303  1.6933
  472TIP3    H2 1381   3.389   0.542   5.229  1.6357  1.5148 -0.1126
  473TIP3   OH2 1382   3.793   0.807   5.170 -0.0629 -0.0409  0.3621
  473TIP3    H1 1383   3.825   0.837   5.255  0.2268 -0.7466  0.5131
  473TIP3    H2 1384   3.698   0.804   5.179 -0.1135  1.0338  0.2650
  474TIP3   OH2 1385   5.567   6.254   2.019  0.1440  0.0975 -0.3947
  474TIP3    H1 1386   5.660   6.237   2.006 -0.0364 -0.6625 -0.7527
  474TIP3    H2 1387   5.549   6.230   2.109 -0.3058 -2.7123 -1.1370
  475TIP3   OH2 1388   0.244   0.946   4.170 -0.4403  0.1857 -0.8494
  475TIP3    H1 1389   0.242   1.006   4.096  0.4002 -0.5696 -1.5109
  475TIP3    H2 1390   0.314   0.884   4.150 -0.6960 -0.4990  0.2187
  476TIP3   OH2 1391   4.800   5.627   0.722  0.7180  0.2320  0.0912
  476TIP3    H1 1392   4.780   5.552   0.665  1.6813 -0.2652  0.3771
  476TIP3    H2 1393   4.753   5.700   0.682  0.7886 -0.2582 -0.9396
  477TIP3   OH2 1394   5.842   2.511   5.290  0.2043  0.6203 -0.0910
  477TIP3    H1 1395   5.761   2.466   5.269  0.6094  0.8667 -2.4159
  477TIP3    H2 1396   5.821   2.604   5.283  0.4444  0.7096  0.3176
  478TIP3   OH2 1397   3.588   1.529   3.881 -0.6144 -0.1213  0.1235
  478TIP3    H1 1398   3.506   1.552   3.837  0.1771 -1.6988 -2.3923
  478TIP3    H2 1399   3.656   1.563   3.822  0.5972  0.7881  1.9512
  479TIP3   OH2 1400   1.552   3.159   1.677  0.3461  0.4221  0.1140
  479TIP3    H1 1401   1.457   3.160   1.662  0.3134  0.3385  0.3239
  479TIP3    H2 1402   1.571   3.071   1.708  0.4232  0.5813  0.5232
  480TIP3   OH2 1403   0.284   2.290   5.094 -0.4043  0.0511  0.3484
  480TIP3    H1 1404   0.210   2.230   5.096 -0.4307  0.0942  0.7284
  480TIP3    H2 1405   0.321   2.287   5.182 -0.2343  0.3755  0.2935
  481TIP3   OH2 1406   3.973   1.926   1.045  0.2065 -0.5342  0.1154
  481TIP3    H1 1407   3.980   1.872   0.966 -0.0749 -0.8354  0.2941
  481TIP3    H2 1408   3.960   2.015   1.012 -0.7823 -0.7773 -0.1746
  482TIP3   OH2 1409   0.394   1.452   4.789 -0.6587  0.5304  0.0997
  482TIP3    H1 1410   0.354   1.526   4.835  0.4431  0.4784  1.1809
  482TIP3    H2 1411   0.460   1.418   4.849  2.5416  1.8639 -2.3585
  483TIP3   OH2 1412   5.081   1.158   1.765  0.4334  0.1008  0.8609
  483TIP3    H1 1413   5.136   1.208   1.826  0.6551  2.1180 -0.8847
  483TIP3    H2 1414   5.053   1.222   1.700 -0.8453 -1.7008 -0.4521
  484TIP3   OH2 1415   3.816   2.464   1.345 -0.0781  0.1071 -0.4039
  484TIP3    H1 1416   3.777   2.453   1.432  0.4084  0.2886 -0.1574
  484TIP3    H2 1417   3.753   2.517   1.297  0.4127  1.4527  0.3789
  485TIP3   OH2 1418   1.244   4.742   3.194  0.3261 -0.3400 -0.1222
  485TIP3    H1 1419   1.258   4.664   3.140  0.4887 -0.5824  0.2648
  485TIP3    H2 1420   1.332   4.774   3.214  0.2721 -0.3684  0.1671
  486TIP3   OH2 1421   4.573   4.125   1.226  0.1403  0.6856 -0.1499
  486TIP3    H1 1422   4.659   4.084   1.229 -0.0687  0.2417 -0.0744
  486TIP3    H2 1423   4.564   4.170   1.310 -0.2449 -0.4118  0.4272
  487TIP3   OH2 1424   5.708   2.250   0.716 -0.4374  0.0574  0.0855
  487TIP3    H1 1425   5.708   2.180   0.650  0.0100 -1.1605  1.3197
  487TIP3    H2 1426   5.619   2.285   0.714 -1.2353 -1.8000  0.6762
  488TIP3   OH2 1427   6.009   3.427   1.426  0.3986  0.8898  0.2852
  488TIP3    H1 1428   6.075   3.421   1.357  0.9470  2.1904  0.6602
  488TIP3    H2 1429   6.059   3.453   1.504 -0.2305 -0.3597  1.1429
  489TIP3   OH2 1430   6.907   3.313   3.835 -0.2066 -0.6644  0.0521
  489TIP3    H1 1431   6.984   3.365   3.811 -0.7433  1.3678  2.3155
  489TIP3    H2 1432   6.877   3.276   3.753  1.9226  0.2544 -1.2337
  490TIP3   OH2 1433   2.833   3.445   1.620 -0.3370 -0.2144  0.1274
  490TIP3    H1 1434   2.824   3.513   1.687 -1.4222 -0.8534  0.6645
  490TIP3    H2 1435   2.743   3.414   1.606 -0.1223 -0.1442 -1.5763
  491TIP3   OH2 1436   0.715   6.040   4.607 -0.3820  0.4819  0.0781
  491TIP3    H1 1437   0.645   5.992   4.561 -1.0767  0.7315  0.8636
  491TIP3    H2 1438   0.674   6.121   4.636  0.4001  0.9004  0.0417
  492TIP3   OH2 1439   0.359   6.491   2.386  0.2064  0.2298 -0.1598
  492TIP3    H1 1440   0.309   6.409   2.388  1.7741 -0.7384  1.2129
  492TIP3    H2 1441   0.447   6.467   2.414  0.6761  2.4139  0.4436
  493TIP3   OH2 1442   0.046   2.803   2.893 -0.0084 -0.4696  0.3461
  493TIP3    H1 1443   0.116   2.854   2.933 -0.2537 -0.5428  0.8742
  493TIP3    H2 1444   0.029   2.847   2.810 -1.0811  1.0851  1.3414
  494TIP3   OH2 1445   3.552   6.554   2.792 -0.1486  0.1438 -0.0341
  494TIP3    H1 1446   3.610   6.594   2.857  1.6911 -0.0057 -1.5093
  494TIP3    H2 1447   3.493   6.625   2.767  0.4390  0.7827  0.3254
  495TIP3   OH2 1448   6.876   0.065   5.428  0.2418 -0.0678  0.0989
  495TIP3    H1 1449   6.951   0.062   5.368  0.3198 -0.7167  0.2234
  495TIP3    H2 1450   6.803   0.031   5.378  0.0862  0.3135  0.0634
  496TIP3   OH2 1451   3.067   3.668   0.776 -0.1332 -0.0560  0.8032
  496TIP3    H1 1452   3.138   3.695   0.834  0.4881  0.2752 -0.0847
  496TIP3    H2 1453   2.993   3.651   0.834  0.8459 -1.0076  1.8245
  497TIP3   OH2 1454   0.556   5.688   1.893  0.5743  0.2295  0.6297
  497TIP3    H1 1455   0.534   5.752   1.825  0.2386  0.2541  0.7572
  497TIP3    H2 1456   0.512   5.720   1.971  1.2667  0.3969  0.9532
  498TIP3   OH2 1457   6.656   0.219   1.585 -0.0359 -0.4561 -0.0012
  498TIP3    H1 1458   6.621   0.160   1.651 -1.1164 -0.0451 -0.1810
  498TIP3    H2 1459   6.734   0.174   1.551 -0.2187 -1.2638  0.6155
  499TIP3   OH2 1460   6.250   3.992   5.885  0.0779 -0.2002 -0.3950
  499TIP3    H1 1461   6.170   4.004   5.936  0.9654  0.4143  0.9354
  499TIP3    H2 1462   6.251   4.066   5.824 -0.5980 -0.4930 -0.7730
  500TIP3   OH2 1463   1.006   2.379   2.478 -0.0352  0.3572  0.0897
  500TIP3    H1 1464   1.079   2.437   2.456 -0.6620  1.2749  0.4015
  500TIP3    H2 1465   0.999   2.321   2.402  1.1430  0.1060  0.1416
  501TIP3   OH2 1466   0.127   1.825   0.501 -0.0253 -0.1583 -0.1078
  501TIP3    H1 1467   0.185   1.758   0.464 -0.7408  0.3783 -2.3620
  501TIP3    H2 1468   0.091   1.785   0.580  1.5869 -1.3973  0.0469
  502TIP3   OH2 1469   6.683   0.548   0.757 -0.0358 -0.2814 -0.5609
  502TIP3    H1 1470   6.679   0.578   0.848 -0.6573 -1.2765 -0.2474
  502TIP3    H2 1471   6.632   0.613   0.709  0.9603  0.6983 -0.3440
  503TIP3   OH2 1472   0.279   0.466   4.959  0.1531 -0.0186  0.1201
  503TIP3    H1 1473   0.237   0.447   4.875 -0.4624  0.3045  0.3481
  503TIP3    H2 1474   0.235   0.408   5.021 -0.3045  0.6601  0.4461
  504TIP3   OH2 1475   4.415   2.565   1.377  0.2434 -0.1976 -0.5823
  504TIP3    H1 1476   4.394   2.591   1.466  0.5872 -1.3646 -0.1489
  504TIP3    H2 1477   4.499   2.520   1.384 -0.3211 -1.3980 -1.2965
  505TIP3   OH2 1478   2.381   5.691   5.838  0.0010  0.0296  0.2600
  505TIP3    H1 1479   2.404   5.633   5.765 -0.5175  2.2128 -1.7783
  505TIP3    H2 1480   2.361   5.632   5.910  0.8824 -2.2499 -1.2433
  506TIP3   OH2 1481   4.678   6.717   0.492 -0.4841  0.0628  1.0029
  506TIP3    H1 1482   4.610   6.759   0.439 -0.0034  0.7711  0.9238
  506TIP3    H2 1483   4.649   6.627   0.502 -1.4292  0.3522  0.9673
  507TIP3   OH2 1484   4.371   2.146   1.080 -0.1981 -0.2571  0.8765
  507TIP3    H1 1485   4.439   2.139   1.148  0.2119 -0.7121  0.4304
  507TIP3    H2 1486   4.300   2.195   1.122 -0.7549 -2.1334  2.3094
  508TIP3   OH2 1487   0.665   0.501   1.194  0.3404 -0.1148 -0.4064
  508TIP3    H1 1488   0.618   0.533   1.116  1.4370  1.4706 -0.4695
  508TIP3    H2 1489   0.598   0.456   1.245 -0.9067  0.7407 -1.2195
  509TIP3   OH2 1490   6.419   6.485   3.051 -0.0347 -0.2169 -0.0289
  509TIP3    H1 1491   6.371   6.564   3.076  2.3543  1.1693  0.5258
  509TIP3    H2 1492   6.467   6.460   3.129  3.5122  1.1334 -1.5479
  510TIP3   OH2 1493   0.634   2.465   5.311  0.1502 -0.1945  0.1556
  510TIP3    H1 1494   0.686   2.514   5.247  0.9099 -0.8964  0.2096
  510TIP3    H2 1495   0.629   2.377   5.275  1.6614 -0.9371  1.6123
  511TIP3   OH2 1496   0.663   1.544   2.804 -0.3821  0.0908 -0.0114
  511TIP3    H1 1497   0.690   1.537   2.896  1.4257 -2.5415 -0.6083
  511TIP3    H2 1498   0.586   1.489   2.797 -0.7996  0.6657 -0.0045
  512TIP3   OH2 1499   3.057   4.317   5.105 -0.2779  0.1286  0.0500
  512TIP3    H1 1500   3.138   4.368   5.106  0.4011 -0.9172  1.7576
  512TIP3    H2 1501   3.000   4.363   5.166 -0.7079  0.4153 -0.5574
  513TIP3   OH2 1502   4.658   5.220   2.607  0.3620 -0.2351 -0.0231
  513TIP3    H1 1503   4.571   5.192   2.635  0.1611  0.5158  0.1199
  513TIP3    H2 1504   4.643   5.290   2.543  0.8559 -0.1163 -0.0206
  514TIP3   OH2 1505   5.256   0.021   3.897 -0.4741 -0.5491  0.2891
  514TIP3    H1 1506   5.327   0.028   3.962 -0.8982  0.2895  0.6893
  514TIP3    H2 1507   5.177   0.040   3.947 -1.2886 -3.6302  0.3458
  515TIP3   OH2 1508   4.447   4.768   1.015  0.1823 -0.3680 -0.4863
  515TIP3    H1 1509   4.369   4.712   1.017  0.4541 -0.7749 -1.1236
  515TIP3    H2 1510   4.421   4.846   1.065  0.0743 -1.4060  1.1467
  516TIP3   OH2 1511   3.822   1.939   5.304  0.1434  0.3432 -0.6852
  516TIP3    H1 1512   3.754   1.872   5.315  0.3306  0.2182 -0.2575
  516TIP3    H2 1513   3.824   1.956   5.210  0.0420 -0.1983 -0.7913
  517TIP3   OH2 1514   4.769   0.282   3.834 -0.1115 -0.3360  0.3963
  517TIP3    H1 1515   4.692   0.246   3.790 -0.1226  0.9808 -0.7276
  517TIP3    H2 1516   4.785   0.222   3.908 -1.2104 -1.5466 -0.3094
  518TIP3   OH2 1517   0.694   1.054   3.558  0.5444  0.2075  0.3442
  518TIP3    H1 1518   0.708   1.016   3.471 -1.7883  0.6647 -0.3067
  518TIP3    H2 1519   0.764   1.018   3.612  1.0521 -1.4356 -1.3237
  519TIP3   OH2 1520   3.300   2.366   4.652  0.2624  0.0928 -0.2361
  519TIP3    H1 1521   3.247   2.317   4.715  0.2719  1.5840  0.9918
  519TIP3    H2 1522   3.390   2.351   4.681  0.2071  2.0471  1.1727
  520TIP3   OH2 1523   6.256   1.373   0.471 -0.4151  0.3730  0.6499
  520TIP3    H1 1524   6.326   1.415   0.421  1.2666 -0.6259  2.0641
  520TIP3    H2 1525   6.264   1.411   0.559 -2.4435  1.0993  0.5829
  521TIP3   OH2 1526   4.690   4.238   5.826 -0.4448  0.3095  0.0501
  521TIP3    H1 1527   4.678   4.301   5.897  0.4400  0.8458 -0.2555
  521TIP3    H2 1528   4.719   4.291   5.752  0.4742 -0.4602 -0.1695
  522TIP3   OH2 1529   5.838   3.177   5.400 -0.3002  0.3119 -0.1190
  522TIP3    H1 1530   5.754   3.161   5.357 -0.4308 -0.4394  0.3921
  522TIP3    H2 1531   5.816   3.234   5.474 -0.4888 -0.4840  0.4503
  523TIP3   OH2 1532   3.178   5.589   1.019 -0.0443 -0.1714 -0.2059
  523TIP3    H1 1533   3.114   5.549   1.078 -1.0825  1.0203 -0.4696
  523TIP3    H2 1534   3.140   5.674   0.997  0.2966 -0.5620 -2.5918
  524TIP3   OH2 1535   4.769   6.025   2.535  0.7702 -0.0615 -0.0483
  524TIP3    H1 1536   4.807   6.081   2.467  0.7208 -0.8876 -0.7819
  524TIP3    H2 1537   4.705   5.972   2.488 -0.1641  0.2191  0.8881
  525TIP3   OH2 1538   4.346   0.569   2.612 -0.1354 -0.0125  0.0982
  525TIP3    H1 1539   4.299   0.570   2.529  0.3710  2.3876 -0.2280
  525TIP3    H2 1540   4.278   0.578   2.678 -0.3503  1.3451 -0.2669
  526TIP3   OH2 1541   2.859   3.203   3.338 -0.2408 -0.2606  0.0816
  526TIP3    H1 1542   2.932   3.203   3.400 -0.9492 -0.8224  0.9361
  526TIP3    H2 1543   2.788   3.159   3.385 -1.1419  0.3056 -0.7244
  527TIP3   OH2 1544   2.373   2.402   3.583  0.2504  0.2171 -0.1224
  527TIP3    H1 1545   2.374   2.403   3.679  0.9348 -0.5549 -0.1137
  527TIP3    H2 1546   2.465   2.398   3.558  0.0439 -0.6259 -0.7957
  528TIP3   OH2 1547   2.067   4.170   0.785 -0.1800  0.1445 -0.2142
  528TIP3    H1 1548   2.145   4.120   0.807  0.2121  0.6216 -0.5105
  528TIP3    H2 1549   2.008   4.156   0.860 -0.7066 -2.0032 -0.9388
  529TIP3   OH2 1550   2.964   0.333   0.256 -0.1284 -0.3043  0.1924
  529TIP3    H1 1551   2.910   0.258   0.281  0.0354 -0.2471  0.7389
  529TIP3    H2 1552   2.907   0.388   0.202 -0.0676 -1.1062 -0.6956
  530TIP3   OH2 1553   6.289   4.704   2.847  0.6504 -0.0264  0.5086
  530TIP3    H1 1554   6.350   4.653   2.796  2.5523  1.1979  1.4451
  530TIP3    H2 1555   6.329   4.791   2.855 -1.4138  0.9873  0.7971
  531TIP3   OH2 1556   5.235   2.212   3.398  0.2844  0.3795 -0.6136
  531TIP3    H1 1557   5.265   2.235   3.486  1.3882  0.2240 -0.9356
  531TIP3    H2 1558   5.226   2.296   3.353 -0.0448  0.4448 -0.4262
  532TIP3   OH2 1559   2.145   3.626   2.021 -0.2905 -0.4408 -0.2117
  532TIP3    H1 1560   2.117   3.543   2.061 -1.1109  0.8449  2.0715
  532TIP3    H2 1561   2.220   3.654   2.074  0.1168  0.1715 -1.0912
  533TIP3   OH2 1562   3.762   6.425   2.628 -0.1331  0.4670  0.0112
  533TIP3    H1 1563   3.687   6.433   2.569 -1.5417 -0.4728  1.5894
  533TIP3    H2 1564   3.736   6.474   2.706  0.8840  0.0725  0.6159
  534TIP3   OH2 1565   6.032   6.501   4.148 -0.3329 -0.0503  0.2124
  534TIP3    H1 1566   6.016   6.412   4.116 -0.2422  1.0125 -3.1751
  534TIP3    H2 1567   6.127   6.512   4.140 -0.1862  0.0365  1.7386
  535TIP3   OH2 1568   1.332   4.010   1.762  0.0584  0.0383 -0.5181
  535TIP3    H1 1569   1.390   4.033   1.834  0.6320  0.1351 -1.0014
  535TIP3    H2 1570   1.362   4.065   1.689 -0.7563  0.2198 -0.7281
  536TIP3   OH2 1571   4.675   1.908   5.024  0.1073  0.0819 -0.9550
  536TIP3    H1 1572   4.736   1.904   4.950  3.7936  0.0171  1.7455
  536TIP3    H2 1573   4.719   1.857   5.093 -1.3403  2.8673  2.3238
  537TIP3   OH2 1574   3.566   4.128   0.749  0.1107 -0.1046 -0.0624
  537TIP3    H1 1575   3.557   4.058   0.685 -0.4350  0.6520 -0.8392
  537TIP3    H2 1576   3.632   4.187   0.712  0.5542 -0.1909  0.5738
  538TIP3   OH2 1577   1.199   6.513   2.084 -0.2403  0.2868 -0.2264
  538TIP3    H1 1578   1.239   6.472   2.008 -0.4926 -1.0295  0.3118
  538TIP3    H2 1579   1.273   6.538   2.140 -0.0976 -0.0099 -0.2826
  539TIP3   OH2 1580   6.288   1.565   0.018 -0.6675  0.2182 -0.1272
  539TIP3    H1 1581   6.309   1.654   0.048 -0.2147  0.1178 -0.1364
  539TIP3    H2 1582   6.374   1.525   0.001 -0.7866 -0.7334  1.3435
  540TIP3   OH2 1583   2.809   1.631   1.277 -0.0014 -0.1475  0.0121
  540TIP3    H1 1584   2.859   1.641   1.196 -1.4799 -0.2943 -0.9485
  540TIP3    H2 1585   2.733   1.687   1.265 -0.6195 -0.7507  1.0084
  541TIP3   OH2 1586   1.577   3.665   1.930 -0.4550  0.4273  0.1757
  541TIP3    H1 1587   1.564   3.719   2.009 -1.2591 -0.2248  0.5058
  541TIP3    H2 1588   1.492   3.668   1.886 -0.3274 -0.1006 -0.1067
  542TIP3   OH2 1589   2.250   2.373   2.348 -0.5174  0.2734  0.5622
  542TIP3    H1 1590   2.184   2.360   2.416 -2.5570  2.3321 -0.8729
  542TIP3    H2 1591   2.238   2.299   2.288  1.4145 -1.6559  2.3604
  543TIP3   OH2 1592   4.471   1.308   4.757 -0.1659  0.1068 -0.1734
  543TIP3    H1 1593   4.495   1.220   4.728 -0.3082  0.4982 -1.5299
  543TIP3    H2 1594   4.551   1.343   4.797  0.0266 -0.4589 -0.0581
  544TIP3   OH2 1595   5.285   1.163   1.464 -0.1577  0.5101 -0.1423
  544TIP3    H1 1596   5.260   1.229   1.529 -1.6748 -0.0960 -0.0713
  544TIP3    H2 1597   5.287   1.210   1.381  1.1489  1.1446  0.2194
  545TIP3   OH2 1598   2.522   1.737   1.937  0.1912 -0.0608  0.9457
  545TIP3    H1 1599   2.490   1.788   2.012 -0.4010  0.9169  0.0477
  545TIP3    H2 1600   2.473   1.655   1.941 -1.2181  0.7366  0.5744
  546TIP3   OH2 1601   3.119   4.496   1.034  0.1193  0.1243  0.4092
  546TIP3    H1 1602   3.053   4.564   1.036 -0.3243 -0.2933  0.1391
  546TIP3    H2 1603   3.125   4.466   1.125  0.0489  0.2669  0.4612
  547TIP3   OH2 1604   5.575   2.856   2.735  0.7537  0.6501  0.6420
  547TIP3    H1 1605   5.654   2.861   2.681  2.1525  0.5592  2.5848
  547TIP3    H2 1606   5.534   2.773   2.711  1.9746  0.0619  0.5305
  548TIP3   OH2 1607   3.283   6.785   3.486 -0.6045 -0.2964 -0.1791
  548TIP3    H1 1608   3.295   6.777   3.580 -0.2786  2.5085  0.1035
  548TIP3    H2 1609   3.193   6.818   3.476 -1.3587 -2.4426 -1.0326
  549TIP3   OH2 1610   2.108   6.309   3.018  0.3311 -0.8733  0.1117
  549TIP3    H1 1611   2.175   6.296   3.085  0.2012 -2.2467  0.0057
  549TIP3    H2 1612   2.143   6.377   2.962 -0.0546  1.1706  2.1910
  550TIP3   OH2 1613   3.641   1.682   2.246  0.7925  0.5829 -0.1344
  550TIP3    H1 1614   3.677   1.712   2.162 -0.1550  0.8775 -0.4447
  550TIP3    H2 1615   3.688   1.600   2.264 -1.4803 -1.5123 -2.8027
  551TIP3   OH2 1616   1.056   4.371   3.106 -0.1055 -0.0986 -0.0605
  551TIP3    H1 1617   0.965   4.357   3.132  0.1374 -0.3844  0.6752
  551TIP3    H2 1618   1.090   4.283   3.089  0.0884 -0.0092 -0.1398
  552TIP3   OH2 1619   0.812   5.460   5.190  0.3975  0.4881 -0.5877
  552TIP3    H1 1620   0.865   5.522   5.140  0.7764  0.6310 -0.0208
  552TIP3    H2 1621   0.874   5.421   5.252 -0.1097  0.4910 -0.0728
  553TIP3   OH2 1622   4.114   0.024   1.747 -0.6538 -0.4594 -0.3629
  553TIP3    H1 1623   4.019   0.013   1.739 -0.5244 -0.8132 -1.6660
  553TIP3    H2 1624   4.149  -0.019   1.670  0.4631  1.1980 -0.8294
  554TIP3   OH2 1625   4.104   3.052   1.346 -0.1177  0.2785  0.1719
  554TIP3    H1 1626   4.155   3.047   1.427  0.0251  1.0743  0.1377
  554TIP3    H2 1627   4.098   2.962   1.316  1.6387  0.2050 -0.0392
  555TIP3   OH2 1628   6.807   6.783   1.577 -0.2780  0.1098 -0.1421
  555TIP3    H1 1629   6.804   6.696   1.538 -1.2491 -0.2658  0.7128
  555TIP3    H2 1630   6.746   6.835   1.525 -0.3784  0.0300 -0.1060
  556TIP3   OH2 1631   3.354   1.313   4.408 -0.8670 -0.0953  0.1512
  556TIP3    H1 1632   3.293   1.381   4.437 -0.7676 -0.4160  1.1536
  556TIP3    H2 1633   3.427   1.361   4.368 -1.3857  0.3246 -0.3021
  557TIP3   OH2 1634   2.236   5.354   0.825  0.1702 -0.3891  0.1074
  557TIP3    H1 1635   2.208   5.310   0.905  0.3174 -0.3752  0.1660
  557TIP3    H2 1636   2.311   5.407   0.851  0.6666 -0.9368 -0.1870
  558TIP3   OH2 1637   3.060   1.492   3.376  0.2337  0.0089  0.0069
  558TIP3    H1 1638   3.107   1.472   3.458  2.0767 -1.6250 -1.3469
  558TIP3    H2 1639   3.077   1.585   3.362  0.8077  0.0697  0.9418
  559TIP3   OH2 1640   0.681   2.678   4.757 -0.0585 -0.4871 -0.2255
  559TIP3    H1 1641   0.626   2.721   4.823  0.8935 -0.5012  0.6089
  559TIP3    H2 1642   0.699   2.745   4.692  1.0891  0.3197  0.8634
  560TIP3   OH2 1643   1.077   3.075   0.476  0.1786 -0.2826  0.2918
  560TIP3    H1 1644   1.166   3.051   0.447  0.3046 -1.7007  1.6938
  560TIP3    H2 1645   1.081   3.069   0.571 -0.5435  2.9884  0.6341
  561TIP3   OH2 1646   4.844   2.130   0.953  0.7131 -0.1173  0.3597
  561TIP3    H1 1647   4.766   2.169   0.914  0.5014  0.1929  1.0746
  561TIP3    H2 1648   4.837   2.037   0.933  0.6287  0.0416 -0.3680
  562TIP3   OH2 1649   5.264   3.737   1.732 -0.0703 -0.0676 -0.2187
  562TIP3    H1 1650   5.316   3.684   1.671  0.5117 -0.9550  1.0127
  562TIP3    H2 1651   5.311   3.820   1.738  1.5835 -1.0656  1.3274
  563TIP3   OH2 1652   3.325   1.126   1.035  0.7320  0.1345  0.5374
  563TIP3    H1 1653   3.333   1.046   0.982 -0.1694  0.8131 -0.6826
  563TIP3    H2 1654   3.412   1.140   1.071  1.2545 -0.6353 -0.3706
  564TIP3   OH2 1655   0.460   5.211   1.623  0.2717  0.6341 -0.3129
  564TIP3    H1 1656   0.491   5.251   1.541  1.5341  2.2284  0.8704
  564TIP3    H2 1657   0.539   5.177   1.665 -0.5179 -1.2818 -0.2785
  565TIP3   OH2 1658   5.034   3.846   3.432  0.2079 -0.2780  0.1763
  565TIP3    H1 1659   5.051   3.835   3.526  0.4970 -0.6555  0.0796
  565TIP3    H2 1660   4.977   3.923   3.428 -3.3078 -2.6011  1.0243
  566TIP3   OH2 1661   6.410   0.759   2.093  0.2100  0.3127  0.1061
  566TIP3    H1 1662   6.459   0.773   2.012 -0.2042 -0.6040 -0.3095
  566TIP3    H2 1663   6.477   0.734   2.157  0.1420 -3.1807 -0.9916
  567TIP3   OH2 1664   0.635   5.863   2.322  0.6190  0.2069  0.4245
  567TIP3    H1 1665   0.558   5.911   2.353  0.5563 -0.0965  0.7455
  567TIP3    H2 1666   0.670   5.821   2.401  0.1777 -0.9624  0.0158
  568TIP3   OH2 1667   0.300   1.716   4.441  0.5436 -0.5066  0.3466
  568TIP3    H1 1668   0.260   1.630   4.457  0.6151 -0.6295 -0.1070
  568TIP3    H2 1669   0.315   1.753   4.528  1.9016 -1.5843  0.5940
  569TIP3   OH2 1670   4.381   5.090   2.332  0.3976  0.0399  0.3411
  569TIP3    H1 1671   4.370   5.058   2.421  1.4249  0.2613  0.5578
  569TIP3    H2 1672   4.412   5.014   2.283  0.5400  0.0992  0.3377
  570TIP3   OH2 1673   3.868   4.417   2.745  0.2798  0.4781  0.1022
  570TIP3    H1 1674   3.862   4.378   2.658  1.8375 -0.3996  0.3533
  570TIP3    H2 1675   3.920   4.355   2.796 -0.8240  0.8378  1.7517
  571TIP3   OH2 1676   5.134   5.990   4.129  0.1265  0.0769 -0.4049
  571TIP3    H1 1677   5.068   6.059   4.120 -0.4205 -0.5772 -1.6532
  571TIP3    H2 1678   5.156   5.991   4.222 -2.3804 -0.3314  0.2866
  572TIP3   OH2 1679   5.125   3.487   1.331  0.3054 -0.1524  0.1247
  572TIP3    H1 1680   5.078   3.414   1.291  0.0967  1.6236 -3.1353
  572TIP3    H2 1681   5.180   3.445   1.398 -2.1990 -2.8342  0.7186
  573TIP3   OH2 1682   1.953   5.123   4.215  0.7924  0.1414  0.2982
  573TIP3    H1 1683   1.881   5.178   4.248  0.5856  0.8896 -1.3084
  573TIP3    H2 1684   1.924   5.033   4.231  0.1566  0.4495  0.9626
  574TIP3   OH2 1685   6.556   6.184   2.923  0.3562 -0.0562 -0.0331
  574TIP3    H1 1686   6.552   6.195   3.018  0.1783 -0.3989  0.0016
  574TIP3    H2 1687   6.466   6.169   2.897  0.4040  0.0452 -0.2592
  575TIP3   OH2 1688   0.909   5.011   5.792  0.5220  0.1917  0.0740
  575TIP3    H1 1689   0.997   5.048   5.798  0.4789  0.3124 -0.0633
  575TIP3    H2 1690   0.854   5.072   5.841  0.3820  0.5240 -0.4853
  576TIP3   OH2 1691   3.902   1.870   4.474  0.1942  0.1346 -0.1707
  576TIP3    H1 1692   3.822   1.819   4.476  0.1948  0.1001 -1.0155
  576TIP3    H2 1693   3.888   1.939   4.539 -0.8260  0.5821 -0.8546
  577TIP3   OH2 1694   0.338   5.375   3.272 -0.5251  0.2346 -0.4282
  577TIP3    H1 1695   0.252   5.338   3.251 -1.2550  0.8470  1.3345
  577TIP3    H2 1696   0.322   5.434   3.346  1.6090 -0.5740  0.7616
  578TIP3   OH2 1697   4.887   1.426   4.680 -0.3071 -0.6283  0.5571
  578TIP3    H1 1698   4.825   1.449   4.611  0.0096 -1.6327 -0.0804
  578TIP3    H2 1699   4.907   1.509   4.723 -0.5382  0.0042 -0.5347
  579TIP3   OH2 1700   4.714   2.469   0.098  0.1185  0.1373 -0.0405
  579TIP3    H1 1701   4.642   2.411   0.074 -0.2522  0.2227  0.8214
  579TIP3    H2 1702   4.678   2.557   0.088 -0.1716  0.1755  1.1301
  580TIP3   OH2 1703   6.856   3.429   1.213 -0.1820 -0.5061 -0.2946
  580TIP3    H1 1704   6.769   3.444   1.175  0.7277  2.4085 -1.5250
  580TIP3    H2 1705   6.894   3.360   1.159 -0.9304 -0.2231 -1.2201
  581TIP3   OH2 1706   0.578   5.276   3.167 -0.2224 -0.2967  0.0943
  581TIP3    H1 1707   0.494   5.319   3.181 -0.2287 -0.8404  1.8908
  581TIP3    H2 1708   0.560   5.182   3.179  0.1649 -0.6910 -1.9514
  582TIP3   OH2 1709   0.468   4.136   4.898  0.0820 -0.1368 -0.0575
  582TIP3    H1 1710   0.400   4.082   4.937  0.0878 -0.9917 -1.1738
  582TIP3    H2 1711   0.548   4.109   4.942  0.3389 -2.2052 -1.6200
  583TIP3   OH2 1712   5.877   3.613   5.364 -0.4640 -0.1701  0.8499
  583TIP3    H1 1713   5.862   3.612   5.270 -1.8429  3.9575  0.8488
  583TIP3    H2 1714   5.969   3.585   5.373  0.5427  1.7163 -2.0147
  584TIP3   OH2 1715   3.531   0.353   4.491 -0.3732 -0.3164 -0.6762
  584TIP3    H1 1716   3.523   0.300   4.571  1.1379  2.7145  1.7178
  584TIP3    H2 1717   3.587   0.301   4.433 -0.8319 -2.2861  0.5455
  585TIP3   OH2 1718   1.850   4.176   3.439  0.4127 -0.2458  0.2502
  585TIP3    H1 1719   1.877   4.162   3.348  1.6501  1.1578  0.3555
  585TIP3    H2 1720   1.781   4.243   3.434  2.8214  2.4344  0.4840
  586TIP3   OH2 1721   5.680   2.832   4.671  0.3070 -0.3654  0.6073
  586TIP3    H1 1722   5.633   2.760   4.628 -0.5834  0.0754  0.8318
  586TIP3    H2 1723   5.758   2.790   4.708  0.3761 -1.0098 -0.2237
  587TIP3   OH2 1724   6.795   6.333   5.025 -0.3590  0.5569  0.5521
  587TIP3    H1 1725   6.779   6.396   5.095  3.4780  1.1722  1.0803
  587TIP3    H2 1726   6.802   6.387   4.946 -1.4501  0.2366  0.2256
  588TIP3   OH2 1727   1.189   1.699   3.603 -0.5798 -0.4808  0.5400
  588TIP3    H1 1728   1.257   1.713   3.669  1.5721 -1.3828 -1.3162
  588TIP3    H2 1729   1.230   1.639   3.540 -2.0699  1.1543 -2.1668
  589TIP3   OH2 1730   2.294   2.327   0.574  0.1043  0.2214 -0.5975
  589TIP3    H1 1731   2.371   2.272   0.583 -0.3549 -0.2400  0.6675
  589TIP3    H2 1732   2.322   2.398   0.515  0.9831 -0.8211 -1.4814
  590TIP3   OH2 1733   0.387   4.516   4.668 -0.7217 -0.4738  0.3057
  590TIP3    H1 1734   0.448   4.466   4.614 -0.4675 -0.7424  0.8337
  590TIP3    H2 1735   0.348   4.451   4.726 -0.2576 -0.0295  1.1228
  591TIP3   OH2 1736   2.629   1.208   2.742 -0.3197 -0.1286 -0.0511
  591TIP3    H1 1737   2.589   1.129   2.707 -0.3992 -0.5855  1.0228
  591TIP3    H2 1738   2.592   1.280   2.690 -0.8175 -0.7274 -0.5368
  592TIP3   OH2 1739   2.559   1.175   1.041  0.3542 -0.2632  0.3960
  592TIP3    H1 1740   2.482   1.121   1.060  0.1071  0.0745  0.3721
  592TIP3    H2 1741   2.633   1.125   1.075 -0.0773  0.3402  2.2959
  593TIP3   OH2 1742   6.683   5.866   5.178  0.0414  0.1795 -0.0146
  593TIP3    H1 1743   6.773   5.837   5.163 -0.1113 -0.3743  0.0978
  593TIP3    H2 1744   6.691   5.953   5.216  0.5060  0.6113 -1.0654
  594TIP3   OH2 1745   5.587   2.702   3.409 -0.1468 -0.4174 -0.5264
  594TIP3    H1 1746   5.591   2.710   3.314  3.6587  1.2832 -0.3854
  594TIP3    H2 1747   5.577   2.791   3.441  1.4040 -0.6190  0.6599
  595TIP3   OH2 1748   5.576   0.433   4.328  0.4618 -0.4984  0.5178
  595TIP3    H1 1749   5.647   0.416   4.390  0.7244  1.9084  0.9902
  595TIP3    H2 1750   5.498   0.395   4.368  1.0793 -1.1579  1.1050
  596TIP3   OH2 1751   6.246   1.858   4.216  0.4375  0.1535 -0.0057
  596TIP3    H1 1752   6.226   1.924   4.283 -0.9072  0.6315 -0.8370
  596TIP3    H2 1753   6.231   1.775   4.260  0.1832  0.4460  0.4777
  597TIP3   OH2 1754   1.288   5.054   0.465 -0.4128 -0.1343 -0.3025
  597TIP3    H1 1755   1.332   4.990   0.522  0.2127  1.3157  0.9247
  597TIP3    H2 1756   1.196   5.028   0.467 -0.0121 -1.7295 -0.8675
  598TIP3   OH2 1757   0.153   0.560   0.374  0.6576 -0.2934 -0.0360
  598TIP3    H1 1758   0.181   0.585   0.462  1.9878 -0.1084 -0.4828
  598TIP3    H2 1759   0.081   0.620   0.353  0.3389 -0.3319  0.9075
  599TIP3   OH2 1760   3.336   2.822   0.483 -0.2490  0.0958  0.6336
  599TIP3    H1 1761   3.411   2.848   0.430 -1.1557 -0.4482 -0.9659
  599TIP3    H2 1762   3.311   2.902   0.529 -0.5607  1.0908 -1.1816
  600TIP3   OH2 1763   1.925   1.340   4.013  0.3960 -0.4222 -0.0278
  600TIP3    H1 1764   1.846   1.338   4.067  0.0760 -0.2434 -0.4822
  600TIP3    H2 1765   1.981   1.272   4.050  1.2741  1.3381  2.1468
  601TIP3   OH2 1766   5.449   1.127   1.884 -0.0106 -0.0155  0.0899
  601TIP3    H1 1767   5.470   1.200   1.826  0.9148 -0.0411  0.3866
  601TIP3    H2 1768   5.420   1.057   1.826  2.7997 -0.7402 -0.5589
  602TIP3   OH2 1769   4.587   0.423   1.592 -0.0057 -0.3444 -0.2174
  602TIP3    H1 1770   4.676   0.387   1.598 -0.5911 -1.6844  1.2988
  602TIP3    H2 1771   4.572   0.464   1.678 -0.5989  0.5534 -0.7276
  603TIP3   OH2 1772   0.358   4.560   3.138 -0.5437 -0.7803  0.1844
  603TIP3    H1 1773   0.394   4.600   3.217 -0.7608  0.6659 -0.4200
  603TIP3    H2 1774   0.435   4.536   3.086 -0.4066 -0.1676  0.0939
  604TIP3   OH2 1775   3.260   6.437   5.920 -0.2615  0.0241  0.2109
  604TIP3    H1 1776   3.179   6.455   5.872 -0.1787 -1.8472 -0.7293
  604TIP3    H2 1777   3.329   6.442   5.854  0.0844 -0.7220  0.5000
  605TIP3   OH2 1778   4.195   6.648   2.156 -0.3079  0.2940  0.3435
  605TIP3    H1 1779   4.232   6.562   2.138 -2.4296 -0.8888  1.2786
  605TIP3    H2 1780   4.128   6.661   2.089 -1.5644  0.1705  1.5362
  606TIP3   OH2 1781   4.685   2.280   3.653 -0.0563 -0.0867  0.1058
  606TIP3    H1 1782   4.780   2.265   3.657 -0.1193 -0.5255 -0.0279
  606TIP3    H2 1783   4.648   2.195   3.632 -0.6189 -0.2785  1.7441
  607TIP3   OH2 1784   2.698   5.246   1.114 -0.1050 -0.4571  0.2390
  607TIP3    H1 1785   2.738   5.251   1.201 -0.5075  0.9254  0.3818
  607TIP3    H2 1786   2.771   5.254   1.054  0.0433  0.1140  0.4827
  608TIP3   OH2 1787   6.805   3.758   2.978  0.0363  0.2622  0.2103
  608TIP3    H1 1788   6.772   3.668   2.982 -0.7488  0.5773  1.3728
  608TIP3    H2 1789   6.726   3.812   2.970  0.2882  0.9822  2.0795
  609TIP3   OH2 1790   0.163   4.416   2.535  0.4827  0.3925  0.6301
  609TIP3    H1 1791   0.193   4.493   2.583 -2.7121  0.1784  3.3684
  609TIP3    H2 1792   0.101   4.450   2.471 -0.1347  0.2305  1.1274
  610TIP3   OH2 1793   1.737   2.028   1.880  0.1305  0.1089 -0.4122
  610TIP3    H1 1794   1.766   2.044   1.790  1.0323 -1.7616 -0.4946
  610TIP3    H2 1795   1.686   1.947   1.875 -2.0313  1.3278  0.3856
  611TIP3   OH2 1796   0.805   1.929   4.776 -0.2690  0.0564  0.3572
  611TIP3    H1 1797   0.900   1.925   4.764 -0.2935  0.9281 -0.2259
  611TIP3    H2 1798   0.792   1.909   4.869  0.3220 -1.9182  0.0524
  612TIP3   OH2 1799   2.137   2.024   1.699 -0.0639 -0.4288 -1.0270
  612TIP3    H1 1800   2.105   2.114   1.691  0.3658 -0.3015 -1.3627
  612TIP3    H2 1801   2.141   1.992   1.609 -0.3094 -0.8189 -0.9014
  613TIP3   OH2 1802   6.306   5.314   2.869  0.0624 -0.3112  0.3382
  613TIP3    H1 1803   6.397   5.287   2.886 -0.4236 -0.6507  2.8467
  613TIP3    H2 1804   6.308   5.352   2.781  1.9119 -3.5014 -1.1642
  614TIP3   OH2 1805   0.104   3.455   1.261 -0.3699  0.1317  0.1255
  614TIP3    H1 1806   0.070   3.407   1.337 -0.2513  0.5622  0.4552
  614TIP3    H2 1807   0.192   3.421   1.248 -0.9203 -1.0414 -0.7752
  615TIP3   OH2 1808   2.526   0.796   1.416 -0.0978 -0.8739  0.2812
  615TIP3    H1 1809   2.539   0.708   1.452 -0.5057 -0.4430  1.5412
  615TIP3    H2 1810   2.611   0.820   1.379 -0.3327 -2.3027 -1.2803
  616TIP3   OH2 1811   5.309   4.338   2.240 -0.3560 -0.3228 -1.0352
  616TIP3    H1 1812   5.338   4.247   2.237  1.3493  0.0743  1.1706
  616TIP3    H2 1813   5.237   4.338   2.304 -0.3001 -0.0922 -0.9708
  617TIP3   OH2 1814   1.428   0.595   2.826  0.1502 -0.0269  0.1140
  617TIP3    H1 1815   1.408   0.556   2.741  0.5171  0.2636 -0.1096
  617TIP3    H2 1816   1.387   0.682   2.822 -0.8927 -0.4685  0.7096
  618TIP3   OH2 1817   7.229   6.776   1.809  0.0264 -0.2805  0.2425
  618TIP3    H1 1818   7.135   6.796   1.803 -0.1204 -1.1589 -0.6277
  618TIP3    H2 1819   7.235   6.705   1.872 -0.0793 -1.2795 -0.8458
  619TIP3   OH2 1820   5.751   5.323   3.092  0.3282 -0.0551  0.3129
  619TIP3    H1 1821   5.786   5.255   3.150 -1.7019 -1.1411  0.3589
  619TIP3    H2 1822   5.657   5.322   3.107 -0.1000  0.7168 -1.8688
  620TIP3   OH2 1823   5.675   4.177   4.048 -0.1665 -0.0311  0.4442
  620TIP3    H1 1824   5.639   4.113   4.110 -0.5707 -0.1329  0.1041
  620TIP3    H2 1825   5.764   4.147   4.031 -0.2460 -0.3159  0.5357
  621TIP3   OH2 1826   5.626   1.883   1.248  0.7680 -0.1927  0.0033
  621TIP3    H1 1827   5.707   1.928   1.274  0.8088 -0.1080 -0.2717
  621TIP3    H2 1828   5.593   1.933   1.173  1.1119 -0.9449 -0.6679
  622TIP3   OH2 1829   0.859   1.015   0.455 -0.4510  0.2397 -0.1785
  622TIP3    H1 1830   0.899   1.069   0.387  0.7796 -0.3843  0.0219
  622TIP3    H2 1831   0.811   0.947   0.408  0.8238 -0.4976 -0.4405
  623TIP3   OH2 1832   0.932   6.462   5.483  0.0088  0.4484 -0.0341
  623TIP3    H1 1833   0.982   6.492   5.559  0.5328  0.1081 -0.2348
  623TIP3    H2 1834   0.842   6.454   5.515  0.2775 -0.0003  0.6515
  624TIP3   OH2 1835   0.883   4.908   0.024 -0.5622 -0.0932 -0.4452
  624TIP3    H1 1836   0.789   4.908   0.042 -0.7017  0.6961 -1.1066
  624TIP3    H2 1837   0.923   4.932   0.107 -1.1697  3.0745 -0.9577
  625TIP3   OH2 1838   4.530   2.319   5.644 -0.0439 -0.0885  0.0473
  625TIP3    H1 1839   4.535   2.352   5.554 -2.4524  1.9857  0.5579
  625TIP3    H2 1840   4.437   2.315   5.663  0.4008  1.1512  3.0043
  626TIP3   OH2 1841   1.981   3.277   5.590 -0.2910 -1.0894  0.1418
  626TIP3    H1 1842   2.038   3.230   5.651 -1.1920 -1.2317  0.9092
  626TIP3    H2 1843   2.030   3.280   5.508  0.4420 -1.9803  0.5308
  627TIP3   OH2 1844   3.186   4.420   5.627 -0.7692  0.1491 -0.1433
  627TIP3    H1 1845   3.273   4.450   5.654 -0.3650 -0.3281 -0.8610
  627TIP3    H2 1846   3.133   4.423   5.707  0.5853 -1.9483  0.9151
  628TIP3   OH2 1847   4.599   3.550   2.758 -0.6141 -0.2774 -0.3049
  628TIP3    H1 1848   4.652   3.572   2.682 -1.4526 -0.6344 -1.0013
  628TIP3    H2 1849   4.662   3.514   2.821 -0.0390 -0.8145 -1.1618
  629TIP3   OH2 1850   1.939   5.157   3.811  0.3621  0.0059  0.2134
  629TIP3    H1 1851   1.916   5.245   3.838  1.7089  0.1139  1.1196
  629TIP3    H2 1852   1.897   5.145   3.726 -0.0353  1.4208  0.2005
  630TIP3   OH2 1853   2.691   5.940   1.715 -0.0844  0.3733 -0.1228
  630TIP3    H1 1854   2.647   5.993   1.782  0.0131  1.0980 -0.6251
  630TIP3    H2 1855   2.778   5.924   1.751 -0.3710 -0.1085  0.3722
  631TIP3   OH2 1856   2.306   3.094   1.553  0.2789  0.2075  0.0551
  631TIP3    H1 1857   2.307   3.004   1.520  0.9183 -0.3276  1.4624
  631TIP3    H2 1858   2.214   3.119   1.551  0.2969  0.3644 -2.4351
  632TIP3   OH2 1859   5.385   2.519   3.096 -0.5535 -0.2098 -0.0344
  632TIP3    H1 1860   5.360   2.568   3.018 -0.3261 -1.4646 -0.9323
  632TIP3    H2 1861   5.456   2.570   3.135 -2.0815  1.5495  0.5919
  633TIP3   OH2 1862   6.709   6.440   3.536 -0.1397 -0.3226 -0.9858
  633TIP3    H1 1863   6.702   6.533   3.555  1.3742 -0.2703 -0.5893
  633TIP3    H2 1864   6.722   6.399   3.622  0.1112 -0.7949 -1.2461
  634TIP3   OH2 1865   4.793   3.260   5.776  0.3025  0.3377  0.0015
  634TIP3    H1 1866   4.746   3.212   5.708 -0.2086  1.6330 -0.5984
  634TIP3    H2 1867   4.837   3.192   5.827 -1.3793 -0.8549 -0.0515
  635TIP3   OH2 1868   4.698   3.187   5.519  0.6650 -0.0528  0.1654
  635TIP3    H1 1869   4.633   3.117   5.529  0.8878 -0.1834  0.8203
  635TIP3    H2 1870   4.746   3.165   5.439  0.1954 -0.2001 -0.0733
  636TIP3   OH2 1871   6.857   2.767   1.280  0.3693 -0.5074  0.5672
  636TIP3    H1 1872   6.931   2.722   1.319  1.8078  1.6931  0.5779
  636TIP3    H2 1873   6.891   2.854   1.258 -1.8924  0.1757 -0.5453
  637TIP3   OH2 1874   2.917   3.709   0.539  0.0679 -0.2585  0.6100
  637TIP3    H1 1875   2.876   3.633   0.498  2.8250 -1.0074 -1.0174
  637TIP3    H2 1876   2.980   3.671   0.600  0.8332  0.7520  0.4568
  638TIP3   OH2 1877   0.118   1.482   4.529 -0.3788 -0.4322 -0.3214
  638TIP3    H1 1878   0.145   1.428   4.604  0.0418 -1.6612 -1.3173
  638TIP3    H2 1879   0.083   1.562   4.569  2.5286  0.2663  1.1452
  639TIP3   OH2 1880   0.788   3.027   4.389 -0.2362  0.3026 -0.3849
  639TIP3    H1 1881   0.830   3.016   4.304 -1.4931  0.2608 -1.0220
  639TIP3    H2 1882   0.709   3.078   4.371  0.1554  1.4580  0.9687
  640TIP3   OH2 1883   3.475   0.498   2.655 -0.4407  0.2164 -0.1762
  640TIP3    H1 1884   3.434   0.416   2.628  1.1815  0.5155 -4.1796
  640TIP3    H2 1885   3.407   0.564   2.640 -0.9507 -0.0802  0.7328
  641TIP3   OH2 1886   3.520   2.858   1.960 -0.1627  0.4077 -0.2776
  641TIP3    H1 1887   3.558   2.828   2.042  0.3987  1.2413 -0.2189
  641TIP3    H2 1888   3.580   2.826   1.893 -0.7486 -0.4773 -0.3910
  642TIP3   OH2 1889   5.249   3.069   3.975 -0.2192  0.2007 -0.5384
  642TIP3    H1 1890   5.265   3.124   4.052 -0.1558  0.6342 -0.8568
  642TIP3    H2 1891   5.214   3.129   3.910  2.0244  0.3687 -1.6835
  643TIP3   OH2 1892   1.630  -0.006   1.425 -0.3355 -0.1368 -0.1836
  643TIP3    H1 1893   1.690   0.065   1.449 -1.3187  0.0008  2.1480
  643TIP3    H2 1894   1.669  -0.045   1.347  0.9994  2.0392 -0.7070
  644TIP3   OH2 1895   5.993   3.642   3.612  0.0106  0.1289 -0.0258
  644TIP3    H1 1896   5.955   3.687   3.538  1.0273  1.5582  0.2845
  644TIP3    H2 1897   5.918   3.608   3.661 -0.6827 -0.6370 -1.5341
  645TIP3   OH2 1898   2.284   4.173   1.013 -0.0661  0.3153  0.4928
  645TIP3    H1 1899   2.287   4.109   0.942  2.6184  0.8020  0.0564
  645TIP3    H2 1900   2.249   4.252   0.972 -1.2422 -0.1821  0.4824
  646TIP3   OH2 1901   4.442   4.000   0.764 -0.4252  0.1003 -0.3163
  646TIP3    H1 1902   4.349   4.001   0.786 -0.3093  0.4252  0.1781
  646TIP3    H2 1903   4.485   4.037   0.841  0.0654  0.4580 -0.7556
  647TIP3   OH2 1904   3.070   3.326   4.143  0.6330 -0.1920  0.2972
  647TIP3    H1 1905   3.075   3.268   4.067  0.2937 -0.8194  0.7435
  647TIP3    H2 1906   3.022   3.403   4.112  0.1412 -0.6219 -0.0230
  648TIP3   OH2 1907   6.882   4.514   4.527 -0.4742  0.1275  0.2981
  648TIP3    H1 1908   6.879   4.592   4.471 -1.4451 -0.7208 -0.8894
  648TIP3    H2 1909   6.948   4.535   4.593 -0.0831  1.6116 -0.5049
  649TIP3   OH2 1910   6.514   2.610   1.746  0.4517 -0.4596 -0.1085
  649TIP3    H1 1911   6.523   2.548   1.673 -0.0010  0.3443 -0.8548
  649TIP3    H2 1912   6.566   2.570   1.817  1.5449 -0.8688 -1.1045
  650TIP3   OH2 1913   3.703   0.396   4.187  0.1264 -0.2668  0.3232
  650TIP3    H1 1914   3.693   0.308   4.223  0.0205 -0.0650  0.7961
  650TIP3    H2 1915   3.793   0.420   4.208 -0.1720  0.1628  1.1845
  651TIP3   OH2 1916   6.768   5.707   3.552 -0.2568  1.1429  0.1598
  651TIP3    H1 1917   6.699   5.657   3.596  1.1143 -0.9646  0.0740
  651TIP3    H2 1918   6.823   5.739   3.623  2.5902 -3.1839  0.3092
  652TIP3   OH2 1919   2.896   1.643   0.644  0.8008 -0.1342  0.5389
  652TIP3    H1 1920   2.864   1.582   0.712 -1.4771 -1.9128 -1.9212
  652TIP3    H2 1921   2.845   1.722   0.657  1.8541  0.3386  2.0993
  653TIP3   OH2 1922   2.184   4.556   3.102 -0.1385 -0.5109 -0.1378
  653TIP3    H1 1923   2.146   4.631   3.057  0.2678  0.5457  1.2029
  653TIP3    H2 1924   2.109   4.510   3.139 -0.2878  0.6514  1.1128
  654TIP3   OH2 1925   0.158   4.430   5.076 -0.2008 -0.1226  0.0062
  654TIP3    H1 1926   0.083   4.489   5.088  0.3306  0.1953  2.1354
  654TIP3    H2 1927   0.118   4.343   5.069 -0.7970 -0.0984  2.2373
  655TIP3   OH2 1928   5.704   3.296   2.662  0.2331 -0.0043 -0.0807
  655TIP3    H1 1929   5.653   3.233   2.713 -0.2160  0.5886  0.2119
  655TIP3    H2 1930   5.718   3.252   2.578 -1.3860  0.0906 -0.4281
  656TIP3   OH2 1931   5.761   4.125   0.522  0.4892  0.0552 -0.6355
  656TIP3    H1 1932   5.848   4.150   0.492  1.4463 -1.3510  0.8252
  656TIP3    H2 1933   5.775   4.046   0.575 -1.4278  0.8141  1.1522
  657TIP3   OH2 1934   0.553   1.077   4.276 -0.7610  0.8032 -0.0504
  657TIP3    H1 1935   0.635   1.105   4.234 -0.2438  0.1615  0.5240
  657TIP3    H2 1936   0.531   0.995   4.232  0.9393 -1.0580  2.3127
  658TIP3   OH2 1937   5.900   2.165   4.803  1.1044 -0.4054  0.3589
  658TIP3    H1 1938   5.833   2.169   4.735  1.9668 -0.0320 -0.4834
  658TIP3    H2 1939   5.873   2.231   4.867  0.8161 -0.0600 -0.1125
  659TIP3   OH2 1940   5.888   1.229   2.447 -0.2619 -0.1694  0.3053
  659TIP3    H1 1941   5.808   1.206   2.495 -0.3171  0.6638  0.6186
  659TIP3    H2 1942   5.938   1.148   2.445 -0.1301 -0.1658  2.0077
  660TIP3   OH2 1943   4.813   5.412   2.737 -0.0493 -0.3437 -0.0599
  660TIP3    H1 1944   4.750   5.340   2.732  0.4292 -0.8683  1.0259
  660TIP3    H2 1945   4.899   5.370   2.730  0.2565  0.0347  1.1958
  661TIP3   OH2 1946   4.320   3.360   0.755  0.0798  0.0869 -0.1283
  661TIP3    H1 1947   4.302   3.341   0.847  0.0212  1.3314  0.1402
  661TIP3    H2 1948   4.310   3.276   0.710  0.0547 -0.5242  0.9888
  662TIP3   OH2 1949   7.121   4.907   0.224  0.2001  0.1051 -0.5370
  662TIP3    H1 1950   7.065   4.903   0.146 -2.2686 -0.9540  1.1635
  662TIP3    H2 1951   7.076   4.852   0.288  1.3928  2.0105  2.1078
  663TIP3   OH2 1952   6.020   1.129   4.764  0.1860 -0.5133 -0.0588
  663TIP3    H1 1953   6.081   1.159   4.697 -1.9935  2.0270 -1.1318
  663TIP3    H2 1954   5.995   1.209   4.811 -2.7377 -1.2510 -0.1279
  664TIP3   OH2 1955   4.687   5.638   4.862  0.5064 -0.0427 -0.3376
  664TIP3    H1 1956   4.705   5.656   4.954  2.1449 -0.7727 -0.4806
  664TIP3    H2 1957   4.721   5.550   4.848  1.6430  0.6091 -1.9900
  665TIP3   OH2 1958   4.544   0.706   0.364  0.2138 -0.0726 -0.0054
  665TIP3    H1 1959   4.469   0.663   0.322 -0.0395  0.6948 -0.3536
  665TIP3    H2 1960   4.505   0.764   0.429  0.4235  1.1808 -0.9591
  666TIP3   OH2 1961   4.369   3.510   2.936 -0.0168  0.3559 -0.3959
  666TIP3    H1 1962   4.435   3.528   2.869  1.1868 -0.4391  0.5233
  666TIP3    H2 1963   4.418   3.513   3.018 -0.2593 -3.8123  0.1157
  667TIP3   OH2 1964   6.278   4.015   3.043 -0.6239 -0.1523  0.1661
  667TIP3    H1 1965   6.364   4.057   3.055 -0.3695 -0.8395  0.8193
  667TIP3    H2 1966   6.280   3.940   3.102 -1.9688  0.2433  0.7288
  668TIP3   OH2 1967   7.039   5.358   1.267 -0.1626 -0.2595  0.2203
  668TIP3    H1 1968   7.036   5.419   1.341 -0.2846 -2.0655  1.7607
  668TIP3    H2 1969   7.017   5.273   1.304 -1.0103 -1.1169 -2.0567
  669TIP3   OH2 1970   4.658   2.612   2.586  0.3470 -0.1127  0.2948
  669TIP3    H1 1971   4.630   2.614   2.495  0.2292 -2.7788  0.2134
  669TIP3    H2 1972   4.576   2.615   2.636  0.4362  2.5307  0.4507
  670TIP3   OH2 1973   0.717   3.176   0.277 -0.5374  0.2791 -0.2616
  670TIP3    H1 1974   0.758   3.097   0.313 -1.0190  0.8387  1.6495
  670TIP3    H2 1975   0.627   3.150   0.260 -0.3409  0.0463 -0.9594
  671TIP3   OH2 1976   2.336   3.226   4.252  0.1416  0.0352 -0.2652
  671TIP3    H1 1977   2.243   3.249   4.246  0.0462 -0.3970 -0.4652
  671TIP3    H2 1978   2.356   3.233   4.346 -0.2110 -0.3164 -0.1606
  672TIP3   OH2 1979   3.975   5.325   0.620 -0.1752  0.2385  0.0032
  672TIP3    H1 1980   3.932   5.333   0.705  0.8949  0.0340  0.5867
  672TIP3    H2 1981   3.956   5.408   0.575 -1.6964 -0.1087 -0.0306
  673TIP3   OH2 1982   2.778   6.337   3.644  0.1826  0.2032 -0.3975
  673TIP3    H1 1983   2.759   6.348   3.551  0.2747 -0.1779 -0.4630
  673TIP3    H2 1984   2.727   6.260   3.670 -0.3043  0.6526  0.0072
  674TIP3   OH2 1985   5.814   3.428   1.109 -0.4437  0.8753 -0.0920
  674TIP3    H1 1986   5.880   3.400   1.045  0.5873  1.4606  0.6885
  674TIP3    H2 1987   5.849   3.399   1.193 -2.3710 -0.9817  0.1443
  675TIP3   OH2 1988   2.914   2.708   4.013 -0.3931 -0.1401  0.2834
  675TIP3    H1 1989   2.871   2.769   4.073 -1.6744 -0.1862 -0.5369
  675TIP3    H2 1990   2.851   2.636   4.004 -0.3395 -0.0178 -1.2881
  676TIP3   OH2 1991   3.166   2.340   3.274 -0.6616 -0.3235 -0.6910
  676TIP3    H1 1992   3.235   2.275   3.267 -0.4867 -0.1102 -0.9352
  676TIP3    H2 1993   3.210   2.425   3.267 -0.7958 -0.1516  0.3595
  677TIP3   OH2 1994   6.529   0.537   1.043  0.5713  0.5223  0.6310
  677TIP3    H1 1995   6.553   0.629   1.054  3.0417  0.0532 -0.1812
  677TIP3    H2 1996   6.550   0.496   1.127 -0.3779  0.6582  0.9404
  678TIP3   OH2 1997   4.953   5.779   2.433  0.3764  0.0693  0.2959
  678TIP3    H1 1998   4.949   5.760   2.527  0.2952  2.7706  0.9302
  678TIP3    H2 1999   4.918   5.868   2.425  0.8595  0.1132 -2.2477
  679TIP3   OH2 2000   0.456   1.657   3.405  0.2987 -0.5193  0.0364
  679TIP3    H1 2001   0.446   1.749   3.381  0.4875 -0.7988 -1.1616
  679TIP3    H2 2002   0.366   1.623   3.409  0.2568 -0.4245 -0.0964
  680TIP3   OH2 2003   2.459   5.072   3.786  0.2016  0.6572 -0.9276
  680TIP3    H1 2004   2.431   4.989   3.824 -1.0641  0.5617 -2.0041
  680TIP3    H2 2005   2.390   5.134   3.811  1.1227  1.3966 -0.1470
  681TIP3   OH2 2006   3.182   6.760   4.698  0.6914  0.1009 -0.1397
  681TIP3    H1 2007   3.240   6.799   4.764  1.1495  0.5777 -0.8073
  681TIP3    H2 2008   3.099   6.747   4.743  0.7580  1.1552  0.3124
  682TIP3   OH2 2009   4.265   4.243   2.316 -0.6075 -0.5813  0.3616
  682TIP3    H1 2010   4.186   4.217   2.268 -0.1770 -0.1148 -0.6280
  682TIP3    H2 2011   4.325   4.273   2.248  0.1925 -0.3337  1.1654
  683TIP3   OH2 2012   4.148   4.773   1.058  0.1610  0.0923 -0.2915
  683TIP3    H1 2013   4.154   4.680   1.082 -1.2106  0.3055  1.1072
  683TIP3    H2 2014   4.116   4.815   1.138 -0.3122  1.5985 -1.2395
  684TIP3   OH2 2015   2.043   5.348   1.449  0.2279 -0.0185  0.4250
  684TIP3    H1 2016   2.070   5.433   1.414  0.3951  0.4189  1.5729
  684TIP3    H2 2017   1.997   5.306   1.377  0.6354  0.8130 -0.3405
  685TIP3   OH2 2018   4.468   5.603   1.931 -0.1869  0.1680 -0.4314
  685TIP3    H1 2019   4.428   5.672   1.879 -1.6711 -0.8546 -0.7094
  685TIP3    H2 2020   4.395   5.561   1.976  0.8721 -0.1407  1.0635
  686TIP3   OH2 2021   5.275   2.183   0.078 -0.6166 -0.0954  0.0863
  686TIP3    H1 2022   5.267   2.273   0.045 -0.7964  0.4991  1.6678
  686TIP3    H2 2023   5.363   2.179   0.116 -0.7986 -0.4175  0.4851
  687TIP3   OH2 2024   5.251   4.340   1.460  0.3412  0.7746 -0.2312
  687TIP3    H1 2025   5.172   4.394   1.454  0.4024  0.8252 -0.5680
  687TIP3    H2 2026   5.319   4.401   1.489 -0.2793  0.2366  2.7748
  688TIP3   OH2 2027   0.550   0.466   4.904  0.5157  0.6164 -0.1461
  688TIP3    H1 2028   0.586   0.545   4.944  0.1468  0.2873  0.9037
  688TIP3    H2 2029   0.464   0.455   4.947 -0.6386  1.1208 -2.2204
  689TIP3   OH2 2030   2.322   4.151   4.673 -0.3383  0.1404 -0.1392
  689TIP3    H1 2031   2.257   4.083   4.691 -0.1528 -0.4414 -1.5806
  689TIP3    H2 2032   2.400   4.104   4.644  0.2698  0.9104  0.1835
  690TIP3   OH2 2033   4.114   1.435   5.013  0.0724  0.6942 -0.5555
  690TIP3    H1 2034   4.020   1.418   5.009  0.0686 -0.1917  1.6422
  690TIP3    H2 2035   4.145   1.421   4.924 -1.7401  0.1829 -1.1584
  691TIP3   OH2 2036   1.751   6.546   0.914 -0.1541  0.6632  0.0848
  691TIP3    H1 2037   1.665   6.522   0.879  0.9604 -2.5515 -0.8789
  691TIP3    H2 2038   1.752   6.510   1.003  1.1727 -2.4040 -1.0136
  692TIP3   OH2 2039   2.232   0.955   4.411 -0.0931 -0.0983  0.3301
  692TIP3    H1 2040   2.187   0.882   4.369 -0.6537  0.4926 -0.1145
  692TIP3    H2 2041   2.238   0.930   4.503 -0.4526 -0.6208  0.2133
  693TIP3   OH2 2042   6.931   6.316   0.609  0.2023  0.1317  0.4123
  693TIP3    H1 2043   7.011   6.361   0.582 -0.4194  0.5564 -0.8086
  693TIP3    H2 2044   6.959   6.228   0.631  0.7200 -0.5065 -2.3878
  694TIP3   OH2 2045   2.767   2.692   1.918 -0.1042 -0.0073 -0.1198
  694TIP3    H1 2046   2.735   2.651   1.998 -0.7177 -0.2613 -0.4928
  694TIP3    H2 2047   2.702   2.759   1.897  0.2789  0.3520 -0.1700
  695TIP3   OH2 2048   1.100   3.678   5.037 -0.4150  0.6524 -0.4077
  695TIP3    H1 2049   1.058   3.703   5.119 -0.6029  1.5163 -0.7538
  695TIP3    H2 2050   1.033   3.691   4.971 -1.1158 -2.4031 -0.4757
  696TIP3   OH2 2051   1.298   5.343   1.336 -0.4213 -0.3754 -0.0184
  696TIP3    H1 2052   1.221   5.299   1.372  0.0449  0.0448  1.5629
  696TIP3    H2 2053   1.365   5.274   1.330 -0.3137 -0.3208  0.5200
  697TIP3   OH2 2054   1.747   6.155   5.721  0.6368 -0.1543  0.0060
  697TIP3    H1 2055   1.820   6.190   5.772  0.1837 -0.2001  0.6960
  697TIP3    H2 2056   1.786   6.129   5.637  1.1591  1.0781 -0.1447
  698TIP3   OH2 2057   0.212   6.549   5.074 -0.1932  0.5147  0.0133
  698TIP3    H1 2058   0.249   6.601   5.002  0.1959 -0.6902 -0.6881
  698TIP3    H2 2059   0.288   6.504   5.112 -0.5126  0.5154  0.6636
  699TIP3   OH2 2060   3.383   3.569   4.180  0.5633  0.3695  0.7023
  699TIP3    H1 2061   3.325   3.635   4.142  0.0586 -0.9699 -0.9884
  699TIP3    H2 2062   3.462   3.573   4.127  0.3537 -0.6597  0.2857
  700TIP3   OH2 2063   3.058   1.261   4.790 -0.1216  0.0261 -0.1045
  700TIP3    H1 2064   3.129   1.196   4.792  0.8115  1.0336  0.7780
  700TIP3    H2 2065   3.032   1.265   4.699  2.1388  0.8376 -0.7893
  701TIP3   OH2 2066   4.587   6.417   1.992  0.2885 -0.7685  0.1881
  701TIP3    H1 2067   4.524   6.460   2.050  1.0877  0.8577 -0.0890
  701TIP3    H2 2068   4.641   6.363   2.050  1.1801  0.9546  1.0260
  702TIP3   OH2 2069   6.065   1.748   4.013  0.3407  0.0158 -0.5061
  702TIP3    H1 2070   6.144   1.742   4.067 -0.3050  0.2023  0.4993
  702TIP3    H2 2071   6.048   1.842   4.005 -1.6606  0.0328  2.2461
  703TIP3   OH2 2072   4.409   2.762   4.351  0.0027  0.3206  0.4563
  703TIP3    H1 2073   4.465   2.833   4.381 -1.0182  0.8638  1.1329
  703TIP3    H2 2074   4.371   2.794   4.270  0.5130  0.0304  0.0987
  704TIP3   OH2 2075   4.187   5.676   3.199  0.2573 -0.0251 -0.0061
  704TIP3    H1 2076   4.212   5.768   3.212 -0.1127  0.3422 -1.6601
  704TIP3    H2 2077   4.232   5.650   3.119 -1.1025 -0.7133 -0.5706
  705TIP3   OH2 2078   6.613   0.893   5.660 -0.1969 -0.0721  0.4786
  705TIP3    H1 2079   6.675   0.820   5.663 -0.0560  0.0447  0.4189
  705TIP3    H2 2080   6.658   0.962   5.611  0.6943  1.0088  2.6620
  706TIP3   OH2 2081   3.798   0.912   3.082 -0.4276 -0.0920  0.2198
  706TIP3    H1 2082   3.868   0.975   3.066  0.4746 -0.6014  1.9115
  706TIP3    H2 2083   3.721   0.965   3.100 -0.6766  0.4805 -2.1766
  707TIP3   OH2 2084   3.744   3.960   3.967  0.4737  0.5652 -0.3881
  707TIP3    H1 2085   3.784   3.890   3.915  0.5121  0.4247 -0.1703
  707TIP3    H2 2086   3.666   3.985   3.918 -1.4026 -1.8857  1.1300
  708TIP3   OH2 2087   7.014   0.094   3.232  0.7564  0.1371  0.1111
  708TIP3    H1 2088   7.027   0.147   3.311 -1.0896  0.5201  0.2091
  708TIP3    H2 2089   7.003   0.005   3.264  0.4975  0.2196  0.2577
  709TIP3   OH2 2090   1.948   3.025   4.242  0.0410  0.9884  0.1993
  709TIP3    H1 2091   1.865   3.008   4.199 -1.0293 -0.7415  2.6994
  709TIP3    H2 2092   2.013   2.978   4.190 -1.5088 -2.9411  1.4537
  710TIP3   OH2 2093   5.958   2.323   0.361  0.1520 -0.3641  0.2991
  710TIP3    H1 2094   6.018   2.312   0.435 -0.1348 -1.0010  0.4403
  710TIP3    H2 2095   5.913   2.406   0.379  1.5306  0.5310 -0.2021
  711TIP3   OH2 2096   6.410   0.810   4.733  0.3263  0.2264  0.6377
  711TIP3    H1 2097   6.361   0.818   4.652 -0.3942  0.2177  1.0644
  711TIP3    H2 2098   6.456   0.893   4.742  1.4090 -0.2369 -0.4074
  712TIP3   OH2 2099   4.536   1.073   0.012 -0.1379  0.3390  0.3970
  712TIP3    H1 2100   4.471   1.026   0.065 -0.0692  0.0687  0.2440
  712TIP3    H2 2101   4.489   1.099  -0.067  0.2493 -0.9394 -0.2788
  713TIP3   OH2 2102   4.734   4.828   0.511 -0.6404 -0.3355 -0.1519
  713TIP3    H1 2103   4.766   4.886   0.580 -1.4593 -1.4762  1.2472
  713TIP3    H2 2104   4.659   4.873   0.473 -0.3426  0.1826 -0.1286
  714TIP3   OH2 2105   2.796   6.123   0.519  0.1447 -0.2628  0.1497
  714TIP3    H1 2106   2.842   6.117   0.435  0.9420 -0.8505  0.6195
  714TIP3    H2 2107   2.707   6.150   0.495 -0.0829 -1.9160 -1.0318
  715TIP3   OH2 2108   1.153   6.531   3.296 -0.5243 -0.2549  0.0035
  715TIP3    H1 2109   1.165   6.585   3.374 -0.3290  0.6128 -0.6126
  715TIP3    H2 2110   1.169   6.441   3.326  1.6287  0.2476  0.5332
  716TIP3   OH2 2111   4.450   3.106   5.005  0.5111  0.0785 -0.4547
  716TIP3    H1 2112   4.442   3.200   4.989 -1.1416  0.0320 -0.0474
  716TIP3    H2 2113   4.459   3.098   5.100  0.0106 -0.2032 -0.4282
  717TIP3   OH2 2114   5.092   2.602   3.019  0.3129 -0.4663  0.1174
  717TIP3    H1 2115   5.045   2.530   2.977 -1.3256 -0.4242  1.7418
  717TIP3    H2 2116   5.045   2.616   3.101  1.7512  1.2199  0.7095
  718TIP3   OH2 2117   2.957   2.343   5.484 -0.0553  0.3249  0.1013
  718TIP3    H1 2118   3.052   2.338   5.472 -0.3136 -1.1976 -1.6210
  718TIP3    H2 2119   2.943   2.302   5.570  0.7725 -0.1191  0.0412
  719TIP3   OH2 2120   2.011   2.286   5.099 -1.1114  0.6804 -0.0548
  719TIP3    H1 2121   1.964   2.368   5.087 -2.1324  0.0050 -0.8063
  719TIP3    H2 2122   1.946   2.226   5.135 -0.7686 -0.2005 -0.8692
  720TIP3   OH2 2123   5.402   0.616   5.111 -0.7273  0.4422  0.1436
  720TIP3    H1 2124   5.311   0.619   5.082 -0.9046  0.1667  0.6546
  720TIP3    H2 2125   5.433   0.706   5.102 -0.3487  0.1355 -2.1786
  721TIP3   OH2 2126   5.244   0.292   5.164  0.1362  0.3192 -0.0887
  721TIP3    H1 2127   5.291   0.342   5.230  0.3999 -3.2940  2.8235
  721TIP3    H2 2128   5.151   0.310   5.181  0.2380  0.1216  0.7335
  722TIP3   OH2 2129   6.404   4.433   5.116  0.0913  0.3911  0.7998
  722TIP3    H1 2130   6.452   4.488   5.177  1.7862 -0.1704  0.0400
  722TIP3    H2 2131   6.332   4.397   5.167 -0.6961  2.7494  1.4852
  723TIP3   OH2 2132   1.984   5.688   1.722  0.1003 -0.2516  0.3465
  723TIP3    H1 2133   1.921   5.755   1.698  0.0896  0.1599  1.4735
  723TIP3    H2 2134   1.947   5.606   1.688 -0.2759  0.1870 -0.3225
  724TIP3   OH2 2135   3.327   4.966   2.158 -1.1285 -0.0785 -0.3350
  724TIP3    H1 2136   3.339   4.876   2.189  0.1496  0.2928  0.3158
  724TIP3    H2 2137   3.309   4.957   2.064 -0.0646 -0.9858 -0.4714
  725TIP3   OH2 2138   3.014   2.273   2.686  0.2738  0.2296  0.5381
  725TIP3    H1 2139   2.949   2.221   2.733 -1.6984  1.7630 -0.3488
  725TIP3    H2 2140   2.986   2.270   2.595  0.2773  2.4833  0.3933
  726TIP3   OH2 2141   3.688   2.428   0.676  0.6024 -0.5440 -0.1581
  726TIP3    H1 2142   3.633   2.361   0.717  2.2363 -2.3693 -0.7657
  726TIP3    H2 2143   3.705   2.491   0.746  0.5166 -1.7591  1.0012
  727TIP3   OH2 2144   1.763   1.196   2.310  0.1818  0.3385  0.5466
  727TIP3    H1 2145   1.787   1.141   2.235  2.5246  2.2760 -0.2522
  727TIP3    H2 2146   1.775   1.286   2.279 -0.8407  1.2691  2.6324
  728TIP3   OH2 2147   6.821   1.792   2.096  0.4848  0.1137 -0.4971
  728TIP3    H1 2148   6.876   1.714   2.088  0.3235 -0.3179  1.8603
  728TIP3    H2 2149   6.881   1.865   2.084  1.5422 -0.3538  1.4794
  729TIP3   OH2 2150   7.197   0.120   0.194 -0.2990  0.2357  0.3647
  729TIP3    H1 2151   7.218   0.181   0.264 -0.3985 -1.1913  1.6938
  729TIP3    H2 2152   7.166   0.175   0.122 -2.9551  1.6479  2.3932
  730TIP3   OH2 2153   1.818   0.893   5.833 -0.0646  0.0403 -0.5371
  730TIP3    H1 2154   1.723   0.909   5.837 -0.2314 -1.1276  0.6873
  730TIP3    H2 2155   1.850   0.960   5.773 -1.4430  1.4810  0.2446
  731TIP3   OH2 2156   5.972   0.230   3.681  0.1322 -0.0585  0.4163
  731TIP3    H1 2157   5.913   0.241   3.755  4.1246  1.7286  3.7197
  731TIP3    H2 2158   6.009   0.143   3.693 -0.3698 -0.4080 -0.4975
  732TIP3   OH2 2159   1.746   0.709  -0.007 -0.0922  0.4939 -0.5551
  732TIP3    H1 2160   1.791   0.741   0.071  0.3073  1.6277 -1.2278
  732TIP3    H2 2161   1.656   0.739   0.004 -0.3140 -0.3267 -0.0106
  733TIP3   OH2 2162   5.816   4.398   4.897 -0.2658  0.0956  0.1440
  733TIP3    H1 2163   5.870   4.459   4.847  0.5439 -0.9350 -0.2952
  733TIP3    H2 2164   5.755   4.362   4.833  1.6907 -2.2832 -0.5506
  734TIP3   OH2 2165   0.836   6.385   0.488 -0.0840  0.0681  0.1264
  734TIP3    H1 2166   0.751   6.377   0.531 -1.0131  0.1865 -1.5877
  734TIP3    H2 2167   0.861   6.477   0.500 -1.0906  0.5009 -0.8685
  735TIP3   OH2 2168   2.460   5.163   2.737 -0.5037 -0.3766 -0.4276
  735TIP3    H1 2169   2.388   5.111   2.700 -0.5073 -0.6163 -0.0870
  735TIP3    H2 2170   2.539   5.121   2.703 -0.4455 -1.6216  1.1173
  736TIP3   OH2 2171   2.552   4.510   0.045  0.2682 -0.3025 -0.3786
  736TIP3    H1 2172   2.472   4.560   0.031  1.1686  0.9432 -1.3296
  736TIP3    H2 2173   2.622   4.567   0.011  1.6396 -1.0399  1.0972
  737TIP3   OH2 2174   3.258   6.431   4.867  0.2210 -0.3609 -0.0783
  737TIP3    H1 2175   3.353   6.423   4.868  0.5265  1.6367 -2.6535
  737TIP3    H2 2176   3.229   6.365   4.804 -0.1852 -1.2321  0.9866
  738TIP3   OH2 2177   4.528   2.542   3.572 -0.7817  0.7726  0.8075
  738TIP3    H1 2178   4.619   2.512   3.564 -1.0979 -0.2555  0.9386
  738TIP3    H2 2179   4.482   2.468   3.612 -2.0063  0.6474 -0.7314
  739TIP3   OH2 2180   1.574   4.895   5.505 -0.1299 -0.1058 -0.0693
  739TIP3    H1 2181   1.658   4.884   5.460  0.5795 -0.3998  1.2882
  739TIP3    H2 2182   1.509   4.897   5.434  1.0451  0.4982 -1.1621
  740TIP3   OH2 2183   1.742   2.768   4.057 -0.2394 -0.3238  0.3464
  740TIP3    H1 2184   1.807   2.729   4.115  0.8523  1.0959  0.1150
  740TIP3    H2 2185   1.740   2.710   3.980 -0.8592 -1.5652  1.2610
  741TIP3   OH2 2186   2.494   6.448   0.560 -0.5503  0.3262  0.0235
  741TIP3    H1 2187   2.415   6.459   0.613 -0.9808 -1.1724 -0.2694
  741TIP3    H2 2188   2.490   6.357   0.529  1.3253  0.2014  0.0617
  742TIP3   OH2 2189   3.376   1.492   3.056 -0.1275  0.4196 -0.7269
  742TIP3    H1 2190   3.304   1.447   3.012  0.7080  2.7872 -5.0891
  742TIP3    H2 2191   3.336   1.568   3.097 -0.5320 -0.2821  0.2268
  743TIP3   OH2 2192   4.269   6.584   3.384  0.3264  0.1030 -0.6286
  743TIP3    H1 2193   4.214   6.619   3.314 -0.8251  0.9783  0.6605
  743TIP3    H2 2194   4.208   6.548   3.448  1.2644  0.4868  0.5309
  744TIP3   OH2 2195   2.354   5.390   2.566  0.0117  0.5529  0.4964
  744TIP3    H1 2196   2.415   5.318   2.584  0.0080  0.0062 -1.4771
  744TIP3    H2 2197   2.276   5.368   2.617 -0.1387 -1.0642 -0.3665
  745TIP3   OH2 2198   2.852   4.617   3.910 -0.2940  0.7356 -0.0683
  745TIP3    H1 2199   2.758   4.630   3.895 -0.4988  0.2509  0.7105
  745TIP3    H2 2200   2.874   4.539   3.859  0.0634  1.8017 -1.5813
  746TIP3   OH2 2201   2.704   2.060   4.557  0.4061 -0.1232 -0.4282
  746TIP3    H1 2202   2.723   2.153   4.564  1.2984 -0.3189 -0.0976
  746TIP3    H2 2203   2.636   2.044   4.622 -1.4246  0.7107 -2.0588
  747TIP3   OH2 2204   4.353   6.070   4.016  0.0937 -0.0601 -0.4507
  747TIP3    H1 2205   4.297   6.051   4.091 -1.5787  0.7274 -1.4422
  747TIP3    H2 2206   4.294   6.066   3.941  1.5755 -0.1050 -1.6631
  748TIP3   OH2 2207   0.183   6.273   0.653  0.2002  0.3337 -0.2842
  748TIP3    H1 2208   0.250   6.249   0.590  0.7543 -0.2489  0.5152
  748TIP3    H2 2209   0.218   6.350   0.698  0.5525 -0.2720  0.4778
  749TIP3   OH2 2210   3.350   2.526   3.201 -0.4731  0.0512 -0.4226
  749TIP3    H1 2211   3.356   2.621   3.188 -0.5169  0.1163  0.0016
  749TIP3    H2 2212   3.368   2.488   3.115 -3.0341  0.5079 -1.2297
  750TIP3   OH2 2213   1.986   6.669   0.581  0.2756 -0.3469 -0.4063
  750TIP3    H1 2214   1.893   6.651   0.566 -0.2679 -0.2365  2.2012
  750TIP3    H2 2215   1.987   6.758   0.617  1.2842 -0.6092  0.2580
  751TIP3   OH2 2216   0.089   5.348   2.560  0.0981 -0.1870  0.4833
  751TIP3    H1 2217   0.178   5.324   2.534  0.4213 -1.0391  2.2385
  751TIP3    H2 2218   0.060   5.276   2.616 -1.0583  0.8784  1.3067
  752TIP3   OH2 2219   5.621   1.740   3.845  0.2358  0.5167  0.0603
  752TIP3    H1 2220   5.567   1.708   3.773  0.0474 -1.0619  0.8567
  752TIP3    H2 2221   5.654   1.824   3.815 -0.5718  0.3084 -1.4935
  753TIP3   OH2 2222   2.953   3.411   0.180 -0.1239  0.2540  1.0661
  753TIP3    H1 2223   3.049   3.408   0.185 -0.0680  0.7719  0.3062
  753TIP3    H2 2224   2.930   3.497   0.216 -0.2846  0.2798  0.8991
  754TIP3   OH2 2225   5.852   2.028   1.348  0.5170  0.1903  0.1444
  754TIP3    H1 2226   5.831   2.012   1.439  2.1258 -2.1848  0.1752
  754TIP3    H2 2227   5.885   2.118   1.347  0.8375  0.1344  1.9918
  755TIP3   OH2 2228   4.936   3.872   4.451 -0.2482  0.2898 -0.2579
  755TIP3    H1 2229   5.001   3.931   4.490 -0.4325  0.9702 -0.9573
  755TIP3    H2 2230   4.962   3.785   4.480  0.8489  0.5783 -0.3481
  756TIP3   OH2 2231   2.715   0.467   2.612 -0.4482 -0.2214  0.1848
  756TIP3    H1 2232   2.702   0.420   2.694  0.5639  0.2551  0.6413
  756TIP3    H2 2233   2.790   0.424   2.572 -0.5073 -0.0042 -0.1578
  757TIP3   OH2 2234   0.817   0.095   5.633  0.0427 -0.3263 -0.3883
  757TIP3    H1 2235   0.910   0.091   5.655 -0.1866 -1.6084  0.4209
  757TIP3    H2 2236   0.805   0.184   5.598  1.4321  0.0825  0.1003
  758TIP3   OH2 2237   1.611   2.545   2.076  0.2984 -0.0812 -0.5204
  758TIP3    H1 2238   1.530   2.581   2.040 -0.4491 -1.5193 -0.3481
  758TIP3    H2 2239   1.582   2.477   2.137  1.6284 -1.3479 -1.2455
  759TIP3   OH2 2240   1.046   1.447   1.629  0.0330 -0.4411  0.3314
  759TIP3    H1 2241   0.981   1.426   1.562  0.8813  0.0187 -0.6768
  759TIP3    H2 2242   1.109   1.375   1.626 -0.1191 -0.6045  0.9056
  760TIP3   OH2 2243   2.797   3.254   3.984 -0.2408 -0.4646  0.5954
  760TIP3    H1 2244   2.732   3.267   4.053 -0.2993 -0.7519  0.5996
  760TIP3    H2 2245   2.752   3.197   3.921 -0.3243  0.1215  0.1275
  761TIP3   OH2 2246   0.877   1.385   5.220 -0.1867  0.0323 -0.4482
  761TIP3    H1 2247   0.886   1.480   5.219  0.4469 -0.0042  0.3456
  761TIP3    H2 2248   0.805   1.368   5.281 -1.3006  0.0420 -1.7047
  762TIP3   OH2 2249   1.700   0.071   5.789  0.0316  0.3062 -0.0405
  762TIP3    H1 2250   1.767   0.090   5.854 -1.9644  0.4525  2.1376
  762TIP3    H2 2251   1.631   0.135   5.806  0.1758  1.7081 -3.7074
  763TIP3   OH2 2252   6.992   0.144   2.302 -0.2276 -0.4920  0.1341
  763TIP3    H1 2253   7.080   0.133   2.265 -0.5593 -2.3852 -0.1845
  763TIP3    H2 2254   6.981   0.069   2.360 -0.7102  1.0633  2.1301
  764TIP3   OH2 2255   4.106   3.396   4.528 -0.1533 -0.2876  0.4218
  764TIP3    H1 2256   4.137   3.306   4.519  0.5771 -0.2231  2.0168
  764TIP3    H2 2257   4.110   3.431   4.439  2.4678 -0.9198  0.1928
  765TIP3   OH2 2258   4.738   0.128   1.405  0.0062 -0.9666 -0.0905
  765TIP3    H1 2259   4.648   0.145   1.377  0.8509  0.3355 -2.2212
  765TIP3    H2 2260   4.762   0.206   1.456  0.2392 -0.8843 -0.3266
  766TIP3   OH2 2261   3.379   2.789   1.097 -0.0548 -0.1071  0.1903
  766TIP3    H1 2262   3.334   2.866   1.062 -1.3472 -0.8234  0.2238
  766TIP3    H2 2263   3.314   2.719   1.094  1.5053 -1.6076 -1.2200
  767TIP3   OH2 2264   7.015   5.334   4.282  0.6231  0.2588  0.1979
  767TIP3    H1 2265   6.949   5.267   4.261 -0.9900  1.8584 -0.1188
  767TIP3    H2 2266   7.038   5.371   4.196  0.2662  1.1917  0.4941
  768TIP3   OH2 2267   3.325   0.201   4.628 -0.0225 -0.1824  0.0564
  768TIP3    H1 2268   3.231   0.214   4.633  0.1094  0.5772  0.7351
  768TIP3    H2 2269   3.358   0.226   4.714  0.6090 -2.1568  0.4610
  769TIP3   OH2 2270   1.646   0.640   3.544 -0.2846  0.3228  0.5371
  769TIP3    H1 2271   1.723   0.669   3.493 -1.2964 -0.3754 -1.5097
  769TIP3    H2 2272   1.604   0.722   3.572 -0.1474  0.7671 -0.5041
  770TIP3   OH2 2273   3.963   4.488   2.467 -0.4124  0.0238 -0.0931
  770TIP3    H1 2274   3.954   4.393   2.473 -1.4240  0.1927  1.8448
  770TIP3    H2 2275   4.057   4.504   2.479 -0.5690 -0.6247  2.6090
  771TIP3   OH2 2276   0.498   0.328   1.354  0.3931 -0.4807 -0.0880
  771TIP3    H1 2277   0.556   0.317   1.430  0.3835  0.0655  0.0037
  771TIP3    H2 2278   0.494   0.241   1.314  0.3718 -0.7770  0.5548
  772TIP3   OH2 2279   6.123   5.920   0.660  0.2117 -0.1025  0.1353
  772TIP3    H1 2280   6.052   5.968   0.702  0.8556 -0.4849  1.7676
  772TIP3    H2 2281   6.125   5.952   0.570 -1.3338  0.6628  0.3426
  773TIP3   OH2 2282   3.404   5.583   2.910  0.3725 -0.0592 -0.7266
  773TIP3    H1 2283   3.479   5.564   2.967  0.2950  0.2451 -0.5200
  773TIP3    H2 2284   3.352   5.646   2.960  0.7592  0.9083 -1.5182
  774TIP3   OH2 2285   6.673   1.275   3.094  0.4228 -1.0311 -0.4742
  774TIP3    H1 2286   6.670   1.211   3.165 -2.8348 -0.4241  0.0679
  774TIP3    H2 2287   6.621   1.235   3.024 -0.3172  0.3472 -0.7305
  775TIP3   OH2 2288   4.361   1.684   0.926 -0.2698  1.2390 -0.6931
  775TIP3    H1 2289   4.430   1.622   0.949  0.0154  0.7129 -2.7424
  775TIP3    H2 2290   4.330   1.718   1.010  1.9809  0.9646  0.3311
  776TIP3   OH2 2291   0.949   0.995   5.574  0.1229 -0.8975 -0.1831
  776TIP3    H1 2292   1.044   1.004   5.581 -0.0725  0.4112  1.4539
  776TIP3    H2 2293   0.928   0.920   5.629  0.0059  0.4012  1.6260
  777TIP3   OH2 2294   6.851   5.122   3.540 -0.2254  0.1184  0.4825
  777TIP3    H1 2295   6.896   5.084   3.465  0.4296  0.3435  0.7537
  777TIP3    H2 2296   6.768   5.154   3.505 -0.2912 -0.5374  0.0290
  778TIP3   OH2 2297   1.102   4.687   2.474 -0.4208  0.2914 -0.5007
  778TIP3    H1 2298   1.060   4.651   2.396 -2.0705 -0.7665  0.8349
  778TIP3    H2 2299   1.116   4.612   2.531  0.2482  1.1282  0.4740
  779TIP3   OH2 2300   0.531   2.174   1.046 -0.3201 -0.2147 -0.1348
  779TIP3    H1 2301   0.442   2.209   1.053  0.1845  1.4486 -1.3584
  779TIP3    H2 2302   0.536   2.142   0.956  0.6306  0.6771 -0.4144
  780TIP3   OH2 2303   5.586   6.414   1.243 -0.1196 -0.0560 -0.6405
  780TIP3    H1 2304   5.615   6.477   1.178  1.0551  2.8021  2.3578
  780TIP3    H2 2305   5.664   6.363   1.264  0.8103  2.0563  1.5239
  781TIP3   OH2 2306   3.289   1.898   1.437  0.2693  0.6865 -0.1043
  781TIP3    H1 2307   3.380   1.927   1.429  0.6321 -0.1569  0.7805
  781TIP3    H2 2308   3.250   1.918   1.351  1.6094 -0.0566 -0.9176
  782TIP3   OH2 2309   2.361   2.596   4.892  0.3259  0.0152  0.2552
  782TIP3    H1 2310   2.340   2.622   4.803  1.5406 -0.8819 -0.3301
  782TIP3    H2 2311   2.283   2.616   4.943 -0.6908 -0.2241 -1.1638
  783TIP3   OH2 2312   4.394   1.390   1.775  0.3329 -0.6219 -1.0208
  783TIP3    H1 2313   4.424   1.312   1.821  0.5328  0.2456  0.3982
  783TIP3    H2 2314   4.367   1.450   1.845 -1.2844  0.0073 -2.1102
  784TIP3   OH2 2315   5.357   3.436   4.408  0.4416 -0.2597  0.4772
  784TIP3    H1 2316   5.419   3.366   4.432 -0.3072 -1.1268 -0.0534
  784TIP3    H2 2317   5.413   3.510   4.384  1.2932 -1.1238 -0.2925
  785TIP3   OH2 2318   6.116   4.581   5.835  0.9046 -0.0031  0.0685
  785TIP3    H1 2319   6.034   4.582   5.886  1.4812  0.5136  1.0046
  785TIP3    H2 2320   6.123   4.490   5.804 -0.3817  0.1086 -0.6396
  786TIP3   OH2 2321   0.825   5.641   3.699  0.2398 -0.1855  0.2535
  786TIP3    H1 2322   0.763   5.571   3.682  0.2602  0.2158 -1.6976
  786TIP3    H2 2323   0.821   5.654   3.794 -0.9652 -1.6845  0.4489
  787TIP3   OH2 2324   5.342   4.787   0.882  0.2181  0.7361  0.3229
  787TIP3    H1 2325   5.402   4.792   0.956 -1.1548 -0.0758  1.5521
  787TIP3    H2 2326   5.257   4.766   0.922 -0.5022 -0.0099 -1.5144
  788TIP3   OH2 2327   3.918   2.709   0.570 -0.3856 -0.7479 -0.4164
  788TIP3    H1 2328   3.911   2.804   0.581 -0.1184 -0.8000  0.2109
  788TIP3    H2 2329   3.884   2.673   0.652  0.6563 -1.1679 -0.1627
  789TIP3   OH2 2330   4.306   0.017   2.683  0.1296 -0.4094  0.2290
  789TIP3    H1 2331   4.373   0.010   2.752  0.7328  0.9245 -0.1823
  789TIP3    H2 2332   4.283   0.110   2.682  0.1265 -0.3993 -1.3497
  790TIP3   OH2 2333   5.850   2.706   2.936  0.0059 -0.5555  0.5251
  790TIP3    H1 2334   5.800   2.634   2.895 -0.1515 -0.5463  0.6977
  790TIP3    H2 2335   5.888   2.754   2.862  0.1743 -0.8623  0.4107
  791TIP3   OH2 2336   5.136   0.297   2.026 -0.4684 -0.2447  0.7367
  791TIP3    H1 2337   5.211   0.318   2.082  0.0650 -3.0688  1.2443
  791TIP3    H2 2338   5.071   0.261   2.086 -0.9488 -0.8268 -0.1134
  792TIP3   OH2 2339   2.515   2.066   1.080  0.2084 -0.1079  0.0467
  792TIP3    H1 2340   2.570   1.993   1.109 -0.1170 -0.2372  0.3504
  792TIP3    H2 2341   2.558   2.100   1.002 -0.7912 -2.0156 -1.4187
  793TIP3   OH2 2342   1.683   5.624   4.357 -0.3848 -0.3663  0.1595
  793TIP3    H1 2343   1.597   5.661   4.333  0.3631  0.0873 -2.0318
  793TIP3    H2 2344   1.699   5.557   4.290  2.4797  1.9483 -1.6753
  794TIP3   OH2 2345   4.609   1.644   4.222  0.1917  0.5433  0.2020
  794TIP3    H1 2346   4.685   1.694   4.255  2.1470 -0.4667 -2.4102
  794TIP3    H2 2347   4.629   1.553   4.243 -1.9030  0.4647  2.2384
  795TIP3   OH2 2348   4.994   4.937   2.769 -0.4425 -0.4502 -0.0116
  795TIP3    H1 2349   5.007   5.014   2.824 -0.1850 -0.7370  0.3360
  795TIP3    H2 2350   4.922   4.961   2.711 -0.7041 -0.1328  0.4356
  796TIP3   OH2 2351   6.760   5.474   2.415 -0.3656 -0.6350 -0.0953
  796TIP3    H1 2352   6.768   5.570   2.417 -2.1054 -0.4570  1.2952
  796TIP3    H2 2353   6.850   5.442   2.421  0.2206  0.9012 -0.2018
  797TIP3   OH2 2354   0.968   5.012   5.442  0.1668 -0.5699  0.6743
  797TIP3    H1 2355   1.060   4.987   5.449  0.2253 -0.5735 -0.0127
  797TIP3    H2 2356   0.927   4.940   5.393  0.0291 -0.0510  0.0108
  798TIP3   OH2 2357   4.673   4.314   2.310 -0.4231 -0.0619 -0.5275
  798TIP3    H1 2358   4.647   4.375   2.379 -1.2785 -2.1310  1.1096
  798TIP3    H2 2359   4.602   4.319   2.246 -0.6754  0.3899 -0.2214
  799TIP3   OH2 2360   1.751   0.289   3.138 -0.5414 -0.4067  1.1098
  799TIP3    H1 2361   1.754   0.305   3.232 -0.6537  0.9352  0.9049
  799TIP3    H2 2362   1.672   0.334   3.108  0.9957  1.6779 -0.0385
  800TIP3   OH2 2363   6.196   1.684   3.756 -0.0977 -0.2693  0.2873
  800TIP3    H1 2364   6.209   1.589   3.762 -0.8732 -0.4993 -1.3065
  800TIP3    H2 2365   6.143   1.705   3.833  0.8055 -0.9536  1.1388
  801TIP3   OH2 2366   4.630   0.110   5.796  0.2525  0.3834  0.4832
  801TIP3    H1 2367   4.665   0.125   5.708  0.2655  0.4573  0.5008
  801TIP3    H2 2368   4.706   0.122   5.854 -0.3310  3.3228  0.7799
  802TIP3   OH2 2369   1.467   4.416   3.689 -0.8755 -0.1540  0.1884
  802TIP3    H1 2370   1.377   4.385   3.684 -1.2771  1.0304 -0.3812
  802TIP3    H2 2371   1.472   4.488   3.625  0.9738 -1.3600 -1.1664
  803TIP3   OH2 2372   4.468   3.921   0.046 -0.1590  0.0386 -0.2624
  803TIP3    H1 2373   4.380   3.925   0.008 -0.4257  0.7865  0.3897
  803TIP3    H2 2374   4.523   3.887  -0.024 -1.2248 -1.9417 -0.2084
  804TIP3   OH2 2375   2.691   2.140   1.674  0.1791  0.1756 -0.2212
  804TIP3    H1 2376   2.690   2.100   1.761 -1.0493 -1.4312 -0.9213
  804TIP3    H2 2377   2.767   2.198   1.675  0.7770 -0.5672  1.5901
  805TIP3   OH2 2378   6.263   5.171   1.378 -0.2409  0.1133  0.2896
  805TIP3    H1 2379   6.358   5.176   1.382 -0.3152  1.0995  1.9287
  805TIP3    H2 2380   6.240   5.216   1.297  0.5907  2.6394  1.3502
  806TIP3   OH2 2381   3.823   1.746   4.742  0.1982  0.5318 -0.5131
  806TIP3    H1 2382   3.861   1.732   4.828  1.2568  2.6131 -0.5708
  806TIP3    H2 2383   3.740   1.790   4.758 -0.5321 -0.7975 -0.5203
  807TIP3   OH2 2384   1.690   5.250   3.079  0.1749  0.4591  0.1086
  807TIP3    H1 2385   1.647   5.334   3.097  0.3478  0.4050  0.8149
  807TIP3    H2 2386   1.718   5.256   2.988 -1.1638  0.5682 -0.3198
  808TIP3   OH2 2387   7.072   4.241   2.444  0.2333  0.3626  0.3437
  808TIP3    H1 2388   7.038   4.202   2.363  2.2346  1.1547 -0.9706
  808TIP3    H2 2389   7.117   4.169   2.488  0.9249  0.3672 -0.3256
  809TIP3   OH2 2390   1.805   3.979   1.861  0.0318 -0.1262  0.4003
  809TIP3    H1 2391   1.729   3.985   1.803  0.2384 -0.6038  0.0676
  809TIP3    H2 2392   1.880   3.992   1.802  0.2112  0.1575  0.6929
  810TIP3   OH2 2393   5.355   6.232   5.469 -0.1489  0.1031  0.0333
  810TIP3    H1 2394   5.410   6.288   5.414  1.8204 -0.7375  1.0123
  810TIP3    H2 2395   5.267   6.239   5.432  0.7394  0.9796 -2.0521
  811TIP3   OH2 2396   6.293   6.568   5.627  0.4962 -0.4925  0.1985
  811TIP3    H1 2397   6.328   6.656   5.639 -1.3029  0.1724  1.0347
  811TIP3    H2 2398   6.276   6.562   5.534 -0.2584  0.4438  0.2547
  812TIP3   OH2 2399   7.021   3.437   1.896 -0.4910 -0.1413 -0.3359
  812TIP3    H1 2400   7.004   3.366   1.834  0.0173 -0.3430 -0.2534
  812TIP3    H2 2401   7.000   3.399   1.982 -0.3504 -0.1506 -0.3047
  813TIP3   OH2 2402   3.116   2.126   1.523  0.2908 -0.1239  0.3710
  813TIP3    H1 2403   3.165   2.058   1.477 -1.0549 -0.8574 -0.0329
  813TIP3    H2 2404   3.039   2.081   1.556 -0.4484  1.1380  0.4099
  814TIP3   OH2 2405   7.020   4.118   1.938  0.0099 -0.2421 -0.2721
  814TIP3    H1 2406   6.990   4.151   1.853  1.6547  1.5959 -0.2170
  814TIP3    H2 2407   7.116   4.117   1.931  0.2034  0.3604  1.6808
  815TIP3   OH2 2408   5.478   4.212   3.882  0.4197 -0.8747  0.0324
  815TIP3    H1 2409   5.428   4.278   3.929 -0.2740 -0.8151 -0.7543
  815TIP3    H2 2410   5.558   4.201   3.933  0.0539 -0.2325  0.7665
  816TIP3   OH2 2411   4.121   3.582   3.613  0.5036  0.3283 -0.0428
  816TIP3    H1 2412   4.094   3.668   3.581 -0.7767 -0.3859 -0.9647
  816TIP3    H2 2413   4.054   3.557   3.676  1.1651  0.2204  0.6364
  817TIP3   OH2 2414   4.109   5.482   1.621 -0.5812 -0.2369 -0.5577
  817TIP3    H1 2415   4.167   5.491   1.545 -0.2387 -2.5195 -0.6469
  817TIP3    H2 2416   4.034   5.538   1.601  0.7383  1.3412 -1.2796
  818TIP3   OH2 2417   4.685   4.048   0.162  0.3599 -0.4289 -0.3918
  818TIP3    H1 2418   4.608   3.999   0.134 -0.6706  0.2005  1.1692
  818TIP3    H2 2419   4.650   4.117   0.219  1.9721  0.6606 -0.6489
  819TIP3   OH2 2420   1.482   4.600   5.145  0.1109  0.4478  0.0271
  819TIP3    H1 2421   1.526   4.623   5.064  0.6717 -1.3136 -0.2060
  819TIP3    H2 2422   1.403   4.554   5.117  0.2154 -0.0108  0.4738
  820TIP3   OH2 2423   0.324   2.910   5.291  0.0881 -0.0566  0.6217
  820TIP3    H1 2424   0.316   2.860   5.210 -0.8057 -0.7914  1.1430
  820TIP3    H2 2425   0.317   2.844   5.361 -0.5300  0.7270  1.3180
  821TIP3   OH2 2426   4.214   3.235   4.034  0.0344 -0.8149  0.0264
  821TIP3    H1 2427   4.135   3.284   4.056  0.6208 -0.8321  2.5254
  821TIP3    H2 2428   4.217   3.235   3.938 -1.6061  1.3966 -0.1106
  822TIP3   OH2 2429   3.501   6.757   1.692 -0.1282  0.2783  0.1919
  822TIP3    H1 2430   3.442   6.698   1.645 -0.2950  0.7424 -0.1833
  822TIP3    H2 2431   3.561   6.789   1.625 -2.9243  4.3020 -0.7661
  823TIP3   OH2 2432   0.740   1.295   2.385  0.2943 -0.0855  0.1735
  823TIP3    H1 2433   0.771   1.205   2.379  0.0789 -0.2044  0.7639
  823TIP3    H2 2434   0.654   1.288   2.426  1.3724  0.5690  2.7793
  824TIP3   OH2 2435   3.560   1.862   4.730 -0.1687 -0.0666 -0.3481
  824TIP3    H1 2436   3.567   1.933   4.667 -4.1513 -0.9502 -2.0494
  824TIP3    H2 2437   3.561   1.782   4.678 -1.0786 -0.9845  0.9698
  825TIP3   OH2 2438   4.417   4.165   2.040  0.3759 -0.0012  0.1909
  825TIP3    H1 2439   4.374   4.232   1.987  1.3094  0.0609 -0.5258
  825TIP3    H2 2440   4.469   4.115   1.977 -0.3822 -1.4775  0.6971
  826TIP3   OH2 2441   5.510   3.529   3.973 -0.2894 -0.1298  0.4914
  826TIP3    H1 2442   5.555   3.557   4.053  1.9360 -1.3897 -0.2322
  826TIP3    H2 2443   5.563   3.455   3.941 -1.4905 -0.0695 -1.8009
  827TIP3   OH2 2444   7.197   1.513   4.021 -0.1932  0.2738  0.3780
  827TIP3    H1 2445   7.126   1.570   3.991 -0.6172 -0.2652  0.3540
  827TIP3    H2 2446   7.162   1.425   4.015  1.4208 -0.2973 -2.4036
  828TIP3   OH2 2447   6.231   6.674   0.084  0.4106  0.0667  0.5253
  828TIP3    H1 2448   6.152   6.717   0.050  1.4678  2.4282  0.8548
  828TIP3    H2 2449   6.266   6.626   0.010 -0.4992  0.2670 -0.0558
  829TIP3   OH2 2450   0.966   4.978   0.272  0.3852 -0.5855  0.1922
  829TIP3    H1 2451   1.021   5.052   0.248 -0.4966  0.5942  1.6067
  829TIP3    H2 2452   0.989   4.959   0.363 -1.2207 -0.3383  0.6740
  830TIP3   OH2 2453   5.081   4.546   0.745  0.8581  0.7572 -0.4536
  830TIP3    H1 2454   5.029   4.467   0.734 -0.7385  1.9559 -2.0313
  830TIP3    H2 2455   5.040   4.592   0.817  1.4970  0.3996  0.1519
  831TIP3   OH2 2456   4.552   0.122   4.029  0.3645  0.0624  0.2819
  831TIP3    H1 2457   4.562   0.052   3.964  4.9565  0.5803  0.0686
  831TIP3    H2 2458   4.503   0.190   3.983  2.7062  0.0693 -2.5070
  832TIP3   OH2 2459   3.509   1.017   3.103 -0.0232 -0.0987 -0.3238
  832TIP3    H1 2460   3.424   1.058   3.123  0.3451  0.1502  0.8435
  832TIP3    H2 2461   3.536   1.055   3.020  0.6632  2.6903  1.0419
  833TIP3   OH2 2462   5.698   5.807   4.840  0.0318 -0.3978 -0.1258
  833TIP3    H1 2463   5.660   5.885   4.879 -0.0964 -0.5117 -0.0205
  833TIP3    H2 2464   5.750   5.768   4.911 -0.3429 -0.7000 -0.0058
  834TIP3   OH2 2465   6.687   6.058   0.559  0.4808 -0.0513 -0.2106
  834TIP3    H1 2466   6.663   6.120   0.491  1.9672  1.0388  0.1999
  834TIP3    H2 2467   6.611   6.001   0.568 -1.2773  2.1740 -0.0752
  835TIP3   OH2 2468   6.961   5.812   0.878  0.1908  0.0918  0.0776
  835TIP3    H1 2469   7.027   5.757   0.837  0.4520 -0.0028  0.6078
  835TIP3    H2 2470   6.888   5.812   0.817  1.9078  3.0091 -2.2401
  836TIP3   OH2 2471   3.699   4.193  -0.004  0.0116 -0.0874 -0.0446
  836TIP3    H1 2472   3.645   4.118  -0.028 -0.5179  0.1362  0.4300
  836TIP3    H2 2473   3.716   4.180   0.089 -1.5235  1.2603  0.4692
  837TIP3   OH2 2474   4.702   3.338   0.496 -0.3543 -0.3975  0.4904
  837TIP3    H1 2475   4.730   3.422   0.462 -0.5880 -0.4341  0.2041
  837TIP3    H2 2476   4.712   3.346   0.591  1.4053 -0.7039  0.3619
  838TIP3   OH2 2477   1.743   1.405   1.131  0.6282  0.2360 -0.2242
  838TIP3    H1 2478   1.689   1.328   1.110 -0.3526  0.9275 -0.3077
  838TIP3    H2 2479   1.770   1.439   1.046 -1.9178  2.0294 -0.4529
  839TIP3   OH2 2480   3.097   1.781   3.361  0.4928 -0.4868 -0.9158
  839TIP3    H1 2481   3.067   1.835   3.435  1.3089  0.0022 -0.9333
  839TIP3    H2 2482   3.045   1.811   3.287  0.2507 -0.4079 -0.7163
  840TIP3   OH2 2483   1.367   1.403   4.341 -0.2561  0.3667  0.2959
  840TIP3    H1 2484   1.284   1.356   4.348 -0.6039  1.1258  1.5753
  840TIP3    H2 2485   1.369   1.433   4.250 -1.5501  0.6173  0.3268
  841TIP3   OH2 2486   1.886   5.619   5.374 -0.3273 -0.1290  0.3816
  841TIP3    H1 2487   1.926   5.676   5.308  0.9817  0.9303  2.0033
  841TIP3    H2 2488   1.822   5.675   5.418 -2.1949 -1.2199 -0.8052
  842TIP3   OH2 2489   1.904   0.061   5.077 -0.0622  0.6110 -0.4649
  842TIP3    H1 2490   1.934  -0.030   5.070 -1.9020 -0.0989  0.2417
  842TIP3    H2 2491   1.930   0.088   5.166 -1.5771 -0.0790  0.2311
  843TIP3   OH2 2492   3.665   3.033   3.223  0.3510  0.1513 -0.4973
  843TIP3    H1 2493   3.702   2.982   3.295 -0.6658 -0.3189 -0.2884
  843TIP3    H2 2494   3.617   3.104   3.266 -1.9107 -1.2438 -0.5895
  844TIP3   OH2 2495   4.596   2.998   2.675 -0.3274 -0.6380  0.3403
  844TIP3    H1 2496   4.612   3.016   2.768  0.1587  1.7262 -0.1593
  844TIP3    H2 2497   4.506   3.027   2.660  0.0182  0.1477 -0.2050
  845TIP3   OH2 2498   1.571   1.100   3.426 -0.1290 -0.2720  0.0709
  845TIP3    H1 2499   1.515   1.080   3.351  0.0805 -0.9927  0.0965
  845TIP3    H2 2500   1.634   1.028   3.429  0.5914  0.3517  0.2497
  846TIP3   OH2 2501   4.954   4.384   1.026 -0.1232  0.0150 -0.0142
  846TIP3    H1 2502   5.017   4.361   1.094 -1.5447 -0.6854  1.1262
  846TIP3    H2 2503   4.925   4.300   0.989 -0.6523  0.2938 -0.2599
  847TIP3   OH2 2504   3.249   4.691   4.263  0.6428  0.3216  0.5792
  847TIP3    H1 2505   3.244   4.648   4.348 -0.0957  3.0990  2.0446
  847TIP3    H2 2506   3.248   4.619   4.200  0.4026 -1.8044  2.8582
  848TIP3   OH2 2507   0.673   4.762   0.940  0.1734  0.6621 -0.1531
  848TIP3    H1 2508   0.666   4.669   0.915  1.6035 -0.1512  2.1744
  848TIP3    H2 2509   0.586   4.784   0.974  0.5885 -0.7857  2.0652
  849TIP3   OH2 2510   6.838   3.511   5.006  0.1969  1.0683 -0.3767
  849TIP3    H1 2511   6.907   3.503   5.072 -0.4954  1.0697  0.3595
  849TIP3    H2 2512   6.885   3.517   4.923  1.0615  0.2707  0.0397
  850TIP3   OH2 2513   2.336   2.620   3.059  0.0259  0.2642  0.0699
  850TIP3    H1 2514   2.397   2.553   3.027  0.4305  0.5008  0.3525
  850TIP3    H2 2515   2.345   2.692   2.997 -1.5308 -0.5080 -1.1538
  851TIP3   OH2 2516   6.249   0.958   2.177 -0.0680 -0.3541 -0.2574
  851TIP3    H1 2517   6.261   0.955   2.082 -0.3690  1.7917 -0.4237
  851TIP3    H2 2518   6.313   0.896   2.212  0.9083 -0.2647 -1.8003
  852TIP3   OH2 2519   7.180   3.101   1.718  0.3168 -0.2433  0.2294
  852TIP3    H1 2520   7.126   3.035   1.674  0.5795  0.4606 -1.2276
  852TIP3    H2 2521   7.227   3.053   1.786 -2.3630 -0.8049  1.7856
  853TIP3   OH2 2522   6.402   1.383   2.866  0.8906 -0.1368 -0.0868
  853TIP3    H1 2523   6.456   1.403   2.790  0.4798  1.5643  0.0353
  853TIP3    H2 2524   6.357   1.465   2.887  0.4206 -0.7525  1.5392
  854TIP3   OH2 2525   2.671   4.617   0.323 -0.3599 -0.2933 -0.8991
  854TIP3    H1 2526   2.604   4.558   0.357 -0.0167  1.0274  2.6120
  854TIP3    H2 2527   2.623   4.696   0.297 -0.3619  0.1326  0.3140
  855TIP3   OH2 2528   0.389   3.756   1.353 -0.2214  0.1257 -0.3825
  855TIP3    H1 2529   0.296   3.777   1.352 -0.3636 -0.4647  0.2414
  855TIP3    H2 2530   0.430   3.828   1.304 -1.0722  0.0135 -1.2904
  856TIP3   OH2 2531   3.918   3.801   0.872 -0.1581  0.1386  0.0261
  856TIP3    H1 2532   3.890   3.732   0.811  0.1533 -1.0145  1.1579
  856TIP3    H2 2533   3.971   3.860   0.818  1.6215 -1.8090 -0.4911
  857TIP3   OH2 2534   3.557   4.719   5.681 -0.3132 -0.0529  0.3841
  857TIP3    H1 2535   3.536   4.724   5.588 -1.8337 -0.8903  0.6541
  857TIP3    H2 2536   3.647   4.753   5.687 -0.6044  1.1191 -1.2108
  858TIP3   OH2 2537   1.905   0.242   5.296 -0.0701 -0.6761 -0.4432
  858TIP3    H1 2538   1.834   0.181   5.317  1.0055 -3.5257 -3.9895
  858TIP3    H2 2539   1.975   0.220   5.358 -1.0724 -0.1182  0.9341
  859TIP3   OH2 2540   6.009   3.024   1.975  0.7198 -0.2906 -0.3965
  859TIP3    H1 2541   6.053   3.085   1.915 -1.1911  0.2279 -1.3494
  859TIP3    H2 2542   5.943   2.981   1.921 -0.3864 -0.5633  1.1040
  860TIP3   OH2 2543   4.450   4.468   1.847  0.3048  0.2072 -0.4950
  860TIP3    H1 2544   4.370   4.420   1.866  0.8874 -0.7263 -0.3637
  860TIP3    H2 2545   4.463   4.457   1.752  0.1270  0.6038 -0.5685
  861TIP3   OH2 2546   1.353   1.219   0.915  0.5090  0.2290 -0.0207
  861TIP3    H1 2547   1.297   1.192   0.987 -0.0512  0.4295 -0.3776
  861TIP3    H2 2548   1.305   1.195   0.836  1.5087 -0.7836 -0.3399
  862TIP3   OH2 2549   2.329   1.268   1.343 -0.1681 -0.4557 -0.1050
  862TIP3    H1 2550   2.384   1.192   1.326 -2.9536 -2.4819 -0.9313
  862TIP3    H2 2551   2.378   1.342   1.308  1.3301 -2.3129 -2.2047
  863TIP3   OH2 2552   2.222   3.733   4.327 -0.3429  0.1760 -0.5513
  863TIP3    H1 2553   2.284   3.671   4.289 -1.4721 -1.1738 -0.3030
  863TIP3    H2 2554   2.248   3.818   4.292  1.7544 -0.2961 -0.2876
  864TIP3   OH2 2555   2.050   2.366   0.706  0.7874  0.4317 -0.2870
  864TIP3    H1 2556   2.125   2.341   0.652  1.9065  2.7732  0.0413
  864TIP3    H2 2557   1.984   2.300   0.687  2.9017 -1.7183 -0.6157
  865TIP3   OH2 2558   1.409   4.713   3.974 -0.0153 -0.0380  0.3060
  865TIP3    H1 2559   1.400   4.785   4.036  0.9594 -1.2038  1.9071
  865TIP3    H2 2560   1.502   4.715   3.949  0.5001 -1.8090  1.8529
  866TIP3   OH2 2561   4.460   5.082   1.916 -0.1272 -0.4847 -0.1618
  866TIP3    H1 2562   4.509   5.015   1.963 -1.5758 -0.5295  1.3933
  866TIP3    H2 2563   4.488   5.165   1.955  0.3167 -0.3236 -0.8077
  867TIP3   OH2 2564   5.794   0.621   1.248 -0.1574 -0.3019 -0.5049
  867TIP3    H1 2565   5.848   0.649   1.174 -0.3937 -0.4525 -0.7377
  867TIP3    H2 2566   5.786   0.699   1.302  1.7489 -0.7039  0.4499
  868TIP3   OH2 2567   3.601   1.889   3.794  0.0057  0.1947 -0.1742
  868TIP3    H1 2568   3.600   1.828   3.720 -0.6805 -0.2015  0.1536
  868TIP3    H2 2569   3.672   1.859   3.849 -0.8027 -0.7918  0.3669
  869TIP3   OH2 2570   1.773   4.069   2.130  0.8605  0.6637 -0.3811
  869TIP3    H1 2571   1.766   4.035   2.040 -0.6088  0.3314 -0.1705
  869TIP3    H2 2572   1.866   4.085   2.142  1.1167  0.4876 -1.8897
  870TIP3   OH2 2573   6.903   3.591   4.486 -0.1797 -0.2481 -0.3814
  870TIP3    H1 2574   6.807   3.583   4.486 -0.3396  0.7935 -2.8350
  870TIP3    H2 2575   6.927   3.589   4.393  2.1682 -0.2826  0.1836
  871TIP3   OH2 2576   2.964   6.738   3.198 -0.1678 -0.5532  0.3330
  871TIP3    H1 2577   2.987   6.648   3.175  0.7200 -0.3205  0.3021
  871TIP3    H2 2578   2.981   6.788   3.119 -0.8857 -0.3882  0.2766
  872TIP3   OH2 2579   6.163   6.658   0.352  0.0122 -0.1788 -0.1091
  872TIP3    H1 2580   6.185   6.639   0.261 -0.5863 -1.0140 -0.0823
  872TIP3    H2 2581   6.242   6.701   0.386 -0.1250  1.1096 -1.2893
  873TIP3   OH2 2582   6.124   4.385   1.781  0.0902 -0.3929  0.1352
  873TIP3    H1 2583   6.130   4.420   1.692 -2.8554 -0.4981 -0.2236
  873TIP3    H2 2584   6.037   4.345   1.785 -0.0367 -0.0609  3.1766
  874TIP3   OH2 2585   5.996   2.796   4.759 -0.1392  0.5962  0.0226
  874TIP3    H1 2586   5.965   2.706   4.769  0.9876  0.1156 -0.6725
  874TIP3    H2 2587   6.091   2.788   4.751 -0.0399  1.8400 -0.2218
  875TIP3   OH2 2588   1.924   1.873   1.451  0.1955 -0.6692 -0.1660
  875TIP3    H1 2589   1.958   1.784   1.468  0.9875 -0.5661 -1.1323
  875TIP3    H2 2590   1.963   1.898   1.367 -0.3405  0.4454 -0.0980
  876TIP3   OH2 2591   2.629   3.736   4.087  0.2588  0.0244 -0.8151
  876TIP3    H1 2592   2.636   3.709   3.995  0.3608  0.1600 -0.8469
  876TIP3    H2 2593   2.708   3.786   4.103 -0.4751  1.3139 -1.0899
  877TIP3   OH2 2594   2.852   1.368   3.996  0.0778  0.2429 -0.6112
  877TIP3    H1 2595   2.920   1.303   4.015 -0.4081 -0.0780  0.0997
  877TIP3    H2 2596   2.849   1.371   3.901 -0.3359 -1.2923 -0.6852
  878TIP3   OH2 2597   7.032   5.020   2.531 -0.1002  0.0851 -0.2162
  878TIP3    H1 2598   7.127   5.028   2.539  0.0207 -1.1129 -0.2353
  878TIP3    H2 2599   7.020   4.957   2.460 -0.9511  1.6888 -1.5658
  879TIP3   OH2 2600   6.860   2.120   5.536  0.1100  0.4805 -0.4354
  879TIP3    H1 2601   6.894   2.053   5.477  1.2707  0.6248  0.0347
  879TIP3    H2 2602   6.774   2.141   5.502 -0.0048 -0.7784 -0.9754
  880TIP3   OH2 2603   4.951   1.551   1.935 -0.0200 -0.1278  0.6070
  880TIP3    H1 2604   4.989   1.637   1.918  0.2831  0.0631  2.1001
  880TIP3    H2 2605   5.024   1.490   1.924  0.0108 -0.0815  0.5577
  881TIP3   OH2 2606   0.463   5.856   0.136  0.3612 -0.5877  0.2183
  881TIP3    H1 2607   0.382   5.899   0.164 -0.2949 -2.5403  1.5708
  881TIP3    H2 2608   0.461   5.861   0.041 -0.4369  0.9593  0.2733
  882TIP3   OH2 2609   1.445   6.272   0.395 -0.6388  0.1227  0.0150
  882TIP3    H1 2610   1.501   6.202   0.361  2.1712  1.4311  1.5679
  882TIP3    H2 2611   1.497   6.312   0.464 -3.2596  2.0140  1.0519
  883TIP3   OH2 2612   4.005   2.366   0.063 -0.2727 -0.6016 -0.2978
  883TIP3    H1 2613   4.028   2.459   0.059 -1.9560 -0.1804 -1.6671
  883TIP3    H2 2614   4.088   2.320   0.052  0.4890  0.7425 -0.4265
  884TIP3   OH2 2615   6.729   4.760   0.886  0.7951 -0.0455 -0.0015
  884TIP3    H1 2616   6.780   4.758   0.805 -0.2733 -0.0629 -0.6936
  884TIP3    H2 2617   6.784   4.807   0.948  1.2831  0.6974 -0.9752
  885TIP3   OH2 2618   2.891   0.274   5.637 -0.4754  0.4584  0.0379
  885TIP3    H1 2619   2.900   0.277   5.542  0.1553  1.1473  0.1139
  885TIP3    H2 2620   2.861   0.362   5.661 -0.2409  0.4128  0.5112
  886TIP3   OH2 2621   0.578   3.564   1.627  0.2247  0.0673 -0.0664
  886TIP3    H1 2622   0.647   3.562   1.693  0.7614 -0.4121 -0.6199
  886TIP3    H2 2623   0.579   3.653   1.592  1.2919 -0.2126 -0.7983
  887TIP3   OH2 2624   2.035   0.916   3.930 -0.2113  0.1093 -0.1037
  887TIP3    H1 2625   2.080   0.837   3.961 -0.3996  0.6275  1.5820
  887TIP3    H2 2626   2.006   0.894   3.842  0.2290 -1.5138  0.1293
  888TIP3   OH2 2627   7.085   5.743   5.617 -0.4244  1.0017 -0.3350
  888TIP3    H1 2628   7.043   5.658   5.630 -1.8177  1.7868  0.6403
  888TIP3    H2 2629   7.156   5.744   5.682  0.5748  0.0179 -1.3758
  889TIP3   OH2 2630   1.087   0.019   0.355 -0.1584  0.1212  0.7259
  889TIP3    H1 2631   1.102  -0.008   0.264 -1.2906 -2.5426  1.2462
  889TIP3    H2 2632   1.174   0.019   0.394  0.3634  1.4455 -0.3349
  890TIP3   OH2 2633   2.660   4.347   1.684 -0.0666 -0.1490  0.1147
  890TIP3    H1 2634   2.585   4.291   1.661 -0.9262  0.8347  0.4173
  890TIP3    H2 2635   2.621   4.432   1.703  0.8891 -0.1031  2.2529
  891TIP3   OH2 2636   4.825   5.213   4.043  0.2591  0.0535 -0.2089
  891TIP3    H1 2637   4.893   5.272   4.075 -0.1122  0.8454 -0.8353
  891TIP3    H2 2638   4.800   5.250   3.958  0.5128 -1.4040 -0.9480
  892TIP3   OH2 2639   5.914   5.423   3.344 -0.3924 -0.1682  0.2574
  892TIP3    H1 2640   5.978   5.438   3.275  1.1713 -0.8036  1.5077
  892TIP3    H2 2641   5.904   5.328   3.348 -2.5355 -0.0581 -0.8452
  893TIP3   OH2 2642   5.670   1.890   0.608 -0.3532  0.8367 -0.1284
  893TIP3    H1 2643   5.673   1.795   0.619  1.4642  0.9894  1.2879
  893TIP3    H2 2644   5.691   1.904   0.516 -0.7421 -0.1449 -0.3745
  894TIP3   OH2 2645   0.327   0.543   1.424 -0.0323  0.5033 -0.4069
  894TIP3    H1 2646   0.320   0.600   1.348  1.3971  0.0582 -0.9093
  894TIP3    H2 2647   0.370   0.464   1.391 -0.2617 -0.0856  0.6610
  895TIP3   OH2 2648   3.052   0.459   2.725  0.0949  0.6737  0.4783
  895TIP3    H1 2649   3.139   0.475   2.762 -0.0337  0.4724  0.8802
  895TIP3    H2 2650   2.994   0.515   2.778 -0.0948  0.3661  0.5976
  896TIP3   OH2 2651   5.725   2.220   4.616 -0.0714 -0.4277 -0.0348
  896TIP3    H1 2652   5.639   2.188   4.641 -0.7628  1.2066 -0.2560
  896TIP3    H2 2653   5.718   2.238   4.522  0.1948  0.6659  0.1466
  897TIP3   OH2 2654   0.959   0.617   2.600  0.7806 -0.2840 -0.1429
  897TIP3    H1 2655   1.001   0.541   2.641  2.0450  0.5259  0.1324
  897TIP3    H2 2656   0.867   0.611   2.628  1.0243 -1.2710  0.5227
  898TIP3   OH2 2657   1.440   5.562   5.239  0.0103 -0.0591 -0.5617
  898TIP3    H1 2658   1.347   5.561   5.261  0.2536  1.9748  0.7381
  898TIP3    H2 2659   1.443   5.590   5.147 -0.6144  1.4749 -0.1313
  899TIP3   OH2 2660   6.369   0.507   1.848 -0.6028 -0.0064  0.0255
  899TIP3    H1 2661   6.324   0.581   1.888  0.3938  0.5282  0.1868
  899TIP3    H2 2662   6.458   0.509   1.886 -1.2857 -2.9126  2.1558
  900TIP3   OH2 2663   2.609   2.951   3.190 -0.3706 -0.2492 -0.4928
  900TIP3    H1 2664   2.586   3.042   3.211 -1.3545 -1.0081  2.1228
  900TIP3    H2 2665   2.549   2.928   3.119 -1.2645  0.6512 -0.0613
  901TIP3   OH2 2666   4.081   2.933   0.287  0.5591  0.9370  0.3714
  901TIP3    H1 2667   4.118   2.929   0.199  0.0142  0.7074  0.1529
  901TIP3    H2 2668   3.987   2.944   0.274  0.0701 -1.9444  0.8648
  902TIP3   OH2 2669   0.981   6.102   3.046 -0.3813 -0.5868 -0.0217
  902TIP3    H1 2670   0.978   6.016   3.088 -2.3068  0.1301  1.4688
  902TIP3    H2 2671   0.990   6.083   2.953  0.1492 -2.3566  0.3457
  903TIP3   OH2 2672   2.938   0.925   2.225 -0.3516  0.2551  0.5351
  903TIP3    H1 2673   2.945   0.873   2.305 -2.8010 -0.9632  0.0567
  903TIP3    H2 2674   3.023   0.968   2.216  0.2540 -0.1942  3.3413
  904TIP3   OH2 2675   1.575   6.497   3.326 -0.0423 -0.7353 -0.2791
  904TIP3    H1 2676   1.535   6.508   3.412  0.5529  2.1944 -0.2779
  904TIP3    H2 2677   1.508   6.525   3.264 -0.3386 -2.4801 -0.8179
  905TIP3   OH2 2678   3.158   2.606   4.055  0.2792 -0.0780  0.0245
  905TIP3    H1 2679   3.094   2.674   4.035 -0.4461 -0.5538  0.6459
  905TIP3    H2 2680   3.219   2.648   4.116  0.2449  0.2211 -0.1446
  906TIP3   OH2 2681   7.158   1.683   2.059  0.0839 -0.1502  0.0628
  906TIP3    H1 2682   7.225   1.637   2.009  1.3595  0.1099  1.4503
  906TIP3    H2 2683   7.078   1.635   2.042  0.2730  0.3819 -2.7946
  907TIP3   OH2 2684   3.396   5.285   1.400  0.7326 -0.1416 -0.0974
  907TIP3    H1 2685   3.402   5.196   1.434  1.2354 -0.7215 -1.6149
  907TIP3    H2 2686   3.321   5.284   1.342  0.4865  0.5551  0.1944
  908TIP3   OH2 2687   0.375   1.823   2.245  0.5364 -0.3277  0.2663
  908TIP3    H1 2688   0.281   1.816   2.226  0.6612  0.6342 -0.8724
  908TIP3    H2 2689   0.414   1.841   2.159  1.6877 -0.0547  0.8411
  909TIP3   OH2 2690   0.115   4.631   4.167 -0.3720 -0.1365  0.2619
  909TIP3    H1 2691   0.075   4.672   4.090 -0.3225 -0.3691  0.1103
  909TIP3    H2 2692   0.184   4.576   4.130  0.4719  0.6966  0.5472
  910TIP3   OH2 2693   3.723   2.273   2.369  0.0321 -0.2146 -0.2711
  910TIP3    H1 2694   3.658   2.203   2.375 -0.1755 -0.2131 -1.9737
  910TIP3    H2 2695   3.807   2.229   2.386 -0.2336 -0.5868  0.0943
  911TIP3   OH2 2696   6.520   0.158   1.102  0.2757  0.2044  0.1843
  911TIP3    H1 2697   6.600   0.182   1.149  1.7611 -1.0050 -1.5749
  911TIP3    H2 2698   6.485   0.242   1.071  0.8209  0.7623  1.0152
  912TIP3   OH2 2699   4.513   2.144   4.942 -0.7873 -0.5458  0.1824
  912TIP3    H1 2700   4.514   2.198   5.021 -0.4114  1.1205 -0.9131
  912TIP3    H2 2701   4.571   2.071   4.962 -0.2352  0.1679  1.2477
  913TIP3   OH2 2702   0.399   4.957   5.551 -0.5236 -0.0722 -0.0984
  913TIP3    H1 2703   0.334   4.892   5.580 -0.9816  0.4639  0.1050
  913TIP3    H2 2704   0.478   4.906   5.534 -1.0454 -0.7667 -0.5111
  914TIP3   OH2 2705   2.032   4.488   5.559 -0.7276 -0.3409 -0.1917
  914TIP3    H1 2706   2.125   4.475   5.541 -0.5877 -1.8558  1.3836
  914TIP3    H2 2707   1.995   4.518   5.476  0.6170 -2.5881 -1.6990
  915TIP3   OH2 2708   1.804   4.550   0.792  0.0886 -0.3013  0.1342
  915TIP3    H1 2709   1.877   4.500   0.830  0.0038 -0.5635 -0.0423
  915TIP3    H2 2710   1.835   4.640   0.789 -0.0048 -0.2251  1.0879
  916TIP3   OH2 2711   3.685   2.622   2.986  0.7051  0.3078 -0.5261
  916TIP3    H1 2712   3.621   2.668   3.041 -1.0346 -1.3219 -1.0689
  916TIP3    H2 2713   3.701   2.682   2.913  0.4374  1.0773  0.0358
  917TIP3   OH2 2714   2.947   3.011   2.907 -0.3041  0.1458 -0.1720
  917TIP3    H1 2715   2.863   2.984   2.870 -0.6012  1.7829 -0.7733
  917TIP3    H2 2716   2.970   3.090   2.859  2.4424 -1.1819 -1.1971
  918TIP3   OH2 2717   3.921   5.022   3.307 -0.0418  0.1235  0.1870
  918TIP3    H1 2718   3.949   5.107   3.341 -0.1796  0.6133 -0.8811
  918TIP3    H2 2719   3.826   5.028   3.302 -0.1639 -0.5857  1.3411
  919TIP3   OH2 2720   5.227   6.598   2.163 -0.6293 -0.4298  0.0363
  919TIP3    H1 2721   5.247   6.689   2.140 -0.9064 -0.4688 -0.3783
  919TIP3    H2 2722   5.312   6.557   2.176 -0.5208  0.1861  1.4480
  920TIP3   OH2 2723   1.515   4.537   0.020 -0.1993 -0.2282 -0.3465
  920TIP3    H1 2724   1.498   4.628  -0.006  1.9874 -0.1972 -1.9586
  920TIP3    H2 2725   1.435   4.510   0.066 -1.8504  1.7653 -1.8288
  921TIP3   OH2 2726   1.750   2.257   2.296 -0.2791 -0.1509 -0.1709
  921TIP3    H1 2727   1.723   2.169   2.324  0.4532  0.0100  1.1291
  921TIP3    H2 2728   1.831   2.273   2.343  0.1341  0.8370 -1.1797
  922TIP3   OH2 2729   2.268   0.097   4.237  0.0144 -0.3653  0.2041
  922TIP3    H1 2730   2.314   0.039   4.176 -1.6218 -0.4988 -0.9885
  922TIP3    H2 2731   2.180   0.061   4.242  0.2193 -0.7257  3.2096
  923TIP3   OH2 2732   0.913   2.586   2.786  0.2876  0.2251 -0.1353
  923TIP3    H1 2733   0.971   2.660   2.800 -2.2011  1.8878  2.6247
  923TIP3    H2 2734   0.950   2.516   2.840  0.8999  0.5113 -0.1741
  924TIP3   OH2 2735   1.829   5.364   0.791  0.5523  0.0016  0.6862
  924TIP3    H1 2736   1.884   5.288   0.810  0.5361 -0.3735 -0.6511
  924TIP3    H2 2737   1.833   5.418   0.870  1.5800 -0.7784  1.1784
  925TIP3   OH2 2738   4.980   6.414   3.985  0.4904 -0.2443  0.0281
  925TIP3    H1 2739   5.051   6.463   4.027  1.8237 -1.1504 -1.0807
  925TIP3    H2 2740   4.970   6.336   4.039 -2.0246  1.3502  2.1317
  926TIP3   OH2 2741   2.849   5.537   5.160  0.6057  0.4641  0.0179
  926TIP3    H1 2742   2.852   5.597   5.085  0.0056  0.2262 -0.2032
  926TIP3    H2 2743   2.863   5.450   5.121  0.0279  0.3113  0.1397
  927TIP3   OH2 2744   4.605   5.896   1.501  0.2118  0.1278  0.2090
  927TIP3    H1 2745   4.515   5.900   1.469 -0.0983  1.7866  1.2004
  927TIP3    H2 2746   4.623   5.983   1.535  1.7284 -0.5643  1.3094
  928TIP3   OH2 2747   6.469   4.664   3.499 -0.0625 -0.3761 -0.5082
  928TIP3    H1 2748   6.395   4.696   3.447  1.0473  0.8406 -1.4256
  928TIP3    H2 2749   6.483   4.733   3.564 -1.1399 -1.6721  1.1686
  929TIP3   OH2 2750   3.330   4.381   4.472 -0.7557 -0.2306  0.1405
  929TIP3    H1 2751   3.356   4.472   4.466 -2.1058  0.2194  0.6603
  929TIP3    H2 2752   3.234   4.383   4.467 -0.7698 -1.7586 -1.4820
  930TIP3   OH2 2753   1.515   4.382   4.128  0.0795  0.1718  0.2099
  930TIP3    H1 2754   1.435   4.435   4.122 -0.2609 -0.3993 -0.5138
  930TIP3    H2 2755   1.483   4.292   4.138  0.5998 -0.1821 -1.0557
  931TIP3   OH2 2756   4.041   0.060   0.966 -0.2785  0.4283  0.0867
  931TIP3    H1 2757   3.985   0.130   1.000  0.0916 -0.5286  2.8797
  931TIP3    H2 2758   4.065   0.009   1.042  1.3806 -1.4140 -1.5555
  932TIP3   OH2 2759   2.338   4.721   4.240 -0.7434 -0.0903  0.6246
  932TIP3    H1 2760   2.353   4.627   4.236 -1.5287 -0.1925 -0.8853
  932TIP3    H2 2761   2.425   4.760   4.246 -0.3503 -0.8806  0.1672
  933TIP3   OH2 2762   6.114   6.506   5.812  0.4501 -0.5209 -0.1350
  933TIP3    H1 2763   6.183   6.536   5.753 -2.3551  3.2138 -1.9587
  933TIP3    H2 2764   6.103   6.579   5.874  0.5835 -2.6678  2.5872
  934TIP3   OH2 2765   5.555   0.245   1.654 -0.3387 -0.4560 -0.4585
  934TIP3    H1 2766   5.472   0.218   1.692 -0.8840  0.7037 -0.7605
  934TIP3    H2 2767   5.584   0.170   1.602 -0.4058 -1.4443  0.8832
  935TIP3   OH2 2768   4.945   2.323   1.549 -0.7857  0.4665 -0.8421
  935TIP3    H1 2769   4.879   2.254   1.541 -1.4105  0.6824  1.5761
  935TIP3    H2 2770   5.028   2.278   1.530 -1.4610 -0.1819 -2.3730
  936TIP3   OH2 2771   6.513   0.347   3.893 -0.3743 -0.3400  0.0816
  936TIP3    H1 2772   6.464   0.406   3.835 -3.3866 -1.0921  1.6101
  936TIP3    H2 2773   6.497   0.260   3.858 -0.0401 -0.5955  0.5587
  937TIP3   OH2 2774   4.169   4.323   4.684 -0.1734 -0.1428 -0.2850
  937TIP3    H1 2775   4.192   4.408   4.722  0.4508 -0.1521 -0.6130
  937TIP3    H2 2776   4.224   4.260   4.731  0.1834 -0.2220 -0.7938
  938TIP3   OH2 2777   1.444   1.729   4.309  0.1251 -0.0429  0.3132
  938TIP3    H1 2778   1.432   1.685   4.393  0.7307 -0.5217  0.1579
  938TIP3    H2 2779   1.524   1.781   4.320  0.6608 -0.7304 -0.2082
  939TIP3   OH2 2780   2.558   0.492   1.407  1.0452  0.5312  0.3160
  939TIP3    H1 2781   2.547   0.470   1.499 -1.0849  1.2402  0.2859
  939TIP3    H2 2782   2.652   0.482   1.391  1.3107 -0.6719  2.2628
  940TIP3   OH2 2783   3.642   5.615   3.957 -0.0195 -0.3976  0.0863
  940TIP3    H1 2784   3.610   5.681   4.019  1.3945 -0.4884  0.9638
  940TIP3    H2 2785   3.732   5.598   3.986  0.2149 -1.4268 -1.2020
  941TIP3   OH2 2786   6.187   4.089   3.355 -0.1054  0.6144  0.3577
  941TIP3    H1 2787   6.253   4.150   3.386  2.2819 -1.2415 -0.7507
  941TIP3    H2 2788   6.172   4.114   3.264  0.4141 -0.0106  0.0885
  942TIP3   OH2 2789   0.008   6.709   3.724 -0.2465  0.4192 -0.1871
  942TIP3    H1 2790  -0.064   6.672   3.673  1.1589  0.4365 -2.3213
  942TIP3    H2 2791   0.056   6.764   3.661  1.1272  1.0937  1.3775
  943TIP3   OH2 2792   5.290   1.103   0.466 -0.2065 -0.1942  0.1417
  943TIP3    H1 2793   5.261   1.029   0.412  0.5218 -1.3186  1.2446
  943TIP3    H2 2794   5.221   1.169   0.455 -0.6036 -0.8131 -1.2896
  944TIP3   OH2 2795   6.955   4.274   4.972  0.2428 -0.1070  0.1925
  944TIP3    H1 2796   6.896   4.259   5.046 -1.7324 -2.2512 -1.6573
  944TIP3    H2 2797   6.902   4.254   4.894  2.6727  0.4243 -1.7422
  945TIP3   OH2 2798   4.374   6.738   1.582  0.3016 -0.2018 -0.2068
  945TIP3    H1 2799   4.412   6.700   1.502  2.0087 -3.1400  1.7718
  945TIP3    H2 2800   4.325   6.666   1.621  0.9757  0.5802  2.2246
  946TIP3   OH2 2801   2.740   6.444   0.205 -0.1775 -0.2510  0.7321
  946TIP3    H1 2802   2.822   6.485   0.177 -0.1251 -1.1234 -0.4713
  946TIP3    H2 2803   2.724   6.479   0.292  1.6587 -0.3114  1.1348
  947TIP3   OH2 2804   6.783   2.204   0.069 -0.0662 -0.2836 -0.0891
  947TIP3    H1 2805   6.825   2.175   0.150  1.3285  1.1302 -0.2618
  947TIP3    H2 2806   6.855   2.213   0.007 -0.8520  0.5331 -0.9125
  948TIP3   OH2 2807   3.857   5.201   1.984 -0.2299 -0.2732 -0.0634
  948TIP3    H1 2808   3.945   5.236   1.974  1.5821 -3.9125  1.3184
  948TIP3    H2 2809   3.842   5.200   2.079 -0.2939 -2.5964 -0.0235
  949TIP3   OH2 2810   2.777   5.336   4.943 -0.8271  0.1923  0.3263
  949TIP3    H1 2811   2.774   5.245   4.973  0.9179  0.4554  1.4089
  949TIP3    H2 2812   2.685   5.359   4.929 -1.2622 -2.0194 -0.9592
  950TIP3   OH2 2813   6.066   2.120   2.226 -0.2324  0.2555  0.0478
  950TIP3    H1 2814   6.124   2.195   2.213  1.2399 -0.4375  2.1322
  950TIP3    H2 2815   6.121   2.043   2.208 -1.7295 -0.4161 -2.1319
  951TIP3   OH2 2816   3.298   6.459   4.274 -0.1128 -0.5833 -0.4401
  951TIP3    H1 2817   3.357   6.484   4.203 -1.5426  0.3717 -1.3586
  951TIP3    H2 2818   3.342   6.486   4.354  0.4426  0.6592 -1.1406
  952TIP3   OH2 2819   3.064   4.738   5.584 -0.3401 -0.1256  0.1632
  952TIP3    H1 2820   3.122   4.806   5.550 -0.0095 -0.6630 -0.3632
  952TIP3    H2 2821   3.105   4.655   5.557 -1.2097 -0.5160 -0.0003
  953TIP3   OH2 2822   4.448   6.379   3.140 -0.0180 -0.2522 -0.3695
  953TIP3    H1 2823   4.538   6.363   3.169 -1.2647 -3.3401  2.5426
  953TIP3    H2 2824   4.435   6.320   3.066 -0.1347 -1.3217  0.4720
  954TIP3   OH2 2825   0.928   1.171   0.222 -0.0582  0.2970 -0.1853
  954TIP3    H1 2826   0.970   1.177   0.136  1.8701  0.7405  0.7177
  954TIP3    H2 2827   0.939   1.258   0.260  1.8569 -0.6594  1.6477
  955TIP3   OH2 2828   6.224   1.571   2.309 -0.4216 -0.0876  0.0009
  955TIP3    H1 2829   6.161   1.585   2.379 -0.6416 -1.4840  0.1072
  955TIP3    H2 2830   6.233   1.476   2.303  1.0073  0.0533 -0.6071
  956TIP3   OH2 2831   0.046   4.038   5.764  0.6565 -0.1113  0.3089
  956TIP3    H1 2832   0.028   4.132   5.764  1.9086  0.1478  0.0992
  956TIP3    H2 2833  -0.001   4.004   5.688 -2.0401 -0.1553  1.8748
  957TIP3   OH2 2834   4.827   0.638   5.795  0.2282  0.0815  0.1506
  957TIP3    H1 2835   4.834   0.639   5.699  0.1066  0.0979  0.1419
  957TIP3    H2 2836   4.885   0.708   5.824  1.5618 -0.9820  0.1713
  958TIP3   OH2 2837   6.701   4.887   4.458 -0.3223  0.5640  0.6731
  958TIP3    H1 2838   6.783   4.846   4.432 -0.9323 -0.2307 -0.0303
  958TIP3    H2 2839   6.722   4.980   4.465  0.7711  0.2938  1.0541
  959TIP3   OH2 2840   3.292   4.289   1.148 -0.4669  0.2085  0.3478
  959TIP3    H1 2841   3.317   4.222   1.212  1.1529  0.2728 -0.1734
  959TIP3    H2 2842   3.298   4.371   1.196  0.1333  0.2002  0.2971
  960TIP3   OH2 2843   5.650   4.473   3.610  0.3065  0.1977 -0.3800
  960TIP3    H1 2844   5.557   4.482   3.629  0.7270  0.1888  1.9112
  960TIP3    H2 2845   5.659   4.384   3.576 -0.4616  0.0871 -0.3168
  961TIP3   OH2 2846   0.084   1.786   2.263 -0.0553 -0.0645 -0.4856
  961TIP3    H1 2847   0.095   1.712   2.323  1.1936 -0.0008 -0.6094
  961TIP3    H2 2848   0.025   1.754   2.195 -1.4531 -0.1581  0.7287
  962TIP3   OH2 2849   2.229   3.709   4.699  0.1134  0.4830  0.0161
  962TIP3    H1 2850   2.242   3.629   4.648  0.2715  1.4412 -1.5067
  962TIP3    H2 2851   2.297   3.707   4.766 -0.4583 -1.0886  0.6067
  963TIP3   OH2 2852   6.056   5.654   1.026  0.2072  0.2925  0.2761
  963TIP3    H1 2853   6.023   5.573   1.065 -0.5839 -0.3997 -1.6812
  963TIP3    H2 2854   6.016   5.723   1.079  0.4638 -0.5730  1.6522
  964TIP3   OH2 2855   2.038   6.627   3.324 -0.0186  0.5642 -0.4952
  964TIP3    H1 2856   2.085   6.569   3.384 -1.7393 -0.9728 -0.5449
  964TIP3    H2 2857   1.979   6.678   3.380 -0.2496  0.5044 -0.6802
  965TIP3   OH2 2858   4.334   1.314   0.480  0.3591 -0.3713 -0.2413
  965TIP3    H1 2859   4.389   1.387   0.509 -0.1954  0.0083 -0.1416
  965TIP3    H2 2860   4.247   1.351   0.470  0.3267 -0.7389 -1.4280
  966TIP3   OH2 2861   1.688   1.929   4.019 -0.2965 -0.0532 -0.1015
  966TIP3    H1 2862   1.606   1.961   4.056 -0.2143 -0.8995  0.8724
  966TIP3    H2 2863   1.665   1.844   3.982  0.3069 -0.7113  0.9865
  967TIP3   OH2 2864   4.730   4.461   1.190 -1.0504  0.4416 -0.5461
  967TIP3    H1 2865   4.745   4.555   1.177 -0.4060  0.6022  1.0672
  967TIP3    H2 2866   4.659   4.457   1.255  0.9214 -0.0514  1.7355
  968TIP3   OH2 2867   5.190   1.089   3.000  0.1687  0.3275 -0.0902
  968TIP3    H1 2868   5.189   1.049   3.086 -1.4080  2.5217  1.0200
  968TIP3    H2 2869   5.136   1.168   3.009 -2.5193 -0.7950 -3.7799
  969TIP3   OH2 2870   3.358   6.600   3.279 -0.9664 -0.1264  0.2090
  969TIP3    H1 2871   3.413   6.651   3.220 -1.1468  1.5507  1.4062
  969TIP3    H2 2872   3.308   6.666   3.327 -1.7265 -1.4903  1.3540
  970TIP3   OH2 2873   4.325   4.567   3.398  0.9505 -0.4196 -0.1715
  970TIP3    H1 2874   4.416   4.596   3.400  0.7586  0.1865  0.7633
  970TIP3    H2 2875   4.277   4.638   3.442 -0.2400  0.1489 -2.2321
  971TIP3   OH2 2876   1.258   5.628  -0.001 -0.0201 -0.0051 -0.2655
  971TIP3    H1 2877   1.201   5.630   0.076 -0.3322  1.0204 -0.5021
  971TIP3    H2 2878   1.324   5.695   0.017  0.8992 -0.9164 -0.1677
  972TIP3   OH2 2879   0.350   0.995   4.705 -0.4597 -0.0713 -0.4545
  972TIP3    H1 2880   0.427   0.959   4.661 -0.3401  0.6338 -0.8275
  972TIP3    H2 2881   0.278   0.937   4.680 -0.2664 -0.0605 -1.0297
  973TIP3   OH2 2882   1.195   3.268   3.309  0.1665  0.0837 -0.5627
  973TIP3    H1 2883   1.189   3.344   3.252  0.8612  0.0672 -0.6699
  973TIP3    H2 2884   1.201   3.193   3.250 -0.0902 -0.0192 -0.4603
  974TIP3   OH2 2885   1.712   0.964   5.203  0.0347 -0.8150 -0.0342
  974TIP3    H1 2886   1.751   0.956   5.290 -2.0654 -0.0944  1.0566
  974TIP3    H2 2887   1.722   1.057   5.181  2.1936 -1.3110 -1.4561
  975TIP3   OH2 2888   6.445   0.017   1.515 -0.4171  0.4838 -0.0551
  975TIP3    H1 2889   6.498   0.094   1.498  2.0341 -0.7705  1.4648
  975TIP3    H2 2890   6.406   0.032   1.601  2.1087 -0.8982  1.4552
  976TIP3   OH2 2891   1.215   4.315   5.799  0.6927 -0.3264  0.3726
  976TIP3    H1 2892   1.235   4.344   5.888 -2.1421 -1.1883  1.4056
  976TIP3    H2 2893   1.131   4.270   5.807 -0.5697  1.1004 -3.0706
  977TIP3   OH2 2894   2.381   0.637   5.499  0.2658  0.3137 -0.1516
  977TIP3    H1 2895   2.378   0.716   5.553 -1.8749  1.9909 -2.4661
  977TIP3    H2 2896   2.447   0.657   5.432  1.0241 -0.6496  0.2953
  978TIP3   OH2 2897   4.166   4.589   4.756 -0.2524  0.0022  0.1311
  978TIP3    H1 2898   4.129   4.583   4.844  0.3267 -0.9227  0.3278
  978TIP3    H2 2899   4.198   4.679   4.749 -1.7983  0.5982  0.2379
  979TIP3   OH2 2900   5.285   0.387   5.431  0.0515 -0.3316 -0.2885
  979TIP3    H1 2901   5.234   0.307   5.445  1.3537 -1.1779 -0.2259
  979TIP3    H2 2902   5.345   0.391   5.505  0.0871  0.6428 -0.3561
  980TIP3   OH2 2903   1.027   3.661   2.773  0.3570  0.6894 -0.7417
  980TIP3    H1 2904   0.967   3.597   2.734 -0.1645  0.7574 -0.0740
  980TIP3    H2 2905   1.098   3.669   2.709 -0.0624  0.1848 -1.2895
  981TIP3   OH2 2906   0.527   5.877   4.518 -0.8324  0.4993  0.0156
  981TIP3    H1 2907   0.488   5.845   4.600  3.0091  0.7446  2.2049
  981TIP3    H2 2908   0.581   5.803   4.488 -0.0183  1.3762 -0.7201
  982TIP3   OH2 2909   4.959   0.339   5.570  0.6215  0.0018  0.2810
  982TIP3    H1 2910   5.042   0.338   5.619  1.1199  1.0601 -0.5069
  982TIP3    H2 2911   4.917   0.421   5.596  1.0682  0.7651 -1.3081
  983TIP3   OH2 2912   3.953   5.052   4.476  0.3587 -0.0448  0.1230
  983TIP3    H1 2913   3.923   5.102   4.401 -1.2306 -1.4919 -0.2457
  983TIP3    H2 2914   4.017   4.990   4.440  0.4932  0.0623  0.1747
  984TIP3   OH2 2915   1.070   0.786   1.981  0.4997 -0.1680  0.2026
  984TIP3    H1 2916   1.019   0.837   1.918  1.2368  0.2347 -0.0861
  984TIP3    H2 2917   1.158   0.783   1.942  1.0160  0.2640  1.3010
  985TIP3   OH2 2918   3.435   1.372   2.326 -0.1293  0.6940  0.0753
  985TIP3    H1 2919   3.527   1.395   2.314  0.3122 -1.6677 -1.7682
  985TIP3    H2 2920   3.393   1.400   2.244 -1.2587  2.3751  1.1650
  986TIP3   OH2 2921   3.274   0.681   0.283  0.6831  0.8076 -0.1719
  986TIP3    H1 2922   3.263   0.591   0.254 -0.4168  0.7151  0.4922
  986TIP3    H2 2923   3.251   0.680   0.376  0.2529  1.8504 -0.2508
  987TIP3   OH2 2924   0.547   5.105   0.381 -0.6250 -0.4364  0.1463
  987TIP3    H1 2925   0.622   5.133   0.432 -0.6524 -1.0859  0.5642
  987TIP3    H2 2926   0.475   5.098   0.445 -0.4344 -2.1416  0.2319
  988TIP3   OH2 2927   4.223   3.077   1.590  0.0398 -0.2574  0.1045
  988TIP3    H1 2928   4.199   3.132   1.665  2.5181  0.0265  0.7579
  988TIP3    H2 2929   4.241   2.991   1.628  2.2618  0.1287  0.0727
  989TIP3   OH2 2930   0.232   6.142   2.111 -0.1470 -0.5629 -0.6521
  989TIP3    H1 2931   0.314   6.191   2.116  0.8213 -1.7090 -3.5932
  989TIP3    H2 2932   0.176   6.182   2.179  0.7048  4.3206 -2.4572
  990TIP3   OH2 2933   1.397   5.080   3.809  0.0827  0.3059 -0.4040
  990TIP3    H1 2934   1.347   5.160   3.822 -1.4546 -0.5275 -0.8605
  990TIP3    H2 2935   1.334   5.019   3.771  1.3495 -0.9562 -0.5594
  991TIP3   OH2 2936   4.597   3.900   0.565 -0.1670 -0.1178 -0.4593
  991TIP3    H1 2937   4.549   3.850   0.498 -1.6527 -0.2985  0.6767
  991TIP3    H2 2938   4.528   3.941   0.618  0.9817  0.6431  0.5050
  992TIP3   OH2 2939   1.411   6.117   4.951 -0.6731 -0.1860 -0.3970
  992TIP3    H1 2940   1.359   6.043   4.982 -0.8042  0.6030  1.3940
  992TIP3    H2 2941   1.377   6.135   4.863 -1.0020 -1.8860 -0.6538
  993TIP3   OH2 2942   6.228   3.974   1.408 -0.4828 -0.1544 -0.1736
  993TIP3    H1 2943   6.157   3.949   1.349 -0.6913 -1.2936  0.5247
  993TIP3    H2 2944   6.240   4.068   1.393 -2.2975  0.1108 -0.1210
  994TIP3   OH2 2945   5.104   0.280   1.399  0.0007 -0.6091 -0.1562
  994TIP3    H1 2946   5.151   0.349   1.447 -3.3610  1.9384 -0.1438
  994TIP3    H2 2947   5.072   0.221   1.468  1.9583 -1.6516 -0.0750
  995TIP3   OH2 2948   3.205   2.661   2.325 -0.1997  0.1397  0.1180
  995TIP3    H1 2949   3.265   2.687   2.255  0.1819 -0.2229  0.3086
  995TIP3    H2 2950   3.177   2.573   2.302  0.1221 -0.0784  0.5491
  996TIP3   OH2 2951   2.589   6.700   5.406 -0.4295  0.0966 -0.3379
  996TIP3    H1 2952   2.626   6.656   5.329  0.5663 -0.5425  0.4741
  996TIP3    H2 2953   2.565   6.628   5.465  0.1544  0.5919  0.5382
  997TIP3   OH2 2954   5.496   0.197   0.401  0.2697  0.4873 -0.4546
  997TIP3    H1 2955   5.419   0.141   0.414 -0.5948  1.5777 -0.6897
  997TIP3    H2 2956   5.495   0.217   0.308  0.1000  1.5291 -0.2352
  998TIP3   OH2 2957   3.014   2.196   4.367  0.0644  0.3044 -0.4625
  998TIP3    H1 2958   2.994   2.228   4.456  0.3996  1.0394 -0.6464
  998TIP3    H2 2959   2.966   2.255   4.309  1.3329  0.9914 -0.8433
  999TIP3   OH2 2960   6.330   4.980   0.604  0.4608  0.1773 -0.1124
  999TIP3    H1 2961   6.241   5.013   0.588  0.2116 -0.5454 -0.2819
  999TIP3    H2 2962   6.333   4.896   0.558  1.0503 -0.0698  0.3550
 1000TIP3   OH2 2963   7.088   5.635   2.409  0.2659 -0.4455 -0.4935
 1000TIP3    H1 2964   7.062   5.544   2.421  0.3525 -0.2583  1.4197
 1000TIP3    H2 2965   7.171   5.644   2.456 -0.2373  0.8315  0.2278
 1001TIP3   OH2 2966   5.130   4.874   5.112 -0.0395 -0.3708 -0.4232
 1001TIP3    H1 2967   5.223   4.854   5.102  0.1550 -0.6389  1.6239
 1001TIP3    H2 2968   5.128   4.957   5.159 -0.7998 -0.9808  0.6814
 1002TIP3   OH2 2969   5.361   5.374   4.512 -0.5427 -0.5309 -0.0710
 1002TIP3    H1 2970   5.309   5.369   4.592 -1.0766  0.9501 -0.2992
 1002TIP3    H2 2971   5.443   5.415   4.539 -0.2089 -1.2081 -0.0490
 1003TIP3   OH2 2972   1.680   5.278   5.039 -0.3476 -0.9859 -0.9475
 1003TIP3    H1 2973   1.773   5.258   5.028 -0.3542  0.0860 -3.6347
 1003TIP3    H2 2974   1.678   5.349   5.103  0.7315 -0.7257 -1.1801
 1004TIP3   OH2 2975   5.295   2.251   1.043 -0.2401 -0.4084 -0.3932
 1004TIP3    H1 2976   5.352   2.239   1.119 -1.5973  1.0732  0.9138
 1004TIP3    H2 2977   5.247   2.169   1.036 -1.2591 -0.0083  1.3863
 1005TIP3   OH2 2978   5.462   4.473   5.824  0.4479  0.3109 -0.1028
 1005TIP3    H1 2979   5.511   4.448   5.902 -0.8436 -1.1784  0.2908
 1005TIP3    H2 2980   5.507   4.430   5.752  0.9716  0.7429 -0.0385
 1006TIP3   OH2 2981   2.575   3.261   1.923 -0.7028 -0.1968  0.6325
 1006TIP3    H1 2982   2.536   3.282   2.008  0.0711  0.0810  0.9299
 1006TIP3    H2 2983   2.520   3.191   1.888  0.3396 -2.0076  2.4254
 1007TIP3   OH2 2984   4.188   6.427   5.375 -0.4634 -0.1614 -0.7453
 1007TIP3    H1 2985   4.277   6.458   5.360 -0.2562  1.1083  2.2586
 1007TIP3    H2 2986   4.133   6.505   5.365 -1.2331 -0.8432 -2.1421
 1008TIP3   OH2 2987   7.141   6.257   1.974  0.1370 -0.4227  0.2788
 1008TIP3    H1 2988   7.119   6.347   1.997  2.2151 -0.2501  1.8959
 1008TIP3    H2 2989   7.130   6.208   2.056 -1.5648 -1.8212 -0.7154
 1009TIP3   OH2 2990   6.122   3.842   1.667  0.0172  0.3224  0.0172
 1009TIP3    H1 2991   6.165   3.885   1.594 -0.4692  0.0658 -0.4274
 1009TIP3    H2 2992   6.059   3.782   1.626 -2.0124  1.9230  0.6385
 1010TIP3   OH2 2993   3.777   3.195   0.431 -0.1476 -0.6168 -0.4217
 1010TIP3    H1 2994   3.770   3.132   0.359 -1.2443 -1.2579  0.2096
 1010TIP3    H2 2995   3.785   3.280   0.388 -1.7689 -0.8778 -1.3444
 1011TIP3   OH2 2996   2.728   1.148   3.239  0.0023  0.7029 -0.4385
 1011TIP3    H1 2997   2.776   1.075   3.198 -1.3658 -0.6824  0.3298
 1011TIP3    H2 2998   2.782   1.225   3.221  0.7806 -0.2562 -2.5365
 1012TIP3   OH2 2999   4.810   0.921   1.325  0.0038  0.3780  0.0666
 1012TIP3    H1 3000   4.825   1.014   1.341  1.0481  0.1011  0.8346
 1012TIP3    H2 3001   4.809   0.881   1.412 -0.8477 -0.2768 -0.2299
 1013TIP3   OH2 3002   6.514   5.062   5.721  0.8156 -0.5701 -0.2876
 1013TIP3    H1 3003   6.418   5.069   5.719  0.7679  2.2238  2.3559
 1013TIP3    H2 3004   6.543   5.099   5.638 -0.4751  1.9931  0.2790
 1014TIP3   OH2 3005   4.916   4.821   4.447 -0.1628 -1.1286 -0.3185
 1014TIP3    H1 3006   4.970   4.742   4.451 -0.7016 -1.5260 -0.7356
 1014TIP3    H2 3007   4.840   4.796   4.394 -0.2497 -0.2742 -0.6183
 1015TIP3   OH2 3008   0.502   5.735   3.754  0.1602  0.1390 -0.1045
 1015TIP3    H1 3009   0.576   5.758   3.698 -0.4895 -0.8605 -1.4307
 1015TIP3    H2 3010   0.511   5.641   3.768 -1.2846 -0.1732 -1.0009
 1016TIP3   OH2 3011   0.896   2.687   2.347  0.1578  0.3658 -0.5141
 1016TIP3    H1 3012   0.976   2.723   2.387 -0.4489 -0.3111  1.4400
 1016TIP3    H2 3013   0.926   2.649   2.264  1.6124  1.2936 -0.4613
 1017TIP3   OH2 3014   2.204   6.659   2.814 -0.1042  0.2978 -0.0738
 1017TIP3    H1 3015   2.288   6.694   2.841 -0.1275 -0.5291  1.1241
 1017TIP3    H2 3016   2.143   6.685   2.884 -0.6037 -0.0906 -0.3568
 1018TIP3   OH2 3017   5.739   1.863   2.957  0.3106  0.4430  0.3774
 1018TIP3    H1 3018   5.669   1.886   3.019  0.0086 -2.0525  1.0598
 1018TIP3    H2 3019   5.700   1.878   2.871  0.3021  2.7380  0.7240
 1019TIP3   OH2 3020   0.252   2.198   2.946 -0.9705  0.1497  0.1081
 1019TIP3    H1 3021   0.291   2.236   2.866  1.5707  2.1629  2.1062
 1019TIP3    H2 3022   0.284   2.108   2.947  2.0315  1.0863  0.4860
 1020TIP3   OH2 3023   5.630   5.423   0.470 -0.0930  0.2372 -0.2135
 1020TIP3    H1 3024   5.609   5.331   0.455 -2.1637  0.2077  2.1055
 1020TIP3    H2 3025   5.695   5.421   0.540 -0.3803  0.5124  0.0670
 1021TIP3   OH2 3026   0.300   2.760   3.502 -0.1406  0.4523 -0.0409
 1021TIP3    H1 3027   0.213   2.769   3.543  0.5883  0.3861  1.5825
 1021TIP3    H2 3028   0.282   2.768   3.408 -1.8922  0.5530  0.2539
 1022TIP3   OH2 3029   3.458   6.503   5.684  0.0792 -0.3969 -0.6380
 1022TIP3    H1 3030   3.437   6.521   5.592 -0.7491 -0.4416 -0.4717
 1022TIP3    H2 3031   3.488   6.588   5.718  3.1500 -0.9772 -1.6154
 1023TIP3   OH2 3032   6.729   1.055   0.282  0.3919 -0.0278 -0.1629
 1023TIP3    H1 3033   6.816   1.095   0.281  0.3184  0.1679 -1.6088
 1023TIP3    H2 3034   6.698   1.064   0.191 -0.7543 -0.9176  0.1202
 1024TIP3   OH2 3035   2.426   3.617   4.870  0.0555  0.1666 -0.0327
 1024TIP3    H1 3036   2.394   3.534   4.906  2.3930 -0.4446  0.8279
 1024TIP3    H2 3037   2.455   3.667   4.946  2.5620 -0.0168 -0.7590
 1025TIP3   OH2 3038   4.405   4.691   5.611 -0.0420 -0.0596 -0.4910
 1025TIP3    H1 3039   4.402   4.777   5.652 -0.0368  0.3587 -1.3465
 1025TIP3    H2 3040   4.387   4.708   5.518 -0.8360 -1.0671 -0.5380
 1026TIP3   OH2 3041   6.091   6.094   3.346 -0.1864 -0.2748  0.3034
 1026TIP3    H1 3042   6.081   6.082   3.441 -0.4089 -0.4676  0.2576
 1026TIP3    H2 3043   6.127   6.011   3.315 -0.0312 -0.1802  0.2306
 1027TIP3   OH2 3044   1.181   0.232   4.895 -0.1770  0.0348 -0.5993
 1027TIP3    H1 3045   1.151   0.147   4.927 -0.5698 -0.4279 -2.1379
 1027TIP3    H2 3046   1.102   0.273   4.858  0.4591  0.0868 -1.9492
 1028TIP3   OH2 3047   2.793   5.038   2.906  0.2842  0.1216 -0.0489
 1028TIP3    H1 3048   2.879   5.003   2.882  0.9001  0.8417  1.0252
 1028TIP3    H2 3049   2.754   5.065   2.823  0.8416 -0.7601 -0.6124
 1029TIP3   OH2 3050   6.439   1.255   3.302 -0.1920  0.3669  0.2076
 1029TIP3    H1 3051   6.524   1.262   3.259  0.4501 -0.6208  1.2612
 1029TIP3    H2 3052   6.454   1.286   3.391 -0.9696  0.2759  0.3832
 1030TIP3   OH2 3053   4.382   4.137   3.856 -0.5361  0.1518 -0.5090
 1030TIP3    H1 3054   4.349   4.218   3.896  1.5073  1.1916 -0.7924
 1030TIP3    H2 3055   4.377   4.154   3.762 -1.6727 -0.7547 -0.6328
 1031TIP3   OH2 3056   2.281   5.941   5.665 -0.1486  0.2122  0.1657
 1031TIP3    H1 3057   2.246   5.901   5.745 -0.8486  0.7991  0.1523
 1031TIP3    H2 3058   2.247   6.030   5.665 -0.5119  0.0902 -1.0072
 1032TIP3   OH2 3059   4.304   1.587   4.088  0.2491 -0.0985 -0.1322
 1032TIP3    H1 3060   4.379   1.625   4.044  0.4518  1.0162  1.1237
 1032TIP3    H2 3061   4.234   1.651   4.076  0.2207  0.0759  0.8492
 1033TIP3   OH2 3062   2.342   0.759   2.785  0.4955  0.2755  0.4716
 1033TIP3    H1 3063   2.301   0.726   2.865 -0.0165  1.7165  0.8389
 1033TIP3    H2 3064   2.279   0.739   2.716  0.0618  0.7021  0.7332
 1034TIP3   OH2 3065   5.345   5.848   5.577 -0.1696 -0.2630  0.3545
 1034TIP3    H1 3066   5.316   5.781   5.639  0.7900 -1.9870 -0.9769
 1034TIP3    H2 3067   5.281   5.847   5.507  0.1204 -0.1383  0.0824
 1035TIP3   OH2 3068   7.070   4.224   0.819  0.0108  0.4103 -0.2286
 1035TIP3    H1 3069   7.134   4.156   0.797  0.0821  0.6199 -0.6804
 1035TIP3    H2 3070   7.039   4.256   0.734  0.9949  1.9148 -0.0594
 1036TIP3   OH2 3071   0.192   6.263   4.303  0.1412  1.0890 -0.2466
 1036TIP3    H1 3072   0.245   6.186   4.323  0.3376  1.2407 -0.1819
 1036TIP3    H2 3073   0.102   6.233   4.312  0.2215  1.0619  0.5163
 1037TIP3   OH2 3074   5.289   5.468   4.252 -0.2259 -0.4812 -0.0235
 1037TIP3    H1 3075   5.310   5.431   4.338 -1.1926  0.0163  0.4343
 1037TIP3    H2 3076   5.372   5.503   4.220  0.4500 -1.9038  0.0776
 1038TIP3   OH2 3077   0.963   2.566   5.310  0.4848 -0.3912 -0.3920
 1038TIP3    H1 3078   1.004   2.651   5.322  1.3027 -0.8352  0.0563
 1038TIP3    H2 3079   0.888   2.583   5.253 -0.5681  0.9568  1.2864
 1039TIP3   OH2 3080   1.852   4.375   2.507  0.0296 -0.5846 -0.3265
 1039TIP3    H1 3081   1.773   4.416   2.542 -0.6812 -1.0440 -1.3302
 1039TIP3    H2 3082   1.916   4.446   2.501 -0.2970 -0.2145  0.5204
 1040TIP3   OH2 3083   0.993   4.380   1.744  0.1437  0.3090 -0.4530
 1040TIP3    H1 3084   1.065   4.432   1.708  0.7695 -0.3883 -0.2558
 1040TIP3    H2 3085   0.920   4.396   1.685  0.2247  1.6245 -0.2286
 1041TIP3   OH2 3086   4.891   3.554   3.656  0.1047  0.8245  0.3460
 1041TIP3    H1 3087   4.816   3.593   3.700  0.7335  0.2121  2.0490
 1041TIP3    H2 3088   4.946   3.628   3.633  0.2502  1.1197  1.5630
 1042TIP3   OH2 3089   5.751   0.789   5.583  0.3949 -0.0663 -0.4523
 1042TIP3    H1 3090   5.807   0.745   5.519  0.5622  0.3293 -0.5838
 1042TIP3    H2 3091   5.672   0.811   5.534 -1.7393 -4.2230  0.6627
 1043TIP3   OH2 3092   5.232   3.438   4.147  0.8548  0.2489  0.0420
 1043TIP3    H1 3093   5.256   3.473   4.233 -2.2853  2.5697  0.1579
 1043TIP3    H2 3094   5.218   3.344   4.163  0.4595  0.5975  2.0875
 1044TIP3   OH2 3095   0.437   5.805   3.389  0.1513  0.1027  0.4691
 1044TIP3    H1 3096   0.430   5.894   3.354  1.3336 -0.2191 -0.7019
 1044TIP3    H2 3097   0.434   5.749   3.311 -0.2570 -0.8581  1.1643
 1045TIP3   OH2 3098   5.894   4.066   2.723 -0.5787 -0.4824 -0.0064
 1045TIP3    H1 3099   5.822   4.005   2.734  0.3633 -1.7186 -0.4434
 1045TIP3    H2 3100   5.962   4.016   2.677 -0.1402  1.1791 -1.3055
 1046TIP3   OH2 3101   2.503   6.543   2.658  0.5760  0.1929  0.1029
 1046TIP3    H1 3102   2.523   6.636   2.646  1.4359  0.0567  0.4372
 1046TIP3    H2 3103   2.495   6.509   2.569  1.1639  0.4005 -0.0356
 1047TIP3   OH2 3104   1.509   3.815   1.495 -0.3761 -0.2176  0.0687
 1047TIP3    H1 3105   1.423   3.847   1.467 -0.6440  0.4120  1.5311
 1047TIP3    H2 3106   1.557   3.894   1.520  0.7101 -0.5467 -0.8676
 1048TIP3   OH2 3107   6.500   3.723   4.589 -0.0986 -0.3762 -0.0537
 1048TIP3    H1 3108   6.524   3.678   4.670  0.8764  0.6607  0.2567
 1048TIP3    H2 3109   6.583   3.750   4.550 -0.4911 -1.6235 -1.8843
 1049TIP3   OH2 3110   1.381   4.987   0.179  0.0536  0.2434 -0.0011
 1049TIP3    H1 3111   1.471   4.959   0.195 -0.6341 -1.7583  0.5172
 1049TIP3    H2 3112   1.338   4.983   0.265 -0.2714  2.3244 -0.0138
 1050TIP3   OH2 3113   6.313   2.163   3.173  0.5862  0.1990  0.0228
 1050TIP3    H1 3114   6.245   2.200   3.229 -1.7297  0.0504 -2.4899
 1050TIP3    H2 3115   6.350   2.238   3.127  2.2427  0.2772  1.3477
 1051TIP3   OH2 3116   0.723   4.744   1.966  0.0434 -0.1136  0.2868
 1051TIP3    H1 3117   0.697   4.751   2.058 -0.0618 -0.2023  0.2643
 1051TIP3    H2 3118   0.675   4.668   1.933  1.5567 -1.2705  0.6436
 1052TIP3   OH2 3119   1.253   1.794   0.060  0.0718  0.1461 -0.5198
 1052TIP3    H1 3120   1.174   1.747   0.085 -0.1352  0.9384  0.4053
 1052TIP3    H2 3121   1.257   1.787  -0.035 -0.3047 -1.1523 -0.4517
 1053TIP3   OH2 3122   1.033   6.706   1.919 -0.6945 -0.3838  0.2656
 1053TIP3    H1 3123   0.964   6.644   1.897  1.6346 -2.9891 -0.2232
 1053TIP3    H2 3124   1.069   6.674   2.002  1.1240 -0.2417 -0.4262
 1054TIP3   OH2 3125   2.622   5.437   5.586 -0.6442 -0.1329 -0.5573
 1054TIP3    H1 3126   2.708   5.448   5.625 -0.9813  0.3146  0.0782
 1054TIP3    H2 3127   2.607   5.518   5.537 -0.5848 -0.3305 -0.9061
 1055TIP3   OH2 3128   4.371   1.744   3.344 -0.0342 -0.7370  0.3765
 1055TIP3    H1 3129   4.392   1.678   3.278  0.5072  0.8539 -1.1098
 1055TIP3    H2 3130   4.289   1.782   3.314  0.5080  0.3923  0.2978
 1056TIP3   OH2 3131   6.806   6.496   4.802  0.0789  0.0299 -0.2570
 1056TIP3    H1 3132   6.723   6.491   4.754  0.8908 -0.3826 -1.6767
 1056TIP3    H2 3133   6.863   6.549   4.746  0.9227 -0.0560  0.4909
 1057TIP3   OH2 3134   2.424   1.069   1.803  0.2186  0.0456 -0.1216
 1057TIP3    H1 3135   2.392   1.100   1.888 -0.2487  0.5427 -0.4706
 1057TIP3    H2 3136   2.518   1.057   1.816  0.3033  1.0059  0.2076
 1058TIP3   OH2 3137   4.317   3.106   2.313  0.3304 -0.1363  0.6415
 1058TIP3    H1 3138   4.306   3.197   2.283  0.2304 -0.6595 -1.0145
 1058TIP3    H2 3139   4.338   3.114   2.406  1.4276  1.6340  0.2903
 1059TIP3   OH2 3140   6.584   1.533   2.434 -0.0512 -0.2349 -0.7902
 1059TIP3    H1 3141   6.644   1.604   2.410 -0.5111  0.5262  0.2254
 1059TIP3    H2 3142   6.526   1.524   2.359 -1.0598  1.6469 -0.2991
 1060TIP3   OH2 3143   3.161   6.278   2.887  0.1701  0.2730  0.1281
 1060TIP3    H1 3144   3.212   6.229   2.951 -1.6520 -1.2958  0.4807
 1060TIP3    H2 3145   3.073   6.281   2.924 -0.2280  2.1168 -0.8482
 1061TIP3   OH2 3146   2.604   2.656   4.336  0.5438 -0.2265 -0.5734
 1061TIP3    H1 3147   2.682   2.675   4.388  0.4946  1.0067 -0.9215
 1061TIP3    H2 3148   2.637   2.625   4.252  0.6453 -0.7318 -0.3454
 1062TIP3   OH2 3149   5.624   4.566   1.681 -0.5740 -0.3463  0.0703
 1062TIP3    H1 3150   5.611   4.635   1.746 -0.6520 -0.8092  0.5553
 1062TIP3    H2 3151   5.715   4.576   1.652  0.2075 -1.5191  1.9210
 1063TIP3   OH2 3152   3.987   0.127   5.012 -0.2781  0.5363 -0.4957
 1063TIP3    H1 3153   3.995   0.208   5.061  3.8943  0.8611 -1.3935
 1063TIP3    H2 3154   4.017   0.059   5.072  1.3550  0.4522 -1.3468
 1064TIP3   OH2 3155   2.604   0.680   3.726 -0.0151 -0.2001 -0.4927
 1064TIP3    H1 3156   2.586   0.679   3.632  0.8282 -0.8066 -0.6614
 1064TIP3    H2 3157   2.607   0.587   3.751  0.0382 -0.0504  0.0683
 1065TIP3   OH2 3158   1.135   2.867   3.220  0.2743 -0.1981  0.4963
 1065TIP3    H1 3159   1.152   2.785   3.266  2.8785 -0.5232 -0.8666
 1065TIP3    H2 3160   1.045   2.891   3.245 -0.8278 -3.7510  0.4480
 1066TIP3   OH2 3161   6.179   6.766   4.926 -0.6402  0.3902 -0.2127
 1066TIP3    H1 3162   6.094   6.740   4.890 -0.0704 -1.5476 -0.2879
 1066TIP3    H2 3163   6.227   6.800   4.851 -0.2311 -1.5833 -0.9057
 1067TIP3   OH2 3164   6.364   4.186   3.543 -0.1392 -0.2613 -0.2883
 1067TIP3    H1 3165   6.436   4.226   3.495  0.7009 -1.5914 -0.1890
 1067TIP3    H2 3166   6.366   4.227   3.629 -0.3928  0.6963 -0.7228
 1068TIP3   OH2 3167   3.507   2.894   5.778  0.0379  0.7839 -0.3576
 1068TIP3    H1 3168   3.589   2.875   5.825  0.3794 -0.0292 -1.2553
 1068TIP3    H2 3169   3.439   2.865   5.838  0.4068  1.3004  0.3284
 1069TIP3   OH2 3170   4.747   0.585   0.489  0.3012 -0.4859  0.5436
 1069TIP3    H1 3171   4.826   0.607   0.440  0.8127 -0.1033  1.5058
 1069TIP3    H2 3172   4.676   0.624   0.438  0.8430  0.1259  0.2314
 1070TIP3   OH2 3173   2.744   0.183   3.105 -0.0647 -0.2897  0.2675
 1070TIP3    H1 3174   2.712   0.246   3.170 -0.5113 -1.5290  1.2870
 1070TIP3    H2 3175   2.778   0.111   3.158  1.6525 -0.3528 -0.8476
 1071TIP3   OH2 3176   5.187   4.677   2.374  0.0906 -0.0776  0.1747
 1071TIP3    H1 3177   5.176   4.665   2.469  1.6007  1.4739  0.5868
 1071TIP3    H2 3178   5.200   4.771   2.363  2.9295 -0.5151 -1.1850
 1072TIP3   OH2 3179   2.572   1.093   3.870  0.1531 -0.0760 -0.2788
 1072TIP3    H1 3180   2.553   1.106   3.777  1.5260 -2.4762 -0.9701
 1072TIP3    H2 3181   2.646   1.033   3.872  1.1688  1.0622  2.3790
 1073TIP3   OH2 3182   5.235   4.406   5.693  0.0411  0.1157  0.0585
 1073TIP3    H1 3183   5.302   4.429   5.757  0.5894  0.4088 -0.6112
 1073TIP3    H2 3184   5.167   4.473   5.704  0.7480  0.9680 -0.5620
 1074TIP3   OH2 3185   6.777   2.804   5.363  0.6486 -0.6800 -0.1706
 1074TIP3    H1 3186   6.868   2.819   5.390  0.7253 -1.0886 -0.1972
 1074TIP3    H2 3187   6.770   2.847   5.278 -0.0854  2.1827  1.2094
 1075TIP3   OH2 3188   3.364   6.734   2.417  0.3913  0.1342  0.2227
 1075TIP3    H1 3189   3.334   6.778   2.338  1.1067 -0.0456 -0.1569
 1075TIP3    H2 3190   3.457   6.756   2.423  0.5814 -0.6944  0.4389
 1076TIP3   OH2 3191   7.128   4.562   5.121  0.1278 -0.5184 -0.1396
 1076TIP3    H1 3192   7.092   4.474   5.125  0.7070 -0.7185  1.0573
 1076TIP3    H2 3193   7.057   4.616   5.085 -1.1750 -1.0049  1.5927
 1077TIP3   OH2 3194   0.637   6.546   5.098 -0.6075  0.3089 -0.6197
 1077TIP3    H1 3195   0.634   6.525   5.005  0.2345 -1.4154 -0.2905
 1077TIP3    H2 3196   0.572   6.488   5.138  0.0183  0.0409  0.0255
 1078TIP3   OH2 3197   2.798   3.950   1.465 -0.6136 -0.3322 -0.0473
 1078TIP3    H1 3198   2.893   3.942   1.471 -0.7600 -1.3135  2.6188
 1078TIP3    H2 3199   2.770   3.872   1.416 -0.2267 -2.7119  3.1685
 1079TIP3   OH2 3200   4.641   4.756   1.466 -0.1527  0.0097  0.3275
 1079TIP3    H1 3201   4.716   4.797   1.510  0.4307  2.3902 -2.5625
 1079TIP3    H2 3202   4.568   4.769   1.526  1.4094 -1.2820  2.6846
 1080TIP3   OH2 3203   0.419   0.876   1.201  0.1187  0.1107  0.1541
 1080TIP3    H1 3204   0.336   0.840   1.171  0.6417 -0.6748 -0.4201
 1080TIP3    H2 3205   0.447   0.817   1.271  1.5007 -1.3227 -1.5156
 1081TIP3   OH2 3206   1.748   6.686   3.116  0.0600 -0.1181  0.0056
 1081TIP3    H1 3207   1.699   6.725   3.188  0.7394  1.4256 -0.3232
 1081TIP3    H2 3208   1.721   6.595   3.115 -2.6891  0.6110 -0.0670
 1082TIP3   OH2 3209   1.610   5.504   3.905 -1.0192  0.6344  0.0016
 1082TIP3    H1 3210   1.521   5.532   3.927 -0.4729  1.5784  1.0729
 1082TIP3    H2 3211   1.651   5.483   3.989 -0.1048  0.5610 -0.4449
 1083TIP3   OH2 3212   4.283   2.852   3.753 -0.7050 -0.2912 -0.0819
 1083TIP3    H1 3213   4.198   2.816   3.728 -0.6064 -0.0078 -0.8530
 1083TIP3    H2 3214   4.340   2.776   3.760 -0.9531 -0.4567  0.1620
 1084TIP3   OH2 3215   0.956   0.866   4.794  0.4780 -0.4080  0.1315
 1084TIP3    H1 3216   0.961   0.814   4.874 -1.8912  1.7069  1.8429
 1084TIP3    H2 3217   1.037   0.918   4.794  0.1305  0.1893  1.7002
 1085TIP3   OH2 3218   0.561   3.840   5.823 -0.1978  0.0631  0.0229
 1085TIP3    H1 3219   0.499   3.772   5.795  0.2127  0.3354 -1.5989
 1085TIP3    H2 3220   0.521   3.877   5.902  0.0540 -2.7277  1.5971
 1086TIP3   OH2 3221   1.279   0.889   3.913 -0.1903 -0.5543 -0.0144
 1086TIP3    H1 3222   1.330   0.812   3.890  1.3908  0.5246 -0.2755
 1086TIP3    H2 3223   1.272   0.886   4.009 -2.0171 -2.1184 -0.1346
 1087TIP3   OH2 3224   0.742   6.438   4.832 -0.2147  0.3622  0.1263
 1087TIP3    H1 3225   0.826   6.484   4.831 -0.9515  1.7932 -1.5094
 1087TIP3    H2 3226   0.762   6.352   4.869  1.9908  0.5965 -0.3812
 1088TIP3   OH2 3227   4.496   0.620   3.023  0.1935  0.0294  0.1372
 1088TIP3    H1 3228   4.513   0.585   2.935 -2.0766  3.4051 -1.8606
 1088TIP3    H2 3229   4.572   0.675   3.041 -0.0636  0.6156 -0.5049
 1089TIP3   OH2 3230   1.066   6.591   2.767 -0.3369  0.2924  0.7057
 1089TIP3    H1 3231   1.013   6.670   2.777  1.7073  1.6844  1.2331
 1089TIP3    H2 3232   1.103   6.576   2.854 -1.8457 -2.2218  1.0375
 1090TIP3   OH2 3233   5.249   1.774   4.364  0.1772 -0.3626 -0.3731
 1090TIP3    H1 3234   5.283   1.851   4.409 -1.1553 -0.1494  0.3392
 1090TIP3    H2 3235   5.193   1.809   4.295 -0.1576 -0.6874 -0.2680
 1091TIP3   OH2 3236   1.573   4.984   4.008  0.2325  0.0058  0.0958
 1091TIP3    H1 3237   1.516   5.014   3.938  1.2943  2.3491  0.1476
 1091TIP3    H2 3238   1.561   5.048   4.078  0.6914 -1.1594  1.2841
 1092TIP3   OH2 3239   0.299   4.095   0.128 -0.4510 -0.3278 -0.3426
 1092TIP3    H1 3240   0.283   4.161   0.060  2.7015 -0.1195 -1.0035
 1092TIP3    H2 3241   0.321   4.015   0.080  1.5742 -0.2394  0.3546
 1093TIP3   OH2 3242   6.254   0.521   0.638 -0.0011 -0.4515  0.4127
 1093TIP3    H1 3243   6.317   0.499   0.707  1.0207  1.4427  0.1346
 1093TIP3    H2 3244   6.308   0.531   0.559 -0.6857  0.8148  0.0860
 1094TIP3   OH2 3245   4.770   2.151   5.696  0.2708 -0.8776 -0.0985
 1094TIP3    H1 3246   4.749   2.132   5.788 -1.2427 -3.6127 -0.8905
 1094TIP3    H2 3247   4.705   2.215   5.669  0.8818  0.1380  0.7636
 1095TIP3   OH2 3248   4.399   5.177   2.679  1.0037  0.0592 -0.4173
 1095TIP3    H1 3249   4.418   5.104   2.738 -0.3716 -0.1315 -0.1709
 1095TIP3    H2 3250   4.311   5.158   2.645 -0.0536  2.3339  0.8099
 1096TIP3   OH2 3251   3.637   1.898   5.621  0.4930  0.1804  0.1568
 1096TIP3    H1 3252   3.637   1.850   5.538  0.8661 -1.4702  1.0572
 1096TIP3    H2 3253   3.721   1.942   5.624  1.8637 -2.2664  0.9546
 1097TIP3   OH2 3254   0.122   0.862   3.709  0.0272 -0.3094  0.5865
 1097TIP3    H1 3255   0.112   0.767   3.697  0.2534 -0.3170  0.4467
 1097TIP3    H2 3256   0.205   0.883   3.666  0.1980 -0.1174  1.0045
 1098TIP3   OH2 3257   2.734   0.973   2.897 -0.5554 -0.0329  0.5711
 1098TIP3    H1 3258   2.790   0.991   2.973 -0.6707 -1.0353  0.9073
 1098TIP3    H2 3259   2.686   1.054   2.883  1.3204  1.0323 -0.0248
 1099TIP3   OH2 3260   6.766   5.116   2.461 -0.3727  0.6430  0.2856
 1099TIP3    H1 3261   6.798   5.171   2.389 -0.6614 -0.2956 -0.5877
 1099TIP3    H2 3262   6.844   5.069   2.492 -0.2696  0.9603  0.5080
 1100TIP3   OH2 3263   6.620   2.343   3.212 -0.2357 -0.1692 -0.1982
 1100TIP3    H1 3264   6.594   2.434   3.228 -0.8721 -0.3208 -0.3622
 1100TIP3    H2 3265   6.639   2.308   3.299 -2.1322 -0.5160  0.1038
 1101TIP3   OH2 3266   1.840   4.107   5.880 -0.0555 -0.1094 -0.6792
 1101TIP3    H1 3267   1.781   4.173   5.843 -0.1089 -0.2101 -0.7741
 1101TIP3    H2 3268   1.920   4.114   5.827  0.2579  0.4642 -0.1471
 1102TIP3   OH2 3269   6.903   4.529   0.701  0.1429 -0.1741  0.5596
 1102TIP3    H1 3270   6.930   4.620   0.699 -0.6917  0.0865  0.6714
 1102TIP3    H2 3271   6.899   4.507   0.794  1.1144 -0.5663  0.5126
 1103TIP3   OH2 3272   4.709   5.065   0.676  0.0508 -0.2856 -0.1818
 1103TIP3    H1 3273   4.638   5.069   0.740 -0.5642  0.0568 -0.8574
 1103TIP3    H2 3274   4.773   5.130   0.705 -0.2295 -0.1276  0.0816
 1104TIP3   OH2 3275   6.492   6.557   3.864 -0.1257  0.1113  0.6570
 1104TIP3    H1 3276   6.567   6.557   3.924  0.7706  1.4367 -0.4017
 1104TIP3    H2 3277   6.419   6.586   3.918  0.9794  2.8718  0.8398
 1105TIP3   OH2 3278   3.857   3.763   3.504  0.2545  0.7237  0.2999
 1105TIP3    H1 3279   3.922   3.830   3.482  0.0489  1.5750  2.1434
 1105TIP3    H2 3280   3.832   3.726   3.419  2.1917  1.2560 -0.5552
 1106TIP3   OH2 3281   2.739   4.087   3.166 -0.5127  0.4264  0.1478
 1106TIP3    H1 3282   2.669   4.023   3.178 -1.3790  1.3260  0.0022
 1106TIP3    H2 3283   2.800   4.044   3.106 -1.6205  0.1304 -0.8100
 1107TIP3   OH2 3284   3.219   6.060   4.301  0.1779 -0.1885  0.9777
 1107TIP3    H1 3285   3.289   6.108   4.347  1.0809 -0.9139  0.3941
 1107TIP3    H2 3286   3.240   5.968   4.316 -0.1977 -0.4217  0.1049
 1108TIP3   OH2 3287   1.833   1.972   5.114 -0.2496 -0.2079 -0.2647
 1108TIP3    H1 3288   1.909   2.007   5.067  0.7517  0.3361  1.6283
 1108TIP3    H2 3289   1.810   2.041   5.176 -0.0707 -1.7046  1.5537
 1109TIP3   OH2 3290   3.017   6.524   3.049 -0.4639  0.5438 -0.2307
 1109TIP3    H1 3291   2.927   6.499   3.071  0.0708  0.1494  1.6519
 1109TIP3    H2 3292   3.072   6.469   3.104  0.8354  3.6991  1.9326
 1110TIP3   OH2 3293   2.232   0.903   0.384  0.5580 -0.0202  0.0455
 1110TIP3    H1 3294   2.197   0.920   0.297 -1.3902  2.0287  1.1144
 1110TIP3    H2 3295   2.325   0.923   0.377  0.1542  1.6723 -1.2424
 1111TIP3   OH2 3296   5.278   1.449   0.308 -0.3208 -0.1294  0.6753
 1111TIP3    H1 3297   5.222   1.408   0.374  1.7083 -0.1557  2.4955
 1111TIP3    H2 3298   5.337   1.505   0.359  2.2672 -1.2350 -0.9287
 1112TIP3   OH2 3299   4.919   1.273   3.934 -0.1149  0.3838  0.0148
 1112TIP3    H1 3300   4.995   1.303   3.984 -0.1083 -1.7977  1.4306
 1112TIP3    H2 3301   4.845   1.285   3.994 -0.3059 -1.0107  0.0840
 1113TIP3   OH2 3302   0.735   1.630   5.423  0.2730 -0.1337  0.1370
 1113TIP3    H1 3303   0.732   1.717   5.462  0.0938  0.3063 -0.8328
 1113TIP3    H2 3304   0.763   1.645   5.332  2.1448 -1.2583  0.4754
 1114TIP3   OH2 3305   5.169   1.060   5.699  0.2543 -0.7032  0.0457
 1114TIP3    H1 3306   5.095   1.120   5.700  1.2412  0.5619 -0.0602
 1114TIP3    H2 3307   5.168   1.017   5.784 -0.5007 -0.5754  0.1013
 1115TIP3   OH2 3308   3.399   0.711   2.997 -0.5862  0.4450  0.9238
 1115TIP3    H1 3309   3.448   0.786   3.029 -0.9992  1.0340  0.1873
 1115TIP3    H2 3310   3.398   0.721   2.902  0.0189 -0.9063  0.7346
 1116TIP3   OH2 3311   2.225   4.848   4.899 -0.7517 -0.1141  0.1539
 1116TIP3    H1 3312   2.205   4.826   4.808  0.2347 -0.5003  0.0193
 1116TIP3    H2 3313   2.148   4.895   4.930 -0.7856  0.7248 -1.1292
 1117TIP3   OH2 3314   1.934   1.052   5.632 -0.4374  0.4647 -0.2306
 1117TIP3    H1 3315   1.994   1.126   5.626 -2.3222  2.1602  0.5103
 1117TIP3    H2 3316   1.858   1.079   5.581 -1.4828 -0.6449  0.6933
 1118TIP3   OH2 3317   6.678   5.960   1.282 -0.4664 -0.0717  0.1960
 1118TIP3    H1 3318   6.641   5.878   1.248 -0.7370  0.3931 -0.6621
 1118TIP3    H2 3319   6.727   5.996   1.208  0.2308  0.2103  0.7771
 1119TIP3   OH2 3320   0.435   5.580   2.518 -0.5474  0.6644  0.2750
 1119TIP3    H1 3321   0.436   5.489   2.546  1.2993  0.5624 -0.0323
 1119TIP3    H2 3322   0.391   5.626   2.589 -1.2315 -0.4173  0.5697
 1120TIP3   OH2 3323   4.427   4.232   1.444  0.1457 -0.1252  0.6152
 1120TIP3    H1 3324   4.378   4.175   1.505 -0.2300  0.3094  0.7279
 1120TIP3    H2 3325   4.366   4.304   1.425 -0.1451 -0.7785 -1.0965
 1121TIP3   OH2 3326   6.070   3.143   0.930  0.2084  0.1660 -0.1765
 1121TIP3    H1 3327   6.165   3.133   0.938  0.0730 -1.4952 -0.2878
 1121TIP3    H2 3328   6.054   3.236   0.946  1.6408  0.1241  1.8754
 1122TIP3   OH2 3329   0.352   0.833   5.497  0.0171  0.3996  0.2858
 1122TIP3    H1 3330   0.297   0.882   5.558 -0.4598 -1.6471  1.5883
 1122TIP3    H2 3331   0.343   0.879   5.414 -1.8618  1.4191  1.0082
 1123TIP3   OH2 3332   0.618   2.155   0.152  0.0314 -0.5246  0.6120
 1123TIP3    H1 3333   0.555   2.217   0.188  1.2775  1.7563 -0.8925
 1123TIP3    H2 3334   0.698   2.169   0.203  0.9155  0.6268 -0.9854
 1124TIP3   OH2 3335   6.932   2.342   3.416 -0.3997 -0.0292 -0.0129
 1124TIP3    H1 3336   6.968   2.396   3.487 -0.9065 -0.1179  0.3115
 1124TIP3    H2 3337   6.842   2.323   3.443 -0.4830 -0.3591 -0.5128
 1125TIP3   OH2 3338   3.957   2.784   1.367 -0.5994  0.3006  0.1136
 1125TIP3    H1 3339   3.887   2.845   1.391 -1.0746  0.3201 -1.2416
 1125TIP3    H2 3340   3.941   2.707   1.422 -0.8899  0.8087  0.7583
 1126TIP3   OH2 3341   0.521   0.927   2.762  0.7277  0.4493 -0.0907
 1126TIP3    H1 3342   0.446   0.877   2.794  0.1637  1.5652  0.3938
 1126TIP3    H2 3343   0.595   0.894   2.812  0.0743  1.2567  1.4817
 1127TIP3   OH2 3344   3.697   6.487   3.894 -0.0531  0.7478  0.5498
 1127TIP3    H1 3345   3.612   6.499   3.851  0.1677 -0.4408 -0.2770
 1127TIP3    H2 3346   3.720   6.396   3.874  1.0087  0.7974  1.5044
 1128TIP3   OH2 3347   6.325   4.801   3.319 -0.2608 -0.7985 -0.2776
 1128TIP3    H1 3348   6.319   4.889   3.280  0.8509 -0.5883  0.0019
 1128TIP3    H2 3349   6.266   4.748   3.266 -2.6361  0.5506  0.8245
 1129TIP3   OH2 3350   1.431   5.112   2.106  0.2812  0.4522  0.8430
 1129TIP3    H1 3351   1.512   5.142   2.146 -0.9509  0.5035  3.5321
 1129TIP3    H2 3352   1.393   5.191   2.068  0.9348  0.6505  0.5879
 1130TIP3   OH2 3353   0.056   6.041   2.429  0.2061 -0.1012 -0.2830
 1130TIP3    H1 3354   0.095   5.976   2.370 -1.0678 -0.6370 -0.5834
 1130TIP3    H2 3355   0.060   6.001   2.516  0.1852 -0.2287 -0.3403
 1131TIP3   OH2 3356   4.778   0.509   2.366 -0.7196  0.2503 -0.0528
 1131TIP3    H1 3357   4.690   0.546   2.366 -0.4086  1.0313  1.0777
 1131TIP3    H2 3358   4.815   0.534   2.451  0.6605  0.1129 -0.5845
 1132TIP3   OH2 3359   2.219   5.991   1.960  0.1611 -0.4495  0.6445
 1132TIP3    H1 3360   2.129   5.968   1.986 -0.2698  0.8307  0.3372
 1132TIP3    H2 3361   2.216   5.993   1.864  0.2391  0.6186  0.6521
 1133TIP3   OH2 3362   1.576   0.619   3.253 -0.0260  0.0983  0.3190
 1133TIP3    H1 3363   1.490   0.660   3.247  0.0685  0.2713  0.1520
 1133TIP3    H2 3364   1.639   0.690   3.238  0.1088 -0.5925 -3.2625
 1134TIP3   OH2 3365   6.709  -0.005   0.177  0.2345  0.5656  0.7030
 1134TIP3    H1 3366   6.729   0.064   0.113 -0.7481 -0.1510 -0.4161
 1134TIP3    H2 3367   6.630  -0.047   0.143  1.2031 -1.5869  0.9397
 1135TIP3   OH2 3368   0.322   5.622   5.155 -0.5526  0.1053 -0.2497
 1135TIP3    H1 3369   0.273   5.581   5.083  3.3534 -3.4963 -1.2927
 1135TIP3    H2 3370   0.412   5.596   5.140  1.0060  1.8516  4.3063
 1136TIP3   OH2 3371   3.882   3.461   3.723 -0.1305 -0.4284  0.2665
 1136TIP3    H1 3372   3.851   3.431   3.808  1.5988  0.4456  1.2630
 1136TIP3    H2 3373   3.942   3.393   3.694  0.5181  0.0162  0.5307
 1137TIP3   OH2 3374   1.640   5.677   1.446  0.1769  0.6286 -0.0373
 1137TIP3    H1 3375   1.663   5.585   1.456 -0.4549  0.4450 -0.2350
 1137TIP3    H2 3376   1.563   5.689   1.502  1.0793  1.3761  1.0985
 1138TIP3   OH2 3377   4.084   5.570   2.812 -0.3673  0.2647  0.1714
 1138TIP3    H1 3378   4.028   5.585   2.888 -0.9544  0.6451 -0.3278
 1138TIP3    H2 3379   4.169   5.605   2.838 -0.6495  0.6869  0.5334
 1139TIP3   OH2 3380   5.308   6.586   5.324 -0.0489  0.2482 -0.4639
 1139TIP3    H1 3381   5.316   6.558   5.233  1.6051 -2.0758  0.2980
 1139TIP3    H2 3382   5.303   6.681   5.320  0.8036  0.2490 -2.9276
 1140TIP3   OH2 3383   0.759   3.631   3.413 -0.1276  0.7655  0.8580
 1140TIP3    H1 3384   0.748   3.541   3.445 -0.4222  0.9583  1.3151
 1140TIP3    H2 3385   0.669   3.661   3.395 -0.1080  1.2844  1.5996
 1141TIP3   OH2 3386   2.348   2.046   3.027 -0.1785  0.5383  0.0316
 1141TIP3    H1 3387   2.352   2.098   3.108  1.9079 -0.9518  0.9791
 1141TIP3    H2 3388   2.277   1.984   3.042 -0.7979  1.2408  0.0669
 1142TIP3   OH2 3389   3.274   5.247   1.790  0.1258  0.1094 -0.1049
 1142TIP3    H1 3390   3.232   5.162   1.780 -0.8686  0.6864 -1.1663
 1142TIP3    H2 3391   3.339   5.234   1.858  0.0192 -1.5055 -0.2683
 1143TIP3   OH2 3392   4.742   0.497   3.100  0.0155 -0.1328 -0.0738
 1143TIP3    H1 3393   4.678   0.492   3.029 -0.2982 -2.4824  0.2853
 1143TIP3    H2 3394   4.726   0.582   3.142 -0.3505  0.9230 -2.2488
 1144TIP3   OH2 3395   4.333   1.193   4.514 -0.4084  0.3287  0.1969
 1144TIP3    H1 3396   4.268   1.202   4.445 -0.1043  0.4294 -0.0822
 1144TIP3    H2 3397   4.291   1.139   4.581 -0.1490 -1.1511 -0.7835
 1145TIP3   OH2 3398   1.185   4.728   3.522  0.0289 -0.4372 -0.1798
 1145TIP3    H1 3399   1.256   4.782   3.486  0.1917  0.0839  0.8706
 1145TIP3    H2 3400   1.139   4.695   3.446  2.2071 -1.9062 -0.9731
 1146TIP3   OH2 3401   1.995   0.873   2.935  0.6137 -0.2849 -0.0730
 1146TIP3    H1 3402   2.079   0.892   2.978  0.8992 -0.5591 -0.5088
 1146TIP3    H2 3403   1.995   0.929   2.858  0.0397  0.3081  0.3441
 1147TIP3   OH2 3404   6.483   4.078   1.765 -0.1499  0.6361  0.0735
 1147TIP3    H1 3405   6.500   4.054   1.856  0.6370 -0.8828 -0.4301
 1147TIP3    H2 3406   6.434   4.004   1.730 -2.0785  2.0272 -0.2773
 1148TIP3   OH2 3407   1.432   4.694   4.706  0.1627 -0.1128 -0.0101
 1148TIP3    H1 3408   1.385   4.622   4.748 -0.4053 -0.3329 -0.9992
 1148TIP3    H2 3409   1.369   4.731   4.644  0.6068  0.9360  0.1428
 1149TIP3   OH2 3410   6.626   4.602   1.568  0.0365 -0.5585  0.1141
 1149TIP3    H1 3411   6.681   4.679   1.581  0.7300 -1.2306  1.1997
 1149TIP3    H2 3412   6.612   4.567   1.655 -1.0785 -1.1255 -0.2750
 1150TIP3   OH2 3413   2.628   3.334   4.211 -0.0404 -0.4885 -0.1308
 1150TIP3    H1 3414   2.690   3.306   4.279 -1.9428 -2.3898  0.9190
 1150TIP3    H2 3415   2.558   3.269   4.214 -0.7254 -0.0350 -3.2281
 1151TIP3   OH2 3416   5.066   3.504   4.647 -0.6590 -0.3024  0.1519
 1151TIP3    H1 3417   5.042   3.534   4.560  0.0889  0.6711  0.2637
 1151TIP3    H2 3418   5.161   3.497   4.644 -0.7086 -1.2594  0.5845
 1152TIP3   OH2 3419   1.650   2.476   2.859  0.6110 -0.4429  0.5521
 1152TIP3    H1 3420   1.713   2.462   2.788  0.9221  2.0679  0.2270
 1152TIP3    H2 3421   1.593   2.400   2.857  0.6959 -0.5296 -2.3253
 1153TIP3   OH2 3422   5.003   1.878   5.349  0.1530  0.0351  0.4649
 1153TIP3    H1 3423   4.930   1.917   5.396 -0.1397  0.2008 -0.1192
 1153TIP3    H2 3424   5.077   1.885   5.409 -0.3502 -0.2966  1.1264
 1154TIP3   OH2 3425   4.947   4.023   1.425  0.3469 -0.0263  0.6355
 1154TIP3    H1 3426   5.033   4.045   1.388 -0.1831  0.1924 -0.4972
 1154TIP3    H2 3427   4.889   4.093   1.395 -0.5241 -0.8831  0.2689
 1155TIP3   OH2 3428   2.811   5.764   2.804 -0.2220 -0.0629 -0.3157
 1155TIP3    H1 3429   2.834   5.844   2.850  0.8481  0.5434 -1.8371
 1155TIP3    H2 3430   2.722   5.744   2.835 -0.1663  1.1830  0.7648
 1156TIP3   OH2 3431   0.529   5.803   2.909  0.3014  0.3096  0.7965
 1156TIP3    H1 3432   0.507   5.877   2.966  1.4084  0.6210  0.8451
 1156TIP3    H2 3433   0.578   5.842   2.836 -2.5472  0.1882 -1.3666
 1157TIP3   OH2 3434   0.476   2.963   0.384 -0.3705  0.1966  0.3232
 1157TIP3    H1 3435   0.524   2.944   0.465  1.1009  1.0833 -0.2856
 1157TIP3    H2 3436   0.488   2.885   0.330  2.8012  1.3186 -0.8610
 1158TIP3   OH2 3437   0.056   4.998   2.002  0.2350 -0.7323 -0.3013
 1158TIP3    H1 3438   0.122   5.055   1.965 -0.2460 -1.0646 -1.7344
 1158TIP3    H2 3439   0.073   4.999   2.096  0.4584  1.4627 -0.3143
 1159TIP3   OH2 3440   2.242   0.588   0.363  0.0540 -0.4650  0.6863
 1159TIP3    H1 3441   2.148   0.589   0.378  0.2550  2.7000  2.4533
 1159TIP3    H2 3442   2.253   0.624   0.275 -0.3549 -0.3911  0.6637
 1160TIP3   OH2 3443   0.160   1.742   5.758 -0.1118  0.3768 -0.8187
 1160TIP3    H1 3444   0.091   1.717   5.819  0.1339 -0.3306 -0.8262
 1160TIP3    H2 3445   0.162   1.838   5.762 -0.9568  0.3923 -0.6766
 1161TIP3   OH2 3446   5.615   3.561   1.900  0.2988 -0.0139 -0.4530
 1161TIP3    H1 3447   5.581   3.636   1.948 -1.3586  0.1189 -1.7774
 1161TIP3    H2 3448   5.650   3.597   1.819  3.0017 -0.2547  0.4959
 1162TIP3   OH2 3449   2.829   0.540   0.046 -0.2285 -0.2886  0.1527
 1162TIP3    H1 3450   2.888   0.592   0.101  0.5810  1.0420 -1.8753
 1162TIP3    H2 3451   2.865   0.548  -0.042 -2.1999 -1.3133 -0.8061
 1163TIP3   OH2 3452   6.672   6.385   2.798  0.3871 -0.0170  0.1993
 1163TIP3    H1 3453   6.623   6.318   2.846  0.2224 -1.4160 -1.7907
 1163TIP3    H2 3454   6.607   6.452   2.778 -0.0100 -0.3733  0.2599
 1164TIP3   OH2 3455   1.008   3.703   0.777  0.9184  0.0948  0.6964
 1164TIP3    H1 3456   0.922   3.746   0.779  1.1734  0.6389  2.9981
 1164TIP3    H2 3457   0.998   3.634   0.711 -1.1540  0.3921  0.6088
 1165TIP3   OH2 3458   1.481   6.260   5.568  0.4059 -0.2092  0.1154
 1165TIP3    H1 3459   1.407   6.200   5.558 -0.5592  1.0494 -0.4725
 1165TIP3    H2 3460   1.541   6.214   5.627 -0.8739 -1.2227  0.6690
 1166TIP3   OH2 3461   3.450   4.232   5.708  0.0099  0.8227 -0.7346
 1166TIP3    H1 3462   3.356   4.247   5.714  0.2542  2.9081 -1.4647
 1166TIP3    H2 3463   3.474   4.263   5.620  1.3653  0.2640 -0.5909
 1167TIP3   OH2 3464   5.929   5.999   4.421  0.7218 -0.3367  0.3627
 1167TIP3    H1 3465   5.968   6.086   4.429  2.9385 -1.2107 -0.2573
 1167TIP3    H2 3466   5.841   6.016   4.387  0.9394  1.6699  0.6310
 1168TIP3   OH2 3467   5.739   5.373   2.517 -0.2826 -0.3532  0.4102
 1168TIP3    H1 3468   5.733   5.298   2.458  2.1169 -0.7281  0.5304
 1168TIP3    H2 3469   5.648   5.392   2.541 -1.1994 -1.3414 -1.9145
 1169TIP3   OH2 3470   6.245   5.200   0.096 -0.2974 -0.3605  0.0656
 1169TIP3    H1 3471   6.255   5.284   0.053 -2.3578 -2.2244 -4.8028
 1169TIP3    H2 3472   6.319   5.148   0.065 -1.0710 -1.3708 -0.1748
 1170TIP3   OH2 3473   2.585   0.385   4.348  0.0861  0.1692 -0.6350
 1170TIP3    H1 3474   2.640   0.316   4.310 -0.4630 -1.1555  0.8499
 1170TIP3    H2 3475   2.590   0.370   4.442 -2.4028  0.2881 -0.4107
 1171TIP3   OH2 3476   5.526   2.251   4.413  0.9941 -0.1740 -0.5869
 1171TIP3    H1 3477   5.574   2.333   4.401  1.6550 -0.5735 -0.7272
 1171TIP3    H2 3478   5.434   2.276   4.402  0.8341  1.2002  2.6016
 1172TIP3   OH2 3479   6.273   1.289   3.589  0.1937  0.4940  0.0097
 1172TIP3    H1 3480   6.206   1.320   3.649 -0.1368  1.2454 -0.7359
 1172TIP3    H2 3481   6.267   1.194   3.594 -1.2049  0.5476 -0.3638
 1173TIP3   OH2 3482   2.299   0.712   3.823 -0.1168 -0.0866  0.0646
 1173TIP3    H1 3483   2.271   0.707   3.914 -1.3237 -1.5954 -0.3515
 1173TIP3    H2 3484   2.394   0.725   3.827 -0.1660 -0.0808  1.5176
 1174TIP3   OH2 3485   6.300   0.455   2.153 -0.3668 -0.2804  0.2842
 1174TIP3    H1 3486   6.237   0.525   2.168 -1.1088 -0.6090 -1.0764
 1174TIP3    H2 3487   6.385   0.493   2.177 -0.9097  0.6278  0.8254
 1175TIP3   OH2 3488   6.684   5.242   3.808  0.2642 -0.9492 -0.2147
 1175TIP3    H1 3489   6.636   5.268   3.887  1.6070  0.4358  0.2073
 1175TIP3    H2 3490   6.742   5.172   3.838  1.5126  0.2636  0.3373
 1176TIP3   OH2 3491   1.322   1.986   5.132  0.1223 -0.5618  0.2170
 1176TIP3    H1 3492   1.354   2.020   5.048  0.8918 -0.2215  0.6309
 1176TIP3    H2 3493   1.229   2.009   5.134  1.0026  4.0297  1.5668
 1177TIP3   OH2 3494   1.251   6.189   2.170  0.3718 -0.1629 -0.2793
 1177TIP3    H1 3495   1.195   6.216   2.097 -0.8068  0.7777  0.9425
 1177TIP3    H2 3496   1.340   6.198   2.135 -0.1653 -0.1815 -1.7419
 1178TIP3   OH2 3497   3.554   4.580   5.387 -0.2678  0.7678 -0.1360
 1178TIP3    H1 3498   3.621   4.543   5.445 -1.2342  0.5527  0.8753
 1178TIP3    H2 3499   3.578   4.548   5.299  0.5947  0.1851  0.2968
 1179TIP3   OH2 3500   7.109   0.767   4.134 -0.1414 -0.1540  0.5857
 1179TIP3    H1 3501   7.065   0.754   4.218 -1.1297 -1.7400 -0.1394
 1179TIP3    H2 3502   7.202   0.760   4.155 -0.3953 -1.3702  1.4500
 1180TIP3   OH2 3503   0.965   0.692   1.254 -0.0706 -0.9180  0.1706
 1180TIP3    H1 3504   0.999   0.679   1.166 -1.3058 -2.6986 -0.0714
 1180TIP3    H2 3505   0.908   0.617   1.270 -2.3385  0.9167  1.3097
 1181TIP3   OH2 3506   7.069   6.170   0.237 -0.1314 -0.0397 -0.2359
 1181TIP3    H1 3507   6.993   6.182   0.181 -0.4928  2.2435  0.6455
 1181TIP3    H2 3508   7.056   6.084   0.277 -1.0962 -0.6367 -1.7450
 1182TIP3   OH2 3509   0.237   2.780   0.909 -0.1107  0.0425  0.3446
 1182TIP3    H1 3510   0.245   2.834   0.830 -1.3916 -0.9077 -0.4858
 1182TIP3    H2 3511   0.295   2.822   0.973  1.2230  0.6439 -1.1895
 1183TIP3   OH2 3512   5.229   0.337   3.742  0.2184 -0.0808  0.3321
 1183TIP3    H1 3513   5.282   0.416   3.755 -1.1768  1.1024 -0.8317
 1183TIP3    H2 3514   5.150   0.353   3.793 -0.1707 -0.6418 -0.0825
 1184TIP3   OH2 3515   3.111   5.431   1.943 -0.4622  0.2297  0.6544
 1184TIP3    H1 3516   3.140   5.365   1.880  0.4962  0.4650  0.8299
 1184TIP3    H2 3517   3.116   5.388   2.028 -0.7885  0.2216  0.6691
 1185TIP3   OH2 3518   3.532   0.857   5.757  0.1755  0.3764 -0.2834
 1185TIP3    H1 3519   3.574   0.772   5.744 -0.2151  0.1315  0.0335
 1185TIP3    H2 3520   3.529   0.896   5.669  2.0521  0.8915 -0.1746
 1186TIP3   OH2 3521   7.077   0.943   2.000  0.4253  0.3983  0.5290
 1186TIP3    H1 3522   7.128   0.891   2.062  0.0674 -0.4837  0.1018
 1186TIP3    H2 3523   7.023   1.001   2.054  1.6732  1.1725  0.9920
 1187TIP3   OH2 3524   2.583   0.821   3.452 -0.5055 -0.5887  0.1842
 1187TIP3    H1 3525   2.587   0.874   3.373  1.7740 -3.1421 -1.6039
 1187TIP3    H2 3526   2.498   0.776   3.446 -1.4766  1.0642  0.6210
 1188TIP3   OH2 3527   5.088   0.597   4.787 -0.3358 -0.5106 -0.7789
 1188TIP3    H1 3528   5.144   0.535   4.833  1.0261  0.8615 -0.5198
 1188TIP3    H2 3529   5.145   0.638   4.722 -0.4294  2.3460  0.7948
 1189TIP3   OH2 3530   6.668   4.780   0.080  0.1686  0.2383 -0.7918
 1189TIP3    H1 3531   6.639   4.840   0.148  1.6931  1.0939 -0.8541
 1189TIP3    H2 3532   6.591   4.726   0.061 -0.4064  0.2561  1.2911
 1190TIP3   OH2 3533   2.990   5.493   0.638  0.1793 -0.2114  0.4063
 1190TIP3    H1 3534   2.992   5.400   0.661  1.0585  0.2239  2.2184
 1190TIP3    H2 3535   2.902   5.522   0.664  0.1338 -0.3799  0.4429
 1191TIP3   OH2 3536   0.535   2.696   0.865  0.3212 -0.2866  0.4133
 1191TIP3    H1 3537   0.464   2.631   0.861 -0.8256  0.9886 -1.0281
 1191TIP3    H2 3538   0.606   2.650   0.911 -1.4053 -1.6097  1.9405
 1192TIP3   OH2 3539   2.182   1.858   2.609  0.3158 -0.2540  0.6282
 1192TIP3    H1 3540   2.239   1.898   2.543 -0.4972 -0.3426 -0.1324
 1192TIP3    H2 3541   2.100   1.907   2.603 -0.3533 -1.3962  0.3694
 1193TIP3   OH2 3542   5.630   1.036   3.420 -0.3055 -0.4683  0.2135
 1193TIP3    H1 3543   5.724   1.050   3.412 -0.3843  1.0783  1.5853
 1193TIP3    H2 3544   5.604   1.086   3.497 -2.0064 -2.1108  0.8038
 1194TIP3   OH2 3545   2.014   6.302   5.380 -0.0523  0.2774  0.3739
 1194TIP3    H1 3546   1.935   6.355   5.376  0.5624  1.3213  1.5245
 1194TIP3    H2 3547   2.077   6.348   5.325 -0.4246 -0.9290 -1.1200
 1195TIP3   OH2 3548   6.644   2.873   0.546  0.2596  0.5039 -0.2432
 1195TIP3    H1 3549   6.611   2.858   0.457  0.0464  0.8847 -0.2302
 1195TIP3    H2 3550   6.735   2.843   0.543  0.3346  0.7589 -0.6672
 1196TIP3   OH2 3551   5.145   5.224   3.550  0.1261 -0.3317  0.8834
 1196TIP3    H1 3552   5.076   5.179   3.501  0.5019 -0.0761  0.0856
 1196TIP3    H2 3553   5.109   5.311   3.567  0.3438 -0.0969  0.2079
 1197TIP3   OH2 3554   2.830   2.678   4.490  0.0529  0.3449  0.2345
 1197TIP3    H1 3555   2.925   2.685   4.494  0.0529  0.1845  0.5566
 1197TIP3    H2 3556   2.803   2.667   4.581 -0.2802  0.4634  0.1509
 1198TIP3   OH2 3557   4.818   6.682   2.157  0.7372  0.0421 -0.3817
 1198TIP3    H1 3558   4.831   6.750   2.092  2.8579 -1.2367 -1.4181
 1198TIP3    H2 3559   4.728   6.652   2.143  1.1631 -0.2975 -2.9100
 1199TIP3   OH2 3560   6.012   5.388   1.129 -0.6042  0.8514 -0.1137
 1199TIP3    H1 3561   5.974   5.358   1.046 -0.1389  1.6052 -0.6092
 1199TIP3    H2 3562   6.089   5.334   1.141 -1.4236 -0.2011  0.5368
 1200TIP3   OH2 3563   1.589   4.013   3.941 -0.6225 -0.1939  0.1322
 1200TIP3    H1 3564   1.577   4.048   3.853  1.8522 -0.0656 -0.2208
 1200TIP3    H2 3565   1.667   3.957   3.934  0.4107  0.8282  2.4959
 1201TIP3   OH2 3566   1.855   5.961   0.587 -0.5158 -0.7833  0.1584
 1201TIP3    H1 3567   1.762   5.951   0.608 -0.2762 -0.3597  1.4879
 1201TIP3    H2 3568   1.881   5.877   0.550 -1.5723 -0.6956 -0.8382
 1202TIP3   OH2 3569   5.850   4.767   4.247  0.0724 -0.5048 -0.2274
 1202TIP3    H1 3570   5.938   4.730   4.255 -0.3771 -1.9951 -1.6196
 1202TIP3    H2 3571   5.809   4.749   4.331  0.5810 -1.3070 -0.1341
 1203TIP3   OH2 3572   0.437   5.937   1.837  0.1652  0.6398 -0.2217
 1203TIP3    H1 3573   0.365   5.921   1.899  0.5305 -0.8027 -0.1216
 1203TIP3    H2 3574   0.410   6.014   1.788 -1.2307  0.4199  0.1477
 1204TIP3   OH2 3575   2.569   1.060   4.686  1.0310  0.1003 -0.1872
 1204TIP3    H1 3576   2.581   1.152   4.708  2.2203 -0.0885 -0.0155
 1204TIP3    H2 3577   2.643   1.038   4.630 -0.1319 -0.3323 -1.6478
 1205TIP3   OH2 3578   2.336   2.681   3.333  0.6311 -0.2055  1.2215
 1205TIP3    H1 3579   2.281   2.603   3.326 -0.2129  0.4519  0.2363
 1205TIP3    H2 3580   2.356   2.705   3.242  0.6962  0.8495  1.5013
 1206TIP3   OH2 3581   0.817   2.484   4.904  0.5709 -0.2535  0.6310
 1206TIP3    H1 3582   0.809   2.395   4.870  0.7701  0.2421 -0.7826
 1206TIP3    H2 3583   0.764   2.537   4.845 -0.2278  0.4711  1.9415
 1207TIP3   OH2 3584   5.316   4.129   0.433 -0.0365 -0.6436  0.7206
 1207TIP3    H1 3585   5.398   4.108   0.390  0.3336  0.0842  1.0556
 1207TIP3    H2 3586   5.276   4.197   0.378  0.1421 -0.1606  1.1796
 1208TIP3   OH2 3587   2.616   3.772   4.419 -0.1373  0.5198  0.0428
 1208TIP3    H1 3588   2.533   3.747   4.379  0.0952 -1.9811  0.9745
 1208TIP3    H2 3589   2.601   3.762   4.513  0.4874  2.5768  0.4129
 1209TIP3   OH2 3590   6.420   5.529   1.418 -0.0663  0.3539  0.0972
 1209TIP3    H1 3591   6.328   5.523   1.392 -0.3244 -0.7988  1.1664
 1209TIP3    H2 3592   6.425   5.481   1.501  1.8371 -1.3041 -0.8681
 1210TIP3   OH2 3593   2.902   2.352   1.680 -0.1136 -0.4038 -0.7280
 1210TIP3    H1 3594   2.993   2.364   1.652  0.1459  1.0004  0.6247
 1210TIP3    H2 3595   2.904   2.358   1.775 -1.5957 -0.6736 -0.6445
 1211TIP3   OH2 3596   0.936   4.438   4.464  0.0062  0.2555 -0.5021
 1211TIP3    H1 3597   1.007   4.455   4.402  0.4316  2.0770  0.4217
 1211TIP3    H2 3598   0.924   4.521   4.511 -0.9684 -0.7622  1.1684
 1212TIP3   OH2 3599   4.083   0.279   3.111  0.5004 -0.0346 -0.0371
 1212TIP3    H1 3600   4.003   0.280   3.059  0.1262 -0.2569  0.5298
 1212TIP3    H2 3601   4.077   0.356   3.168  0.5690 -0.1965  0.1904
 1213TIP3   OH2 3602   5.887   4.628   1.620 -0.5717  0.5585 -0.7092
 1213TIP3    H1 3603   5.920   4.647   1.707 -1.5910  0.3620 -0.2604
 1213TIP3    H2 3604   5.949   4.566   1.583 -0.7826 -0.3288  0.3592
 1214TIP3   OH2 3605   4.995   1.738   0.334  0.1240 -0.3863 -0.2213
 1214TIP3    H1 3606   4.946   1.661   0.307  0.6975 -0.9446  0.2882
 1214TIP3    H2 3607   4.944   1.775   0.406 -1.1552  0.8329 -1.6852
 1215TIP3   OH2 3608   6.779   5.842   2.034 -0.5520 -0.3148  0.4337
 1215TIP3    H1 3609   6.719   5.913   2.055 -0.5417  0.0778 -0.7546
 1215TIP3    H2 3610   6.727   5.781   1.982 -0.1830 -0.4601  0.2320
 1216TIP3   OH2 3611   6.537   1.721   0.169  0.6117  0.3161  0.6540
 1216TIP3    H1 3612   6.504   1.798   0.121  1.9469  1.6999  1.8701
 1216TIP3    H2 3613   6.600   1.681   0.109 -0.8225 -0.5024 -0.3968
 1217TIP3   OH2 3614   5.764   4.599   0.952  0.2816  0.2244  0.1859
 1217TIP3    H1 3615   5.687   4.608   0.897 -0.4255 -0.0751  1.1003
 1217TIP3    H2 3616   5.733   4.619   1.040  1.2308  0.0189  0.5790
 1218TIP3   OH2 3617   0.182   5.928   1.946  0.1959  0.0190  0.5769
 1218TIP3    H1 3618   0.131   5.957   1.871  1.7761  0.0270 -0.5357
 1218TIP3    H2 3619   0.203   6.008   1.994 -0.2801  0.0763  0.6982
 1219TIP3   OH2 3620   6.560   5.393   3.423  0.5068 -0.5419 -0.5163
 1219TIP3    H1 3621   6.489   5.430   3.371  1.1994 -0.6799 -1.5899
 1219TIP3    H2 3622   6.640   5.426   3.381  1.1304 -2.3165 -0.8111
 1220TIP3   OH2 3623   2.567   4.088   3.939  0.0546 -0.0348  0.3900
 1220TIP3    H1 3624   2.646   4.034   3.935  0.2616  0.2161  1.0021
 1220TIP3    H2 3625   2.572   4.131   4.024  0.0348  1.1855 -0.2161
 1221TIP3   OH2 3626   3.700   6.181   1.749  0.0506  0.4923 -0.1092
 1221TIP3    H1 3627   3.711   6.089   1.723  0.1986 -0.4437  2.8633
 1221TIP3    H2 3628   3.782   6.223   1.723  1.1982 -0.9391  1.0174
 1222TIP3   OH2 3629   5.820   1.014   5.196 -0.4901 -0.2982  0.2052
 1222TIP3    H1 3630   5.876   0.951   5.239  1.2023  1.6179  0.9441
 1222TIP3    H2 3631   5.850   1.015   5.105 -1.7803 -1.8373 -0.2938
 1223TIP3   OH2 3632   1.678   2.119   1.369  0.3791 -0.7374  0.2992
 1223TIP3    H1 3633   1.688   2.187   1.302 -1.8340 -1.1096 -0.5261
 1223TIP3    H2 3634   1.706   2.039   1.325 -1.0831 -0.9834 -0.2667
 1224TIP3   OH2 3635   0.334   1.945   4.283  0.0130 -0.0910 -0.1723
 1224TIP3    H1 3636   0.307   2.029   4.321  0.1547 -0.7049  1.3532
 1224TIP3    H2 3637   0.315   1.881   4.351  2.9254 -0.8839  0.0254
 1225TIP3   OH2 3638   6.972   3.888   4.611  0.8309 -0.0877  0.1015
 1225TIP3    H1 3639   6.880   3.868   4.626  0.9256 -0.5906  0.0249
 1225TIP3    H2 3640   7.018   3.807   4.631  1.3618  0.4445  1.1331
 1226TIP3   OH2 3641   7.006   1.777   4.042  0.5554  0.2473  0.0777
 1226TIP3    H1 3642   6.930   1.736   4.001 -0.8168  0.8197  1.8790
 1226TIP3    H2 3643   7.072   1.782   3.973 -0.5576 -1.5213 -1.1808
 1227TIP3   OH2 3644   6.676   4.084   1.253  0.4132 -0.0956 -0.6908
 1227TIP3    H1 3645   6.634   4.170   1.243 -0.5612 -0.5929 -0.9451
 1227TIP3    H2 3646   6.614   4.032   1.303  1.4950 -0.3254  0.4801
 1228TIP3   OH2 3647   6.911   2.778   1.818  0.1078 -0.4199 -0.3154
 1228TIP3    H1 3648   6.897   2.691   1.780 -0.6428 -0.9320  1.0286
 1228TIP3    H2 3649   6.957   2.760   1.900  1.0728  0.5809 -0.6244
 1229TIP3   OH2 3650   1.771   2.351   5.725 -0.2663  0.0352 -0.2274
 1229TIP3    H1 3651   1.720   2.271   5.730 -1.5100  0.6255 -2.2942
 1229TIP3    H2 3652   1.862   2.321   5.722 -0.5726 -1.1438  1.1323
 1230TIP3   OH2 3653   3.274   6.171   0.994  0.0841 -0.2980  0.4786
 1230TIP3    H1 3654   3.281   6.133   1.082  2.4037  0.0900  0.5233
 1230TIP3    H2 3655   3.193   6.222   0.996 -1.4440 -2.6212  1.4172
 1231TIP3   OH2 3656   1.832   0.828   0.260  0.4239  0.4060 -0.3321
 1231TIP3    H1 3657   1.853   0.881   0.183  0.9012 -1.4579 -1.5482
 1231TIP3    H2 3658   1.780   0.886   0.315 -1.3981  1.3410 -2.8171
 1232TIP3   OH2 3659   4.420   6.528   0.176  0.1559  0.2938 -0.4758
 1232TIP3    H1 3660   4.376   6.610   0.195  0.2984  0.3610 -0.4364
 1232TIP3    H2 3661   4.356   6.460   0.199  0.1853  0.3847 -0.1239
 1233TIP3   OH2 3662   5.661   1.507   1.880  0.0625  0.3687 -0.0700
 1233TIP3    H1 3663   5.736   1.451   1.898 -0.4553 -0.6098 -0.9044
 1233TIP3    H2 3664   5.614   1.463   1.810 -0.2071  1.9850 -0.9651
 1234TIP3   OH2 3665   6.067   0.272   0.030 -0.7407 -0.3296  0.1831
 1234TIP3    H1 3666   6.102   0.337  -0.030 -1.6061 -0.5053 -0.5329
 1234TIP3    H2 3667   6.116   0.192   0.011 -0.7794 -0.2949 -0.0652
 1235TIP3   OH2 3668   6.696   0.898   0.504  0.1256 -0.1229  0.2346
 1235TIP3    H1 3669   6.697   0.958   0.430  0.5458  1.1506  1.2404
 1235TIP3    H2 3670   6.728   0.815   0.467  0.6657  0.5666 -0.9283
 1236TIP3   OH2 3671   2.259   1.565   1.923 -0.2236  0.2091 -0.1562
 1236TIP3    H1 3672   2.223   1.648   1.890  0.8362  0.7213 -0.0663
 1236TIP3    H2 3673   2.194   1.499   1.898 -1.5305  1.1791  0.5684
 1237TIP3   OH2 3674   3.828   3.550   4.861  0.1098  0.8295 -0.2766
 1237TIP3    H1 3675   3.748   3.570   4.812 -0.9366 -3.5037 -0.7811
 1237TIP3    H2 3676   3.899   3.566   4.799 -0.6075  1.7928 -0.8743
 1238TIP3   OH2 3677   5.035   1.012   3.789 -0.4955 -0.0117  0.6317
 1238TIP3    H1 3678   4.951   0.966   3.780 -1.0021  0.6239  1.9289
 1238TIP3    H2 3679   5.013   1.104   3.778  0.8161 -0.0027 -4.1083
 1239TIP3   OH2 3680   2.056   3.734   0.773 -0.4630  0.3002 -0.0076
 1239TIP3    H1 3681   2.088   3.762   0.688 -0.8798  1.0495  0.0758
 1239TIP3    H2 3682   1.992   3.800   0.798 -0.2730  0.1465  0.9305
 1240TIP3   OH2 3683   6.982   4.733   4.096 -0.1893 -0.3542  0.1254
 1240TIP3    H1 3684   7.068   4.721   4.056  1.0269 -0.3384  2.5364
 1240TIP3    H2 3685   6.944   4.808   4.051  1.4051  0.1526 -0.4295
 1241TIP3   OH2 3686   3.757   3.889   5.042  0.1117  0.2502  0.1435
 1241TIP3    H1 3687   3.813   3.915   4.969 -0.6585  0.7427 -0.2851
 1241TIP3    H2 3688   3.690   3.833   5.002  1.7124 -2.4653  1.0391
 1242TIP3   OH2 3689   6.241   6.066   0.385  0.3477  0.5632  0.0556
 1242TIP3    H1 3690   6.212   6.153   0.412 -0.2084  0.4992 -0.3244
 1242TIP3    H2 3691   6.160   6.015   0.379  0.6559  0.0624  0.1179
 1243TIP3   OH2 3692   5.389   6.154   3.917  0.4792 -0.9219 -0.4501
 1243TIP3    H1 3693   5.472   6.128   3.879  0.2254 -1.7698 -0.4567
 1243TIP3    H2 3694   5.406   6.161   4.011  0.7239 -0.3903 -0.5317
 1244TIP3   OH2 3695   5.153   2.495   1.389  0.1817  0.0396 -0.3562
 1244TIP3    H1 3696   5.119   2.450   1.311  1.3288  0.1295 -0.9295
 1244TIP3    H2 3697   5.091   2.567   1.404 -1.3523 -1.3460  0.2268
 1245TIP3   OH2 3698   5.086   3.099   5.720 -0.1504  0.0565  0.1458
 1245TIP3    H1 3699   5.169   3.122   5.678 -0.0807 -0.8462 -0.2360
 1245TIP3    H2 3700   5.113   3.060   5.804 -0.1545 -0.7017 -0.1973
 1246TIP3   OH2 3701   3.400   0.965   3.916 -0.4467 -0.1141 -0.0293
 1246TIP3    H1 3702   3.487   0.997   3.939 -0.3159 -0.9329  0.6856
 1246TIP3    H2 3703   3.403   0.871   3.937 -0.9304 -0.5435 -1.7021
 1247TIP3   OH2 3704   5.766   5.020   1.650 -0.2641  0.3401  0.0121
 1247TIP3    H1 3705   5.697   5.082   1.626 -0.6128  0.1868  0.6045
 1247TIP3    H2 3706   5.813   5.062   1.722  0.0262  0.2760 -0.1369
 1248TIP3   OH2 3707   3.366   1.582   5.322  0.0552  0.1480 -0.5027
 1248TIP3    H1 3708   3.281   1.542   5.338  0.2075 -0.2156 -0.5900
 1248TIP3    H2 3709   3.427   1.530   5.374  0.3082  0.0244 -0.9170
 1249TIP3   OH2 3710   2.109   3.665   2.482 -0.0409  0.5480 -0.3022
 1249TIP3    H1 3711   2.067   3.706   2.406  0.6909  0.0912 -0.9741
 1249TIP3    H2 3712   2.195   3.705   2.487  1.0517 -1.4510 -1.5261
 1250TIP3   OH2 3713   2.961   0.973   4.391  0.2167  0.0302 -0.1980
 1250TIP3    H1 3714   3.051   1.005   4.394 -0.0942  0.9766  2.5660
 1250TIP3    H2 3715   2.929   0.999   4.305  2.1261  1.0081 -0.6711
 1251TIP3   OH2 3716   1.060   5.011   2.566 -0.1061 -0.1283 -0.4606
 1251TIP3    H1 3717   0.976   4.989   2.604 -0.2506  1.0041 -0.0741
 1251TIP3    H2 3718   1.098   4.927   2.540 -0.7156 -0.7808  0.6872
 1252TIP3   OH2 3719   2.669   4.740   5.037  0.4707 -0.0257 -0.2797
 1252TIP3    H1 3720   2.708   4.691   5.109  1.3828  1.1851  0.0849
 1252TIP3    H2 3721   2.637   4.673   4.977 -1.8672 -1.1502  1.9961
 1253TIP3   OH2 3722   4.320   2.133   4.734 -0.0223  0.3033  0.1210
 1253TIP3    H1 3723   4.272   2.215   4.725 -0.2446  0.0828 -0.8895
 1253TIP3    H2 3724   4.388   2.152   4.798 -0.1207  1.2510 -0.0364
 1254TIP3   OH2 3725   3.514   6.332   4.786  0.1317 -0.0595  0.0216
 1254TIP3    H1 3726   3.571   6.331   4.863  0.3341  0.1508 -0.1249
 1254TIP3    H2 3727   3.519   6.244   4.750 -0.1272 -0.2200  0.3692
 1255TIP3   OH2 3728   6.605   2.126   5.432 -0.3671 -0.3803  0.2548
 1255TIP3    H1 3729   6.534   2.166   5.482  0.8822  1.3231  0.7546
 1255TIP3    H2 3730   6.563   2.096   5.351 -1.5664  1.0986  0.2868
 1256TIP3   OH2 3731   3.681   0.062   5.498 -0.1494 -0.1781  0.2843
 1256TIP3    H1 3732   3.763   0.015   5.512 -0.5178 -1.5259 -1.6558
 1256TIP3    H2 3733   3.708   0.150   5.473  0.6039  0.1601  2.1246
 1257TIP3   OH2 3734   6.389   4.446   3.666  0.3376  0.3436  0.1671
 1257TIP3    H1 3735   6.438   4.516   3.623  0.3266 -1.0499 -2.3246
 1257TIP3    H2 3736   6.305   4.444   3.620  0.0302 -0.7570  0.7425
 1258TIP3   OH2 3737   2.171   6.692   0.365 -0.4458 -0.2622 -0.2119
 1258TIP3    H1 3738   2.110   6.676   0.437 -1.0534 -0.4471 -0.7604
 1258TIP3    H2 3739   2.182   6.606   0.323  0.6276 -0.3490  0.2120
 1259TIP3   OH2 3740   3.996   4.184   4.529 -0.2064 -0.1884  0.6488
 1259TIP3    H1 3741   4.032   4.248   4.590  1.7337 -2.2448  1.8266
 1259TIP3    H2 3742   3.984   4.105   4.581 -0.4405 -1.4421 -1.2012
 1260TIP3   OH2 3743   4.738   6.610   1.619  0.1592  0.0677  0.1266
 1260TIP3    H1 3744   4.820   6.576   1.654 -1.0172 -1.4207  1.6020
 1260TIP3    H2 3745   4.732   6.573   1.531  2.1357  2.1108 -0.9565
 1261TIP3   OH2 3746   7.062   1.740   5.663  0.8022  0.1255  0.4546
 1261TIP3    H1 3747   7.092   1.650   5.647 -0.2715 -0.0719 -0.5886
 1261TIP3    H2 3748   6.978   1.729   5.709  1.2057  0.6308  1.3372
 1262TIP3   OH2 3749   5.924   0.960   2.113  0.9530 -0.2972 -0.0618
 1262TIP3    H1 3750   5.969   1.024   2.168  1.0820 -0.4375 -0.0036
 1262TIP3    H2 3751   5.902   1.009   2.033  1.9517 -0.4425 -0.4457
 1263TIP3   OH2 3752   2.510   2.126   2.821  0.0212  0.0667 -0.0570
 1263TIP3    H1 3753   2.455   2.104   2.896 -0.2195  2.0314  0.3896
 1263TIP3    H2 3754   2.451   2.170   2.759  0.5564 -0.0999 -0.7019
 1264TIP3   OH2 3755   2.059   4.666   1.996  0.3879  0.0290 -0.2502
 1264TIP3    H1 3756   2.136   4.676   1.941 -0.1308 -0.5707 -1.1102
 1264TIP3    H2 3757   1.985   4.675   1.936 -0.2089  0.1742  0.4875
 1265TIP3   OH2 3758   2.130   0.347   2.629 -0.2039 -0.4346 -0.6284
 1265TIP3    H1 3759   2.058   0.298   2.669 -0.3040  0.6161  0.5360
 1265TIP3    H2 3760   2.134   0.428   2.679  2.1229 -0.6751 -0.3205
 1266TIP3   OH2 3761   3.621   0.860   2.449 -0.2937  0.4046  0.0755
 1266TIP3    H1 3762   3.560   0.859   2.523 -2.1679  1.1806 -1.3893
 1266TIP3    H2 3763   3.605   0.944   2.406  1.0815  0.1604 -0.9682
 1267TIP3   OH2 3764   2.391   1.705   4.974  0.1005 -0.2585  0.4284
 1267TIP3    H1 3765   2.368   1.657   4.895  0.0293 -0.0817  0.3411
 1267TIP3    H2 3766   2.377   1.797   4.951  1.8570 -0.0571  0.0291
 1268TIP3   OH2 3767   2.080   0.091   0.860  0.2757  0.3884  0.6203
 1268TIP3    H1 3768   2.110   0.033   0.790  1.1153  1.0206  0.4467
 1268TIP3    H2 3769   1.993   0.057   0.884  0.9428 -1.2519  0.8630
 1269TIP3   OH2 3770   4.366   4.380   3.208  0.9869  0.2379  0.1918
 1269TIP3    H1 3771   4.399   4.456   3.159  1.5724  1.0390  1.7530
 1269TIP3    H2 3772   4.334   4.418   3.290 -2.4669 -0.6742 -0.5537
 1270TIP3   OH2 3773   2.854   4.390   1.229  0.1633  0.4544 -0.2488
 1270TIP3    H1 3774   2.768   4.425   1.251  0.1381  0.0307  0.3541
 1270TIP3    H2 3775   2.842   4.345   1.146 -0.4777 -0.5782  0.3745
 1271TIP3   OH2 3776   5.295   0.389   3.054 -0.3923 -0.5342 -0.0765
 1271TIP3    H1 3777   5.337   0.381   3.140  0.0193  0.9149 -0.1121
 1271TIP3    H2 3778   5.305   0.302   3.015  3.2549 -0.1773 -0.3448
 1272TIP3   OH2 3779   0.912   4.534   4.092 -0.5406  0.7095 -0.4353
 1272TIP3    H1 3780   0.835   4.480   4.108 -1.3403  1.8586 -0.1923
 1272TIP3    H2 3781   0.916   4.545   3.997 -0.8867  0.9158 -0.4285
 1273TIP3   OH2 3782   1.505   5.538   0.113  0.5955 -0.0498  0.3447
 1273TIP3    H1 3783   1.549   5.588   0.044  0.1175  0.9098  0.7199
 1273TIP3    H2 3784   1.570   5.475   0.143  0.2273 -1.8703 -2.3212
 1274TIP3   OH2 3785   6.458   4.615   0.203 -0.4094 -0.1756 -0.2972
 1274TIP3    H1 3786   6.439   4.555   0.275 -0.8556  0.3574  0.0362
 1274TIP3    H2 3787   6.389   4.681   0.208  0.6148  0.9144 -0.0600
 1275TIP3   OH2 3788   0.367   2.281   2.695  0.0882  0.6068  0.0092
 1275TIP3    H1 3789   0.443   2.336   2.674  0.8174 -0.4885 -0.3409
 1275TIP3    H2 3790   0.402   2.192   2.695 -1.5680 -0.1078 -1.9567
 1276TIP3   OH2 3791   1.718   4.017   4.958 -0.1295  0.4261 -0.0618
 1276TIP3    H1 3792   1.799   4.007   4.908  0.5190  0.2115  0.9828
 1276TIP3    H2 3793   1.731   3.962   5.035 -0.9797  0.9553  0.4784
 1277TIP3   OH2 3794   5.223   3.354   1.824 -0.8269  0.2043 -0.2073
 1277TIP3    H1 3795   5.253   3.352   1.733  0.1040  1.0881  0.0622
 1277TIP3    H2 3796   5.130   3.375   1.818 -0.6204  0.9430 -0.9337
 1278TIP3   OH2 3797   5.704   3.528   0.101 -0.3715 -0.3118  0.0757
 1278TIP3    H1 3798   5.746   3.455   0.054 -0.1435  0.4763 -0.9879
 1278TIP3    H2 3799   5.657   3.576   0.033  1.1824  1.7287  0.3445
 1279TIP3   OH2 3800   5.669   5.497   3.904 -0.2058 -0.0145 -0.1400
 1279TIP3    H1 3801   5.622   5.512   3.987 -2.9146  0.0317 -1.5510
 1279TIP3    H2 3802   5.675   5.584   3.864  1.1143 -0.0310  0.0037
 1280TIP3   OH2 3803   6.487   2.375   0.439 -0.0441 -0.4424  0.5464
 1280TIP3    H1 3804   6.518   2.327   0.362  0.7305 -0.6921  0.9993
 1280TIP3    H2 3805   6.563   2.426   0.467 -0.5917  0.3482  0.6133
 1281TIP3   OH2 3806   3.793   2.437   1.840  0.0211  0.0989  0.0004
 1281TIP3    H1 3807   3.756   2.460   1.925  1.3952 -0.0728  0.6593
 1281TIP3    H2 3808   3.774   2.344   1.829 -1.6441  0.4807 -0.6732
 1282TIP3   OH2 3809   4.928   6.131   3.571  0.1465 -0.6235  0.6003
 1282TIP3    H1 3810   5.020   6.153   3.583 -0.0215  0.4500  0.0008
 1282TIP3    H2 3811   4.881   6.195   3.624 -0.3207  0.1006 -0.6474
 1283TIP3   OH2 3812   4.986   3.455   5.788  0.1389 -0.3569  0.4031
 1283TIP3    H1 3813   4.998   3.479   5.696  0.7481  0.3093  0.6492
 1283TIP3    H2 3814   4.914   3.392   5.787  0.7237 -1.0363 -0.6322
 1284TIP3   OH2 3815   1.065   4.102   1.815  0.2526  0.0564  0.0550
 1284TIP3    H1 3816   1.049   4.174   1.754 -0.0742  0.8086  1.0019
 1284TIP3    H2 3817   1.160   4.088   1.809  0.1524 -0.2567 -1.0205
 1285TIP3   OH2 3818   6.662   2.580   1.246  0.1979  0.5482 -0.1551
 1285TIP3    H1 3819   6.715   2.510   1.283 -0.5954  1.4763  3.0730
 1285TIP3    H2 3820   6.715   2.659   1.256 -1.1580  1.2957  2.0246
 1286TIP3   OH2 3821   1.886   4.324   4.649 -0.7239 -0.4860  0.0347
 1286TIP3    H1 3822   1.873   4.251   4.711 -1.9721  0.4358  0.9203
 1286TIP3    H2 3823   1.812   4.318   4.589 -1.9086  1.1145  1.2582
 1287TIP3   OH2 3824   3.950   6.088   2.911  0.7566 -0.2031 -0.0255
 1287TIP3    H1 3825   4.019   6.119   2.851  0.7774  1.1521  0.6697
 1287TIP3    H2 3826   3.883   6.156   2.907 -0.4421 -1.3721 -0.4683
 1288TIP3   OH2 3827   5.936   2.102   3.067 -0.6189 -0.5909  0.0833
 1288TIP3    H1 3828   5.865   2.038   3.064 -1.6571  0.5264 -1.9957
 1288TIP3    H2 3829   5.916   2.162   2.995  2.8696 -0.6601 -1.1046
 1289TIP3   OH2 3830   1.064   1.158   0.816 -0.3605 -0.1096 -0.0515
 1289TIP3    H1 3831   1.085   1.091   0.752  1.0651 -0.3385  0.6259
 1289TIP3    H2 3832   1.063   1.112   0.900  0.3204  0.6454  0.3856
 1290TIP3   OH2 3833   5.544   1.495   3.350 -0.2839  0.0739  1.0956
 1290TIP3    H1 3834   5.600   1.493   3.427  2.0356  0.5289 -0.4623
 1290TIP3    H2 3835   5.592   1.445   3.284 -1.2328  1.2982 -0.6181
 1291TIP3   OH2 3836   0.329   5.522   2.269  0.2325 -0.2500  0.8637
 1291TIP3    H1 3837   0.353   5.563   2.352 -0.8711  0.9086  0.6378
 1291TIP3    H2 3838   0.306   5.595   2.212 -0.7865 -1.1369  0.1129
 1292TIP3   OH2 3839   4.181   2.704   2.034 -0.2434  0.0878  0.6277
 1292TIP3    H1 3840   4.209   2.788   1.998 -0.9167 -0.4057 -1.1758
 1292TIP3    H2 3841   4.141   2.725   2.118 -0.5361  1.5940  0.1332
 1293TIP3   OH2 3842   4.158   3.884   3.521  0.2234  0.2664  0.0215
 1293TIP3    H1 3843   4.215   3.887   3.444  0.5838  2.2066  0.3019
 1293TIP3    H2 3844   4.150   3.976   3.548 -0.2235 -0.3179  2.0555
 1294TIP3   OH2 3845   2.126   1.558   3.935 -0.0602  0.1748 -0.2207
 1294TIP3    H1 3846   2.105   1.555   4.029 -0.6764  0.3992 -0.3482
 1294TIP3    H2 3847   2.041   1.552   3.891  0.3233 -1.7064 -0.8018
 1295TIP3   OH2 3848   1.235   1.604   1.758  0.3075  0.0465 -0.0510
 1295TIP3    H1 3849   1.320   1.609   1.715  0.0753 -0.1623 -0.5504
 1295TIP3    H2 3850   1.178   1.562   1.693  0.3923 -2.0723  1.1279
 1296TIP3   OH2 3851   5.422   0.627   0.647  0.5833 -0.1023  0.0969
 1296TIP3    H1 3852   5.412   0.722   0.656 -0.1351 -0.1680  0.0293
 1296TIP3    H2 3853   5.491   0.604   0.710  2.3030  0.7469 -1.3813
 1297TIP3   OH2 3854   5.211   1.871   5.168  0.4023  0.4287 -0.4051
 1297TIP3    H1 3855   5.169   1.796   5.124  0.1170  0.7439 -0.6762
 1297TIP3    H2 3856   5.146   1.899   5.233  0.1980  0.9116 -0.8172
 1298TIP3   OH2 3857   2.986   4.276   3.998  0.0267  0.4156  0.0064
 1298TIP3    H1 3858   2.893   4.298   3.987  0.0877  0.1643 -1.1700
 1298TIP3    H2 3859   2.996   4.258   4.091 -0.8569  1.5856  0.3464
 1299TIP3   OH2 3860   1.826   3.567   3.766 -0.3578 -0.0117 -0.0255
 1299TIP3    H1 3861   1.862   3.612   3.689  2.8330  0.7590  1.7215
 1299TIP3    H2 3862   1.772   3.633   3.809 -0.2378  0.3285 -0.3913
 1300TIP3   OH2 3863   4.877   2.442   4.385 -0.0894 -0.0365 -0.4681
 1300TIP3    H1 3864   4.953   2.472   4.335 -1.2033  1.1949 -1.5097
 1300TIP3    H2 3865   4.875   2.499   4.462  0.5066 -0.6337  0.0000
 1301TIP3   OH2 3866   2.027   2.415   2.143  0.0730 -0.3202 -0.4091
 1301TIP3    H1 3867   2.057   2.389   2.229  3.0735  2.2579 -0.4767
 1301TIP3    H2 3868   1.977   2.495   2.159 -0.1061 -0.3176 -0.9685
 1302TIP3   OH2 3869   3.629   6.277   5.687  0.3828  0.1242 -0.3641
 1302TIP3    H1 3870   3.609   6.370   5.674 -0.0209  0.0702 -0.1324
 1302TIP3    H2 3871   3.573   6.250   5.760  1.3793 -0.0091  0.3611
 1303TIP3   OH2 3872   3.113   1.385   2.480 -0.5178 -0.1270 -0.1644
 1303TIP3    H1 3873   3.099   1.407   2.388 -1.3011  1.9544  0.4140
 1303TIP3    H2 3874   3.112   1.289   2.481 -0.0393 -0.2208 -2.3689
 1304TIP3   OH2 3875   4.550   3.929   5.048  0.2446  0.1789  0.1977
 1304TIP3    H1 3876   4.596   4.000   5.003  0.7657  0.6782  1.4646
 1304TIP3    H2 3877   4.605   3.852   5.036 -1.1892 -0.5210 -2.7205
 1305TIP3   OH2 3878   5.976   3.552   3.950 -0.4369 -0.1201 -0.0040
 1305TIP3    H1 3879   6.052   3.525   3.899 -0.8169  2.3289 -2.1033
 1305TIP3    H2 3880   5.906   3.560   3.886 -1.5480  1.0081  1.2836
 1306TIP3   OH2 3881   1.522   0.115   4.756 -0.0570 -0.1086  0.2418
 1306TIP3    H1 3882   1.608   0.143   4.787  1.3231 -0.9829 -2.4627
 1306TIP3    H2 3883   1.473   0.196   4.744  0.9404  0.5228  0.3538
 1307TIP3   OH2 3884   3.429   5.785   0.907 -0.1407  0.5233 -0.1895
 1307TIP3    H1 3885   3.480   5.862   0.930 -1.6253  1.5240 -0.1054
 1307TIP3    H2 3886   3.340   5.818   0.893 -1.4842 -1.4845  2.5524
 1308TIP3   OH2 3887   1.909   1.477   3.434  0.1799  0.5571 -0.3884
 1308TIP3    H1 3888   1.853   1.432   3.372 -1.2813  0.5887  0.8523
 1308TIP3    H2 3889   1.996   1.441   3.418 -0.4853 -0.7705 -1.2012
 1309TIP3   OH2 3890   2.742   3.246   2.811 -0.5004  0.2886  0.1100
 1309TIP3    H1 3891   2.778   3.234   2.899  0.6922 -1.2175 -0.5467
 1309TIP3    H2 3892   2.805   3.301   2.765 -0.6785  0.3437 -0.0723
 1310TIP3   OH2 3893   3.534   6.254   4.223  0.0588 -0.1573 -0.1650
 1310TIP3    H1 3894   3.479   6.283   4.296  0.1429 -0.4832  0.0294
 1310TIP3    H2 3895   3.583   6.180   4.258 -0.3195 -0.6774 -0.7244
 1311TIP3   OH2 3896   4.150   3.570   1.445  0.2492 -0.4527  0.1899
 1311TIP3    H1 3897   4.220   3.506   1.456  0.0256 -0.7693 -0.1847
 1311TIP3    H2 3898   4.157   3.627   1.522 -0.0049 -1.3694  0.9250
 1312TIP3   OH2 3899   3.679   4.660   3.826  0.2408  0.3841 -0.1367
 1312TIP3    H1 3900   3.618   4.724   3.864  1.1221  0.8255  0.5566
 1312TIP3    H2 3901   3.650   4.576   3.860  0.2468  0.6356  0.5021
 1313TIP3   OH2 3902   1.885   4.557   3.756 -0.0243 -0.1834  0.6063
 1313TIP3    H1 3903   1.817   4.492   3.774  1.1233 -1.3946  0.7429
 1313TIP3    H2 3904   1.962   4.525   3.803  0.3666  1.7470  1.3875
 1314TIP3   OH2 3905   2.439   6.623   1.115 -0.2467  0.0878  0.3379
 1314TIP3    H1 3906   2.498   6.547   1.113  0.1708  0.4211 -1.4361
 1314TIP3    H2 3907   2.434   6.652   1.024 -1.8399  1.1031  0.7112
 1315TIP3   OH2 3908   3.290   6.297   1.551  0.4275  0.1817 -0.0857
 1315TIP3    H1 3909   3.355   6.228   1.538  0.6181 -0.3877  3.1843
 1315TIP3    H2 3910   3.207   6.255   1.529  0.7277 -0.4409 -0.0534
 1316TIP3   OH2 3911   6.330   2.573   5.021 -0.6538  0.2023  0.3232
 1316TIP3    H1 3912   6.287   2.618   5.094  0.0315 -0.3294  1.0643
 1316TIP3    H2 3913   6.384   2.641   4.980  0.8948 -0.0445  1.8409
 1317TIP3   OH2 3914   5.737   2.168   2.781 -0.2824 -0.3907 -0.0793
 1317TIP3    H1 3915   5.689   2.090   2.811 -0.2480  0.8903  3.9135
 1317TIP3    H2 3916   5.678   2.241   2.799  1.2303  0.8145  0.1706
 1318TIP3   OH2 3917   2.254   3.747   3.705  0.9470  0.0443 -0.1668
 1318TIP3    H1 3918   2.286   3.837   3.694 -1.6645  1.0505 -0.4866
 1318TIP3    H2 3919   2.244   3.737   3.800  1.2744  0.0923 -0.1278
 1319TIP3   OH2 3920   5.553   6.712   2.740 -0.6247  0.2825  0.0866
 1319TIP3    H1 3921   5.532   6.771   2.667  1.2443  2.7304  1.3788
 1319TIP3    H2 3922   5.492   6.736   2.809  0.8295  1.5452  0.9851
 1320TIP3   OH2 3923   1.633   4.607   4.934 -0.1362 -0.2087 -0.2220
 1320TIP3    H1 3924   1.645   4.523   4.890 -0.2380 -0.4607  0.2313
 1320TIP3    H2 3925   1.599   4.665   4.866  1.0818 -0.2000 -0.8527
 1321TIP3   OH2 3926   4.383   4.921   5.756  0.1084  0.4570  0.6877
 1321TIP3    H1 3927   4.314   4.987   5.753  0.9529  1.3326 -1.6620
 1321TIP3    H2 3928   4.461   4.966   5.725  1.2427 -1.0798  1.1527
 1322TIP3   OH2 3929   1.116   0.902   0.207  0.1336  0.0899  0.2376
 1322TIP3    H1 3930   1.117   0.841   0.280 -0.9024  1.4722  1.4748
 1322TIP3    H2 3931   1.051   0.866   0.146  1.8717 -1.7053 -0.6486
 1323TIP3   OH2 3932   4.162   5.921   5.032 -0.3521  0.1421 -0.0768
 1323TIP3    H1 3933   4.111   5.887   4.958  2.4710 -1.1120 -1.5730
 1323TIP3    H2 3934   4.182   5.844   5.085 -0.6694  0.7434  0.9500
 1324TIP3   OH2 3935   5.135   0.212   1.047 -0.3609  0.7742  0.1876
 1324TIP3    H1 3936   5.065   0.170   1.097  0.2689 -0.7590 -0.1316
 1324TIP3    H2 3937   5.117   0.189   0.956  1.0329 -0.4905  0.1816
 1325TIP3   OH2 3938   5.445   2.864   4.486  0.0394 -0.7435  0.5544
 1325TIP3    H1 3939   5.371   2.907   4.444  0.8306 -0.0711 -0.1832
 1325TIP3    H2 3940   5.521   2.918   4.464  0.1872  1.4617  5.3359
 1326TIP3   OH2 3941   5.903   0.676   2.799 -0.0464 -0.1322 -0.2559
 1326TIP3    H1 3942   5.822   0.627   2.818  0.5287 -1.6584 -1.5532
 1326TIP3    H2 3943   5.937   0.700   2.885 -0.4507 -1.8920  0.4301
 1327TIP3   OH2 3944   3.342   1.122   5.214 -0.2445  0.6057 -0.4656
 1327TIP3    H1 3945   3.337   1.051   5.151 -0.7824 -0.7152  0.9979
 1327TIP3    H2 3946   3.434   1.123   5.241 -0.6603 -1.2188  1.2749
 1328TIP3   OH2 3947   3.316   1.718   3.197 -0.0090  0.0232 -0.0709
 1328TIP3    H1 3948   3.310   1.784   3.128 -0.0347 -1.8279 -1.9113
 1328TIP3    H2 3949   3.245   1.741   3.258 -1.8643  0.0619 -2.1407
 1329TIP3   OH2 3950   0.296   2.894   2.976 -0.9494 -0.0574 -0.1520
 1329TIP3    H1 3951   0.323   2.974   2.931 -0.6216 -0.6679 -1.0737
 1329TIP3    H2 3952   0.376   2.840   2.979 -0.7599  0.2263  1.8098
 1330TIP3   OH2 3953   1.077   5.802   3.152  0.1259 -0.4761 -0.1171
 1330TIP3    H1 3954   1.107   5.757   3.073 -0.8362  0.5614 -1.1147
 1330TIP3    H2 3955   0.985   5.821   3.136  0.0384  0.2079  1.0496
 1331TIP3   OH2 3956   5.398   6.635   1.769 -0.0075 -0.6073  0.4007
 1331TIP3    H1 3957   5.440   6.677   1.844 -1.3239 -0.9572  1.3770
 1331TIP3    H2 3958   5.310   6.672   1.766  0.0450 -0.5372 -1.0524
 1332TIP3   OH2 3959   3.629   6.703   3.477 -0.1319  0.2077 -0.0713
 1332TIP3    H1 3960   3.544   6.710   3.435 -0.8395 -0.0695  1.2593
 1332TIP3    H2 3961   3.668   6.624   3.439 -0.6551  0.0765 -0.3402
 1333TIP3   OH2 3962   1.656   0.754   1.210  0.2832  0.3676  0.2480
 1333TIP3    H1 3963   1.629   0.844   1.232  0.9366  1.2878 -2.3723
 1333TIP3    H2 3964   1.745   0.747   1.243  0.1105  0.5735  0.7643
 1334TIP3   OH2 3965   3.572   2.408   5.174  0.0023 -0.2382 -0.0460
 1334TIP3    H1 3966   3.586   2.460   5.254  1.1442  0.8001 -0.8808
 1334TIP3    H2 3967   3.487   2.437   5.141 -0.1782 -0.2017  0.4423
 1335TIP3   OH2 3968   1.865   3.047   2.022 -0.5103 -0.6725 -0.0156
 1335TIP3    H1 3969   1.957   3.019   2.021 -0.4228 -0.5855  2.0879
 1335TIP3    H2 3970   1.816   2.966   2.016 -0.2604 -0.9305  1.1290
 1336TIP3   OH2 3971   0.856   2.091   1.293  0.3012  0.1730 -0.7283
 1336TIP3    H1 3972   0.802   2.040   1.234 -1.1746  1.9585 -0.9987
 1336TIP3    H2 3973   0.825   2.068   1.380 -0.4309  0.6502 -0.8533
 1337TIP3   OH2 3974   3.536   0.172   3.128 -0.0539 -0.2433  0.7093
 1337TIP3    H1 3975   3.605   0.160   3.193  0.2282 -0.2226  0.4138
 1337TIP3    H2 3976   3.535   0.266   3.111  0.2925 -0.3232  0.2270
 1338TIP3   OH2 3977   3.559   5.134   1.910 -0.3173 -0.4427 -0.2249
 1338TIP3    H1 3978   3.580   5.164   1.998 -1.5591 -3.0290  1.0872
 1338TIP3    H2 3979   3.623   5.176   1.854  3.1502 -1.6833  2.3988
 1339TIP3   OH2 3980   1.954   5.215   5.009 -0.1122 -0.3491  0.2981
 1339TIP3    H1 3981   2.030   5.241   4.956  0.0790  0.6747  1.0382
 1339TIP3    H2 3982   1.946   5.120   4.995  3.3576 -1.1987  2.7301
 1340TIP3   OH2 3983   3.212   2.228   3.649 -0.3799 -0.4738 -0.0537
 1340TIP3    H1 3984   3.260   2.293   3.598 -2.1361  1.0001  0.0746
 1340TIP3    H2 3985   3.218   2.259   3.739  0.8820 -1.9066  0.4064
 1341TIP3   OH2 3986   2.274   1.864   5.818  0.2217 -0.4232  0.2835
 1341TIP3    H1 3987   2.243   1.792   5.873 -0.8380 -0.3177 -0.1582
 1341TIP3    H2 3988   2.290   1.936   5.879 -1.9114  0.0223  0.4049
 1342TIP3   OH2 3989   6.442   2.718   3.688  0.2610  0.6468  0.4355
 1342TIP3    H1 3990   6.370   2.660   3.664 -0.5341  0.9855  1.8634
 1342TIP3    H2 3991   6.513   2.695   3.629 -0.5153 -0.7725  0.0259
 1343TIP3   OH2 3992   6.318   2.058   2.557 -0.2698  0.7993 -0.6754
 1343TIP3    H1 3993   6.236   2.108   2.557  0.1522  1.8394  3.3733
 1343TIP3    H2 3994   6.291   1.967   2.556 -1.4334  1.1247 -0.2796
 1344TIP3   OH2 3995   1.239   4.382   5.418  0.5366  0.2865 -0.5258
 1344TIP3    H1 3996   1.267   4.314   5.357  0.1548  0.8152 -1.3078
 1344TIP3    H2 3997   1.189   4.335   5.485  0.4451 -0.2272 -0.9449
 1345TIP3   OH2 3998   4.371   1.224   0.887  0.0573 -0.4745  0.0800
 1345TIP3    H1 3999   4.308   1.251   0.954  0.6136 -1.3099  0.9631
 1345TIP3    H2 4000   4.399   1.137   0.914  0.3297 -0.8195 -1.2315
 1346TIP3   OH2 4001   4.637   6.220   5.492 -0.6689  0.0794  0.1812
 1346TIP3    H1 4002   4.682   6.205   5.575  0.1454  2.1082  0.1612
 1346TIP3    H2 4003   4.546   6.197   5.510 -0.4748  0.3147  1.6031
 1347TIP3   OH2 4004   7.045   2.495   3.201  0.2106  0.1434  0.5665
 1347TIP3    H1 4005   7.013   2.437   3.270  0.4025 -0.6137  0.0370
 1347TIP3    H2 4006   7.136   2.513   3.225 -0.0350  0.7421  1.0637
 1348TIP3   OH2 4007   2.765   5.100   5.436  0.3038 -0.3542 -0.3920
 1348TIP3    H1 4008   2.764   5.009   5.466  0.1378 -0.6837 -1.3494
 1348TIP3    H2 4009   2.682   5.110   5.388 -0.0480  0.5434  0.3614
 1349TIP3   OH2 4010   6.772   4.019   2.311 -0.0102  0.0117 -0.2081
 1349TIP3    H1 4011   6.806   3.963   2.381 -0.6738 -0.1658 -0.0293
 1349TIP3    H2 4012   6.851   4.045   2.262  0.3484 -0.7637 -0.0630
 1350TIP3   OH2 4013   2.152   0.203   1.853  0.0341  0.5104 -0.3137
 1350TIP3    H1 4014   2.057   0.211   1.862 -0.0441  0.2007 -0.8244
 1350TIP3    H2 4015   2.187   0.246   1.931 -0.5253  0.5868 -0.0989
 1351TIP3   OH2 4016   2.571   3.163   2.425  0.0825 -0.0102 -0.1621
 1351TIP3    H1 4017   2.620   3.243   2.405  0.6110 -0.3889 -0.4031
 1351TIP3    H2 4018   2.480   3.185   2.405  0.1247  0.7384  0.3950
 1352TIP3   OH2 4019   3.394   1.574   0.653  0.1745  0.3181 -0.3845
 1352TIP3    H1 4020   3.485   1.578   0.623  0.4373  0.8871  0.4474
 1352TIP3    H2 4021   3.382   1.656   0.701 -0.5842 -0.0540  0.0619
 1353TIP3   OH2 4022   2.734   1.155   5.656 -0.2536  0.0735  0.6099
 1353TIP3    H1 4023   2.761   1.172   5.565  0.8419 -2.4455  0.3888
 1353TIP3    H2 4024   2.811   1.179   5.707 -0.4353  0.3007  0.7810
 1354TIP3   OH2 4025   6.570   1.750   3.010  0.0864  0.4295  0.0008
 1354TIP3    H1 4026   6.565   1.662   3.046 -2.0115  0.1711 -0.7671
 1354TIP3    H2 4027   6.516   1.804   3.069 -0.8136  0.6267 -0.9654
 1355TIP3   OH2 4028   0.321   4.015   5.693 -0.3149  0.0427  0.0690
 1355TIP3    H1 4029   0.346   3.926   5.668 -0.2230  0.4932 -1.5248
 1355TIP3    H2 4030   0.226   4.013   5.700 -0.4631  0.1429 -1.4779
 1356TIP3   OH2 4031   5.192   6.550   3.623  0.0151  0.2658  0.5331
 1356TIP3    H1 4032   5.140   6.524   3.699  0.6297 -0.3680  0.7529
 1356TIP3    H2 4033   5.135   6.537   3.548 -1.8782  4.1348  1.0454
 1357TIP3   OH2 4034   2.950   3.238   0.819 -0.4806 -0.4886  0.8463
 1357TIP3    H1 4035   2.873   3.292   0.802  0.2427  0.0026 -1.1218
 1357TIP3    H2 4036   3.025   3.295   0.802  0.3029 -1.6303  0.2460
 1358TIP3   OH2 4037   7.030   5.828   2.230  0.2985  0.2933  0.0868
 1358TIP3    H1 4038   6.945   5.800   2.196 -0.7430  1.0662  1.8917
 1358TIP3    H2 4039   7.044   5.772   2.306  1.1494  0.5425  0.1136
 1359TIP3   OH2 4040   3.482   4.907   3.662 -0.1628 -0.1704 -0.0669
 1359TIP3    H1 4041   3.463   4.870   3.749  0.1300  2.2563  1.1078
 1359TIP3    H2 4042   3.574   4.930   3.666 -0.0217 -0.4844 -1.2412
 1360TIP3   OH2 4043   3.366   4.643   4.544 -0.0118  0.1851 -0.4574
 1360TIP3    H1 4044   3.311   4.700   4.598  0.1907 -0.7315  0.7704
 1360TIP3    H2 4045   3.448   4.691   4.534 -0.0071  0.3200  0.1761
 1361TIP3   OH2 4046   6.520   6.319   1.916  0.3152 -0.1063 -0.5137
 1361TIP3    H1 4047   6.440   6.268   1.914  0.0823  0.2613 -1.6105
 1361TIP3    H2 4048   6.585   6.263   1.874  0.7712 -0.5888  0.7863
 1362TIP3   OH2 4049   1.816   1.696   1.759 -0.7022  0.2753 -0.0333
 1362TIP3    H1 4050   1.754   1.726   1.825  1.2513  3.8321  0.4430
 1362TIP3    H2 4051   1.771   1.710   1.676 -1.8625 -0.8914  0.3504
 1363TIP3   OH2 4052   5.616   3.826   2.729 -0.0764  0.2671  0.1132
 1363TIP3    H1 4053   5.614   3.731   2.739  0.9612  0.2698  0.4877
 1363TIP3    H2 4054   5.609   3.859   2.819  1.6932  0.4715  0.2210
 1364TIP3   OH2 4055   5.489   5.408   2.610 -0.3471  0.2297 -0.5663
 1364TIP3    H1 4056   5.485   5.406   2.706  0.5348 -1.7363 -0.5248
 1364TIP3    H2 4057   5.403   5.441   2.583 -1.3432 -1.0408  0.8818
 1365TIP3   OH2 4058   4.367   2.136   2.070  0.1754 -0.2379 -0.1241
 1365TIP3    H1 4059   4.287   2.088   2.048  0.8225 -1.2473 -0.3503
 1365TIP3    H2 4060   4.384   2.191   1.993 -0.1547 -0.2213 -0.1856
 1366TIP3   OH2 4061   4.547   3.069   3.818 -0.2601  0.7270  0.2792
 1366TIP3    H1 4062   4.553   2.974   3.815  0.2156  0.7813 -1.3787
 1366TIP3    H2 4063   4.577   3.093   3.906 -1.0426 -0.6784  0.9557
 1367TIP3   OH2 4064   2.788   3.676   0.954  0.3530  0.2847 -0.4313
 1367TIP3    H1 4065   2.702   3.667   0.996 -0.2537  0.6383 -1.5506
 1367TIP3    H2 4066   2.825   3.756   0.993  0.1322  0.1941 -0.0267
 1368TIP3   OH2 4067   3.897   4.967   2.897 -0.2709  0.4287  0.2381
 1368TIP3    H1 4068   3.964   4.942   2.961 -0.6583 -0.6899  0.2196
 1368TIP3    H2 4069   3.815   4.936   2.935 -1.0470  3.1966  1.0345
 1369TIP3   OH2 4070   7.027   6.717   5.439 -0.1554 -0.2981  0.3377
 1369TIP3    H1 4071   7.029   6.721   5.343 -0.7358  0.4163  0.3459
 1369TIP3    H2 4072   6.995   6.803   5.466  0.4015 -0.3452  1.1951
 1370TIP3   OH2 4073   3.809   2.528   3.803 -0.1790 -0.2918 -0.1729
 1370TIP3    H1 4074   3.820   2.608   3.854  0.9219 -1.1575  1.0146
 1370TIP3    H2 4075   3.799   2.558   3.713  0.2015  1.1765  0.2464
 1371TIP3   OH2 4076   5.219   6.171   1.468  0.0790  0.1897 -0.1088
 1371TIP3    H1 4077   5.301   6.215   1.445  0.2994  0.5818  1.3272
 1371TIP3    H2 4078   5.203   6.110   1.395  1.7848 -0.0957 -0.2770
 1372TIP3   OH2 4079   6.797   3.895   5.422  0.0885 -0.3190  0.3601
 1372TIP3    H1 4080   6.854   3.971   5.413 -0.4083 -0.1414 -1.7712
 1372TIP3    H2 4081   6.806   3.869   5.513  2.0483  0.8903  0.5646
 1373TIP3   OH2 4082   4.764   3.794   0.258  0.4378 -0.1380  0.1110
 1373TIP3    H1 4083   4.832   3.790   0.325 -0.5683 -0.1996  1.1479
 1373TIP3    H2 4084   4.770   3.884   0.223  1.0624 -0.1544  0.1683
 1374TIP3   OH2 4085   4.464   0.600   5.601 -0.3045  0.0994  0.3839
 1374TIP3    H1 4086   4.452   0.675   5.659  0.3235 -0.0758  0.7513
 1374TIP3    H2 4087   4.487   0.528   5.660 -2.6180 -0.8338  0.2420
 1375TIP3   OH2 4088   4.870   6.411   5.536  0.3230 -0.3795  0.4430
 1375TIP3    H1 4089   4.920   6.378   5.610  0.1938 -3.3600 -0.6870
 1375TIP3    H2 4090   4.808   6.341   5.516 -1.7111  1.6145 -0.6173
 1376TIP3   OH2 4091   2.174   3.650   2.790 -0.0470 -0.3469 -0.0628
 1376TIP3    H1 4092   2.229   3.677   2.717  0.9202  0.9230  1.0931
 1376TIP3    H2 4093   2.235   3.633   2.862 -1.1151  1.4569  1.3756
 1377TIP3   OH2 4094   5.390   2.553   5.407  0.4959 -0.2623  0.0388
 1377TIP3    H1 4095   5.332   2.628   5.397  0.8225  0.1945  1.4067
 1377TIP3    H2 4096   5.332   2.478   5.415  0.1297  0.0541  0.3358
 1378TIP3   OH2 4097   4.276   6.594   5.024  0.3555 -0.2146  0.2782
 1378TIP3    H1 4098   4.282   6.581   5.119 -0.2503 -0.7706  0.2488
 1378TIP3    H2 4099   4.301   6.510   4.987  0.5129 -0.0219 -0.0578
 1379TIP3   OH2 4100   3.019   0.131   0.752 -0.1805  0.4489 -0.0785
 1379TIP3    H1 4101   3.094   0.072   0.753 -0.9809 -0.5928  1.5316
 1379TIP3    H2 4102   2.946   0.079   0.785 -0.6892  2.5914  2.5574
 1380TIP3   OH2 4103   1.677   3.972   2.874  0.8724 -0.0517 -0.4009
 1380TIP3    H1 4104   1.745   3.948   2.938 -0.3635 -0.7823  0.6880
 1380TIP3    H2 4105   1.704   3.929   2.793  0.8827 -1.6608  0.4343
 1381TIP3   OH2 4106   3.198   2.613   2.063 -0.9178  0.2544 -0.0551
 1381TIP3    H1 4107   3.208   2.689   2.007 -0.2471  1.0952  1.1444
 1381TIP3    H2 4108   3.105   2.613   2.089 -0.7134  1.2787  0.7371
 1382TIP3   OH2 4109   3.420   6.163   0.011  0.6103  0.6931  0.3067
 1382TIP3    H1 4110   3.421   6.248   0.056  1.3577  2.3086 -2.5226
 1382TIP3    H2 4111   3.327   6.148  -0.009  0.2019 -0.2813  2.6141
 1383TIP3   OH2 4112   0.715   0.280   0.290 -0.0389 -0.4356  0.1553
 1383TIP3    H1 4113   0.673   0.341   0.229 -2.5618  1.6156  3.5178
 1383TIP3    H2 4114   0.652   0.208   0.298  0.8042 -1.2577 -0.4254
 1384TIP3   OH2 4115   5.189   1.596   0.855  0.6469 -0.2641 -0.1138
 1384TIP3    H1 4116   5.172   1.537   0.781 -0.5222  0.1101 -0.1612
 1384TIP3    H2 4117   5.203   1.682   0.815 -2.0467  0.3784  0.1533
 1385TIP3   OH2 4118   1.801   6.379   0.189 -0.0925 -0.0108  0.0772
 1385TIP3    H1 4119   1.803   6.355   0.282  2.0298  0.6115  0.2378
 1385TIP3    H2 4120   1.716   6.349   0.158 -1.1703  0.4720  2.4038
 1386TIP3   OH2 4121   1.568   3.675   4.954 -0.4343  0.2293  0.5733
 1386TIP3    H1 4122   1.565   3.582   4.976 -2.3279  0.2676  0.6178
 1386TIP3    H2 4123   1.658   3.702   4.977  1.1262 -2.1622 -2.1294
 1387TIP3   OH2 4124   1.583   5.881   2.357  0.0251  0.6976 -0.1283
 1387TIP3    H1 4125   1.551   5.907   2.270  1.2859  1.7545 -0.3160
 1387TIP3    H2 4126   1.671   5.846   2.341 -0.3213 -0.5352  0.5575
 1388TIP3   OH2 4127   6.145   1.835   4.862  0.0459 -0.2279  0.3970
 1388TIP3    H1 4128   6.207   1.860   4.793  0.0091 -0.6719  0.1995
 1388TIP3    H2 4129   6.059   1.848   4.822 -0.0458  1.8322  1.1681
 1389TIP3   OH2 4130   3.223   5.190   0.517 -0.4447 -0.1944 -0.5110
 1389TIP3    H1 4131   3.273   5.173   0.597 -1.0088  0.1118 -0.0799
 1389TIP3    H2 4132   3.217   5.286   0.513  0.0293 -0.1886 -1.2120
 1390TIP3   OH2 4133   1.713   1.060   4.470 -0.7928  0.2439 -0.5497
 1390TIP3    H1 4134   1.678   0.976   4.500 -0.7374  0.1827 -0.6570
 1390TIP3    H2 4135   1.644   1.123   4.491 -0.4087  0.3412  0.5043
 1391TIP3   OH2 4136   6.001   0.594   5.494 -0.1667 -0.3023 -0.2900
 1391TIP3    H1 4137   6.036   0.682   5.504 -0.6427 -0.2635  1.5458
 1391TIP3    H2 4138   6.032   0.547   5.572 -1.7032 -1.0893 -0.1032
 1392TIP3   OH2 4139   3.921   0.856   0.139  0.1481  0.2380 -0.6438
 1392TIP3    H1 4140   3.902   0.839   0.047 -1.0479 -2.0444 -0.0738
 1392TIP3    H2 4141   3.835   0.865   0.180  0.5656 -0.7065  0.5230
 1393TIP3   OH2 4142   2.509   0.592   4.999  0.4598 -0.4724  0.0360
 1393TIP3    H1 4143   2.482   0.521   5.058  0.2791 -0.1630  0.3363
 1393TIP3    H2 4144   2.452   0.665   5.024  1.7171  0.2755  0.8401
 1394TIP3   OH2 4145   6.329   6.047   4.070 -0.3430  0.1078 -0.4740
 1394TIP3    H1 4146   6.385   6.002   4.134  1.2683  0.2934 -1.6772
 1394TIP3    H2 4147   6.298   5.978   4.012  0.8908  0.3040 -1.4131
 1395TIP3   OH2 4148   1.827   2.993   3.776  0.2813 -0.6974  0.1532
 1395TIP3    H1 4149   1.854   2.908   3.811 -1.4504 -1.7013 -0.8097
 1395TIP3    H2 4150   1.824   3.050   3.852  1.5365 -1.4542  0.8101
 1396TIP3   OH2 4151   1.973   5.763   0.115 -0.3233 -0.1658 -0.2448
 1396TIP3    H1 4152   2.013   5.770   0.028 -1.0327 -2.4350 -0.8165
 1396TIP3    H2 4153   1.880   5.778   0.101 -0.3001  0.6472  0.3570
 1397TIP3   OH2 4154   2.760   0.085   2.810 -0.2623 -0.1553  0.3292
 1397TIP3    H1 4155   2.809   0.146   2.755  1.0855  0.7863  2.4465
 1397TIP3    H2 4156   2.733   0.015   2.750 -0.0538  1.4687 -1.7534
 1398TIP3   OH2 4157   3.294   0.542   4.615  0.1860  0.0919  0.2191
 1398TIP3    H1 4158   3.329   0.557   4.702 -0.8874  0.7251  0.5563
 1398TIP3    H2 4159   3.348   0.471   4.580  0.1115 -0.7351  1.6970
 1399TIP3   OH2 4160   3.014   0.987   2.827 -0.1003  0.5164  0.3612
 1399TIP3    H1 4161   3.041   0.897   2.845  0.8874  0.7171 -0.0332
 1399TIP3    H2 4162   2.926   0.994   2.864  0.9597  0.2954  3.1484
 1400TIP3   OH2 4163   1.779   3.483   2.993 -0.1406  0.2859 -0.1039
 1400TIP3    H1 4164   1.835   3.540   3.047 -0.1505 -0.9487  1.3079
 1400TIP3    H2 4165   1.833   3.462   2.917  0.8754  0.1071  0.6357
 1401TIP3   OH2 4166   4.107   3.308   5.832 -0.2275 -0.4419 -0.0952
 1401TIP3    H1 4167   4.019   3.341   5.811 -0.7298 -1.0278  0.9874
 1401TIP3    H2 4168   4.161   3.386   5.838 -0.6708 -0.0728 -0.7904
 1402TIP3   OH2 4169   3.854   6.162   4.156 -0.2037 -0.5617 -0.0581
 1402TIP3    H1 4170   3.829   6.098   4.222 -0.8137 -0.5387 -0.2628
 1402TIP3    H2 4171   3.839   6.247   4.197  1.9595 -0.5094  0.7354
 1403TIP3   OH2 4172   6.516   4.940   0.285  0.0712 -0.1255 -0.2756
 1403TIP3    H1 4173   6.558   4.912   0.366 -0.5538 -0.2489  0.0104
 1403TIP3    H2 4174   6.424   4.914   0.295 -0.4777  1.7356 -0.1251
 1404TIP3   OH2 4175   3.145   3.281   2.375 -0.2013  0.4432  0.1709
 1404TIP3    H1 4176   3.077   3.313   2.314 -0.7795  0.5179  0.8423
 1404TIP3    H2 4177   3.172   3.359   2.423 -0.0805  0.3024  0.3300
 1405TIP3   OH2 4178   6.453   5.994   5.693  0.1907 -0.2679  0.2780
 1405TIP3    H1 4179   6.537   6.040   5.686  1.0685 -1.9579 -0.7620
 1405TIP3    H2 4180   6.434   5.994   5.787  0.5190  1.5269  0.3871
 1406TIP3   OH2 4181   7.005   0.873   0.735 -0.0980  0.1861 -0.4097
 1406TIP3    H1 4182   7.073   0.920   0.687  1.6051 -0.6434  1.1031
 1406TIP3    H2 4183   7.014   0.782   0.705  0.3749 -0.1688  0.7646
 1407TIP3   OH2 4184   1.931   5.851   4.800 -0.0194  0.2107 -0.7758
 1407TIP3    H1 4185   2.017   5.890   4.817 -0.5908  1.3030 -0.2601
 1407TIP3    H2 4186   1.869   5.912   4.840 -1.0038 -0.9036 -0.5559
 1408TIP3   OH2 4187   0.322   0.624   1.712 -0.2842 -0.1627  0.5880
 1408TIP3    H1 4188   0.242   0.676   1.711  0.9323  1.8456 -0.6451
 1408TIP3    H2 4189   0.326   0.584   1.625  0.2308  0.0842  0.4926
 1409TIP3   OH2 4190   5.307   1.717   3.083  0.6655 -0.6949  0.5313
 1409TIP3    H1 4191   5.292   1.651   3.150  0.6302 -0.6548  0.5629
 1409TIP3    H2 4192   5.244   1.786   3.103  0.0636 -1.0663 -0.0446
 1410TIP3   OH2 4193   1.984   3.399   3.234 -0.1924 -0.2293 -0.3960
 1410TIP3    H1 4194   2.075   3.425   3.226 -0.2410  0.0049 -0.2036
 1410TIP3    H2 4195   1.935   3.480   3.227 -0.2210  0.2134  3.0347
 1411TIP3   OH2 4196   5.369   1.995   3.806  0.6122  0.1318 -0.0424
 1411TIP3    H1 4197   5.317   1.978   3.727 -0.6480  2.1422  0.2738
 1411TIP3    H2 4198   5.316   1.957   3.877  1.5086 -1.2381 -0.0611
 1412TIP3   OH2 4199   4.516   5.422   0.265  0.2617 -0.2121 -0.0930
 1412TIP3    H1 4200   4.443   5.374   0.225  0.4309  0.9226 -1.8703
 1412TIP3    H2 4201   4.489   5.514   0.261  0.3116 -0.0111  2.4797
 1413TIP3   OH2 4202   5.235   0.678   3.872  0.4572 -0.4482  0.4080
 1413TIP3    H1 4203   5.324   0.655   3.897  1.1972  1.4781 -0.2695
 1413TIP3    H2 4204   5.190   0.693   3.955  0.2549 -2.9684  0.8275
 1414TIP3   OH2 4205   4.710   5.239   5.287  0.2017  0.0891 -0.0081
 1414TIP3    H1 4206   4.772   5.309   5.266  2.2023 -1.5464  0.1386
 1414TIP3    H2 4207   4.642   5.247   5.221  1.3222  1.0477 -1.1000
 1415TIP3   OH2 4208   2.446   3.868   0.663  0.2452  0.1322  0.2068
 1415TIP3    H1 4209   2.467   3.959   0.686 -1.4978  0.6334 -0.0326
 1415TIP3    H2 4210   2.421   3.872   0.570 -1.5069 -0.2546  0.6253
 1416TIP3   OH2 4211   1.397   4.940   4.539 -0.0328 -0.1918  0.0386
 1416TIP3    H1 4212   1.414   4.936   4.445  0.2572  0.3865  0.0580
 1416TIP3    H2 4213   1.312   4.898   4.550  0.3152 -1.0356 -0.3699
 1417TIP3   OH2 4214   3.991   1.349   2.259 -0.0600  0.4135 -0.4270
 1417TIP3    H1 4215   3.953   1.356   2.172  1.1266 -0.6142 -1.0517
 1417TIP3    H2 4216   3.990   1.255   2.279  1.3643  0.4289 -0.1291
 1418TIP3   OH2 4217   6.979   1.728   3.327  0.5146  0.1602  0.0344
 1418TIP3    H1 4218   6.887   1.740   3.301 -0.1825  0.3023  2.3288
 1418TIP3    H2 4219   7.029   1.769   3.257 -1.1917  0.5087 -1.0462
 1419TIP3   OH2 4220   1.038   3.960   2.841 -0.2467 -0.3912  0.6191
 1419TIP3    H1 4221   1.023   3.873   2.878 -1.9607 -0.9729 -1.2571
 1419TIP3    H2 4222   0.960   3.977   2.788  0.6438  1.7423 -0.1129
 1420TIP3   OH2 4223   4.425   3.026   5.626 -0.1205 -0.3576 -0.3672
 1420TIP3    H1 4224   4.405   3.098   5.565 -0.9416 -0.7815 -0.6100
 1420TIP3    H2 4225   4.401   2.947   5.578 -0.6386 -0.7063  0.4466
 1421TIP3   OH2 4226   4.945   0.724   1.142 -0.1525 -0.1605 -0.0489
 1421TIP3    H1 4227   4.903   0.805   1.172  3.1380  1.1517  1.4004
 1421TIP3    H2 4228   4.976   0.744   1.054  1.5929  0.5983  0.7061
 1422TIP3   OH2 4229   6.058   1.451   4.580  0.1343  0.1194 -0.4662
 1422TIP3    H1 4230   5.982   1.397   4.558 -0.1970  0.5306 -0.3639
 1422TIP3    H2 4231   6.131   1.390   4.586  0.1606 -0.0740 -2.2754
 1423TIP3   OH2 4232   2.375   4.544   5.580 -0.0321  0.1659 -0.1496
 1423TIP3    H1 4233   2.410   4.615   5.526  0.7058  0.3608  0.5807
 1423TIP3    H2 4234   2.325   4.588   5.648 -0.5722 -0.0667 -0.3904
 1424TIP3   OH2 4235   5.904   1.652   2.980  0.2015 -0.2082  0.4792
 1424TIP3    H1 4236   5.841   1.724   2.975 -1.5587 -1.6664  0.7142
 1424TIP3    H2 4237   5.964   1.667   2.907 -0.8845  0.8188 -0.2320
 1425TIP3   OH2 4238   0.712   0.193   3.477 -0.1061 -0.2475  0.0464
 1425TIP3    H1 4239   0.738   0.281   3.503  0.9797 -0.8225  1.0433
 1425TIP3    H2 4240   0.649   0.206   3.406 -0.2166  1.3230  0.3905
 1426TIP3   OH2 4241   2.801   4.909   3.725 -0.2036 -0.0248 -0.4456
 1426TIP3    H1 4242   2.798   5.004   3.722 -0.0431 -0.0348 -1.0320
 1426TIP3    H2 4243   2.894   4.888   3.734 -0.1404 -0.1461 -1.3363
 1427TIP3   OH2 4244   1.266   3.090   4.955 -0.5295  0.3749 -0.2874
 1427TIP3    H1 4245   1.297   3.173   4.990  0.9027 -0.1874 -0.1598
 1427TIP3    H2 4246   1.344   3.047   4.921 -0.8122 -1.8632  1.5784
 1428TIP3   OH2 4247   5.036   6.123   4.723 -0.4344  0.6809  0.5340
 1428TIP3    H1 4248   4.990   6.136   4.806 -1.3533  0.1270  0.1196
 1428TIP3    H2 4249   5.023   6.031   4.702  1.6053  0.2840  0.8241
 1429TIP3   OH2 4250   2.949   0.160   5.888 -0.6134  0.0663  0.1507
 1429TIP3    H1 4251   2.896   0.080   5.892  0.8067 -0.9571 -0.7048
 1429TIP3    H2 4252   2.949   0.184   5.795  0.5503 -0.0540  0.1107
 1430TIP3   OH2 4253   1.149   2.171   1.471 -0.0891  0.4339  0.2227
 1430TIP3    H1 4254   1.230   2.205   1.510 -0.0628 -0.4134  0.9642
 1430TIP3    H2 4255   1.170   2.159   1.379  0.7238 -0.0124  0.4569
 1431TIP3   OH2 4256   7.031   6.522   2.007  0.6783  0.1862  0.6506
 1431TIP3    H1 4257   7.112   6.572   2.007  1.1620 -0.5444 -0.5014
 1431TIP3    H2 4258   6.972   6.570   2.065  1.2052  1.9277 -0.2028
 1432TIP3   OH2 4259   3.346   5.158   5.624  0.1730  0.4165 -0.1320
 1432TIP3    H1 4260   3.310   5.174   5.711  1.8083  1.9408  0.3098
 1432TIP3    H2 4261   3.342   5.243   5.580  1.4133  0.1834 -0.7435
 1433TIP3   OH2 4262   6.144   0.589   3.515 -0.8731 -0.6078  0.2441
 1433TIP3    H1 4263   6.171   0.497   3.522  0.1042 -0.2673  1.3134
 1433TIP3    H2 4264   6.174   0.615   3.428  1.5856 -0.5110  1.0354
 1434TIP3   OH2 4265   5.117   0.641   5.131 -0.0954  0.9517  0.0895
 1434TIP3    H1 4266   5.031   0.602   5.117 -0.1273  0.9337  0.3381
 1434TIP3    H2 4267   5.120   0.660   5.224  1.4268 -2.0910  0.8048
 1435TIP3   OH2 4268   5.468   1.570   0.473 -0.6110 -0.3558  0.2126
 1435TIP3    H1 4269   5.474   1.657   0.433 -0.8484 -0.0987  0.7379
 1435TIP3    H2 4270   5.547   1.563   0.527 -1.3796  0.1685  1.4272
 1436TIP3   OH2 4271   6.766   3.938   1.026  0.3684  0.3657 -0.3700
 1436TIP3    H1 4272   6.813   4.022   1.026  1.0629 -0.0047  0.2318
 1436TIP3    H2 4273   6.713   3.941   1.106 -0.3739  0.6350 -0.8648
 1437TIP3   OH2 4274   0.973   0.591   3.648 -0.3042 -0.0901  0.2531
 1437TIP3    H1 4275   1.055   0.640   3.637  0.0590 -0.8423 -0.5183
 1437TIP3    H2 4276   0.953   0.600   3.741  0.9046 -0.2661  0.5575
 1438TIP3   OH2 4277   5.806   0.213   3.909 -0.5328  0.2195  0.1145
 1438TIP3    H1 4278   5.741   0.279   3.933  0.2528  0.4875  1.5812
 1438TIP3    H2 4279   5.838   0.179   3.993  1.2444  0.1182 -0.5781
 1439TIP3   OH2 4280   6.822   3.836   0.608 -0.1021  0.3685 -0.1061
 1439TIP3    H1 4281   6.738   3.878   0.627  0.3102  0.6526  1.2130
 1439TIP3    H2 4282   6.799   3.753   0.568 -1.0037  0.5574 -0.0053
 1440TIP3   OH2 4283   4.556   4.757   5.352  0.1578 -0.1236  0.4289
 1440TIP3    H1 4284   4.599   4.675   5.377  0.0681 -0.6533 -1.0627
 1440TIP3    H2 4285   4.626   4.823   5.359  0.9323 -0.7713 -0.7907
 1441TIP3   OH2 4286   4.152   2.403   1.563  0.4270  0.1839  0.3577
 1441TIP3    H1 4287   4.154   2.434   1.653 -0.3446 -0.7097  0.6934
 1441TIP3    H2 4288   4.063   2.421   1.532  0.5910  0.2048 -0.1203
 1442TIP3   OH2 4289   1.180   0.703   3.423 -0.3054  0.0227  0.1867
 1442TIP3    H1 4290   1.220   0.683   3.339 -0.6074 -0.4126  0.1426
 1442TIP3    H2 4291   1.165   0.798   3.421  0.4282  0.1424  0.0796
 1443TIP3   OH2 4292   1.070   1.946   1.661  0.1899 -0.0718  0.1076
 1443TIP3    H1 4293   1.063   2.033   1.622 -1.9346 -0.4874 -0.6029
 1443TIP3    H2 4294   1.157   1.915   1.636  0.1165  0.9717 -1.5689
 1444TIP3   OH2 4295   3.280   6.604   1.591  0.2369  0.1886  0.1261
 1444TIP3    H1 4296   3.247   6.680   1.544 -0.5173 -1.3244 -1.9456
 1444TIP3    H2 4297   3.308   6.544   1.523  0.8760 -1.3885  1.6888
 1445TIP3   OH2 4298   5.638   2.809   2.098 -0.4300  0.8610  0.2359
 1445TIP3    H1 4299   5.569   2.806   2.165  0.6896 -0.2923  1.3842
 1445TIP3    H2 4300   5.646   2.718   2.068  0.3177  1.0550 -0.1780
 1446TIP3   OH2 4301   2.822   1.004   4.143 -0.3029 -0.2699  0.3015
 1446TIP3    H1 4302   2.819   0.937   4.074 -0.7183  0.8463 -0.8190
 1446TIP3    H2 4303   2.730   1.023   4.161 -0.2124  0.9278 -0.3794
 1447TIP3   OH2 4304   1.650   0.919   5.537  0.0620  0.7245  0.1297
 1447TIP3    H1 4305   1.574   0.951   5.488  0.3300  0.8013 -0.2427
 1447TIP3    H2 4306   1.627   0.934   5.629 -0.1696  1.2052 -0.0017
 1448TIP3   OH2 4307   2.970   1.444   1.604  0.0344  0.1739 -0.5220
 1448TIP3    H1 4308   2.932   1.529   1.581  1.0305  0.3685 -1.5201
 1448TIP3    H2 4309   2.992   1.452   1.696  1.1393  1.4092 -0.8705
 1449TIP3   OH2 4310   4.225   2.769   2.553  0.0122 -0.6232 -0.4842
 1449TIP3    H1 4311   4.153   2.765   2.616 -1.2929  0.5936 -1.8369
 1449TIP3    H2 4312   4.248   2.861   2.549  0.5715 -0.7905 -1.2630
 1450TIP3   OH2 4313   4.690   1.802   2.856  0.0977  0.1272 -0.3259
 1450TIP3    H1 4314   4.702   1.830   2.765 -0.6185  0.4675 -0.3285
 1450TIP3    H2 4315   4.611   1.848   2.884 -0.8891 -1.5454 -0.1899
 1451TIP3   OH2 4316   3.904   3.713   5.194  0.4291  0.2269  0.2248
 1451TIP3    H1 4317   3.837   3.765   5.150 -0.1228  1.7631  2.6510
 1451TIP3    H2 4318   3.868   3.624   5.194 -1.6401  0.9700  1.2913
 1452TIP3   OH2 4319   3.867   6.202   2.398  0.2890 -0.2342  0.2296
 1452TIP3    H1 4320   3.864   6.295   2.375 -0.3864  0.5036  2.9542
 1452TIP3    H2 4321   3.939   6.196   2.461  0.5411 -1.6554 -0.1596
 1453TIP3   OH2 4322   3.030   2.894   3.852 -0.3157 -0.0244  0.4443
 1453TIP3    H1 4323   2.952   2.922   3.805  0.4828  0.6663 -0.5163
 1453TIP3    H2 4324   3.008   2.807   3.885 -1.0349 -0.4041 -0.9358
 1454TIP3   OH2 4325   5.880   1.814   4.454 -0.2107  0.4912 -0.6194
 1454TIP3    H1 4326   5.874   1.882   4.387 -1.5490  0.3449 -0.6693
 1454TIP3    H2 4327   5.888   1.862   4.536 -1.5462  0.7456 -0.6157
 1455TIP3   OH2 4328   1.237   5.869   0.869 -0.1566  0.2913 -0.1506
 1455TIP3    H1 4329   1.209   5.957   0.892  0.0609  0.2204  0.3938
 1455TIP3    H2 4330   1.195   5.852   0.785 -0.3416  0.8453 -0.1750
 1456TIP3   OH2 4331   0.977   5.035   2.120  0.0991 -0.1484  0.7388
 1456TIP3    H1 4332   0.934   5.112   2.082 -0.7284 -1.5545 -1.4040
 1456TIP3    H2 4333   1.008   5.064   2.205 -1.2530  2.1991  0.5208
 1457TIP3   OH2 4334   4.906   1.380   2.311  0.1708  0.3686 -0.0325
 1457TIP3    H1 4335   4.869   1.359   2.397 -1.2571 -0.8851 -0.9039
 1457TIP3    H2 4336   4.949   1.465   2.324  3.5856 -1.5206  2.9118
 1458TIP3   OH2 4337   2.489   2.136   3.719 -0.5346  0.1644 -0.0286
 1458TIP3    H1 4338   2.459   2.145   3.629 -1.9284  0.1359  0.4065
 1458TIP3    H2 4339   2.510   2.043   3.728  0.9228  0.4017 -0.6869
 1459TIP3   OH2 4340   6.323   4.664   0.582  0.2785 -0.4653 -0.3868
 1459TIP3    H1 4341   6.258   4.632   0.645  0.9811 -0.2850  0.4529
 1459TIP3    H2 4342   6.406   4.629   0.614  0.7049  0.0153 -0.9563
 1460TIP3   OH2 4343   6.397   4.854   5.155  0.7275  0.2962 -0.0651
 1460TIP3    H1 4344   6.328   4.904   5.198 -0.3761 -0.3933 -0.9792
 1460TIP3    H2 4345   6.432   4.914   5.089  0.0230  0.2103 -0.5404
 1461TIP3   OH2 4346   2.838   2.297   3.915 -0.6754  0.1539 -0.3429
 1461TIP3    H1 4347   2.919   2.315   3.963 -0.1534  0.8241 -1.4269
 1461TIP3    H2 4348   2.861   2.226   3.855 -0.5178  1.1505 -1.5045
 1462TIP3   OH2 4349   4.567   2.399   1.180 -0.3389 -0.0603  0.3104
 1462TIP3    H1 4350   4.471   2.391   1.180 -0.3513 -0.5090 -1.8544
 1462TIP3    H2 4351   4.598   2.312   1.207 -0.5329 -0.1455  0.2599
 1463TIP3   OH2 4352   0.872   5.568   0.256  0.7236  0.1757 -0.1262
 1463TIP3    H1 4353   0.947   5.605   0.303  0.3800 -1.1460  1.5985
 1463TIP3    H2 4354   0.864   5.479   0.291 -0.6177 -0.2850 -1.5136
 1464TIP3   OH2 4355   5.234   0.721   4.145  0.1248  0.2178 -0.3412
 1464TIP3    H1 4356   5.167   0.653   4.151  0.0600  0.3779  1.5401
 1464TIP3    H2 4357   5.185   0.803   4.150  0.3885  0.4406  4.9003
 1465TIP3   OH2 4358   0.762   3.431   4.356 -0.3372  0.3841 -0.7518
 1465TIP3    H1 4359   0.737   3.418   4.447 -2.3071  1.5099 -1.0753
 1465TIP3    H2 4360   0.854   3.404   4.352 -0.8034 -1.7433  1.0723
 1466TIP3   OH2 4361   5.444   4.419   3.050  0.7752 -0.0985  0.2683
 1466TIP3    H1 4362   5.371   4.479   3.037 -0.5237 -1.2495  1.7835
 1466TIP3    H2 4363   5.449   4.369   2.968 -0.9783 -0.8187  0.5493
 1467TIP3   OH2 4364   3.252   0.720   4.418  0.0716  0.0886  0.1212
 1467TIP3    H1 4365   3.285   0.784   4.480 -0.6748  0.2790  0.3394
 1467TIP3    H2 4366   3.234   0.642   4.470  1.4523 -0.4821 -0.2300
 1468TIP3   OH2 4367   5.913   5.344   2.780 -0.0183 -0.0381 -0.0850
 1468TIP3    H1 4368   5.883   5.320   2.692 -0.5534  1.0114 -0.2138
 1468TIP3    H2 4369   5.882   5.273   2.836 -2.5364  0.8177 -0.2698
 1469TIP3   OH2 4370   6.988   0.968   1.003  0.3730  0.0826 -0.9492
 1469TIP3    H1 4371   7.053   0.903   1.027  0.4803  0.3602 -0.4752
 1469TIP3    H2 4372   6.976   0.956   0.909  0.1796 -0.8092 -0.8218
 1470TIP3   OH2 4373   3.005   6.809   3.446  0.1215  0.2341  0.0649
 1470TIP3    H1 4374   2.965   6.730   3.481 -3.6720  2.0348  0.3400
 1470TIP3    H2 4375   2.985   6.806   3.352 -0.9523  1.2585  0.2363
 1471TIP3   OH2 4376   3.268   5.653   4.873 -0.2940  0.1753 -0.1307
 1471TIP3    H1 4377   3.260   5.574   4.926  0.8227  0.8399  1.0874
 1471TIP3    H2 4378   3.303   5.719   4.933 -0.2200  1.3188 -1.3769
 1472TIP3   OH2 4379   5.145   4.068   4.546 -0.4044 -0.2265 -0.1290
 1472TIP3    H1 4380   5.186   4.149   4.516 -0.5206  0.0253  0.3787
 1472TIP3    H2 4381   5.134   4.080   4.641 -0.6802 -0.7188 -0.0925
 1473TIP3   OH2 4382   0.310   6.693   2.596  0.0725 -0.4530 -0.3071
 1473TIP3    H1 4383   0.221   6.660   2.605  0.5173 -1.5685  0.1903
 1473TIP3    H2 4384   0.342   6.654   2.515 -0.0079  0.2439 -0.6812
 1474TIP3   OH2 4385   6.532   1.710   2.696  0.3440 -0.3803  0.2883
 1474TIP3    H1 4386   6.558   1.719   2.788  1.3375 -2.0220  0.2013
 1474TIP3    H2 4387   6.576   1.631   2.666 -0.1172  0.0238 -1.5720
 1475TIP3   OH2 4388   1.992   3.691   3.023 -0.4154 -0.6690  0.2892
 1475TIP3    H1 4389   2.057   3.662   2.959 -0.5802  0.4411 -0.3921
 1475TIP3    H2 4390   2.044   3.724   3.096 -0.2273 -1.2005  0.4037
 1476TIP3   OH2 4391   3.197   2.388   1.580 -0.1472  0.5749 -0.4917
 1476TIP3    H1 4392   3.200   2.294   1.596  1.4255  0.7584  0.6065
 1476TIP3    H2 4393   3.176   2.426   1.665  0.0902  1.2539 -0.7278
 1477TIP3   OH2 4394   3.040   3.715   2.516  0.0935 -0.1482 -0.2018
 1477TIP3    H1 4395   3.125   3.737   2.556  0.2458  0.9944 -1.0825
 1477TIP3    H2 4396   2.976   3.738   2.583  0.4538 -0.7511  0.3658
 1478TIP3   OH2 4397   3.739   0.799   4.863 -0.0575 -0.4246  0.3877
 1478TIP3    H1 4398   3.758   0.858   4.936 -1.1111 -0.6346  0.8509
 1478TIP3    H2 4399   3.675   0.846   4.809 -1.0953 -1.2067  0.8926
 1479TIP3   OH2 4400   3.143   3.102   3.093 -0.2827  0.4514  0.0041
 1479TIP3    H1 4401   3.077   3.066   3.035 -0.1870  0.1113  0.1031
 1479TIP3    H2 4402   3.227   3.081   3.051 -0.2349  0.9365 -0.1546
 1480TIP3   OH2 4403   4.912   1.851   4.109 -0.1936  0.2407 -0.0276
 1480TIP3    H1 4404   4.979   1.913   4.139 -2.4662  2.6071  0.6251
 1480TIP3    H2 4405   4.884   1.806   4.189  2.3914 -2.8183 -0.6922
 1481TIP3   OH2 4406   0.331   2.600   1.918 -0.0488  0.4905  0.3768
 1481TIP3    H1 4407   0.312   2.557   2.001  0.7804 -1.0030 -0.1678
 1481TIP3    H2 4408   0.387   2.674   1.941 -0.7507  0.7801  1.2355
 1482TIP3   OH2 4409   3.987   2.668   4.226  0.3255  0.2560 -0.1685
 1482TIP3    H1 4410   4.000   2.576   4.202  0.4021 -0.2437  1.6449
 1482TIP3    H2 4411   4.062   2.688   4.283  0.0278  1.2886 -0.1281
 1483TIP3   OH2 4412   2.045   5.300   3.181 -0.4988 -0.0381  0.1434
 1483TIP3    H1 4413   2.080   5.211   3.172 -1.5581 -0.2900 -2.0185
 1483TIP3    H2 4414   2.015   5.323   3.093 -1.0026  2.1637  0.8333
 1484TIP3   OH2 4415   4.420   0.806   0.606 -0.3347 -0.1920  0.0622
 1484TIP3    H1 4416   4.441   0.763   0.689 -0.8633 -2.6409 -0.9720
 1484TIP3    H2 4417   4.342   0.858   0.625 -1.1143 -1.5935  0.8841
 1485TIP3   OH2 4418   0.998   1.900   5.686  0.3886 -0.2407  0.4835
 1485TIP3    H1 4419   1.004   1.995   5.692 -2.0548  0.0373 -0.4218
 1485TIP3    H2 4420   0.939   1.874   5.756  0.3132 -0.9834  0.1571
 1486TIP3   OH2 4421   3.119   2.008   5.377  0.2774 -0.4027  0.3286
 1486TIP3    H1 4422   3.168   1.926   5.363  0.1008 -0.4981  0.2652
 1486TIP3    H2 4423   3.185   2.077   5.369  0.5616 -0.5772  1.0666
 1487TIP3   OH2 4424   6.682   2.582   0.235 -0.0087  0.4561 -0.2722
 1487TIP3    H1 4425   6.620   2.652   0.257 -0.6368 -0.3242  0.4756
 1487TIP3    H2 4426   6.665   2.564   0.142 -1.6228 -0.4205  0.1544
 1488TIP3   OH2 4427   4.658   0.435   5.730  0.3461 -0.2960 -0.1523
 1488TIP3    H1 4428   4.606   0.422   5.810  1.5008 -1.6242  0.4181
 1488TIP3    H2 4429   4.726   0.498   5.756 -0.3008  0.6139 -0.6013
 1489TIP3   OH2 4430   3.559   6.757   5.746 -0.2464  0.1876  0.0896
 1489TIP3    H1 4431   3.622   6.769   5.675 -0.6318  0.0463 -0.2804
 1489TIP3    H2 4432   3.534   6.846   5.771 -1.7494  0.2275 -1.4349
 1490TIP3   OH2 4433   4.094   5.723   3.815 -0.3024 -0.8655  0.6030
 1490TIP3    H1 4434   4.134   5.757   3.735 -0.7403 -0.2988  0.6234
 1490TIP3    H2 4435   4.165   5.722   3.878 -0.0874 -0.7795  0.3659
 1491TIP3   OH2 4436   7.000   3.642   5.336  0.6422  0.3879 -0.0751
 1491TIP3    H1 4437   7.014   3.564   5.282  1.5910 -0.1814  0.9394
 1491TIP3    H2 4438   7.027   3.715   5.281 -1.0247  0.1121 -1.3390
 1492TIP3   OH2 4439   2.508   4.301   5.628 -0.0423 -0.1223  0.4129
 1492TIP3    H1 4440   2.566   4.316   5.554 -1.1434 -0.6437 -0.5879
 1492TIP3    H2 4441   2.444   4.372   5.622 -0.7396 -0.7555  0.2435
 1493TIP3   OH2 4442   4.775   4.316   4.102 -0.0081 -0.0080 -0.6163
 1493TIP3    H1 4443   4.713   4.244   4.089  0.4240 -0.8645  1.6342
 1493TIP3    H2 4444   4.824   4.320   4.020 -1.2798 -1.0502 -1.4727
 1494TIP3   OH2 4445   3.848   4.793   0.418 -0.3516  0.3618  0.3976
 1494TIP3    H1 4446   3.841   4.800   0.323  1.2570  1.3537  0.3236
 1494TIP3    H2 4447   3.906   4.719   0.433 -0.2154  0.5057  0.5903
 1495TIP3   OH2 4448   3.665   5.828   1.968 -0.4986 -0.5194 -0.4271
 1495TIP3    H1 4449   3.602   5.895   1.994  0.6334  0.0303  1.1012
 1495TIP3    H2 4450   3.613   5.748   1.959 -1.2733 -0.4488  2.3288
 1496TIP3   OH2 4451   4.257   3.100   4.273  0.0408 -0.1277 -1.0969
 1496TIP3    H1 4452   4.257   3.159   4.198 -1.1818  0.1345 -0.9202
 1496TIP3    H2 4453   4.164   3.083   4.290  0.1616  1.3523  1.5681
 1497TIP3   OH2 4454   6.011   4.761   1.825 -0.0585 -0.1094  0.0472
 1497TIP3    H1 4455   5.953   4.834   1.806 -0.6604 -0.0498  1.8481
 1497TIP3    H2 4456   6.019   4.761   1.921  0.2592 -2.1251  0.0721
 1498TIP3   OH2 4457   3.860   6.382   4.671 -0.2682  0.0219 -0.3069
 1498TIP3    H1 4458   3.945   6.341   4.654 -0.7101 -0.5993 -1.0943
 1498TIP3    H2 4459   3.824   6.332   4.744  0.6943  1.2955  1.0992
 1499TIP3   OH2 4460   2.136   5.235   4.048 -0.3473  0.0966 -0.2723
 1499TIP3    H1 4461   2.104   5.245   4.137  0.6298  0.7974  0.0223
 1499TIP3    H2 4462   2.082   5.166   4.010 -0.9484 -0.0250  0.7745
 1500TIP3   OH2 4463   3.570   0.734   3.613 -0.1234  0.1353  0.3526
 1500TIP3    H1 4464   3.626   0.802   3.575 -0.0669  0.5285  1.1107
 1500TIP3    H2 4465   3.526   0.694   3.538 -0.1463  1.0039 -0.1104
 1501TIP3   OH2 4466   1.430   2.056   0.294  0.6693  0.1872  0.2423
 1501TIP3    H1 4467   1.382   1.991   0.346  0.8007 -0.0921  0.0193
 1501TIP3    H2 4468   1.521   2.026   0.295  0.5954 -0.1045 -0.5549
 1502TIP3   OH2 4469   6.647   1.738   0.423 -1.0579  0.4552 -0.2329
 1502TIP3    H1 4470   6.719   1.678   0.439 -1.4605 -0.1304 -0.5679
 1502TIP3    H2 4471   6.626   1.726   0.330  0.0154  2.4188 -0.7707
 1503TIP3   OH2 4472   5.986   2.158   4.074  0.7626 -0.1736 -0.2679
 1503TIP3    H1 4473   5.991   2.254   4.082 -2.3626  0.3181 -2.2685
 1503TIP3    H2 4474   5.971   2.143   3.980  0.3725 -2.5593  0.1232
 1504TIP3   OH2 4475   6.249   2.044   4.011  0.2474 -0.4843 -0.2946
 1504TIP3    H1 4476   6.263   1.979   4.080 -0.3486 -0.7663 -0.4364
 1504TIP3    H2 4477   6.163   2.082   4.030 -0.3890 -1.2865 -1.4408
 1505TIP3   OH2 4478   4.663   2.254   4.455  0.3389 -0.3492  0.1113
 1505TIP3    H1 4479   4.599   2.249   4.384  0.2495 -1.7674  0.2478
 1505TIP3    H2 4480   4.737   2.301   4.418  0.5492 -1.6069 -1.1595
 1506TIP3   OH2 4481   5.881   4.820   2.787  0.3229 -0.2694  0.0879
 1506TIP3    H1 4482   5.797   4.834   2.744 -0.0461 -3.3867 -0.4627
 1506TIP3    H2 4483   5.877   4.730   2.819  3.3360 -0.4422  0.3212
 1507TIP3   OH2 4484   5.599   6.371   5.051 -0.7361  0.1084  0.1058
 1507TIP3    H1 4485   5.570   6.425   4.978 -0.3226  0.7187  0.3849
 1507TIP3    H2 4486   5.519   6.348   5.098 -0.9118  0.5296  0.0183
 1508TIP3   OH2 4487   0.106   2.482   4.363 -0.0592  0.0982  0.1528
 1508TIP3    H1 4488   0.068   2.569   4.376  1.5628  0.6826  1.1533
 1508TIP3    H2 4489   0.199   2.498   4.351  0.7650 -1.6617  3.2523
 1509TIP3   OH2 4490   2.808   2.409   4.890 -0.5522 -0.2996 -0.3219
 1509TIP3    H1 4491   2.765   2.457   4.960  0.7910 -1.3760  1.3186
 1509TIP3    H2 4492   2.787   2.317   4.907  0.9570 -0.6951 -0.4570
 1510TIP3   OH2 4493   3.748   5.884   2.802  0.0099  0.4013  0.1444
 1510TIP3    H1 4494   3.735   5.840   2.718 -0.5896  1.4159 -0.2991
 1510TIP3    H2 4495   3.736   5.977   2.783  0.9455  0.7457  1.1378
 1511TIP3   OH2 4496   2.349   2.545   4.304  0.5360 -0.0629  0.3017
 1511TIP3    H1 4497   2.341   2.450   4.303 -1.7621  0.0530  0.5144
 1511TIP3    H2 4498   2.443   2.562   4.302  1.0025 -2.2554 -2.7764
 1512TIP3   OH2 4499   3.890   0.838   0.755 -0.1582  0.9148 -0.8638
 1512TIP3    H1 4500   3.936   0.866   0.676  0.2603  0.2419 -0.8730
 1512TIP3    H2 4501   3.902   0.743   0.757  0.3679  0.9814  0.3208
 1513TIP3   OH2 4502   2.024   1.618   5.590 -0.6843  0.6576 -0.0700
 1513TIP3    H1 4503   1.976   1.701   5.582 -1.5152  0.1618 -0.2940
 1513TIP3    H2 4504   1.998   1.584   5.676  0.3131  1.0254  0.3951
 1514TIP3   OH2 4505   2.835   3.105   5.417  0.0977 -0.4712 -0.3998
 1514TIP3    H1 4506   2.805   3.060   5.338 -0.9325  0.8447 -0.8074
 1514TIP3    H2 4507   2.923   3.136   5.395 -0.4735  0.5460 -1.3402
 1515TIP3   OH2 4508   2.444   2.820   4.449 -0.1681 -0.6487 -0.4916
 1515TIP3    H1 4509   2.434   2.871   4.368  1.0750  0.3717 -0.0208
 1515TIP3    H2 4510   2.470   2.733   4.418  0.2315 -0.2898 -1.2015
 1516TIP3   OH2 4511   0.930   3.742   4.378  0.7628  0.0496 -0.0593
 1516TIP3    H1 4512   0.975   3.781   4.303  2.1337 -1.2550  0.0299
 1516TIP3    H2 4513   0.871   3.677   4.340  0.4012  0.3873 -0.0769
 1517TIP3   OH2 4514   0.037   1.783   0.740 -0.3727  0.0092  0.7550
 1517TIP3    H1 4515  -0.049   1.747   0.761 -0.0156 -0.8366  0.8054
 1517TIP3    H2 4516   0.083   1.784   0.824  0.6914 -2.3794  0.2717
 1518TIP3   OH2 4517   4.061   0.913   2.967 -0.3593  0.3276  0.2030
 1518TIP3    H1 4518   4.125   0.983   2.953 -1.4115  1.3196  0.2327
 1518TIP3    H2 4519   4.108   0.833   2.943  0.5805  1.1264 -0.7409
 1519TIP3   OH2 4520   2.089   4.790   0.198  0.5017 -0.3409 -0.3985
 1519TIP3    H1 4521   2.159   4.849   0.173 -0.1131  0.6712  0.2136
 1519TIP3    H2 4522   2.010   4.830   0.162 -0.0253 -0.3510  0.7114
 1520TIP3   OH2 4523   4.175   0.114   1.987 -0.4975 -0.7353 -0.0952
 1520TIP3    H1 4524   4.165   0.033   2.038  0.2806 -1.8743 -1.6957
 1520TIP3    H2 4525   4.178   0.085   1.896  2.5709  0.8233 -0.5893
 1521TIP3   OH2 4526   5.216   2.348   5.493  0.5132  0.0822 -0.2978
 1521TIP3    H1 4527   5.264   2.273   5.527 -2.6551 -1.6756  0.6982
 1521TIP3    H2 4528   5.218   2.412   5.563  0.7149 -0.2869  0.0363
 1522TIP3   OH2 4529   1.301   5.334   3.662  0.1752  0.0286 -0.2248
 1522TIP3    H1 4530   1.375   5.362   3.715 -1.4997  1.0134  1.7363
 1522TIP3    H2 4531   1.226   5.383   3.697 -1.6322 -1.7731 -1.3250
 1523TIP3   OH2 4532   4.213   6.534   2.555  0.3574  0.5549 -0.8026
 1523TIP3    H1 4533   4.168   6.450   2.561  0.0478  0.8412  1.5426
 1523TIP3    H2 4534   4.305   6.513   2.574  0.5146  0.5931 -1.4763
 1524TIP3   OH2 4535   2.734   4.738   4.380 -0.5706  0.4756 -0.3620
 1524TIP3    H1 4536   2.807   4.800   4.383 -0.8953  0.8821 -0.7850
 1524TIP3    H2 4537   2.750   4.686   4.302 -1.3482  1.3462 -1.1300
 1525TIP3   OH2 4538   4.003   2.565   3.119  0.2931  0.5216  0.3892
 1525TIP3    H1 4539   4.029   2.643   3.070  1.6530  0.5179  1.0383
 1525TIP3    H2 4540   3.977   2.501   3.053  1.4547  0.7329 -0.2858
 1526TIP3   OH2 4541   4.583   1.334   2.793 -0.1367 -0.4027 -0.3219
 1526TIP3    H1 4542   4.504   1.337   2.848  1.6771 -2.3466  2.6951
 1526TIP3    H2 4543   4.648   1.385   2.842  1.3811 -1.6465 -0.9556
 1527TIP3   OH2 4544   0.647   2.403   0.644  0.0174 -0.2686  0.2404
 1527TIP3    H1 4545   0.680   2.450   0.567 -0.4682 -0.9591 -0.4104
 1527TIP3    H2 4546   0.590   2.467   0.688  1.8046  0.7842  1.1430
 1528TIP3   OH2 4547   0.867   1.464   5.659  0.1698  0.2075  0.7517
 1528TIP3    H1 4548   0.923   1.446   5.584 -1.0930  0.6906 -0.3653
 1528TIP3    H2 4549   0.778   1.468   5.621 -0.3847  1.4943  2.0916
 1529TIP3   OH2 4550   2.039   0.117   0.475  0.0467  0.2852  0.2147
 1529TIP3    H1 4551   1.984   0.043   0.450  0.4311  0.2477 -0.5513
 1529TIP3    H2 4552   2.055   0.164   0.392 -1.1818  1.9120  0.8310
 1530TIP3   OH2 4553   4.929   5.333   1.167 -0.0384  0.0360 -0.2449
 1530TIP3    H1 4554   4.880   5.346   1.086  3.2374 -0.0845 -2.4460
 1530TIP3    H2 4555   4.923   5.239   1.184 -0.5758  0.0257 -0.4977
 1531TIP3   OH2 4556   0.775   0.469   4.547  0.0747 -0.0843 -0.8137
 1531TIP3    H1 4557   0.749   0.377   4.541  0.8546 -0.2189 -2.8820
 1531TIP3    H2 4558   0.742   0.509   4.467  0.7320  1.1793 -0.4811
 1532TIP3   OH2 4559   5.573   1.141   1.519 -0.4280  0.7289  0.0995
 1532TIP3    H1 4560   5.579   1.131   1.424 -1.5231  0.6955  0.0206
 1532TIP3    H2 4561   5.485   1.110   1.540 -0.0139  0.2766  1.1889
 1533TIP3   OH2 4562   0.567   2.346   3.685 -0.5951  1.0759  0.0719
 1533TIP3    H1 4563   0.537   2.415   3.626 -0.9024  0.8469 -0.0378
 1533TIP3    H2 4564   0.623   2.391   3.748  0.0977  1.2574 -0.6576
 1534TIP3   OH2 4565   0.511   1.067   1.730 -0.6804  0.3571 -0.6574
 1534TIP3    H1 4566   0.556   1.126   1.792 -1.1634 -0.5259  0.5676
 1534TIP3    H2 4567   0.581   1.013   1.695 -0.7001 -1.0435  1.2816
 1535TIP3   OH2 4568   6.474   5.915   5.419  0.0623 -0.3721  0.5631
 1535TIP3    H1 4569   6.567   5.909   5.397  0.3496 -0.2288  1.7197
 1535TIP3    H2 4570   6.472   5.950   5.508 -1.1113 -0.0334  0.4197
 1536TIP3   OH2 4571   2.763   4.677   1.437 -0.8128 -0.0556  0.3613
 1536TIP3    H1 4572   2.733   4.587   1.429 -1.7903  0.3583 -1.1068
 1536TIP3    H2 4573   2.696   4.721   1.489 -1.0935  0.1354 -0.1528
 1537TIP3   OH2 4574   3.336   1.111   1.699 -0.3709 -0.2519 -0.1166
 1537TIP3    H1 4575   3.304   1.030   1.660  1.6521 -1.2151  0.0910
 1537TIP3    H2 4576   3.348   1.170   1.625 -1.9694 -0.0734 -0.2570
 1538TIP3   OH2 4577   6.494   1.573   2.181 -0.2164 -0.9261  0.2408
 1538TIP3    H1 4578   6.518   1.660   2.212 -0.5211 -0.7371 -0.0535
 1538TIP3    H2 4579   6.485   1.582   2.086  1.5694 -1.6985 -0.0526
 1539TIP3   OH2 4580   0.805   0.303   2.145  0.4656  0.4819 -0.2136
 1539TIP3    H1 4581   0.839   0.391   2.134  1.9545  0.0120  0.3785
 1539TIP3    H2 4582   0.836   0.255   2.068  3.1690 -0.5124  1.3762
 1540TIP3   OH2 4583   1.219   1.571   0.308  0.1027 -0.0050 -0.4823
 1540TIP3    H1 4584   1.156   1.637   0.279 -0.8438 -0.2489  0.8910
 1540TIP3    H2 4585   1.203   1.496   0.252 -1.1999 -0.2303  0.1493
 1541TIP3   OH2 4586   1.110   1.091   4.364  0.3558 -0.2915  0.6831
 1541TIP3    H1 4587   1.122   1.154   4.293  1.0026  1.0680  1.9259
 1541TIP3    H2 4588   1.126   1.006   4.325 -0.6947  0.2797 -1.1016
 1542TIP3   OH2 4589   1.147   4.969   4.006 -0.3924  0.2140 -0.1183
 1542TIP3    H1 4590   1.172   4.935   3.920 -0.2946  0.3343 -0.1382
 1542TIP3    H2 4591   1.085   4.905   4.040  0.4875 -0.4735  0.2379
 1543TIP3   OH2 4592   0.325   5.249   4.126 -0.0701  0.1499  0.2710
 1543TIP3    H1 4593   0.331   5.155   4.144 -0.3107  0.0636 -0.1042
 1543TIP3    H2 4594   0.260   5.281   4.188 -0.1375  0.0339  0.2611
 1544TIP3   OH2 4595   2.150   6.046   1.350  0.1597  0.1382 -0.4150
 1544TIP3    H1 4596   2.230   6.016   1.393  0.1350  0.0287 -0.4453
 1544TIP3    H2 4597   2.134   6.133   1.387 -0.7648 -0.6057  1.0592
 1545TIP3   OH2 4598   1.939   4.444   5.128  0.2853  0.3680 -0.9485
 1545TIP3    H1 4599   2.011   4.439   5.065  0.4171  1.5209 -0.9153
 1545TIP3    H2 4600   1.862   4.416   5.079 -0.1540  3.8228 -2.5697
 1546TIP3   OH2 4601   6.241   3.541   3.834  0.2485  0.4709 -0.5415
 1546TIP3    H1 4602   6.323   3.508   3.870  0.1721  0.1079 -0.6930
 1546TIP3    H2 4603   6.236   3.631   3.864  0.3284  0.2641  0.1020
 1547TIP3   OH2 4604   1.112   2.750   0.027 -0.0457  0.3209  0.0082
 1547TIP3    H1 4605   1.067   2.668   0.051 -0.1288  0.6882  1.1670
 1547TIP3    H2 4606   1.069   2.817   0.080  0.5168  1.0039 -0.3902
 1548TIP3   OH2 4607   1.122   1.567   1.196  0.0615 -0.0513  0.4869
 1548TIP3    H1 4608   1.093   1.602   1.280  0.8737  2.4712 -0.2091
 1548TIP3    H2 4609   1.216   1.582   1.194  0.0406  0.0578 -0.9234
 1549TIP3   OH2 4610   4.898   5.503   2.402 -0.0797  0.0944  0.1197
 1549TIP3    H1 4611   4.912   5.597   2.392 -2.0676  0.5443  1.0044
 1549TIP3    H2 4612   4.974   5.462   2.361  0.4015  2.0661 -1.0600
 1550TIP3   OH2 4613   2.332   4.390   4.518 -0.3730 -0.1681  0.4695
 1550TIP3    H1 4614   2.326   4.328   4.591  0.1840 -1.9328 -0.9242
 1550TIP3    H2 4615   2.305   4.340   4.442  1.3658  0.9040 -0.9247
 1551TIP3   OH2 4616   4.285   2.407   2.125 -0.1990 -0.2949  0.0597
 1551TIP3    H1 4617   4.218   2.400   2.193  0.4242 -1.0997  0.5989
 1551TIP3    H2 4618   4.310   2.317   2.107 -0.8240 -0.1492 -1.7288
 1552TIP3   OH2 4619   3.482   1.434   0.961  0.1708  0.9698 -0.1656
 1552TIP3    H1 4620   3.421   1.453   1.032 -0.4459  0.1806 -0.4765
 1552TIP3    H2 4621   3.430   1.386   0.896  0.5366  2.2840 -1.4822
 1553TIP3   OH2 4622   0.195   2.490   2.854  0.1528 -0.0313 -0.3601
 1553TIP3    H1 4623   0.210   2.414   2.798  1.0754  0.4855 -0.8358
 1553TIP3    H2 4624   0.172   2.561   2.794  0.0393  0.2540  0.0125
 1554TIP3   OH2 4625   5.921   0.267   0.306  0.3783  0.2587 -0.1742
 1554TIP3    H1 4626   5.947   0.306   0.223  2.1623  2.1973  1.1965
 1554TIP3    H2 4627   5.956   0.178   0.302 -1.1516 -0.3427 -2.1467
 1555TIP3   OH2 4628   2.366   0.057   0.641  0.0589 -0.3700 -0.0326
 1555TIP3    H1 4629   2.390   0.080   0.552  1.0024 -2.4366 -0.3656
 1555TIP3    H2 4630   2.446   0.022   0.680 -0.9019 -1.7502  0.8076
 1556TIP3   OH2 4631   4.922   1.750   3.345 -0.0151  0.4018  0.0590
 1556TIP3    H1 4632   4.955   1.840   3.352 -0.0603  0.3104  2.2417
 1556TIP3    H2 4633   4.827   1.759   3.350 -0.3643  0.4688 -3.8153
 1557TIP3   OH2 4634   2.277   1.455   5.546  0.0288  0.2298  0.4010
 1557TIP3    H1 4635   2.319   1.464   5.632 -1.0715 -1.0275  1.1042
 1557TIP3    H2 4636   2.268   1.361   5.534 -1.1771  0.4335 -0.4202
 1558TIP3   OH2 4637   5.129   1.520   3.614  0.7077  0.4916  0.3043
 1558TIP3    H1 4638   5.035   1.536   3.619  0.6284  0.2130 -0.1990
 1558TIP3    H2 4639   5.157   1.565   3.535  0.5820 -1.2999 -0.8175
 1559TIP3   OH2 4640   3.334   0.277   2.515  0.3108  0.3938  0.4668
 1559TIP3    H1 4641   3.383   0.207   2.473 -1.0964 -0.1790 -0.3020
 1559TIP3    H2 4642   3.269   0.231   2.569  1.4680  1.1198  2.5687
 1560TIP3   OH2 4643   4.590   1.436   1.467 -0.1894 -0.4366  0.1117
 1560TIP3    H1 4644   4.674   1.477   1.447 -0.4685  0.1869  0.2235
 1560TIP3    H2 4645   4.591   1.425   1.562  0.4306 -1.8928 -0.0201
 1561TIP3   OH2 4646   2.447   1.848   0.380  1.0177  0.4589  0.6488
 1561TIP3    H1 4647   2.378   1.794   0.342  0.1839  0.6842  1.7834
 1561TIP3    H2 4648   2.426   1.937   0.352  0.1628  0.6833  1.8997
 1562TIP3   OH2 4649   4.882   4.088   3.315  0.2569 -0.0905 -0.1889
 1562TIP3    H1 4650   4.939   4.117   3.387 -1.4953  0.8194  0.9115
 1562TIP3    H2 4651   4.794   4.101   3.348 -0.6178 -1.1175 -1.9731
 1563TIP3   OH2 4652   4.335   6.775   3.998 -0.0174  0.0408  0.2053
 1563TIP3    H1 4653   4.379   6.731   4.071 -0.3036  1.7957  1.4983
 1563TIP3    H2 4654   4.392   6.759   3.923  0.0233 -2.2612  0.6380
 1564TIP3   OH2 4655   7.142   6.465   3.959  0.1735 -0.1105  0.0309
 1564TIP3    H1 4656   7.186   6.491   4.040  0.0059  0.6680 -0.1230
 1564TIP3    H2 4657   7.145   6.369   3.960 -2.0816 -0.2577  2.2049
 1565TIP3   OH2 4658   3.421   0.643   3.320  0.4143  0.1883  0.6743
 1565TIP3    H1 4659   3.369   0.562   3.318 -0.8601  0.9508  1.2339
 1565TIP3    H2 4660   3.380   0.699   3.254 -0.4985  1.3593  2.1595
 1566TIP3   OH2 4661   3.768   3.753   3.792  0.5347  0.0770  0.0382
 1566TIP3    H1 4662   3.857   3.747   3.828  0.7493  4.0392  0.5451
 1566TIP3    H2 4663   3.779   3.729   3.700  2.2362  0.8266 -0.0040
 1567TIP3   OH2 4664   3.581   0.763   2.028 -0.2456 -0.2609 -0.8007
 1567TIP3    H1 4665   3.602   0.775   1.935  0.1849  0.2910 -0.6371
 1567TIP3    H2 4666   3.644   0.698   2.058  1.3054  1.4224 -0.3016
 1568TIP3   OH2 4667   2.046   5.800   3.743  0.5093  0.6089  0.1537
 1568TIP3    H1 4668   2.091   5.863   3.685 -0.0437  0.4219 -0.4915
 1568TIP3    H2 4669   1.977   5.763   3.689  0.4503 -0.1276  0.7164
 1569TIP3   OH2 4670   2.915   4.999   5.024  0.8896  0.0338 -0.4375
 1569TIP3    H1 4671   2.835   5.050   5.034  1.6064  0.9613  0.7816
 1569TIP3    H2 4672   2.906   4.956   4.939 -1.4129 -0.8183  0.1653
 1570TIP3   OH2 4673   4.747   4.723   3.082  0.5751  0.5571 -0.0055
 1570TIP3    H1 4674   4.771   4.800   3.133 -0.4973  1.0619 -0.2394
 1570TIP3    H2 4675   4.828   4.672   3.077  1.4870  1.9762 -0.4014
 1571TIP3   OH2 4676   5.653   2.744   4.211 -0.3872 -0.4729 -0.0886
 1571TIP3    H1 4677   5.748   2.759   4.208 -0.6543  1.5922  0.2385
 1571TIP3    H2 4678   5.627   2.738   4.119  0.0178 -0.7051 -0.1919
 1572TIP3   OH2 4679   5.434   0.898   0.683 -0.0716 -0.2036  0.3886
 1572TIP3    H1 4680   5.452   0.909   0.590 -0.9558 -0.3114  0.1952
 1572TIP3    H2 4681   5.486   0.966   0.725  0.2921 -0.1161 -0.1842
 1573TIP3   OH2 4682   5.241   5.993   1.272 -0.0347  0.0501  0.8440
 1573TIP3    H1 4683   5.224   5.901   1.250 -1.1132  0.6652 -1.1013
 1573TIP3    H2 4684   5.335   5.996   1.290  1.0273 -0.7266 -3.3777
 1574TIP3   OH2 4685   5.334   3.992   4.891 -0.7006 -0.2649  0.4635
 1574TIP3    H1 4686   5.268   4.008   4.823 -2.0630 -1.6847  1.3965
 1574TIP3    H2 4687   5.364   3.903   4.874 -0.2838 -0.2498  1.0995
 1575TIP3   OH2 4688   0.595   1.442   5.631 -0.8220  0.0848  0.0160
 1575TIP3    H1 4689   0.514   1.391   5.636 -0.7143 -0.0540  0.4268
 1575TIP3    H2 4690   0.567   1.529   5.605 -1.1584  0.1427  0.5427
 1576TIP3   OH2 4691   4.861   1.492   0.257  0.1153  0.0159  0.5033
 1576TIP3    H1 4692   4.799   1.514   0.188 -0.0853  0.7898  0.9172
 1576TIP3    H2 4693   4.809   1.446   0.323  0.6903 -2.6564 -0.7429
 1577TIP3   OH2 4694   2.012   2.078   0.467 -0.5109 -0.0378  0.4222
 1577TIP3    H1 4695   1.936   2.134   0.452 -0.1442  0.4498  0.3558
 1577TIP3    H2 4696   2.028   2.084   0.561  0.5657  1.3560  0.1842
 1578TIP3   OH2 4697   7.147   0.429   4.431 -0.2874  0.4312  0.1267
 1578TIP3    H1 4698   7.077   0.369   4.410  0.2898 -0.6771  1.2622
 1578TIP3    H2 4699   7.227   0.383   4.407  0.1845  0.5746  1.3354
 1579TIP3   OH2 4700   4.952   0.813   1.609 -0.2546 -0.9251  0.3691
 1579TIP3    H1 4701   4.908   0.886   1.651  0.8232 -0.4695  0.7478
 1579TIP3    H2 4702   5.018   0.854   1.552 -0.2022 -1.5804 -0.0583
 1580TIP3   OH2 4703   1.328   3.768   5.184  0.0317 -0.2132  0.2769
 1580TIP3    H1 4704   1.318   3.861   5.203 -0.8435 -0.4436  1.0238
 1580TIP3    H2 4705   1.270   3.753   5.109  0.1391 -0.1681  0.1845
 1581TIP3   OH2 4706   0.241   1.132   0.029  0.6101 -0.1168 -0.1856
 1581TIP3    H1 4707   0.254   1.224   0.054  2.4990 -0.0201 -1.3459
 1581TIP3    H2 4708   0.301   1.118  -0.044  0.4133 -2.3128  0.0055
 1582TIP3   OH2 4709   6.166   4.892   5.302 -0.3335  0.1141  0.3589
 1582TIP3    H1 4710   6.109   4.816   5.293  1.1179 -1.1828  1.5673
 1582TIP3    H2 4711   6.116   4.954   5.355 -0.7049 -0.9484  1.2903
 1583TIP3   OH2 4712   4.426   3.974   4.669  0.7122  0.1926  0.1040
 1583TIP3    H1 4713   4.406   3.929   4.587 -1.4026  0.7615  0.2462
 1583TIP3    H2 4714   4.456   3.904   4.728  3.2420 -0.0917 -1.3577
 1584TIP3   OH2 4715   7.008   2.904   4.206 -0.0946  0.2928 -0.1256
 1584TIP3    H1 4716   6.954   2.866   4.136  0.6680  0.3781 -0.7722
 1584TIP3    H2 4717   7.032   2.991   4.172  0.5747  0.1935  0.0889
 1585TIP3   OH2 4718   6.088   6.257   1.271 -0.2456 -0.1038  0.2643
 1585TIP3    H1 4719   6.161   6.238   1.330 -0.3479 -0.7015  0.2059
 1585TIP3    H2 4720   6.129   6.269   1.186 -0.1542  0.1956  0.3494
 1586TIP3   OH2 4721   0.368   0.293   0.074  0.3397 -0.5326  0.5224
 1586TIP3    H1 4722   0.310   0.314   0.001  1.7611  1.2020 -0.2018
 1586TIP3    H2 4723   0.361   0.368   0.133  3.4703  0.9605 -0.7323
 1587TIP3   OH2 4724   3.923   5.911   4.296 -0.4108 -0.8230 -0.1750
 1587TIP3    H1 4725   3.934   5.854   4.220 -0.9932 -1.0565 -0.0882
 1587TIP3    H2 4726   3.941   5.855   4.371  1.7767 -0.2009 -0.1697
 1588TIP3   OH2 4727   3.261   0.118   5.643  0.0180  0.4334 -0.2894
 1588TIP3    H1 4728   3.259   0.213   5.652 -0.0128  0.4842 -0.8491
 1588TIP3    H2 4729   3.343   0.092   5.686  1.6306  1.0154 -2.8513
 1589TIP3   OH2 4730   0.412   2.050   5.829 -0.6263 -0.2542 -0.3952
 1589TIP3    H1 4731   0.327   2.084   5.860 -0.6556 -0.1072 -0.6362
 1589TIP3    H2 4732   0.477   2.106   5.871 -0.6688 -0.0093 -0.6586
 1590TIP3   OH2 4733   4.451   4.417   2.181 -0.0567 -0.7148  0.1736
 1590TIP3    H1 4734   4.480   4.470   2.107 -0.9021 -1.5660 -0.7915
 1590TIP3    H2 4735   4.448   4.479   2.254  1.7403 -0.0682 -0.2387
 1591TIP3   OH2 4736   3.269   5.370   3.160  0.1389 -0.0447  0.2301
 1591TIP3    H1 4737   3.288   5.407   3.247 -0.7329  0.8823  0.0447
 1591TIP3    H2 4738   3.327   5.294   3.153  0.6000  0.1773  1.4103
 1592TIP3   OH2 4739   4.254   5.440   4.341 -0.6229  0.0000 -0.7848
 1592TIP3    H1 4740   4.324   5.376   4.337  0.0276  0.5687  0.7191
 1592TIP3    H2 4741   4.294   5.518   4.380 -2.2097  0.1177  0.7744
 1593TIP3   OH2 4742   0.283   1.381   2.383 -0.5822 -0.2069 -0.8630
 1593TIP3    H1 4743   0.203   1.383   2.436  0.1558 -1.2268  0.3451
 1593TIP3    H2 4744   0.261   1.323   2.310 -0.6197 -1.4104  0.0709
 1594TIP3   OH2 4745   6.422   3.840   5.282  0.0566 -0.2643 -0.6273
 1594TIP3    H1 4746   6.507   3.797   5.281 -0.3260 -1.0460 -0.5507
 1594TIP3    H2 4747   6.442   3.934   5.279  0.9792 -0.3621  1.0455
 1595TIP3   OH2 4748   2.701   6.281   1.398  0.0434 -0.6225 -0.5588
 1595TIP3    H1 4749   2.673   6.367   1.430 -0.5821 -0.9097 -0.3116
 1595TIP3    H2 4750   2.790   6.271   1.432  0.3588  0.1853 -1.1145
 1596TIP3   OH2 4751   3.000   2.635   1.789  0.2257 -0.3745 -0.3518
 1596TIP3    H1 4752   2.997   2.692   1.711  1.1351  2.5557  1.5709
 1596TIP3    H2 4753   2.918   2.655   1.835  0.9209  0.0621  0.7450
 1597TIP3   OH2 4754   1.333   5.010   1.034 -0.1292 -0.6797  0.4554
 1597TIP3    H1 4755   1.246   4.972   1.046  0.3471 -1.7721  0.5461
 1597TIP3    H2 4756   1.391   4.935   1.023  0.6706  0.0584 -0.5925
 1598TIP3   OH2 4757   2.078   5.268   1.712 -0.8277  0.3707 -0.3027
 1598TIP3    H1 4758   2.071   5.298   1.622 -2.3670  0.4004 -0.1982
 1598TIP3    H2 4759   2.170   5.280   1.735 -0.7133  1.7104 -1.3961
 1599TIP3   OH2 4760   1.134   4.201   5.144 -0.3395 -0.1249 -0.4137
 1599TIP3    H1 4761   1.113   4.146   5.069  1.1715 -1.3350  0.0100
 1599TIP3    H2 4762   1.180   4.143   5.205 -0.3548  1.1520  0.8813
 1600TIP3   OH2 4763   3.517   0.374   0.343 -0.5496 -0.0491 -0.0454
 1600TIP3    H1 4764   3.429   0.388   0.308  0.2041  0.2899 -1.9129
 1600TIP3    H2 4765   3.565   0.330   0.273  0.6983 -0.5190  1.0494
 1601TIP3   OH2 4766   6.377   2.127   0.361 -0.0006 -0.1277  0.5363
 1601TIP3    H1 4767   6.283   2.114   0.347 -0.2042  1.5252  0.1186
 1601TIP3    H2 4768   6.386   2.221   0.377  1.7132 -0.0576 -0.5416
 1602TIP3   OH2 4769   3.531   2.471   3.745 -0.4405 -0.1490 -0.5064
 1602TIP3    H1 4770   3.543   2.395   3.687 -0.8379 -1.4284  1.0160
 1602TIP3    H2 4771   3.615   2.481   3.788 -0.1308  0.8379 -1.3023
 1603TIP3   OH2 4772   2.351   0.659   1.923 -0.4709 -0.0692  0.3045
 1603TIP3    H1 4773   2.357   0.730   1.987  0.0183 -2.1450  2.7029
 1603TIP3    H2 4774   2.258   0.654   1.902 -0.6265  0.7137  0.7659
 1604TIP3   OH2 4775   2.019   0.655   1.469  0.3827 -0.1469  0.3927
 1604TIP3    H1 4776   1.970   0.673   1.388 -0.0146  0.1023  0.6807
 1604TIP3    H2 4777   2.043   0.563   1.462  1.2452  0.1233 -0.4743
 1605TIP3   OH2 4778   1.595   5.799   3.799 -0.2268  0.0494  0.6856
 1605TIP3    H1 4779   1.640   5.814   3.882  1.1686  0.1309 -0.0590
 1605TIP3    H2 4780   1.665   5.779   3.737 -1.0857  1.4305 -0.7972
 1606TIP3   OH2 4781   6.895   2.714   0.596 -0.5904 -0.4445 -0.0493
 1606TIP3    H1 4782   6.931   2.721   0.508  0.7110  1.0994  0.5814
 1606TIP3    H2 4783   6.968   2.732   0.655 -1.9640  0.9959  1.3112
 1607TIP3   OH2 4784   1.190   2.025   1.214 -0.0292 -0.0831  0.3254
 1607TIP3    H1 4785   1.133   1.960   1.174 -0.0092  0.5846 -0.8500
 1607TIP3    H2 4786   1.257   1.974   1.259 -1.4452 -0.8748  1.6095
 1608TIP3   OH2 4787   5.536   4.596   0.789  0.0901 -0.4093 -0.1147
 1608TIP3    H1 4788   5.482   4.528   0.747 -2.2822  0.0476  1.9363
 1608TIP3    H2 4789   5.485   4.676   0.778  2.0468  0.7817 -1.0275
 1609TIP3   OH2 4790   3.368   3.057   0.646  0.2849  0.1905  0.3776
 1609TIP3    H1 4791   3.360   3.103   0.730  0.0576 -1.4601  1.3145
 1609TIP3    H2 4792   3.442   2.997   0.659 -0.4254 -0.8403 -0.2142
 1610TIP3   OH2 4793   4.630   1.017   4.765  0.0068  0.5960 -0.4413
 1610TIP3    H1 4794   4.660   1.105   4.786  1.1187 -0.1007  1.0689
 1610TIP3    H2 4795   4.572   0.993   4.837 -1.7495  0.7211 -1.7434
 1611TIP3   OH2 4796   5.439   4.243   4.886 -0.0065  0.4191  0.0653
 1611TIP3    H1 4797   5.369   4.292   4.930  0.1151  1.0507 -0.4388
 1611TIP3    H2 4798   5.405   4.153   4.880 -1.4699  1.0421 -1.6465
 1612TIP3   OH2 4799   1.904   4.183   0.994 -0.0295  0.0139 -0.2015
 1612TIP3    H1 4800   1.811   4.194   0.974  0.2909 -0.0678 -1.8847
 1612TIP3    H2 4801   1.926   4.257   1.050 -1.4274 -0.7727  1.4552
 1613TIP3   OH2 4802   0.968   3.757   5.264 -0.4330 -0.1714 -0.0959
 1613TIP3    H1 4803   0.899   3.707   5.307 -0.6627 -0.9075 -1.2612
 1613TIP3    H2 4804   1.015   3.799   5.335 -2.5726  1.0380  0.7000
 1614TIP3   OH2 4805   3.497   0.062   2.392  0.1687  0.5653 -0.6518
 1614TIP3    H1 4806   3.562   0.014   2.443  0.0902  0.2447 -0.8461
 1614TIP3    H2 4807   3.467  -0.001   2.326 -1.5733  0.1402  0.4723
 1615TIP3   OH2 4808   1.820   1.905   5.644  0.0688  0.1301  0.2355
 1615TIP3    H1 4809   1.904   1.942   5.674 -0.2191  2.6530 -1.7117
 1615TIP3    H2 4810   1.834   1.888   5.551 -1.4732  0.3269 -0.0575
 1616TIP3   OH2 4811   2.363   5.447   5.613 -0.0567  0.4470 -0.0228
 1616TIP3    H1 4812   2.351   5.494   5.531 -1.9928 -0.2601 -0.1864
 1616TIP3    H2 4813   2.453   5.413   5.608 -0.2367  0.1765 -1.9719
 1617TIP3   OH2 4814   4.733   4.341   0.694 -0.1504  0.8132 -0.0499
 1617TIP3    H1 4815   4.728   4.391   0.775  0.2677 -1.9255  1.7892
 1617TIP3    H2 4816   4.826   4.326   0.680 -0.2766  0.4031 -0.4973
 1618TIP3   OH2 4817   0.924   2.210   2.294 -0.3694 -0.4247  0.6036
 1618TIP3    H1 4818   0.864   2.151   2.338  2.2418 -2.1019  2.1942
 1618TIP3    H2 4819   0.949   2.164   2.214 -2.4418  1.0747 -1.0129
 1619TIP3   OH2 4820   0.364   0.389   5.653  0.3660 -0.7256  0.5356
 1619TIP3    H1 4821   0.415   0.325   5.603  1.8846  0.5810  0.3641
 1619TIP3    H2 4822   0.428   0.452   5.684 -1.0665  0.5887  0.9110
 1620TIP3   OH2 4823   6.830   5.454   2.064 -0.3526 -0.0416 -0.1008
 1620TIP3    H1 4824   6.913   5.500   2.052  0.0157  0.4073  3.2289
 1620TIP3    H2 4825   6.774   5.487   1.994  1.1940  2.3068 -0.3402
 1621TIP3   OH2 4826   4.129   4.076   2.073 -0.3092 -1.0032 -0.3986
 1621TIP3    H1 4827   4.221   4.072   2.047  0.2891 -1.1134  1.5994
 1621TIP3    H2 4828   4.081   4.070   1.990  1.4599 -0.9785 -1.4836
 1622TIP3   OH2 4829   4.586   3.070   0.596 -0.2553  0.3645  0.0073
 1622TIP3    H1 4830   4.634   3.151   0.577 -1.9166  1.9619  2.1752
 1622TIP3    H2 4831   4.638   3.027   0.664 -1.1978  1.4913  1.4859
 1623TIP3   OH2 4832   6.853   2.471   2.740 -0.5100  0.0172 -0.0100
 1623TIP3    H1 4833   6.934   2.470   2.792 -1.0200 -0.0929  0.7856
 1623TIP3    H2 4834   6.873   2.530   2.667  0.7779 -1.1294 -0.6212
 1624TIP3   OH2 4835   4.558   3.383   3.628  0.0835  0.3150  0.0594
 1624TIP3    H1 4836   4.474   3.374   3.672 -0.7241 -1.2974 -1.6513
 1624TIP3    H2 4837   4.622   3.384   3.699 -1.3827  2.5945  1.4515
 1625TIP3   OH2 4838   0.289   0.025   2.745 -0.2142 -0.0846  0.1129
 1625TIP3    H1 4839   0.295   0.051   2.653  1.3866  0.1484  0.2647
 1625TIP3    H2 4840   0.321  -0.065   2.746 -1.0151 -0.3772  0.3357
 1626TIP3   OH2 4841   1.062   3.944   3.667 -0.1962  0.1543  0.2722
 1626TIP3    H1 4842   1.121   3.938   3.742  0.3355  0.6097 -0.1023
 1626TIP3    H2 4843   1.077   4.032   3.632  1.4505 -0.9022 -1.8968
 1627TIP3   OH2 4844   5.254   1.020   2.072  0.1154 -0.0654  0.5797
 1627TIP3    H1 4845   5.250   1.092   2.135 -1.2923 -0.8225  1.4218
 1627TIP3    H2 4846   5.313   1.050   2.004 -0.5980  1.9554  0.8090
 1628TIP3   OH2 4847   2.212   4.325   0.028  0.0814 -0.4984 -0.2176
 1628TIP3    H1 4848   2.164   4.246   0.053 -0.0937 -1.0039 -2.0341
 1628TIP3    H2 4849   2.179   4.392   0.088 -0.7478 -1.4850  0.4830
 1629TIP3   OH2 4850   0.774   4.018   0.560 -0.4101  0.8346 -0.3151
 1629TIP3    H1 4851   0.765   3.934   0.605 -2.5165  1.1347 -0.0903
 1629TIP3    H2 4852   0.799   3.995   0.471  1.5063  0.1260  0.3539
 1630TIP3   OH2 4853   2.291   1.390   2.727  0.0972 -0.4811 -0.5164
 1630TIP3    H1 4854   2.256   1.463   2.676 -0.3455 -1.4234 -1.5882
 1630TIP3    H2 4855   2.303   1.427   2.815 -2.3268  0.2738 -0.4197
 1631TIP3   OH2 4856   7.136   3.325   0.630  0.4779  0.4455  0.3820
 1631TIP3    H1 4857   7.132   3.393   0.563 -0.9539 -0.9467 -1.0272
 1631TIP3    H2 4858   7.092   3.363   0.706  0.8399  1.5386  0.0523
 1632TIP3   OH2 4859   0.580   1.892   1.347  0.0084 -0.1491  0.7860
 1632TIP3    H1 4860   0.636   1.897   1.269 -1.4830  2.0595 -0.2816
 1632TIP3    H2 4861   0.573   1.799   1.366  0.6939 -0.7488 -1.5386
 1633TIP3   OH2 4862   2.957   1.400   1.339  0.0990 -0.5111 -0.0091
 1633TIP3    H1 4863   2.964   1.395   1.434  0.8695  1.9252  0.1310
 1633TIP3    H2 4864   2.904   1.479   1.323  1.4366  0.1162 -1.5982
 1634TIP3   OH2 4865   1.993   4.016   4.922 -0.2474 -0.1681  0.2068
 1634TIP3    H1 4866   1.966   3.932   4.959  3.8070 -2.0786 -0.6691
 1634TIP3    H2 4867   2.015   4.069   4.999  0.2142 -1.0856  0.7280
 1635TIP3   OH2 4868   4.254   1.936   3.835 -0.6661 -0.1473  0.3014
 1635TIP3    H1 4869   4.212   1.892   3.909 -2.7601  0.6388 -0.3581
 1635TIP3    H2 4870   4.233   2.028   3.846  1.4710  0.4014  0.2557
 1636TIP3   OH2 4871   3.846   0.123   1.597  0.0154 -0.0540  0.4562
 1636TIP3    H1 4872   3.830   0.110   1.503 -0.3933  0.5955  0.4329
 1636TIP3    H2 4873   3.777   0.073   1.640 -0.4641  0.5398  0.3910
 1637TIP3   OH2 4874   2.424   1.361   0.321  0.6037  0.1789 -0.1087
 1637TIP3    H1 4875   2.352   1.333   0.376  0.1869  2.8644  0.8871
 1637TIP3    H2 4876   2.396   1.341   0.232 -0.1116 -1.3610  0.4402
 1638TIP3   OH2 4877   5.595   2.765   3.950  0.6140 -0.4830 -0.2478
 1638TIP3    H1 4878   5.590   2.860   3.955 -2.0434 -0.5778  0.9146
 1638TIP3    H2 4879   5.680   2.746   3.910  0.3836  2.4001 -2.3412
 1639TIP3   OH2 4880   6.974   3.117   4.059  1.1361  0.0447 -0.0647
 1639TIP3    H1 4881   6.922   3.077   3.990  2.1058 -0.3871 -0.5697
 1639TIP3    H2 4882   7.031   3.179   4.014  2.6912 -1.1625  0.1230
 1640TIP3   OH2 4883   0.175   4.929   0.204  0.0887  0.2336  0.2566
 1640TIP3    H1 4884   0.194   4.921   0.297 -0.8200  0.1305  0.4396
 1640TIP3    H2 4885   0.081   4.914   0.197  0.3164 -0.9542 -0.8097
 1641TIP3   OH2 4886   0.028   5.209   3.457  0.6385  0.7609 -0.2970
 1641TIP3    H1 4887   0.066   5.205   3.370  1.1472 -0.9357 -0.0331
 1641TIP3    H2 4888  -0.063   5.183   3.445  0.8611 -0.0583 -0.2538
 1642TIP3   OH2 4889   1.903   6.417   2.728  0.1295  0.0398  0.5471
 1642TIP3    H1 4890   1.951   6.351   2.678 -1.6233 -0.9223  0.0465
 1642TIP3    H2 4891   1.947   6.421   2.812  0.6675 -1.2887  0.3432
 1643TIP3   OH2 4892   3.129   5.759   3.995  0.0503 -0.3159  0.2928
 1643TIP3    H1 4893   3.109   5.667   3.975  0.6405 -0.4364  0.2566
 1643TIP3    H2 4894   3.180   5.789   3.920  1.1440 -0.3903  0.9855
 1644TIP3   OH2 4895   4.098   5.183   2.874  0.5837  0.1266  0.1557
 1644TIP3    H1 4896   4.073   5.092   2.861  1.4623 -0.1089  0.0344
 1644TIP3    H2 4897   4.080   5.225   2.790 -1.6535  0.5382  0.7685
 1645TIP3   OH2 4898   0.775   1.554   1.733  0.0840  0.1503  0.0085
 1645TIP3    H1 4899   0.780   1.633   1.680 -0.4657  0.3558  0.2608
 1645TIP3    H2 4900   0.862   1.514   1.725  0.6362  1.2110  0.5608
 1646TIP3   OH2 4901   1.535   5.790   1.941  0.0190  0.7721  0.5048
 1646TIP3    H1 4902   1.624   5.822   1.928 -0.7260  2.1477 -1.5763
 1646TIP3    H2 4903   1.479   5.854   1.898 -1.9010 -0.8500  0.4161
 1647TIP3   OH2 4904   2.262   0.697   1.161  0.2594  0.2187 -0.2607
 1647TIP3    H1 4905   2.288   0.615   1.203 -1.1039 -0.9880 -1.6752
 1647TIP3    H2 4906   2.291   0.688   1.071  0.2954  1.4147 -0.3874
 1648TIP3   OH2 4907   1.122   6.369   0.659 -0.4379  0.3292  0.0610
 1648TIP3    H1 4908   1.041   6.338   0.619 -1.0499  2.0090 -0.0801
 1648TIP3    H2 4909   1.154   6.295   0.711 -0.7795 -1.1714 -1.7582
 1649TIP3   OH2 4910   5.786   4.718   4.534 -0.5368 -0.7788 -0.3432
 1649TIP3    H1 4911   5.810   4.630   4.561 -0.7113 -0.6848  0.1243
 1649TIP3    H2 4912   5.821   4.775   4.602  0.3071 -0.4077 -1.0707
 1650TIP3   OH2 4913   2.601   2.528   1.605 -0.1369  0.1993 -0.1322
 1650TIP3    H1 4914   2.630   2.440   1.584  0.2861 -0.4703  2.8742
 1650TIP3    H2 4915   2.653   2.585   1.548  0.5869 -1.3986 -1.1342
 1651TIP3   OH2 4916   0.125   6.570   4.454 -0.1986 -0.1977  0.4401
 1651TIP3    H1 4917   0.128   6.483   4.494  2.4689 -0.3208  0.1805
 1651TIP3    H2 4918   0.047   6.611   4.490 -1.9095 -2.9018  0.0868
 1652TIP3   OH2 4919   2.200   0.604   0.076 -0.0504  0.0235 -0.2137
 1652TIP3    H1 4920   2.276   0.605   0.018 -1.9576  1.5261 -2.9265
 1652TIP3    H2 4921   2.138   0.545   0.033 -2.0847  2.3071 -0.5974
 1653TIP3   OH2 4922   4.692   2.251   4.763  0.4752 -0.6206  0.1278
 1653TIP3    H1 4923   4.655   2.254   4.675 -2.4439 -0.7831  1.2285
 1653TIP3    H2 4924   4.620   2.218   4.818  1.4939  1.4235  2.8917
 1654TIP3   OH2 4925   4.249   6.069   3.758  0.0803 -0.0285 -0.1260
 1654TIP3    H1 4926   4.174   6.025   3.719 -0.2174  1.2813 -1.1415
 1654TIP3    H2 4927   4.219   6.159   3.773  0.5973 -0.1531  2.0371
 1655TIP3   OH2 4928   1.542   2.302   5.451 -0.3544 -0.3767  0.0364
 1655TIP3    H1 4929   1.490   2.311   5.371 -1.8392 -2.6329  0.6745
 1655TIP3    H2 4930   1.478   2.308   5.522  0.3746 -2.1555  0.8819
 1656TIP3   OH2 4931   1.826   2.978   5.448 -0.1168 -0.2836  0.3076
 1656TIP3    H1 4932   1.730   2.975   5.453 -0.0754  0.0950  1.5193
 1656TIP3    H2 4933   1.855   2.983   5.539  1.0844 -1.0068 -0.0136
 1657TIP3   OH2 4934   1.053   6.768   5.807 -0.0959  0.3299 -0.1698
 1657TIP3    H1 4935   1.121   6.779   5.873 -0.6978  1.0742  0.3476
 1657TIP3    H2 4936   1.076   6.687   5.762  1.1142  0.5540  0.0050
 1658TIP3   OH2 4937   4.998   5.300   4.329 -0.7240  0.8502 -0.3110
 1658TIP3    H1 4938   5.063   5.368   4.313 -0.4750  1.2573  2.0107
 1658TIP3    H2 4939   4.960   5.322   4.414 -0.5812 -1.9088  0.5932
 1659TIP3   OH2 4940   3.007   3.629   4.131  0.0129 -0.1475  0.2776
 1659TIP3    H1 4941   2.931   3.678   4.164 -0.8545 -1.6026  0.5216
 1659TIP3    H2 4942   3.080   3.659   4.186 -0.4831  0.8678  0.4114
 1660TIP3   OH2 4943   4.785   0.520   4.830  0.2912  0.4384  0.3415
 1660TIP3    H1 4944   4.822   0.436   4.855 -0.1930 -0.4763 -1.8077
 1660TIP3    H2 4945   4.693   0.515   4.856 -1.0728 -1.7917 -3.9588
 1661TIP3   OH2 4946   4.688   3.443   4.523  0.4666 -0.1273 -0.0867
 1661TIP3    H1 4947   4.767   3.449   4.469  0.9595 -0.1127  0.6078
 1661TIP3    H2 4948   4.620   3.413   4.464  1.1331 -0.7099 -0.5730
 1662TIP3   OH2 4949   4.731   1.748   0.460  0.5408 -0.1910  0.0364
 1662TIP3    H1 4950   4.685   1.832   0.469  1.0516  0.0497  0.4572
 1662TIP3    H2 4951   4.677   1.697   0.400  1.6331  1.4673 -2.5273
 1663TIP3   OH2 4952   3.503   5.855   0.565  0.3747 -0.2279 -0.0158
 1663TIP3    H1 4953   3.546   5.926   0.615  0.1914 -0.1296  0.0032
 1663TIP3    H2 4954   3.523   5.776   0.615  1.3167 -0.3144 -0.5008
 1664TIP3   OH2 4955   6.876   3.395   1.490  0.0062 -0.2625  0.2958
 1664TIP3    H1 4956   6.815   3.457   1.532  1.3639  1.2563  0.1432
 1664TIP3    H2 4957   6.860   3.406   1.396  0.4294  0.0791  0.2583
 1665TIP3   OH2 4958   7.083   1.489   5.593 -0.0695  0.5589 -0.0653
 1665TIP3    H1 4959   7.069   1.397   5.615  0.7196  0.2373 -0.8432
 1665TIP3    H2 4960   7.104   1.489   5.500  0.8854  1.4155  0.1311
 1666TIP3   OH2 4961   4.273   3.042   2.603  0.2892 -0.3200  0.1404
 1666TIP3    H1 4962   4.284   3.037   2.698  0.4441 -0.8890  0.0972
 1666TIP3    H2 4963   4.214   3.116   2.590  1.5047  0.7457  0.5688
 1667TIP3   OH2 4964   4.909   2.297   0.225  0.5789  0.3888  0.2972
 1667TIP3    H1 4965   4.860   2.347   0.160 -0.9114  0.7671  1.6259
 1667TIP3    H2 4966   4.980   2.355   0.252  0.5345  0.6684 -0.1760
 1668TIP3   OH2 4967   4.964   3.076   2.986 -0.3187 -0.4270 -0.0764
 1668TIP3    H1 4968   4.958   2.986   2.954  0.9469 -0.3772 -0.5134
 1668TIP3    H2 4969   5.047   3.108   2.951 -0.9137  1.0306 -0.2024
 1669TIP3   OH2 4970   2.581   5.467   1.332 -0.0852 -0.3582 -0.2900
 1669TIP3    H1 4971   2.558   5.459   1.239 -0.6887  0.8886 -0.2718
 1669TIP3    H2 4972   2.605   5.558   1.343  0.6553 -0.6553  0.6518
 1670TIP3   OH2 4973   3.418   2.546   5.853 -0.3010 -0.3203 -0.6218
 1670TIP3    H1 4974   3.384   2.458   5.870 -1.8993  0.1833 -1.0259
 1670TIP3    H2 4975   3.461   2.540   5.768 -0.9769 -0.5920 -0.9574
 1671TIP3   OH2 4976   2.439   3.959   3.145 -0.2952 -0.1596  0.4382
 1671TIP3    H1 4977   2.369   4.019   3.119  0.6498  1.2841  1.0823
 1671TIP3    H2 4978   2.513   3.982   3.089  0.2153 -0.4150  0.9882
 1672TIP3   OH2 4979   3.315   4.897   3.443 -0.0006  0.3225 -0.1631
 1672TIP3    H1 4980   3.341   4.921   3.532 -1.7047 -0.3150  0.5525
 1672TIP3    H2 4981   3.344   4.970   3.389  1.8450  0.3241  0.7634
 1673TIP3   OH2 4982   2.834   6.252   4.948 -0.2660 -0.5736  0.0085
 1673TIP3    H1 4983   2.843   6.168   4.993  0.4294 -1.4115 -1.6208
 1673TIP3    H2 4984   2.880   6.240   4.865  0.0079  1.4825 -0.1914
 1674TIP3   OH2 4985   1.283   1.358   2.180  0.6995  0.0754 -0.0589
 1674TIP3    H1 4986   1.206   1.325   2.226  0.2356  3.0142  1.5156
 1674TIP3    H2 4987   1.357   1.332   2.234  0.5560 -0.3554 -0.0693
 1675TIP3   OH2 4988   3.851   5.240   4.642 -0.4760 -0.2484  0.2987
 1675TIP3    H1 4989   3.887   5.182   4.574  1.8247  1.8920 -0.5000
 1675TIP3    H2 4990   3.782   5.288   4.597 -3.7317 -3.4170  1.4626
 1676TIP3   OH2 4991   4.362   0.505   1.445 -0.2769 -0.5982 -0.1150
 1676TIP3    H1 4992   4.456   0.507   1.423 -0.2233 -3.0934 -0.4349
 1676TIP3    H2 4993   4.360   0.472   1.535 -0.8564  0.0234  0.1054
 1677TIP3   OH2 4994   4.935   1.676   4.806  0.9137  0.1342  0.7320
 1677TIP3    H1 4995   4.872   1.742   4.776  0.8774 -0.3447 -0.2913
 1677TIP3    H2 4996   5.020   1.718   4.795  0.8567  0.2604  0.7601
 1678TIP3   OH2 4997   0.719   3.366   0.071 -0.5338  0.1344 -0.4488
 1678TIP3    H1 4998   0.718   3.312   0.150 -2.2491 -0.4523 -0.8310
 1678TIP3    H2 4999   0.773   3.318   0.009  0.4724  0.3870  0.2207
 1679TIP3   OH2 5000   3.367   3.332   5.623  0.5212 -0.3865  0.2361
 1679TIP3    H1 5001   3.297   3.300   5.681 -0.0668  0.2817 -0.0823
 1679TIP3    H2 5002   3.448   3.306   5.666  0.0860 -0.3457  1.1051
 1680TIP3   OH2 5003   5.438   1.779   4.653  0.4660 -0.3439 -0.2116
 1680TIP3    H1 5004   5.426   1.854   4.594  0.3910  0.1737  0.4407
 1680TIP3    H2 5005   5.478   1.712   4.599  0.0553 -0.0108 -0.9445
 1681TIP3   OH2 5006   2.159   0.703   4.060 -0.0173 -0.0418  0.3566
 1681TIP3    H1 5007   2.073   0.703   4.101  0.4098  0.2450  1.2625
 1681TIP3    H2 5008   2.186   0.611   4.062  0.1186  0.0097  0.9640
 1682TIP3   OH2 5009   3.443   5.158   3.478 -0.0080 -0.0356 -0.5375
 1682TIP3    H1 5010   3.363   5.205   3.504 -0.2978 -0.3396 -0.8568
 1682TIP3    H2 5011   3.463   5.102   3.554  1.3593  1.8716  0.5728
 1683TIP3   OH2 5012   3.987   5.796   4.541 -0.0351  0.0086 -0.1344
 1683TIP3    H1 5013   4.057   5.736   4.567 -1.4084 -0.7335  2.1407
 1683TIP3    H2 5014   3.913   5.739   4.520 -0.9813  0.8197  0.8428
 1684TIP3   OH2 5015   5.459   2.026   0.745 -0.2717 -0.2083  0.0257
 1684TIP3    H1 5016   5.433   2.082   0.672  0.5695  1.4075  0.9289
 1684TIP3    H2 5017   5.530   1.972   0.709 -0.3948  0.0125 -0.5712
 1685TIP3   OH2 5018   1.698   1.359   4.186  0.0759 -0.0455  0.4536
 1685TIP3    H1 5019   1.726   1.398   4.268 -0.6442 -1.0703  1.2177
 1685TIP3    H2 5020   1.622   1.411   4.159  0.2235  0.1979  0.5078
 1686TIP3   OH2 5021   0.842   4.705   2.512 -0.3432  0.2151 -0.4896
 1686TIP3    H1 5022   0.843   4.615   2.478 -0.7486 -0.0760  0.2448
 1686TIP3    H2 5023   0.934   4.728   2.522 -0.2348 -0.4966  0.2653
 1687TIP3   OH2 5024   5.798   1.233   3.740  0.0445  0.5949 -0.2744
 1687TIP3    H1 5025   5.712   1.195   3.721 -0.1420 -0.0287  1.6462
 1687TIP3    H2 5026   5.859   1.185   3.684 -0.6227 -0.3158 -0.2401
 1688TIP3   OH2 5027   1.899   2.759   0.207 -0.3225 -0.0783 -0.4668
 1688TIP3    H1 5028   1.870   2.670   0.226  0.1753 -0.6953 -2.3743
 1688TIP3    H2 5029   1.831   2.794   0.148  0.8232 -0.2054 -1.9303
 1689TIP3   OH2 5030   5.910   1.009   1.549  0.3780 -0.8491  0.0404
 1689TIP3    H1 5031   5.998   0.981   1.523  0.5832 -0.5474  0.3898
 1689TIP3    H2 5032   5.886   0.949   1.620  0.4748 -0.6773  0.2219
 1690TIP3   OH2 5033   2.994   5.155   4.541 -0.3603  0.3850 -0.0431
 1690TIP3    H1 5034   2.990   5.220   4.612 -1.3254 -0.3540  0.6053
 1690TIP3    H2 5035   3.073   5.178   4.492  0.1069  1.1559  1.0317
 1691TIP3   OH2 5036   5.616   6.363   2.990 -0.2103 -0.1303 -0.7823
 1691TIP3    H1 5037   5.647   6.441   3.035 -0.3565 -0.6216  0.1976
 1691TIP3    H2 5038   5.528   6.348   3.024 -0.2721 -0.5880 -1.1253
 1692TIP3   OH2 5039   1.231   0.050   2.560  0.2814  0.1887 -0.3033
 1692TIP3    H1 5040   1.217   0.081   2.649  1.1749  0.1928 -0.1620
 1692TIP3    H2 5041   1.153  -0.003   2.540 -0.1453  0.5912  0.2968
 1693TIP3   OH2 5042   6.517   5.212   0.284 -0.0487 -0.0713 -0.3953
 1693TIP3    H1 5043   6.508   5.117   0.292 -1.3723 -0.0114 -0.9896
 1693TIP3    H2 5044   6.540   5.226   0.192 -1.4370  0.2605 -0.7134
 1694TIP3   OH2 5045   3.095   1.622   2.649  0.3426 -0.0719  0.1881
 1694TIP3    H1 5046   2.999   1.627   2.649  0.3124  0.0426 -1.6927
 1694TIP3    H2 5047   3.115   1.548   2.593  1.3731  0.3890 -0.0667
 1695TIP3   OH2 5048   5.011   3.528   3.102 -0.5010  0.4631 -0.1796
 1695TIP3    H1 5049   5.069   3.515   3.027  0.1046  1.7416  0.0383
 1695TIP3    H2 5050   4.974   3.442   3.119  2.1326 -0.6629  0.3231
 1696TIP3   OH2 5051   1.826   1.483   0.871 -0.7470  0.1774  0.4745
 1696TIP3    H1 5052   1.855   1.544   0.803  1.0990  0.0402  1.0712
 1696TIP3    H2 5053   1.774   1.418   0.825  0.3040  0.1945 -0.7846
 1697TIP3   OH2 5054   1.934   1.963   0.231  0.3407 -0.0654 -0.2780
 1697TIP3    H1 5055   1.999   1.992   0.295 -0.8707  0.5292  0.7228
 1697TIP3    H2 5056   1.958   1.872   0.212  0.3144 -0.4919  1.5752
 1698TIP3   OH2 5057   2.144   5.298   2.723  0.4238 -0.3962 -0.4616
 1698TIP3    H1 5058   2.179   5.238   2.788  0.3734  0.5510  0.4725
 1698TIP3    H2 5059   2.087   5.244   2.669 -0.3740 -1.0305  0.9434
 1699TIP3   OH2 5060   6.138   6.361   2.948  0.4315  0.6192 -0.4976
 1699TIP3    H1 5061   6.053   6.372   2.990  0.2286  0.0832 -0.7459
 1699TIP3    H2 5062   6.202   6.365   3.019  0.1217  0.0849 -0.1827
 1700TIP3   OH2 5063   0.051   3.218   0.969 -0.5745 -0.1034  0.9568
 1700TIP3    H1 5064   0.116   3.160   1.009  0.1227  0.7971  1.1618
 1700TIP3    H2 5065   0.001   3.161   0.911 -0.8796 -1.2152  2.2567
 1701TIP3   OH2 5066   4.539   4.197   4.513 -0.0405  0.1616 -0.4847
 1701TIP3    H1 5067   4.539   4.118   4.569 -0.9600  1.1760  1.0369
 1701TIP3    H2 5068   4.631   4.219   4.503  0.2218 -1.0034 -0.7796
 1702TIP3   OH2 5069   2.669   4.606   3.328  0.2248 -0.2904 -0.3517
 1702TIP3    H1 5070   2.596   4.640   3.277  1.3374  0.1175 -1.7285
 1702TIP3    H2 5071   2.631   4.585   3.414 -1.6085 -0.6477 -1.2095
 1703TIP3   OH2 5072   0.223   3.483   5.648 -0.4790  0.4795  0.8841
 1703TIP3    H1 5073   0.162   3.418   5.683  0.6939 -1.1458  0.0599
 1703TIP3    H2 5074   0.169   3.538   5.592 -1.0752 -1.7195 -0.8791
 1704TIP3   OH2 5075   3.053   6.230   0.344 -0.4136  0.0313  0.1877
 1704TIP3    H1 5076   3.142   6.237   0.310  0.0695 -0.4311  1.3153
 1704TIP3    H2 5077   3.022   6.321   0.346 -0.3343  0.1098 -1.1007
 1705TIP3   OH2 5078   1.109   5.474   1.758  0.4588 -0.6973 -0.2888
 1705TIP3    H1 5079   1.060   5.551   1.728 -2.4760 -1.5923  1.8180
 1705TIP3    H2 5080   1.121   5.422   1.678  0.1947  0.7255 -1.3059
 1706TIP3   OH2 5081   1.920   4.752   2.216  0.6580  0.2312 -0.2423
 1706TIP3    H1 5082   1.974   4.735   2.139  2.1816 -0.8279  0.9787
 1706TIP3    H2 5083   1.831   4.735   2.188  1.1746  0.0059 -1.8134
 1707TIP3   OH2 5084   4.274   5.944   3.164  0.7842 -0.4944  0.2070
 1707TIP3    H1 5085   4.222   6.013   3.123 -0.4616 -0.2125  2.1297
 1707TIP3    H2 5086   4.365   5.971   3.152  0.3488  1.0807  0.2445
 1708TIP3   OH2 5087   5.960   1.537   0.595 -0.3206 -0.1142 -0.3719
 1708TIP3    H1 5088   5.997   1.549   0.508  0.7539 -2.2877 -0.2737
 1708TIP3    H2 5089   6.031   1.557   0.655 -1.0329  1.2932  0.0542
 1709TIP3   OH2 5090   3.572   0.424   5.567 -0.6882  0.1490  0.4439
 1709TIP3    H1 5091   3.529   0.361   5.625 -2.0791 -1.4794 -2.1306
 1709TIP3    H2 5092   3.627   0.370   5.510 -0.2337  1.4996 -0.4468
 1710TIP3   OH2 5093   5.281   5.128   4.298  0.2135 -0.3185 -0.2120
 1710TIP3    H1 5094   5.202   5.077   4.314 -0.0487  1.0425  3.9568
 1710TIP3    H2 5095   5.269   5.208   4.348  3.8727  0.3363 -0.0876
 1711TIP3   OH2 5096   0.950   4.609   2.258 -0.7364  0.1968 -0.5614
 1711TIP3    H1 5097   0.870   4.659   2.243 -1.5031  0.5165  3.4473
 1711TIP3    H2 5098   0.926   4.518   2.243 -0.6594  0.5087 -3.1113
 1712TIP3   OH2 5099   1.459   2.474   5.783 -0.1536 -0.3063 -0.0784
 1712TIP3    H1 5100   1.413   2.439   5.706 -0.8267 -0.6100  0.4527
 1712TIP3    H2 5101   1.524   2.534   5.746  0.6012 -1.6403 -0.9775
 1713TIP3   OH2 5102   5.273   3.316   1.499  0.4465  0.0430 -1.0054
 1713TIP3    H1 5103   5.291   3.222   1.503  0.4646  0.0724 -0.3878
 1713TIP3    H2 5104   5.351   3.358   1.536 -0.9174  0.1513  2.0401
 1714TIP3   OH2 5105   4.824   4.044   0.505 -0.8936 -0.2156  0.0245
 1714TIP3    H1 5106   4.862   4.046   0.593  1.8909 -2.6760 -0.9405
 1714TIP3    H2 5107   4.739   4.001   0.516 -1.0520  0.4427  1.5880
 1715TIP3   OH2 5108   1.798   3.855   5.752 -0.3817 -0.0072 -0.0423
 1715TIP3    H1 5109   1.718   3.833   5.800 -0.0914 -1.3716 -0.1422
 1715TIP3    H2 5110   1.822   3.942   5.784 -1.7259  0.2901  0.2144
 1716TIP3   OH2 5111   2.267   0.063   3.451  0.2440  0.6015  0.0639
 1716TIP3    H1 5112   2.271   0.142   3.505  0.8115  0.7949 -0.2566
 1716TIP3    H2 5113   2.326   0.080   3.378 -0.7007  0.4388 -0.7585
 1717TIP3   OH2 5114   2.824   5.458   3.952 -0.1336  0.2300  0.1066
 1717TIP3    H1 5115   2.782   5.373   3.941 -1.1111  0.4594  1.7644
 1717TIP3    H2 5116   2.752   5.518   3.971  0.6779  1.1833  0.2578
 1718TIP3   OH2 5117   3.170   6.217   0.713 -0.0072 -0.4164  0.0319
 1718TIP3    H1 5118   3.169   6.213   0.618 -0.7594 -0.6092  0.0385
 1718TIP3    H2 5119   3.200   6.306   0.733 -1.3349  0.1579 -0.4176
 1719TIP3   OH2 5120   2.411   2.232   3.240 -0.5567 -0.4035  0.3405
 1719TIP3    H1 5121   2.498   2.272   3.230 -0.9521  0.4506  0.1964
 1719TIP3    H2 5122   2.359   2.299   3.284 -0.9811 -1.1501  0.9984
 1720TIP3   OH2 5123   0.165   1.213   5.530  0.2401  0.2487 -0.3212
 1720TIP3    H1 5124   0.166   1.120   5.552 -1.9520  0.1797 -0.2432
 1720TIP3    H2 5125   0.225   1.221   5.456  0.0828 -1.3263 -0.6470
 1721TIP3   OH2 5126   1.839   6.375   3.309 -0.1920 -0.3725 -0.0857
 1721TIP3    H1 5127   1.757   6.424   3.317  0.6731  1.5455 -2.0556
 1721TIP3    H2 5128   1.907   6.442   3.304  1.1130 -1.7404 -2.4136
 1722TIP3   OH2 5129   2.392   6.441   5.162 -0.2063  0.6971 -0.0044
 1722TIP3    H1 5130   2.464   6.414   5.106 -0.3974  1.4329 -0.6049
 1722TIP3    H2 5131   2.415   6.406   5.249 -1.5592 -3.6091 -1.0959
 1723TIP3   OH2 5132   5.030   2.930   1.773  0.2223  0.1910  0.5638
 1723TIP3    H1 5133   5.047   2.843   1.808 -0.6918 -0.4198 -0.4405
 1723TIP3    H2 5134   5.015   2.985   1.850  1.9109 -0.2767  1.2532
 1724TIP3   OH2 5135   1.723   4.812   1.078  0.1071  0.2953  0.4515
 1724TIP3    H1 5136   1.705   4.898   1.115  1.9208  0.2327  1.6176
 1724TIP3    H2 5137   1.693   4.750   1.145 -0.3634  0.0326  0.0085
 1725TIP3   OH2 5138   6.554   3.628   2.750  0.5662 -0.4248  0.1638
 1725TIP3    H1 5139   6.580   3.642   2.841 -1.8060  1.2690  0.6712
 1725TIP3    H2 5140   6.501   3.549   2.752 -0.7233  0.4167  0.5846
 1726TIP3   OH2 5141   1.668   0.346   2.734  0.4848  0.5288 -0.1884
 1726TIP3    H1 5142   1.636   0.283   2.670 -0.7484  0.8371  0.1105
 1726TIP3    H2 5143   1.664   0.431   2.689  0.1989  0.6635  0.0897
 1727TIP3   OH2 5144   4.672   1.592   4.580  0.3787  0.5626 -0.1359
 1727TIP3    H1 5145   4.582   1.600   4.548  0.2055  0.5278  0.3307
 1727TIP3    H2 5146   4.727   1.621   4.507  0.0088  0.1157 -0.5953
 1728TIP3   OH2 5147   4.618   4.572   3.968 -0.2577  0.7328 -0.4508
 1728TIP3    H1 5148   4.667   4.559   3.887 -0.0354 -0.1662 -0.1816
 1728TIP3    H2 5149   4.658   4.512   4.031 -0.6341  1.1874  0.2388
 1729TIP3   OH2 5150   5.859   4.621   3.489 -0.0582 -0.5331  0.1443
 1729TIP3    H1 5151   5.794   4.569   3.535  0.6460 -0.5973  1.0976
 1729TIP3    H2 5152   5.832   4.619   3.397 -1.5738 -0.2721  0.5696
 1730TIP3   OH2 5153   0.477   4.450   2.392  0.0725 -0.1179  0.3320
 1730TIP3    H1 5154   0.408   4.399   2.349  0.6724 -0.7339  0.0926
 1730TIP3    H2 5155   0.451   4.541   2.377 -1.4742 -0.3304  1.5143
 1731TIP3   OH2 5156   3.405   6.441   3.511  0.0181 -0.0957 -0.1886
 1731TIP3    H1 5157   3.405   6.495   3.432 -0.9935  0.0141 -0.1221
 1731TIP3    H2 5158   3.459   6.365   3.488  1.4318  0.8907 -0.3019
 1732TIP3   OH2 5159   1.051   3.151   5.771 -0.8270  0.1313  0.0132
 1732TIP3    H1 5160   1.085   3.240   5.768 -1.1910  0.2659 -2.8394
 1732TIP3    H2 5161   1.086   3.109   5.693 -1.7337 -1.8189  0.5940
 1733TIP3   OH2 5162   3.082   3.172   3.881  0.6472  0.1638  0.0967
 1733TIP3    H1 5163   3.012   3.183   3.817  2.6009 -2.1078 -2.6420
 1733TIP3    H2 5164   3.108   3.080   3.874  2.8157  0.5005  2.2072
 1734TIP3   OH2 5165   5.193   4.695   4.373  0.5384  0.0886  0.7093
 1734TIP3    H1 5166   5.287   4.678   4.367  0.4088 -0.0330 -2.0496
 1734TIP3    H2 5167   5.168   4.721   4.285 -2.3131 -1.4048  0.9819
 1735TIP3   OH2 5168   1.205   2.803   2.572  0.2907 -0.1028  0.1279
 1735TIP3    H1 5169   1.198   2.801   2.668  1.8683 -1.2937  0.2519
 1735TIP3    H2 5170   1.194   2.895   2.550 -0.7968  0.1025  1.3811
 1736TIP3   OH2 5171   2.444   3.578   1.236 -0.5355 -0.9144 -0.0248
 1736TIP3    H1 5172   2.487   3.585   1.322  0.6004 -0.4551 -0.6130
 1736TIP3    H2 5173   2.381   3.507   1.247 -1.5763  0.2149  1.6728
 1737TIP3   OH2 5174   6.427   2.048   1.152 -0.0820  0.0309 -0.1768
 1737TIP3    H1 5175   6.492   2.083   1.213  1.2519 -1.8538 -0.4257
 1737TIP3    H2 5176   6.397   2.125   1.103 -0.4672  1.4554  2.1023
 1738TIP3   OH2 5177   1.947   2.457   0.958  0.4050 -0.3251  0.2045
 1738TIP3    H1 5178   1.991   2.435   0.875 -0.6308 -0.5928 -0.2930
 1738TIP3    H2 5179   1.888   2.528   0.935  0.4752 -0.0650  0.8342
 1739TIP3   OH2 5180   2.349   2.059   4.439 -0.1498  0.6325 -0.0173
 1739TIP3    H1 5181   2.374   1.999   4.368  0.6071  0.6015  0.2721
 1739TIP3    H2 5182   2.319   2.002   4.509  0.5105  0.5856  0.2343
 1740TIP3   OH2 5183   0.576   4.113   2.455  0.3199 -0.5388  0.0088
 1740TIP3    H1 5184   0.588   4.143   2.365 -0.7378  0.9463  0.3279
 1740TIP3    H2 5185   0.481   4.116   2.469  0.3011 -2.4623  0.6348
 1741TIP3   OH2 5186   0.500   6.632   0.879  0.5846 -0.1104  0.2388
 1741TIP3    H1 5187   0.470   6.713   0.921 -0.9263 -0.7336  0.4232
 1741TIP3    H2 5188   0.588   6.619   0.914  0.3125  0.7041  1.3093
 1742TIP3   OH2 5189   3.267   2.303   1.315  0.8308 -0.1232 -0.6784
 1742TIP3    H1 5190   3.271   2.331   1.407  0.8435 -0.1695 -0.6650
 1742TIP3    H2 5191   3.174   2.292   1.297  0.8519 -0.5116 -0.5517
 1743TIP3   OH2 5192   2.804   1.758   5.292 -0.0089 -0.2033  0.2174
 1743TIP3    H1 5193   2.820   1.671   5.255  0.6878  0.4230 -1.0208
 1743TIP3    H2 5194   2.872   1.813   5.253 -1.7188  1.3627 -0.7310
 1744TIP3   OH2 5195   6.955   1.443   4.328  0.0785 -0.3919  0.1981
 1744TIP3    H1 5196   6.972   1.440   4.422  0.4169 -0.6971  0.1310
 1744TIP3    H2 5197   7.042   1.442   4.288 -0.0508  0.1584 -0.1105
 1745TIP3   OH2 5198   3.308   4.459   2.484 -0.4913 -0.3444  0.2720
 1745TIP3    H1 5199   3.238   4.476   2.547 -0.6612  1.2045 -0.2781
 1745TIP3    H2 5200   3.356   4.385   2.520 -2.1056 -1.1220  0.9145
 1746TIP3   OH2 5201   5.876   4.156   0.128 -0.4599  0.7563 -0.3566
 1746TIP3    H1 5202   5.897   4.181   0.038 -1.8948 -1.6580 -1.4801
 1746TIP3    H2 5203   5.921   4.073   0.141  0.0455  1.2532  1.3490
 1747TIP3   OH2 5204   5.250   6.453   2.439  0.0537  0.1222 -0.3374
 1747TIP3    H1 5205   5.294   6.492   2.363  0.6357  0.0629 -0.0360
 1747TIP3    H2 5206   5.269   6.360   2.432 -0.5732  0.0098 -0.5603
 1748TIP3   OH2 5207   2.248   1.917   2.356  0.2247  0.2788  0.2619
 1748TIP3    H1 5208   2.264   1.854   2.285  2.2666  0.0679  0.8405
 1748TIP3    H2 5209   2.192   1.984   2.316 -0.6097 -1.0046 -0.8558
 1749TIP3   OH2 5210   1.640   2.621   1.350  0.0941  1.0305 -0.6500
 1749TIP3    H1 5211   1.632   2.637   1.256 -0.3154 -0.3522 -0.8778
 1749TIP3    H2 5212   1.722   2.663   1.375  0.8760  0.2905 -1.8944
 1750TIP3   OH2 5213   6.166   5.673   0.200 -0.1200  0.2486 -0.4580
 1750TIP3    H1 5214   6.117   5.654   0.281  0.1812 -0.0333 -0.3367
 1750TIP3    H2 5215   6.099   5.679   0.132 -0.3327 -0.0306 -0.2759
 1751TIP3   OH2 5216   4.469   2.641   3.814  0.2672  0.0623 -0.2238
 1751TIP3    H1 5217   4.440   2.571   3.872  1.8701  1.1044  1.9795
 1751TIP3    H2 5218   4.495   2.597   3.734  1.2278 -1.9028  1.1033
 1752TIP3   OH2 5219   6.537   6.683   4.869  0.7252  0.1009  0.3817
 1752TIP3    H1 5220   6.592   6.759   4.890  1.5060  0.2795 -1.9737
 1752TIP3    H2 5221   6.593   6.626   4.817 -0.1785 -1.6286  1.2102
 1753TIP3   OH2 5222   6.880   0.203   5.666  0.8445  0.7156 -0.3961
 1753TIP3    H1 5223   6.853   0.284   5.622  1.1326  0.3879 -1.1976
 1753TIP3    H2 5224   6.896   0.141   5.595 -0.6439 -0.4739  0.2400
 1754TIP3   OH2 5225   1.350   1.731   1.077  0.8313 -0.0806 -0.3268
 1754TIP3    H1 5226   1.267   1.774   1.056  0.3437 -0.4198  0.8443
 1754TIP3    H2 5227   1.392   1.789   1.141  0.8104 -0.6575  0.2109
 1755TIP3   OH2 5228   0.747   0.032   2.289 -0.1159  0.1980 -0.3580
 1755TIP3    H1 5229   0.692   0.023   2.212 -1.1548  0.8577  0.2751
 1755TIP3    H2 5230   0.685   0.044   2.362  0.8329 -0.3806  0.5731
 1756TIP3   OH2 5231   4.505   3.344   4.361  0.3590  0.4214 -0.4039
 1756TIP3    H1 5232   4.511   3.305   4.274  0.7312  1.7225 -0.9797
 1756TIP3    H2 5233   4.460   3.278   4.414 -1.8587  0.4458 -2.1176
 1757TIP3   OH2 5234   3.598   2.162   2.051 -0.4765 -0.7299 -0.3657
 1757TIP3    H1 5235   3.661   2.167   1.979 -0.5715 -2.1088 -0.5772
 1757TIP3    H2 5236   3.513   2.165   2.009 -0.5463 -0.5560 -0.2168
 1758TIP3   OH2 5237   3.124   4.473   0.124  0.0090  0.4239 -0.1063
 1758TIP3    H1 5238   3.202   4.527   0.121 -0.5040  1.1396 -1.2811
 1758TIP3    H2 5239   3.051   4.535   0.129 -0.5833 -0.1234 -1.4070
 1759TIP3   OH2 5240   1.498   1.627   0.266 -0.3609  0.3966 -0.9376
 1759TIP3    H1 5241   1.523   1.702   0.320 -0.7753  0.6940 -1.1533
 1759TIP3    H2 5242   1.407   1.610   0.291  0.5048 -1.7965  1.1567
 1760TIP3   OH2 5243   4.818   2.982   4.179  0.4571  0.0207  0.1384
 1760TIP3    H1 5244   4.871   3.058   4.203  0.6983 -0.4420  1.0974
 1760TIP3    H2 5245   4.792   2.943   4.262 -1.5721  0.3457 -0.2818
 1761TIP3   OH2 5246   2.777   2.362   5.289 -0.1613  0.0907 -0.2337
 1761TIP3    H1 5247   2.830   2.305   5.233 -1.0334 -2.0369  0.9580
 1761TIP3    H2 5248   2.828   2.371   5.369 -0.2709  0.5638 -0.2150
 1762TIP3   OH2 5249   4.602   4.025   4.285 -0.1845 -0.0232 -0.5540
 1762TIP3    H1 5250   4.675   3.965   4.300 -0.9908 -0.8251  0.3477
 1762TIP3    H2 5251   4.610   4.090   4.354 -0.2396 -0.0227 -0.5482
 1763TIP3   OH2 5252   6.734   2.959   4.820 -0.7183 -0.2498  0.2203
 1763TIP3    H1 5253   6.749   2.914   4.903 -0.0568 -0.3523  0.0528
 1763TIP3    H2 5254   6.706   3.047   4.844  2.8462  0.9284  0.6436
 1764TIP3   OH2 5255   3.534   2.792   3.165  0.0213 -0.5475  0.4062
 1764TIP3    H1 5256   3.574   2.878   3.175 -0.2763 -0.3523 -0.0436
 1764TIP3    H2 5257   3.457   2.808   3.110 -1.0823 -0.7824  1.8308
 1765TIP3   OH2 5258   6.187   5.389   0.394 -0.0447 -0.1602 -0.0944
 1765TIP3    H1 5259   6.114   5.354   0.342 -0.8612  0.9978  0.2377
 1765TIP3    H2 5260   6.265   5.360   0.347 -0.7549  0.8619 -2.0138
 1766TIP3   OH2 5261   2.606   4.409   3.125  0.4714  1.0775  0.0730
 1766TIP3    H1 5262   2.645   4.439   3.207  1.3663  0.1204  0.0171
 1766TIP3    H2 5263   2.656   4.330   3.102 -2.7245 -1.3984  0.9900
 1767TIP3   OH2 5264   3.702   3.325   3.895  0.3331  0.2961  0.6932
 1767TIP3    H1 5265   3.609   3.307   3.910  0.4039 -0.4602  0.3174
 1767TIP3    H2 5266   3.741   3.238   3.885  0.9834  0.6274  0.3101
 1768TIP3   OH2 5267   0.075   5.966   0.388 -0.1221 -0.4139  0.1358
 1768TIP3    H1 5268   0.128   5.982   0.466  0.2375 -0.8246 -0.0235
 1768TIP3    H2 5269   0.007   5.906   0.418  0.6473 -1.4344 -0.1071
 1769TIP3   OH2 5270   4.095   4.587   2.970 -0.0503 -0.3030  0.0541
 1769TIP3    H1 5271   4.055   4.632   2.895 -0.0753 -1.6685 -0.7970
 1769TIP3    H2 5272   4.041   4.509   2.982  0.1510 -0.2710  1.3113
 1770TIP3   OH2 5273   0.515   5.485   0.763 -0.2062 -0.0056  0.4071
 1770TIP3    H1 5274   0.532   5.568   0.717 -0.6624  0.6845  1.4409
 1770TIP3    H2 5275   0.567   5.492   0.844 -0.6455 -0.5119  0.7353
 1771TIP3   OH2 5276   7.169   2.067   4.563 -0.1423 -0.8330 -0.6298
 1771TIP3    H1 5277   7.131   2.067   4.475 -0.4197 -1.6138 -0.5203
 1771TIP3    H2 5278   7.218   2.149   4.568  0.3520 -1.0450 -1.7260
 1772TIP3   OH2 5279   6.866   0.761   4.960  0.6238 -0.2241 -0.5256
 1772TIP3    H1 5280   6.865   0.675   5.003 -0.6275 -0.5544 -1.1914
 1772TIP3    H2 5281   6.846   0.822   5.031 -1.4783 -0.7689 -0.5867
 1773TIP3   OH2 5282   6.808   1.611   3.946 -0.3386  0.2510  0.1279
 1773TIP3    H1 5283   6.818   1.543   3.879 -1.6322  1.6050 -1.5384
 1773TIP3    H2 5284   6.715   1.633   3.944 -0.0406  1.7474  0.9401
 1774TIP3   OH2 5285   4.437   3.661   5.674 -0.5958 -0.6447 -0.5625
 1774TIP3    H1 5286   4.479   3.584   5.636 -0.0227 -0.3740 -0.4811
 1774TIP3    H2 5287   4.423   3.719   5.599 -3.9790 -2.1001 -1.2337
 1775TIP3   OH2 5288   3.994   5.433   4.359 -0.2577  0.3710  0.2249
 1775TIP3    H1 5289   3.941   5.367   4.313  0.5383  0.0529 -0.2671
 1775TIP3    H2 5290   4.082   5.422   4.322  0.1306  0.9449  0.9653
 1776TIP3   OH2 5291   4.765   1.535   2.855 -0.0247 -0.7753  0.0790
 1776TIP3    H1 5292   4.842   1.558   2.803 -1.2606 -1.1227 -2.0492
 1776TIP3    H2 5293   4.723   1.618   2.874 -0.5880 -0.7427 -1.2143
 1777TIP3   OH2 5294   5.648   5.043   5.102  0.6303 -0.3338 -0.4462
 1777TIP3    H1 5295   5.725   5.012   5.055  0.5648 -0.3616 -0.5340
 1777TIP3    H2 5296   5.675   5.042   5.194  0.9023  0.1376 -0.5159
 1778TIP3   OH2 5297   4.309   1.963   0.885 -0.0709  0.1800  0.8226
 1778TIP3    H1 5298   4.372   1.897   0.914 -0.8114 -0.3226  1.3028
 1778TIP3    H2 5299   4.333   2.042   0.934  0.2540  0.0280  0.9116
 1779TIP3   OH2 5300   5.813   0.520   2.004 -0.0274 -0.3906  0.3181
 1779TIP3    H1 5301   5.824   0.596   1.947 -1.6150 -1.8983 -2.2011
 1779TIP3    H2 5302   5.902   0.489   2.020  0.4860 -0.1047 -1.7134
 1780TIP3   OH2 5303   5.985   1.340   2.847  0.0409  0.3726 -0.1768
 1780TIP3    H1 5304   5.960   1.389   2.769 -0.8143 -1.5693 -1.1827
 1780TIP3    H2 5305   5.921   1.366   2.913  0.5496  1.7453 -0.1806
 1781TIP3   OH2 5306   1.327   1.235   4.741  0.1902 -0.2408  0.2487
 1781TIP3    H1 5307   1.399   1.206   4.685 -0.0099  0.6405 -0.4819
 1781TIP3    H2 5308   1.333   1.330   4.742 -0.7557 -0.1677  0.4609
 1782TIP3   OH2 5309   3.073   1.164   5.243  0.3310 -0.0193  0.2498
 1782TIP3    H1 5310   3.056   1.108   5.319 -0.3342  1.3056  1.1155
 1782TIP3    H2 5311   3.155   1.131   5.207 -0.5080 -2.1465  0.1399
 1783TIP3   OH2 5312   4.914   3.918   4.165 -0.5827  0.6438  0.5712
 1783TIP3    H1 5313   4.924   3.899   4.258  0.4136 -2.5607 -0.0493
 1783TIP3    H2 5314   4.835   3.871   4.139 -0.0244  0.2168 -0.4357
 1784TIP3   OH2 5315   1.750   2.796   0.466  0.2998 -0.3317  0.0202
 1784TIP3    H1 5316   1.778   2.708   0.490 -0.4998 -0.4639  0.5079
 1784TIP3    H2 5317   1.703   2.785   0.384  1.2428 -0.1778 -0.5502
 1785TIP3   OH2 5318   6.788   3.588   2.632  0.0529 -0.2359  0.1889
 1785TIP3    H1 5319   6.702   3.594   2.674 -0.0928  0.4268 -0.1918
 1785TIP3    H2 5320   6.848   3.632   2.691  0.3732 -1.7536  1.0485
 1786TIP3   OH2 5321   7.035   2.617   1.464  0.3006  0.5624 -0.1415
 1786TIP3    H1 5322   6.969   2.575   1.519 -0.3009  1.4910 -0.1324
 1786TIP3    H2 5323   7.118   2.578   1.493 -0.3083 -1.4116 -0.8914
 1787TIP3   OH2 5324   6.213   3.854   0.608 -0.0382 -0.0570 -0.0820
 1787TIP3    H1 5325   6.245   3.942   0.588  0.5693 -0.1691  0.3413
 1787TIP3    H2 5326   6.137   3.842   0.552  1.2442 -0.1539 -1.8767
 1788TIP3   OH2 5327   2.172   6.302   4.397  0.0937  0.1848 -0.2363
 1788TIP3    H1 5328   2.149   6.216   4.361  1.3088 -1.1829  1.9961
 1788TIP3    H2 5329   2.265   6.311   4.379  0.4312  0.0534  1.3288
 1789TIP3   OH2 5330   7.142   2.044   2.032  0.0067  0.8075 -0.1629
 1789TIP3    H1 5331   7.195   1.967   2.011  0.5746  0.7233  1.4626
 1789TIP3    H2 5332   7.106   2.072   1.947  1.4663 -0.0040 -1.0958
 1790TIP3   OH2 5333   2.578   0.075   3.594 -0.6090 -0.2896 -0.0652
 1790TIP3    H1 5334   2.518   0.149   3.582 -1.0068 -0.5688  0.1596
 1790TIP3    H2 5335   2.651   0.112   3.644 -0.0590  0.3096 -1.2828
 1791TIP3   OH2 5336   2.347   4.371   2.967 -0.2923 -0.3733 -0.1391
 1791TIP3    H1 5337   2.296   4.452   2.976  0.8037  0.1255  1.9610
 1791TIP3    H2 5338   2.420   4.381   3.028 -0.1967 -3.0110  0.2720
 1792TIP3   OH2 5339   4.921   2.919   3.632 -0.0599 -0.0664  0.3715
 1792TIP3    H1 5340   4.917   2.938   3.726 -0.7757 -2.1987  0.8339
 1792TIP3    H2 5341   5.011   2.893   3.616 -0.2059 -0.7959  0.7199
 1793TIP3   OH2 5342   3.918   6.075   3.184  0.3839  0.7537  0.4710
 1793TIP3    H1 5343   3.828   6.074   3.151 -0.4928  0.5245  2.6958
 1793TIP3    H2 5344   3.972   6.091   3.106 -1.6166  1.7499 -0.8044
 1794TIP3   OH2 5345   1.867   0.219   2.467  0.1085 -0.0349  0.2203
 1794TIP3    H1 5346   1.880   0.139   2.517  0.6850  0.7193  1.3330
 1794TIP3    H2 5347   1.949   0.232   2.419 -1.1859 -1.9189 -2.7769
 1795TIP3   OH2 5348   2.321   3.685   1.801  0.4176 -0.4081 -0.5341
 1795TIP3    H1 5349   2.271   3.616   1.758 -0.3039  0.3573 -0.9450
 1795TIP3    H2 5350   2.274   3.701   1.883  0.6299 -0.4432 -0.4024
 1796TIP3   OH2 5351   5.645   6.063   4.971  0.6272  0.1578 -0.8192
 1796TIP3    H1 5352   5.631   6.157   4.975 -2.1941 -0.1918 -0.2484
 1796TIP3    H2 5353   5.695   6.043   5.050 -0.8035  0.9513  0.3465
 1797TIP3   OH2 5354   0.575   4.618   5.299  0.2011 -0.1845  1.1305
 1797TIP3    H1 5355   0.603   4.557   5.231 -0.1224 -1.5543  2.1927
 1797TIP3    H2 5356   0.504   4.668   5.259  2.3120  1.5828 -0.7459
 1798TIP3   OH2 5357   3.279   3.423   4.842 -0.9603  0.4050  0.1891
 1798TIP3    H1 5358   3.373   3.429   4.856 -0.9818 -1.6403  1.5580
 1798TIP3    H2 5359   3.247   3.513   4.851  0.8818  1.1840 -0.6965
 1799TIP3   OH2 5360   0.944   1.454   4.219  0.2554 -0.6194 -0.2274
 1799TIP3    H1 5361   0.892   1.533   4.210 -0.3302 -0.9546  0.1448
 1799TIP3    H2 5362   0.996   1.468   4.298 -1.0003 -1.2351  0.7355
 1800TIP3   OH2 5363   0.911   0.944   5.271 -0.6427 -0.2336 -0.5330
 1800TIP3    H1 5364   0.946   0.958   5.359 -0.3223  2.1043 -0.9763
 1800TIP3    H2 5365   0.822   0.910   5.286 -1.7470  2.8992  0.8380
 1801TIP3   OH2 5366   4.895   2.626   3.958 -0.1806  0.3015  0.0821
 1801TIP3    H1 5367   4.874   2.698   3.900 -2.2016 -1.0926 -1.0588
 1801TIP3    H2 5368   4.832   2.633   4.030 -0.6134 -0.4537 -0.2015
 1802TIP3   OH2 5369   0.805   5.572   4.356 -0.5862  0.2943  0.0319
 1802TIP3    H1 5370   0.847   5.557   4.440 -1.7382 -1.6762  0.3257
 1802TIP3    H2 5371   0.720   5.610   4.378 -0.5399  0.5866 -0.2923
 1803TIP3   OH2 5372   4.432   1.728   1.489  0.3787  0.1128 -0.1500
 1803TIP3    H1 5373   4.513   1.692   1.525  1.2546  2.1812  0.0848
 1803TIP3    H2 5374   4.364   1.668   1.518  1.5161 -0.2742  1.8706
 1804TIP3   OH2 5375   6.353   0.390   5.537  0.1718 -0.2293 -0.3789
 1804TIP3    H1 5376   6.358   0.477   5.496  0.3575  0.0380  0.2026
 1804TIP3    H2 5377   6.259   0.375   5.550  0.1622  0.0443 -0.1379
 1805TIP3   OH2 5378   5.465   1.287   0.630  0.0858  0.4755 -0.2921
 1805TIP3    H1 5379   5.554   1.303   0.598  0.7338 -1.0890  0.6296
 1805TIP3    H2 5380   5.432   1.215   0.575  1.1871 -2.2037  2.2843
 1806TIP3   OH2 5381   0.346   0.091   2.471  0.0448 -0.0652  0.2893
 1806TIP3    H1 5382   0.333   0.036   2.394 -0.1700  0.1556  0.1679
 1806TIP3    H2 5383   0.356   0.179   2.435  3.7721 -0.3866  0.1584
 1807TIP3   OH2 5384   6.965   2.749   2.117 -0.3524  0.0307  0.0264
 1807TIP3    H1 5385   7.045   2.732   2.067  0.3481  2.9588 -0.0475
 1807TIP3    H2 5386   6.983   2.714   2.205  0.6238 -0.1974 -0.2573
 1808TIP3   OH2 5387   2.035   5.507   2.181  0.0660 -0.3673  0.0013
 1808TIP3    H1 5388   2.080   5.591   2.189 -1.8094  0.6195  1.0880
 1808TIP3    H2 5389   2.079   5.451   2.245  1.5122 -0.3252 -0.9199
 1809TIP3   OH2 5390   6.842   5.299   1.637 -0.4669  0.1284 -0.4409
 1809TIP3    H1 5391   6.904   5.262   1.700  0.3057  0.6813 -0.8507
 1809TIP3    H2 5392   6.830   5.390   1.665  0.6594  0.6834 -1.6188
 1810TIP3   OH2 5393   4.330   0.109   5.834  0.9005 -0.5370  0.2994
 1810TIP3    H1 5394   4.307   0.062   5.914 -0.2974 -0.9268 -0.2419
 1810TIP3    H2 5395   4.425   0.101   5.828  1.3518  1.6061  2.9359
 1811TIP3   OH2 5396   1.721   1.234   5.274  0.4191 -0.0544  0.1772
 1811TIP3    H1 5397   1.727   1.222   5.369 -0.9406 -0.2478  0.2645
 1811TIP3    H2 5398   1.689   1.323   5.263  1.8478  0.4345 -0.1635
 1812TIP3   OH2 5399   7.078   6.698   5.166  0.4157  0.6396 -0.5167
 1812TIP3    H1 5400   7.139   6.769   5.145  2.0788 -0.4256  0.4768
 1812TIP3    H2 5401   7.120   6.619   5.130 -0.9657  0.0128 -0.8269
 1813TIP3   OH2 5402   6.050   0.464   0.829  0.1299  0.1726  0.1543
 1813TIP3    H1 5403   5.981   0.431   0.771  1.0169  0.0144 -0.8549
 1813TIP3    H2 5404   6.114   0.504   0.769  1.4216 -0.6161  0.9521
 1814TIP3   OH2 5405   4.578   3.227   1.382 -0.0982  0.1362  0.4214
 1814TIP3    H1 5406   4.651   3.288   1.380  0.6558 -0.7597  0.1348
 1814TIP3    H2 5407   4.601   3.162   1.448 -0.5191 -0.2950  0.1554
 1815TIP3   OH2 5408   4.727   2.944   3.277  0.4970  0.8482 -0.2433
 1815TIP3    H1 5409   4.693   2.921   3.191 -0.4918  1.8605 -0.1490
 1815TIP3    H2 5410   4.676   2.891   3.338 -1.2465  2.5728 -0.0806
 1816TIP3   OH2 5411   6.787   5.398   0.901  0.3435  0.5355  0.5528
 1816TIP3    H1 5412   6.820   5.310   0.922 -1.9594 -0.4390  0.3822
 1816TIP3    H2 5413   6.856   5.437   0.848  0.9866 -1.6207 -0.3173
 1817TIP3   OH2 5414   2.556   0.800   5.244 -0.2127  0.5984 -0.5821
 1817TIP3    H1 5415   2.629   0.741   5.228 -0.5000 -0.7949  2.5792
 1817TIP3    H2 5416   2.549   0.851   5.163  1.8558 -1.7146 -2.3955
 1818TIP3   OH2 5417   5.904   5.181   3.613  0.7589  0.3059  0.3366
 1818TIP3    H1 5418   5.830   5.222   3.567  0.7649  0.2749  0.2987
 1818TIP3    H2 5419   5.894   5.087   3.595  0.4296  0.2348  0.8876
 1819TIP3   OH2 5420   0.429   5.947   3.929  0.3806  0.1567  0.2841
 1819TIP3    H1 5421   0.474   5.872   3.890  1.3444  0.5737  0.5613
 1819TIP3    H2 5422   0.339   5.918   3.941  0.8816 -1.1848  0.9775
 1820TIP3   OH2 5423   0.051   4.468   1.810  0.2615  0.0972  0.2042
 1820TIP3    H1 5424   0.121   4.418   1.769  0.8486  1.9452 -1.2455
 1820TIP3    H2 5425   0.069   4.559   1.784 -0.9239  1.0268  2.3946
 1821TIP3   OH2 5426   0.129   0.819   1.685  0.1424  0.0370 -0.1315
 1821TIP3    H1 5427   0.039   0.790   1.703  0.7459 -1.6866  0.2949
 1821TIP3    H2 5428   0.132   0.830   1.590  0.0425 -2.0961 -0.4376
 1822TIP3   OH2 5429   7.049   3.660   0.504  0.0725  0.0039  0.2489
 1822TIP3    H1 5430   7.135   3.627   0.478 -0.6213 -1.3599 -0.3937
 1822TIP3    H2 5431   7.055   3.668   0.599  0.8024 -0.4214  0.2484
 1823TIP3   OH2 5432   4.106   0.991   4.227 -0.2949  0.3915  0.3776
 1823TIP3    H1 5433   4.027   0.981   4.280 -1.1921  1.4773 -0.6907
 1823TIP3    H2 5434   4.157   0.911   4.243 -2.2736 -1.0090  0.0084
 1824TIP3   OH2 5435   5.830   1.244   3.228 -0.1556 -0.1857  0.3518
 1824TIP3    H1 5436   5.864   1.315   3.281  1.0006 -0.1376 -0.4120
 1824TIP3    H2 5437   5.811   1.283   3.143  2.1183 -1.0513 -0.6419
 1825TIP3   OH2 5438   0.473   5.174   3.895  0.0892  0.4029 -0.1322
 1825TIP3    H1 5439   0.462   5.159   3.989 -1.2377  0.0535 -0.3203
 1825TIP3    H2 5440   0.389   5.211   3.867  0.7441  1.2338 -1.0436
 1826TIP3   OH2 5441   2.162   4.582   2.372  0.2956 -0.2638 -0.1176
 1826TIP3    H1 5442   2.209   4.637   2.309  0.5970 -1.8824 -1.3894
 1826TIP3    H2 5443   2.073   4.617   2.372  0.5152  0.3205 -0.7787
 1827TIP3   OH2 5444   1.114   5.358   0.907  0.1387  0.5241 -0.2190
 1827TIP3    H1 5445   1.051   5.389   0.973  2.1291 -0.4680  2.3277
 1827TIP3    H2 5446   1.199   5.362   0.952  1.6109 -0.3317 -2.7438
 1828TIP3   OH2 5447   5.895   1.834   5.514 -0.1309 -0.3586  0.2407
 1828TIP3    H1 5448   5.834   1.762   5.528 -1.1711  0.7131  1.5065
 1828TIP3    H2 5449   5.972   1.810   5.565 -1.0875  0.1150  1.9818
 1829TIP3   OH2 5450   3.448   6.469   5.410 -0.2271 -0.8447 -0.1348
 1829TIP3    H1 5451   3.373   6.411   5.423  0.0119 -1.4546 -1.4094
 1829TIP3    H2 5452   3.497   6.430   5.338 -0.7629  1.6407 -1.9792
 1830TIP3   OH2 5453   1.574   4.773   2.943 -0.1911 -0.4202 -0.0620
 1830TIP3    H1 5454   1.603   4.848   2.891 -0.4784 -1.7730 -2.2810
 1830TIP3    H2 5455   1.516   4.725   2.885 -2.2249 -0.9466  2.2398
 1831TIP3   OH2 5456   6.198   2.122   1.626  0.1442  0.2863  0.6790
 1831TIP3    H1 5457   6.237   2.109   1.539  0.6445  1.7054  0.6701
 1831TIP3    H2 5458   6.127   2.057   1.630  0.9037 -0.6431 -0.2864
 1832TIP3   OH2 5459   2.663   3.161   5.814  0.0579 -0.1241 -0.2245
 1832TIP3    H1 5460   2.590   3.195   5.867 -0.1352 -1.0068  0.0874
 1832TIP3    H2 5461   2.636   3.072   5.790  0.6481 -0.1420 -0.8530
 1833TIP3   OH2 5462   1.016   4.711   0.571  0.1101 -0.1705  0.4361
 1833TIP3    H1 5463   0.979   4.625   0.551  0.3609  0.0061 -0.8937
 1833TIP3    H2 5464   1.109   4.703   0.551  0.1932  0.3253  0.5916
 1834TIP3   OH2 5465   3.410   4.369   1.761 -0.1027  0.3024 -0.2555
 1834TIP3    H1 5466   3.361   4.311   1.819 -0.7486  1.2885  0.2114
 1834TIP3    H2 5467   3.453   4.430   1.821  1.0827 -0.0654 -0.7009
 1835TIP3   OH2 5468   6.143   0.197   1.206 -0.1411  0.1120  0.3925
 1835TIP3    H1 5469   6.190   0.114   1.214  1.5950  1.0118  0.0645
 1835TIP3    H2 5470   6.172   0.234   1.122 -0.1637  1.4616  0.9433
 1836TIP3   OH2 5471   1.009   1.294   5.477  0.2108  0.0906  0.3678
 1836TIP3    H1 5472   1.046   1.206   5.469  2.9223  1.1013  0.8145
 1836TIP3    H2 5473   0.971   1.312   5.391  0.9227 -0.9439 -0.1870
 1837TIP3   OH2 5474   3.740   1.059   0.866 -0.4111 -0.4386 -0.4885
 1837TIP3    H1 5475   3.818   1.010   0.892 -0.0219 -0.3105 -1.3578
 1837TIP3    H2 5476   3.699   1.005   0.798 -1.0661 -0.4914 -0.0580
 1838TIP3   OH2 5477   0.655   6.317   4.580 -0.5060 -0.3914  0.5025
 1838TIP3    H1 5478   0.670   6.364   4.663  0.6442  3.3797 -1.5985
 1838TIP3    H2 5479   0.560   6.320   4.569 -0.6373 -0.5384  1.4578
 1839TIP3   OH2 5480   6.242   6.319   2.276  0.7736  0.1124  0.1070
 1839TIP3    H1 5481   6.245   6.250   2.209 -0.7897  1.0384 -0.9610
 1839TIP3    H2 5482   6.299   6.388   2.241  0.8924  0.1157  0.3075
 1840TIP3   OH2 5483   4.352   2.740   1.664  0.0014  0.0102 -0.2267
 1840TIP3    H1 5484   4.262   2.769   1.679  0.4467  2.0315 -1.0229
 1840TIP3    H2 5485   4.363   2.663   1.719 -1.7675  0.5987  1.0259
 1841TIP3   OH2 5486   2.763   3.209   4.979 -0.2022  0.4799 -0.3841
 1841TIP3    H1 5487   2.674   3.211   4.944 -0.7105 -0.5907  0.7898
 1841TIP3    H2 5488   2.785   3.301   4.993 -1.0359  0.7652 -0.8718
 1842TIP3   OH2 5489   7.096   0.763   1.800  0.1942  0.1749  0.0600
 1842TIP3    H1 5490   7.090   0.821   1.876 -2.8502 -0.7794  0.6656
 1842TIP3    H2 5491   7.103   0.675   1.838  0.0289 -0.2162 -0.8011
 1843TIP3   OH2 5492   1.024   4.989   0.557 -0.5859 -0.0056 -0.4514
 1843TIP3    H1 5493   1.011   4.894   0.567 -1.6245  0.1332 -0.3993
 1843TIP3    H2 5494   1.017   5.024   0.646  1.6152 -0.0576 -0.1998
 1844TIP3   OH2 5495   3.168   1.255   2.019  0.3336 -0.5766  0.4586
 1844TIP3    H1 5496   3.262   1.270   2.005  0.1779 -0.3346 -0.3963
 1844TIP3    H2 5497   3.126   1.307   1.952 -0.4080 -0.9603  0.6205
 1845TIP3   OH2 5498   7.063   0.110   4.058 -0.0833 -0.0185 -0.4628
 1845TIP3    H1 5499   7.072   0.203   4.079 -0.3689 -0.0698 -0.0948
 1845TIP3    H2 5500   6.995   0.107   3.990 -1.1866 -0.0696  0.5981
 1846TIP3   OH2 5501   1.853   3.165   1.283 -0.1238 -0.1202  0.2314
 1846TIP3    H1 5502   1.782   3.193   1.224 -0.6271 -0.5542  0.6327
 1846TIP3    H2 5503   1.920   3.232   1.270  0.4869 -1.0730 -2.1016
 1847TIP3   OH2 5504   4.957   0.791   3.064  0.3494  0.1074  0.7076
 1847TIP3    H1 5505   5.005   0.742   2.996 -0.4767  0.3300 -0.0545
 1847TIP3    H2 5506   4.955   0.881   3.032  1.3144  0.5501  1.8070
 1848TIP3   OH2 5507   4.981   0.019   2.588 -0.1687  0.2087  0.1019
 1848TIP3    H1 5508   5.013   0.107   2.604  0.5115  0.0606 -0.4092
 1848TIP3    H2 5509   4.893   0.031   2.553  0.3615  0.7431 -1.1126
 1849TIP3   OH2 5510   2.688   0.286   4.581 -0.3718 -0.5125 -0.3176
 1849TIP3    H1 5511   2.700   0.343   4.657 -0.4016  1.6291 -1.8230
 1849TIP3    H2 5512   2.772   0.241   4.571 -0.0725 -0.1329  0.4690
 1850TIP3   OH2 5513   5.227   4.496   3.286 -0.1120  0.1439 -0.2505
 1850TIP3    H1 5514   5.203   4.404   3.271  0.6213  0.1505 -1.5230
 1850TIP3    H2 5515   5.220   4.506   3.381  1.4458 -1.7265  0.1476
 1851TIP3   OH2 5516   6.472   4.121   2.035 -0.0598  0.3159 -0.2752
 1851TIP3    H1 5517   6.411   4.192   2.016  0.2129  0.1810 -1.7484
 1851TIP3    H2 5518   6.559   4.161   2.027  0.1099  0.4962  1.7574
 1852TIP3   OH2 5519   3.474   2.605   0.856 -0.0852 -0.5976 -0.0404
 1852TIP3    H1 5520   3.486   2.657   0.935 -4.4771 -0.3995  0.7509
 1852TIP3    H2 5521   3.438   2.522   0.888 -1.0388 -0.8789 -1.7279
 1853TIP3   OH2 5522   3.839   1.942   0.289 -0.7555  0.0857  0.0773
 1853TIP3    H1 5523   3.765   1.887   0.316  0.1555 -2.1729 -1.6712
 1853TIP3    H2 5524   3.907   1.879   0.266  1.3168  2.0817  0.5018
 1854TIP3   OH2 5525   3.306   0.882   0.900  0.3341  0.4313  0.5579
 1854TIP3    H1 5526   3.335   0.893   0.810 -0.8748 -1.4346 -0.1310
 1854TIP3    H2 5527   3.378   0.835   0.943 -0.3110 -1.4605 -0.3192
 1855TIP3   OH2 5528   6.377   1.877   1.733  0.2148 -0.1475 -0.5934
 1855TIP3    H1 5529   6.339   1.901   1.817 -0.3893  1.2950 -1.2383
 1855TIP3    H2 5530   6.350   1.787   1.719  2.8285 -1.5308  2.0959
 1856TIP3   OH2 5531   1.373   0.790   5.534 -0.4141  0.3045 -0.0300
 1856TIP3    H1 5532   1.336   0.875   5.558 -0.7140  0.2825 -0.4089
 1856TIP3    H2 5533   1.333   0.728   5.595  1.7729  0.7690  2.0189
 1857TIP3   OH2 5534   3.710   5.810   5.160  0.6229  0.7776  0.1355
 1857TIP3    H1 5535   3.648   5.746   5.126  1.2530  0.5034 -0.5378
 1857TIP3    H2 5536   3.796   5.772   5.142  0.9905  1.3028  0.7396
 1858TIP3   OH2 5537   0.279   6.052   1.536 -0.2114  0.4779  0.1380
 1858TIP3    H1 5538   0.309   6.064   1.446 -1.1089  1.2095 -0.0766
 1858TIP3    H2 5539   0.315   5.967   1.562 -0.7262 -0.1926 -1.2418
 1859TIP3   OH2 5540   4.932   4.337   5.614  0.3602  0.2170 -0.0551
 1859TIP3    H1 5541   4.921   4.294   5.529 -0.1636 -0.0970  0.1684
 1859TIP3    H2 5542   4.984   4.275   5.665  0.2492  0.1833  0.0169
 1860TIP3   OH2 5543   0.381   5.952   2.354 -0.2218 -0.1157 -0.1086
 1860TIP3    H1 5544   0.320   5.883   2.327  0.9521 -0.9713 -0.7113
 1860TIP3    H2 5545   0.328   6.014   2.403 -1.6958 -0.4885 -1.1707
 1861TIP3   OH2 5546   5.739   4.686   1.211 -0.2370 -0.1281  1.0732
 1861TIP3    H1 5547   5.830   4.662   1.196 -0.2541  0.1209  0.5531
 1861TIP3    H2 5548   5.738   4.724   1.299  0.1790 -0.0509  1.0452
 1862TIP3   OH2 5549   6.053   4.908   0.306 -0.2557 -0.2528 -0.4338
 1862TIP3    H1 5550   5.973   4.860   0.327  0.1203 -0.3192  0.9145
 1862TIP3    H2 5551   6.055   4.982   0.366  1.2831 -0.9253  0.4197
 1863TIP3   OH2 5552   0.815   2.977   0.429  0.2479  0.1536  0.3950
 1863TIP3    H1 5553   0.901   3.014   0.447  0.2830  0.0106  0.5214
 1863TIP3    H2 5554   0.815   2.893   0.475  0.3919 -0.2812 -0.3881
 1864TIP3   OH2 5555   0.565   0.720   0.138 -0.2577  0.8983 -0.7453
 1864TIP3    H1 5556   0.543   0.813   0.147 -2.0551  0.5777 -1.4215
 1864TIP3    H2 5557   0.489   0.674   0.173 -0.1018 -0.3144 -1.9429
 1865TIP3   OH2 5558   6.596   1.275   5.550  0.0884  0.2391  0.3100
 1865TIP3    H1 5559   6.655   1.280   5.474 -1.1290 -2.1453 -0.9232
 1865TIP3    H2 5560   6.511   1.250   5.513 -0.9107  0.4173  2.3374
 1866TIP3   OH2 5561   7.215   4.769   3.317  0.1051 -0.1585  0.1022
 1866TIP3    H1 5562   7.147   4.833   3.339  1.0415  0.5544  1.0370
 1866TIP3    H2 5563   7.174   4.713   3.251 -1.4127  0.1898  0.6939
 1867TIP3   OH2 5564   0.245   1.884   5.339  0.3476  0.2508  0.0667
 1867TIP3    H1 5565   0.272   1.975   5.351 -0.7341  0.5855  0.1269
 1867TIP3    H2 5566   0.267   1.841   5.422 -0.3521  0.7963  0.5536
 1868TIP3   OH2 5567   0.758   2.159   3.652  0.2245 -0.5546 -0.3169
 1868TIP3    H1 5568   0.711   2.079   3.630 -0.7540 -0.4156  1.1347
 1868TIP3    H2 5569   0.689   2.220   3.680  1.0332  0.5078 -0.5873
 1869TIP3   OH2 5570   4.525   5.035   0.887 -0.2563 -0.0672  0.1214
 1869TIP3    H1 5571   4.431   5.021   0.888 -0.2025 -0.8384 -1.4614
 1869TIP3    H2 5572   4.548   5.053   0.978 -1.9882  0.6156  0.4585
 1870TIP3   OH2 5573   5.292   5.412   1.372  0.1215  0.2164 -0.0629
 1870TIP3    H1 5574   5.224   5.457   1.323  0.3382 -1.4764 -2.0599
 1870TIP3    H2 5575   5.268   5.424   1.464 -1.4941  1.6941 -0.6363
 1871TIP3   OH2 5576   5.530   1.183   5.796  0.4499  0.3643  0.0134
 1871TIP3    H1 5577   5.490   1.259   5.753  0.4822  0.1261 -0.4395
 1871TIP3    H2 5578   5.477   1.170   5.875 -0.6226 -0.1753 -0.7667
 1872TIP3   OH2 5579   6.685   2.348   1.786 -0.1144  0.1225 -0.1788
 1872TIP3    H1 5580   6.680   2.406   1.862 -0.9292 -0.3353  0.1355
 1872TIP3    H2 5581   6.593   2.329   1.764  0.0466  1.3770 -2.1744
 1873TIP3   OH2 5582   1.573   5.520   2.013  0.1077  0.1261 -0.0347
 1873TIP3    H1 5583   1.537   5.606   1.991  0.6078 -0.1132 -1.9576
 1873TIP3    H2 5584   1.623   5.534   2.093 -1.5523  1.1463  0.8977
 1874TIP3   OH2 5585   5.881   0.138   0.852  0.2262 -0.0333  0.4677
 1874TIP3    H1 5586   5.893   0.169   0.762 -2.0790 -1.2219 -0.3375
 1874TIP3    H2 5587   5.874   0.219   0.904  0.6336  0.6953 -0.5676
 1875TIP3   OH2 5588   3.949   3.711   0.247 -0.1711  0.3451 -0.0730
 1875TIP3    H1 5589   3.946   3.669   0.162 -0.0295 -0.9098  0.5140
 1875TIP3    H2 5590   3.916   3.800   0.232 -2.1564 -0.5012 -1.0313
 1876TIP3   OH2 5591   5.608   3.440   3.209  0.0151 -0.0512  0.1405
 1876TIP3    H1 5592   5.658   3.422   3.289 -3.9608 -2.2470  2.4657
 1876TIP3    H2 5593   5.553   3.515   3.232 -2.1607 -1.5487  0.1067
 1877TIP3   OH2 5594   3.333   6.566   4.558 -0.7822  0.0610  0.1841
 1877TIP3    H1 5595   3.264   6.595   4.618  0.2774  2.3412  0.4374
 1877TIP3    H2 5596   3.409   6.618   4.584  0.0454  0.2730 -2.3960
 1878TIP3   OH2 5597   2.354   5.857   5.416  0.1511  0.0303  0.3122
 1878TIP3    H1 5598   2.358   5.884   5.507  1.5084  0.2261  0.2243
 1878TIP3    H2 5599   2.446   5.843   5.392 -0.2684 -1.3412 -0.6242
 1879TIP3   OH2 5600   2.653   3.627   0.021  0.0048  0.1510  0.6071
 1879TIP3    H1 5601   2.700   3.560   0.070  0.6525  0.3081  0.2145
 1879TIP3    H2 5602   2.719   3.666  -0.036 -0.3493  1.1504  0.8591
 1880TIP3   OH2 5603   2.449   2.087   5.716  0.6524 -0.8365  0.3970
 1880TIP3    H1 5604   2.484   2.136   5.792 -0.8652 -1.2117  1.3724
 1880TIP3    H2 5605   2.490   2.001   5.723  2.0564 -0.2804 -0.3893
 1881TIP3   OH2 5606   5.402   2.948   3.081 -0.6441 -0.4995  0.0343
 1881TIP3    H1 5607   5.346   3.014   3.122 -1.7461 -0.2338 -1.7663
 1881TIP3    H2 5608   5.490   2.985   3.086 -1.1591  0.8525 -0.4059
 1882TIP3   OH2 5609   5.196   3.664   5.885  0.1914 -0.5291  0.0898
 1882TIP3    H1 5610   5.175   3.735   5.945 -0.2613 -0.8579  0.3189
 1882TIP3    H2 5611   5.260   3.703   5.824  0.0041  0.0479  0.2554
 1883TIP3   OH2 5612   1.495   2.045   0.030  0.5173  0.0773  0.7139
 1883TIP3    H1 5613   1.533   2.130   0.008 -0.6579  0.2422 -0.9193
 1883TIP3    H2 5614   1.460   2.057   0.119  2.9620  0.3226  1.7104
 1884TIP3   OH2 5615   5.436   3.153   2.260  0.5677 -0.3492 -0.2476
 1884TIP3    H1 5616   5.513   3.207   2.279  0.1570 -0.7796  3.3729
 1884TIP3    H2 5617   5.419   3.105   2.342 -2.6061 -1.4658 -1.3894
 1885TIP3   OH2 5618   1.339   6.107   5.815  0.5523 -0.3761  0.1367
 1885TIP3    H1 5619   1.368   6.198   5.817  0.2079 -0.1804 -1.7937
 1885TIP3    H2 5620   1.303   6.092   5.903 -1.8655  2.2280 -0.2429
 1886TIP3   OH2 5621   5.915   3.252   4.061  0.1515  0.7844 -0.7554
 1886TIP3    H1 5622   5.911   3.321   4.127  0.7951  1.0777 -1.0060
 1886TIP3    H2 5623   5.989   3.277   4.005  0.4404 -0.1465 -0.8132
 1887TIP3   OH2 5624   1.039   0.432   2.794 -0.5292  0.3864 -0.1460
 1887TIP3    H1 5625   0.995   0.430   2.879  1.3199 -2.0944  0.8795
 1887TIP3    H2 5626   1.123   0.474   2.811  0.0614 -0.5712 -0.6075
 1888TIP3   OH2 5627   5.808   6.243   5.197 -0.5348  0.5127  0.1287
 1888TIP3    H1 5628   5.794   6.167   5.252  0.1507  1.4647  1.6879
 1888TIP3    H2 5629   5.759   6.313   5.240  0.2856  1.3542 -0.2715
 1889TIP3   OH2 5630   5.773   5.106   1.129 -0.5069 -0.4959 -0.2245
 1889TIP3    H1 5631   5.807   5.043   1.193 -0.5042 -1.3185 -1.0203
 1889TIP3    H2 5632   5.681   5.081   1.118 -0.9363  0.6281  0.6149
 1890TIP3   OH2 5633   0.730   3.598   2.362  0.0375 -0.2338  0.1399
 1890TIP3    H1 5634   0.794   3.642   2.306 -0.3559 -0.6677 -0.6780
 1890TIP3    H2 5635   0.669   3.668   2.388  1.6045  0.4826  2.1138
 1891TIP3   OH2 5636   1.397   5.274   0.919 -0.2636 -0.1272  0.4093
 1891TIP3    H1 5637   1.390   5.184   0.951 -0.8494  0.2679  1.4391
 1891TIP3    H2 5638   1.441   5.321   0.990 -1.4242  0.7298  0.5885
 1892TIP3   OH2 5639   0.933   6.428   2.073 -0.1349 -0.3429 -0.6998
 1892TIP3    H1 5640   1.023   6.424   2.105 -0.2725 -0.7709 -0.3476
 1892TIP3    H2 5641   0.941   6.415   1.978  0.1529 -0.7246 -0.6281
 1893TIP3   OH2 5642   4.563   4.214   0.353  0.7120  0.0790  0.0494
 1893TIP3    H1 5643   4.557   4.219   0.448 -0.3877  0.6397 -0.0322
 1893TIP3    H2 5644   4.597   4.300   0.327 -1.7635  1.0361 -0.2315
 1894TIP3   OH2 5645   1.610   5.011   5.065  0.1813 -0.5401 -0.3972
 1894TIP3    H1 5646   1.548   4.991   4.996 -1.7283  0.4033  0.9650
 1894TIP3    H2 5647   1.631   5.103   5.054 -1.4121  0.0753  1.1483
 1895TIP3   OH2 5648   6.600   3.347   5.466  0.2260 -0.1920  0.0976
 1895TIP3    H1 5649   6.615   3.320   5.375  0.7318  0.7870 -0.1290
 1895TIP3    H2 5650   6.688   3.350   5.505  0.2019  1.0134  0.1180
 1896TIP3   OH2 5651   6.617   1.783   2.291 -0.8664 -0.2389  0.4829
 1896TIP3    H1 5652   6.694   1.794   2.235 -2.6860 -1.0734 -2.3458
 1896TIP3    H2 5653   6.601   1.870   2.327 -0.5084  0.7080 -1.5235
 1897TIP3   OH2 5654   5.949   4.114   5.061 -0.4967 -0.2238 -0.3977
 1897TIP3    H1 5655   5.855   4.128   5.050 -0.2056  0.5781 -2.2671
 1897TIP3    H2 5656   5.955   4.047   5.129 -2.3212  1.2217  1.3056
 1898TIP3   OH2 5657   4.477   2.491   4.321  0.3946 -0.3021 -0.1137
 1898TIP3    H1 5658   4.438   2.577   4.306 -2.1740 -1.5182 -0.9209
 1898TIP3    H2 5659   4.535   2.503   4.396 -1.1540  1.7718  0.8320
 1899TIP3   OH2 5660   3.679   0.247   2.252  0.0325 -0.7007 -0.0168
 1899TIP3    H1 5661   3.634   0.264   2.169  0.0278 -1.9046 -0.2885
 1899TIP3    H2 5662   3.618   0.192   2.301 -0.2204  0.4961  1.0567
 1900TIP3   OH2 5663   0.180   4.315   0.310 -0.0435 -0.3225  0.5908
 1900TIP3    H1 5664   0.130   4.254   0.364  0.1796  0.7269  2.0484
 1900TIP3    H2 5665   0.152   4.402   0.340 -0.3400  0.3218 -1.4088
 1901TIP3   OH2 5666   0.691   3.946   4.651  0.3863  0.4412 -0.1881
 1901TIP3    H1 5667   0.677   3.900   4.734  0.0475  0.6653 -0.1182
 1901TIP3    H2 5668   0.637   3.900   4.588  0.8876  0.0747 -0.3595
 1902TIP3   OH2 5669   6.543   4.498   3.932  0.1455 -0.4853 -0.4154
 1902TIP3    H1 5670   6.545   4.453   4.016 -0.4455  1.3725  0.6436
 1902TIP3    H2 5671   6.493   4.440   3.875  0.0162 -1.4838  0.6837
 1903TIP3   OH2 5672   5.863   4.438   0.323  0.3053 -0.3586  0.1833
 1903TIP3    H1 5673   5.948   4.395   0.338 -0.2830 -1.4389  0.5779
 1903TIP3    H2 5674   5.857   4.446   0.228  0.9035 -0.1644  0.1570
 1904TIP3   OH2 5675   1.516   0.353   1.841 -0.3082  0.0797  0.2432
 1904TIP3    H1 5676   1.501   0.317   1.929  0.5717 -2.0014 -0.4008
 1904TIP3    H2 5677   1.580   0.293   1.801  0.9495  2.1778 -1.0854
 1905TIP3   OH2 5678   0.040   1.651   1.411  0.3016 -0.0208 -0.0616
 1905TIP3    H1 5679   0.017   1.596   1.486 -0.6023  0.4266  0.0030
 1905TIP3    H2 5680  -0.026   1.631   1.345  0.6123  0.1868 -0.4397
 1906TIP3   OH2 5681   3.192   5.439   4.408 -0.0174  0.0259 -0.6811
 1906TIP3    H1 5682   3.234   5.503   4.466 -0.5158 -1.0690  0.9570
 1906TIP3    H2 5683   3.124   5.488   4.364  0.2403  0.8543 -0.1819
 1907TIP3   OH2 5684   1.671   3.601   0.531  1.0838 -0.2261 -0.5877
 1907TIP3    H1 5685   1.633   3.646   0.606  1.8211  1.3878 -1.1455
 1907TIP3    H2 5686   1.716   3.669   0.482 -0.9190 -0.8488 -3.5317
 1908TIP3   OH2 5687   6.018   1.606   0.159 -0.1479  0.0261  0.0750
 1908TIP3    H1 5688   6.109   1.634   0.157 -0.0689 -0.2378 -0.0276
 1908TIP3    H2 5689   5.979   1.645   0.080 -0.6013  1.7412  1.0999
 1909TIP3   OH2 5690   6.968   1.909   5.406  0.0310 -0.6487 -0.1166
 1909TIP3    H1 5691   7.041   1.913   5.344 -0.1515  2.7114 -0.3138
 1909TIP3    H2 5692   7.002   1.859   5.480  2.5648  0.7065 -0.2500
 1910TIP3   OH2 5693   0.840   5.625   5.920 -0.0975  0.1678 -0.5584
 1910TIP3    H1 5694   0.805   5.611   5.832 -1.0210  1.0375 -0.3456
 1910TIP3    H2 5695   0.883   5.710   5.915 -0.4229  0.3618 -0.0891
 1911TIP3   OH2 5696   5.461   0.442   5.886  0.2758  0.2297  0.0729
 1911TIP3    H1 5697   5.426   0.426   5.799 -0.3383 -0.1124  0.3766
 1911TIP3    H2 5698   5.516   0.520   5.877 -1.0211  1.1220 -0.2844
 1912TIP3   OH2 5699   5.863   2.737   3.845  0.0610 -0.4835 -0.2462
 1912TIP3    H1 5700   5.914   2.818   3.851 -1.1431  0.3311 -0.5867
 1912TIP3    H2 5701   5.864   2.715   3.752  0.3221 -0.8278 -0.1647
 1913TIP3   OH2 5702   2.473   3.845   0.171  0.5210 -0.2053  0.2333
 1913TIP3    H1 5703   2.472   3.794   0.089  1.0072  1.6921 -1.0239
 1913TIP3    H2 5704   2.564   3.840   0.200  0.9036  1.0094 -0.6516
 1914TIP3   OH2 5705   4.636   5.557   4.296  0.0556 -0.2180  0.2680
 1914TIP3    H1 5706   4.702   5.618   4.262  1.3074 -1.1400  0.9901
 1914TIP3    H2 5707   4.600   5.515   4.218  1.1689 -0.5557 -0.0798
 1915TIP3   OH2 5708   4.390   3.485   1.983  0.1971  0.1450  0.4021
 1915TIP3    H1 5709   4.314   3.540   1.997 -0.3348 -0.3594 -0.4108
 1915TIP3    H2 5710   4.441   3.494   2.064 -0.5956  0.6784  0.8617
 1916TIP3   OH2 5711   4.045   6.703   2.389  0.0421  0.1102 -0.4686
 1916TIP3    H1 5712   4.087   6.656   2.462 -0.0756 -0.2294 -0.6161
 1916TIP3    H2 5713   4.111   6.703   2.320 -0.1088 -0.2074 -0.6144
 1917TIP3   OH2 5714   0.343   1.886   4.656  0.4141  0.3117  0.1356
 1917TIP3    H1 5715   0.416   1.942   4.683  1.8336 -1.3111 -0.1939
 1917TIP3    H2 5716   0.265   1.941   4.670  1.5587  1.6326  1.7710
 1918TIP3   OH2 5717   3.235   3.864   0.638  0.3145  0.0840  0.2837
 1918TIP3    H1 5718   3.187   3.924   0.581  2.2956  1.0860 -0.4561
 1918TIP3    H2 5719   3.172   3.836   0.703 -1.0053  2.0640 -0.0531
 1919TIP3   OH2 5720   4.768   6.665   5.115  0.2552 -0.0738 -0.1333
 1919TIP3    H1 5721   4.808   6.659   5.028  2.0710  0.8044  0.5892
 1919TIP3    H2 5722   4.814   6.736   5.158 -1.0291 -0.0819  1.3626
 1920TIP3   OH2 5723   6.576   3.483   1.299  0.2228 -0.9384  0.0457
 1920TIP3    H1 5724   6.613   3.524   1.378  0.1612 -2.9824  1.1929
 1920TIP3    H2 5725   6.582   3.389   1.316  0.4409 -1.4559 -2.5208
 1921TIP3   OH2 5726   5.832   5.306   0.944  0.0567 -0.4013 -0.1398
 1921TIP3    H1 5727   5.764   5.290   0.878 -0.4141 -1.6639  0.6131
 1921TIP3    H2 5728   5.800   5.261   1.023  1.3417 -0.2562  0.4894
 1922TIP3   OH2 5729   2.588   6.063   4.888 -0.0660 -0.2418 -0.5498
 1922TIP3    H1 5730   2.645   6.077   4.812  0.7065  0.9366  0.2028
 1922TIP3    H2 5731   2.505   6.104   4.864  0.5180  1.1088 -0.3846
 1923TIP3   OH2 5732   5.368   4.830   0.108 -0.0607  0.3899 -0.3118
 1923TIP3    H1 5733   5.373   4.737   0.086 -0.7950  0.7078 -1.9554
 1923TIP3    H2 5734   5.299   4.836   0.173 -1.2739 -0.0188 -1.5307
 1924TIP3   OH2 5735   1.403   6.765   4.855 -0.3842 -0.3260  0.4335
 1924TIP3    H1 5736   1.414   6.795   4.764 -1.4839  3.8066  1.4619
 1924TIP3    H2 5737   1.470   6.814   4.904 -1.2313 -0.8134  2.1473
 1925TIP3   OH2 5738   1.635   3.231   1.122 -0.6908  0.2922  0.0259
 1925TIP3    H1 5739   1.589   3.170   1.179  0.4863  0.0651  0.7718
 1925TIP3    H2 5740   1.603   3.317   1.147 -1.2817  0.0951 -0.0242
 1926TIP3   OH2 5741   1.936   4.316   1.330 -0.1377 -0.0960  0.0335
 1926TIP3    H1 5742   1.842   4.331   1.339 -0.0315  0.7744 -0.2434
 1926TIP3    H2 5743   1.960   4.359   1.248  0.5588 -0.0472  0.2566
 1927TIP3   OH2 5744   0.595   1.934   3.388 -0.0408 -0.1588  0.2365
 1927TIP3    H1 5745   0.640   1.915   3.470  2.5601  1.9086 -0.5588
 1927TIP3    H2 5746   0.543   2.012   3.406  0.4702  0.2499 -0.0214
 1928TIP3   OH2 5747   3.790   1.192   3.225  0.3613 -0.4406 -0.0152
 1928TIP3    H1 5748   3.791   1.287   3.233 -0.1079 -0.2709 -1.6372
 1928TIP3    H2 5749   3.882   1.168   3.214  0.3234  0.0815 -1.8140
 1929TIP3   OH2 5750   3.521   4.192   5.304  0.1294 -0.1091 -0.2926
 1929TIP3    H1 5751   3.462   4.134   5.353  0.6086 -0.5031 -0.1609
 1929TIP3    H2 5752   3.604   4.143   5.301 -0.5438 -1.3165 -3.7577
 1930TIP3   OH2 5753   4.269   5.252   4.863  0.0334 -0.0046  0.1942
 1930TIP3    H1 5754   4.343   5.192   4.850 -1.3612 -1.6578 -0.5706
 1930TIP3    H2 5755   4.238   5.270   4.774  1.6183  3.5948  0.2115
 1931TIP3   OH2 5756   3.739   2.321   3.375  0.5845  0.4117  0.2806
 1931TIP3    H1 5757   3.731   2.334   3.281  1.2689 -1.5519 -0.1072
 1931TIP3    H2 5758   3.834   2.315   3.390  0.6126  2.7173  1.4532
 1932TIP3   OH2 5759   3.706   6.208   2.757 -0.1623 -0.1572  0.1782
 1932TIP3    H1 5760   3.747   6.281   2.711  0.1593  0.3405  1.2234
 1932TIP3    H2 5761   3.628   6.188   2.706  0.0568  0.5311 -0.4418
 1933TIP3   OH2 5762   2.345   5.290   5.027 -0.1132 -0.0056  0.4460
 1933TIP3    H1 5763   2.292   5.258   5.101 -0.8096 -0.4802 -0.2353
 1933TIP3    H2 5764   2.405   5.353   5.066  1.7391 -2.5150  1.9909
 1934TIP3   OH2 5765   6.693   5.217   3.183 -0.1982 -0.1317 -0.3188
 1934TIP3    H1 5766   6.778   5.226   3.141  0.2587  0.2018  0.6584
 1934TIP3    H2 5767   6.664   5.129   3.160  1.0838 -0.8105  0.5496
 1935TIP3   OH2 5768   0.485   4.460   1.417 -0.4755  0.3065  0.2719
 1935TIP3    H1 5769   0.454   4.372   1.435 -0.4260  0.3915  0.7813
 1935TIP3    H2 5770   0.515   4.493   1.502  0.6071  0.3813 -0.1213
 1936TIP3   OH2 5771   3.354   2.162   5.705  0.0510  0.3021 -0.0115
 1936TIP3    H1 5772   3.331   2.078   5.745 -0.5667  1.0335  1.2289
 1936TIP3    H2 5773   3.349   2.146   5.611 -2.3612 -0.4637  0.1830
 1937TIP3   OH2 5774   0.711   4.766   0.532  0.2756 -0.0506 -0.3624
 1937TIP3    H1 5775   0.773   4.806   0.592  1.2162  0.4226 -1.6103
 1937TIP3    H2 5776   0.702   4.676   0.563  0.3372  0.3250  0.7810
 1938TIP3   OH2 5777   1.058   1.428   0.825  0.2748  0.5493 -0.0933
 1938TIP3    H1 5778   1.074   1.437   0.919 -1.9645  1.2757  0.2943
 1938TIP3    H2 5779   1.081   1.337   0.805  0.8783  0.4102  1.1156
 1939TIP3   OH2 5780   3.087   6.292   4.322  0.1712  0.1896  0.2102
 1939TIP3    H1 5781   3.170   6.336   4.303  0.8788 -1.2157 -0.1057
 1939TIP3    H2 5782   3.111   6.200   4.331 -0.9500  0.0792  2.7556
 1940TIP3   OH2 5783   6.145   6.340   2.580 -0.5822 -0.3389  0.6340
 1940TIP3    H1 5784   6.110   6.251   2.582 -2.3827  0.2690 -0.6030
 1940TIP3    H2 5785   6.176   6.351   2.490 -2.4287  0.9657  0.1035
 1941TIP3   OH2 5786   0.689   3.644   0.930 -0.3639 -0.3663  0.6322
 1941TIP3    H1 5787   0.603   3.656   0.891  0.2576 -0.5015 -0.8321
 1941TIP3    H2 5788   0.726   3.732   0.933 -0.0780 -0.4643  0.1001
 1942TIP3   OH2 5789   4.154   0.693   1.484 -0.0686  0.4760  0.3508
 1942TIP3    H1 5790   4.205   0.771   1.508  0.9574 -0.8329  2.7762
 1942TIP3    H2 5791   4.217   0.635   1.441 -0.8024  0.8522 -1.3389
 1943TIP3   OH2 5792   4.428   6.738   1.936 -0.7078 -0.6444 -0.3733
 1943TIP3    H1 5793   4.360   6.671   1.937  0.0301 -1.4928 -2.5210
 1943TIP3    H2 5794   4.410   6.789   1.858  1.3403 -1.1784 -1.2551
 1944TIP3   OH2 5795   6.598   2.995   2.169 -0.7206 -0.1301  0.7368
 1944TIP3    H1 5796   6.530   3.024   2.107  0.3160  0.3497 -0.1989
 1944TIP3    H2 5797   6.633   2.915   2.130  2.5306  2.1015 -1.3881
 1945TIP3   OH2 5798   5.022   3.215   0.408  0.1450  0.0248  0.4245
 1945TIP3    H1 5799   5.054   3.129   0.381  0.0664 -0.7608  2.6302
 1945TIP3    H2 5800   4.927   3.209   0.399  0.1872  0.2092 -0.2347
 1946TIP3   OH2 5801   5.579   3.271   0.131 -0.0612 -0.5652  0.0624
 1946TIP3    H1 5802   5.556   3.259   0.039 -1.7082  1.3501  0.1553
 1946TIP3    H2 5803   5.496   3.292   0.174  0.5306 -2.1587  2.1689
 1947TIP3   OH2 5804   1.172   5.595   5.284  0.6261 -0.3815  0.1075
 1947TIP3    H1 5805   1.143   5.503   5.286  0.2182 -0.2462  0.4826
 1947TIP3    H2 5806   1.145   5.630   5.369  0.2530  0.2518 -0.2705
 1948TIP3   OH2 5807   5.770   5.960   2.756 -0.0097 -0.1782  0.3076
 1948TIP3    H1 5808   5.788   6.046   2.794 -2.9938 -0.8223  3.6609
 1948TIP3    H2 5809   5.822   5.899   2.808  1.7373 -0.5768 -1.7550
 1949TIP3   OH2 5810   4.571   5.275   3.081  0.1027 -0.2068 -0.2768
 1949TIP3    H1 5811   4.478   5.274   3.062 -0.0037 -1.2359  0.2266
 1949TIP3    H2 5812   4.594   5.183   3.097  1.0137  0.1228  0.4638
 1950TIP3   OH2 5813   3.519   5.898   2.292  0.7508 -0.3054 -0.2850
 1950TIP3    H1 5814   3.536   5.803   2.288 -0.9362 -0.6011 -1.6061
 1950TIP3    H2 5815   3.424   5.906   2.280  1.0946  1.6382 -2.3068
 1951TIP3   OH2 5816   2.963   6.279   1.228  0.5038 -0.7519  0.0942
 1951TIP3    H1 5817   3.019   6.297   1.153  0.1104 -0.6779 -0.1871
 1951TIP3    H2 5818   2.877   6.261   1.190  0.1817 -0.2190  0.5548
 1952TIP3   OH2 5819   1.741   1.887   1.239  0.2116 -0.3164  0.2281
 1952TIP3    H1 5820   1.709   1.819   1.180  1.0615  1.0800 -1.9813
 1952TIP3    H2 5821   1.835   1.874   1.242  0.9291  2.5499 -2.9550
 1953TIP3   OH2 5822   0.377   2.446   2.139 -0.6106 -0.0419 -0.3938
 1953TIP3    H1 5823   0.405   2.494   2.217  0.6167  1.9880 -1.9584
 1953TIP3    H2 5824   0.408   2.357   2.153  2.7663  1.0510  0.0134
 1954TIP3   OH2 5825   6.857   3.351   3.202 -0.1732  0.3261  0.1857
 1954TIP3    H1 5826   6.937   3.403   3.194 -0.7797  0.9718 -3.1208
 1954TIP3    H2 5827   6.789   3.415   3.221 -0.3710  0.1864 -0.0648
 1955TIP3   OH2 5828   3.641   5.078   3.279  0.7928  0.2474  0.1279
 1955TIP3    H1 5829   3.562   5.098   3.230  1.2439 -1.1098 -1.2361
 1955TIP3    H2 5830   3.622   5.106   3.369 -1.4890 -0.6787 -0.0161
 1956TIP3   OH2 5831   6.101   0.360   5.405  0.5331 -0.1646  0.1483
 1956TIP3    H1 5832   6.045   0.427   5.444 -1.2547 -1.7418  0.4310
 1956TIP3    H2 5833   6.078   0.361   5.312  2.3123  1.2486 -0.3301
 1957TIP3   OH2 5834   2.010   0.652   3.801 -0.3939 -0.4241  0.2433
 1957TIP3    H1 5835   2.099   0.652   3.836 -0.3455 -0.1289  0.1172
 1957TIP3    H2 5836   1.980   0.562   3.814  0.0708 -0.6311 -0.1010
 1958TIP3   OH2 5837   4.950   6.262   0.225 -0.2851  0.0757 -0.0369
 1958TIP3    H1 5838   4.977   6.354   0.231  1.8748 -0.4356 -1.0144
 1958TIP3    H2 5839   4.921   6.240   0.314 -0.1511  1.4930  0.3838
 1959TIP3   OH2 5840   6.266   3.338   0.562 -0.0949  0.4560  0.3402
 1959TIP3    H1 5841   6.360   3.333   0.549  0.4016  4.5712  0.9353
 1959TIP3    H2 5842   6.230   3.352   0.474 -0.4937 -2.7497 -0.1280
 1960TIP3   OH2 5843   6.905   5.711   2.587  0.4335 -0.0449  0.4812
 1960TIP3    H1 5844   6.988   5.712   2.540  1.3825 -1.0662  2.0306
 1960TIP3    H2 5845   6.903   5.795   2.634 -0.1759  0.6561 -0.7483
 1961TIP3   OH2 5846   3.037   0.764   0.850  0.5218 -0.2885  0.1160
 1961TIP3    H1 5847   3.044   0.691   0.911  1.1725  0.0501  0.4658
 1961TIP3    H2 5848   3.102   0.827   0.881  1.3434 -0.3818 -1.3060
 1962TIP3   OH2 5849   2.313   2.077   5.321 -0.3055  0.7013  0.1681
 1962TIP3    H1 5850   2.289   2.142   5.387 -2.1381  0.1380  0.1055
 1962TIP3    H2 5851   2.391   2.115   5.278 -0.3253  2.0440  1.2406
 1963TIP3   OH2 5852   3.045   5.631   2.698  0.0333 -0.0084 -0.3570
 1963TIP3    H1 5853   3.023   5.539   2.688 -1.6526  0.3488 -0.3389
 1963TIP3    H2 5854   2.962   5.672   2.724  0.3221  1.7659 -1.9883
 1964TIP3   OH2 5855   1.404   4.923   4.260  0.0753  0.6810  0.1845
 1964TIP3    H1 5856   1.315   4.904   4.231  1.0879 -1.6564 -1.8111
 1964TIP3    H2 5857   1.423   5.009   4.223 -0.9138  0.6300 -0.4952
 1965TIP3   OH2 5858   4.013   5.572   2.173  0.3168  0.7460  0.6363
 1965TIP3    H1 5859   3.963   5.541   2.097 -0.4252  0.1508  1.3487
 1965TIP3    H2 5860   4.079   5.630   2.136 -0.5063  1.0604 -0.3998
 1966TIP3   OH2 5861   5.707   4.246   1.480  0.8272  0.3627 -0.0816
 1966TIP3    H1 5862   5.642   4.177   1.495 -0.5789  1.7775  0.5646
 1966TIP3    H2 5863   5.683   4.283   1.395  3.4870 -1.9039 -1.9988
 1967TIP3   OH2 5864   4.471   4.234   0.995 -0.0291  0.1041 -0.1792
 1967TIP3    H1 5865   4.494   4.214   1.086  0.6565 -0.5504 -0.4931
 1967TIP3    H2 5866   4.383   4.197   0.985 -0.4155  0.8215  0.4194
 1968TIP3   OH2 5867   4.317   3.864   2.225 -0.1137 -0.2705 -0.6756
 1968TIP3    H1 5868   4.252   3.911   2.277 -0.7978  0.6117 -2.2617
 1968TIP3    H2 5869   4.398   3.913   2.239 -0.0577 -0.6238  0.3048
 1969TIP3   OH2 5870   3.221   4.014   4.363 -0.1787  0.4138  0.0654
 1969TIP3    H1 5871   3.315   4.001   4.378 -0.3014 -1.2697 -0.4086
 1969TIP3    H2 5872   3.192   4.068   4.437  0.9576  0.0345  0.8141
 1970TIP3   OH2 5873   0.769   2.773   5.560  0.1108  0.6321 -0.1864
 1970TIP3    H1 5874   0.804   2.692   5.522  1.3655  0.4211  1.3276
 1970TIP3    H2 5875   0.685   2.786   5.515 -0.0576 -1.4144 -0.5793
 1971TIP3   OH2 5876   1.253   2.770   5.003 -0.1590 -0.2430  0.0493
 1971TIP3    H1 5877   1.307   2.777   4.924 -0.0680 -0.3118  0.1054
 1971TIP3    H2 5878   1.166   2.798   4.975 -0.2731 -0.8551 -0.2367
 1972TIP3   OH2 5879   4.939   0.576   2.068 -0.2194 -0.4567 -0.0545
 1972TIP3    H1 5880   4.948   0.557   2.161  2.2341  1.9328  0.3051
 1972TIP3    H2 5881   4.872   0.645   2.064  0.2038 -0.0372  0.0336
 1973TIP3   OH2 5882   4.608   5.489   3.240  0.0709 -0.5360  0.8655
 1973TIP3    H1 5883   4.554   5.472   3.318 -0.6013 -0.0713  0.5054
 1973TIP3    H2 5884   4.593   5.412   3.185 -1.6174  0.3478  0.0019
 1974TIP3   OH2 5885   3.618   4.922   3.021 -0.0635  0.1817  0.2456
 1974TIP3    H1 5886   3.637   4.958   3.108  1.4039  0.5093 -0.1877
 1974TIP3    H2 5887   3.588   4.997   2.970 -2.8330 -0.3245  0.9207
 1975TIP3   OH2 5888   3.251   2.668   0.699 -0.1992 -0.8379  0.0881
 1975TIP3    H1 5889   3.284   2.721   0.626 -1.1060  0.5562  0.6565
 1975TIP3    H2 5890   3.330   2.646   0.750  0.1097  0.8878  0.4169
 1976TIP3   OH2 5891   6.050   2.383   0.089 -0.1653 -0.1574  0.5583
 1976TIP3    H1 5892   6.000   2.465   0.091 -1.0816 -0.7188  1.5628
 1976TIP3    H2 5893   6.026   2.339   0.170 -2.0696 -2.8369 -1.2925
 1977TIP3   OH2 5894   4.375   4.827   3.761 -0.0448 -0.7670  0.8980
 1977TIP3    H1 5895   4.390   4.828   3.856  0.8406 -0.7046  0.7656
 1977TIP3    H2 5896   4.461   4.810   3.723 -0.8381 -3.8855  0.2045
 1978TIP3   OH2 5897   7.069   2.204   1.367  0.2680 -0.1518 -0.8723
 1978TIP3    H1 5898   7.086   2.111   1.355 -0.9720 -0.6613  0.8810
 1978TIP3    H2 5899   7.155   2.243   1.384  0.5626 -1.4112  0.7770
 1979TIP3   OH2 5900   2.092   0.599   2.452  0.4526  0.2048  0.1915
 1979TIP3    H1 5901   2.106   0.612   2.545  1.4666 -2.7309  0.5671
 1979TIP3    H2 5902   2.162   0.649   2.410 -0.5319  2.2661  0.8641
 1980TIP3   OH2 5903   0.852   6.202   3.270 -0.5358  1.0654 -0.0372
 1980TIP3    H1 5904   0.787   6.261   3.234 -1.1796  1.3373  1.4681
 1980TIP3    H2 5905   0.894   6.162   3.194 -3.5286 -0.3485 -1.0940
 1981TIP3   OH2 5906   0.885   1.929   0.636 -0.4549 -0.2818  0.3292
 1981TIP3    H1 5907   0.943   2.000   0.607  0.1837 -1.4207 -1.3341
 1981TIP3    H2 5908   0.934   1.886   0.707 -0.5957  0.5673  0.9553
 1982TIP3   OH2 5909   5.091   4.579   0.458  0.1550  0.1537  0.5305
 1982TIP3    H1 5910   5.098   4.584   0.553 -0.6035 -1.7699  0.7158
 1982TIP3    H2 5911   5.180   4.557   0.429 -0.0572 -1.4127  0.9952
 1983TIP3   OH2 5912   3.053   4.713   4.458  0.5661  0.4109  0.2636
 1983TIP3    H1 5913   2.994   4.756   4.396  0.5316  0.2480  0.1819
 1983TIP3    H2 5914   3.104   4.784   4.497  0.6100  0.5113  0.0245
 1984TIP3   OH2 5915   3.107   2.927   0.312  0.3587 -0.3329  0.3853
 1984TIP3    H1 5916   3.145   2.840   0.322 -2.1130 -1.4998  0.3892
 1984TIP3    H2 5917   3.084   2.954   0.401  0.8018  0.1872  0.3471
 1985TIP3   OH2 5918   4.083   5.799   0.576  0.1466 -0.3526  0.0317
 1985TIP3    H1 5919   3.994   5.819   0.548  0.1711 -0.8433 -0.4048
 1985TIP3    H2 5920   4.081   5.810   0.671  0.2942  2.2063 -0.2075
 1986TIP3   OH2 5921   5.776   2.753   1.601 -0.4816  0.1331  0.3490
 1986TIP3    H1 5922   5.866   2.722   1.594 -0.7290 -0.5058 -0.0940
 1986TIP3    H2 5923   5.752   2.776   1.511 -0.3894  1.3927  0.6269
 1987TIP3   OH2 5924   6.739   2.350   5.058 -0.0627  0.3199 -0.4478
 1987TIP3    H1 5925   6.812   2.370   5.116  0.3908 -0.8202 -0.6193
 1987TIP3    H2 5926   6.724   2.431   5.009  0.0649  1.0452  0.6835
 1988TIP3   OH2 5927   0.672   2.900   5.048 -0.2329 -0.3576 -0.1639
 1988TIP3    H1 5928   0.623   2.957   5.108  3.2366  0.3227  2.3496
 1988TIP3    H2 5929   0.706   2.960   4.981  1.2917  0.1622  1.0228
 1989TIP3   OH2 5930   4.623   4.331   2.930  0.0684  0.0812  0.2513
 1989TIP3    H1 5931   4.606   4.339   3.024 -0.9106  0.2507  0.0696
 1989TIP3    H2 5932   4.700   4.273   2.925 -1.8423 -2.7628  1.0877
 1990TIP3   OH2 5933   0.908   1.635   4.933 -0.4669 -0.6706 -0.9278
 1990TIP3    H1 5934   0.940   1.659   4.846 -0.9605  1.0392 -0.6785
 1990TIP3    H2 5935   0.817   1.665   4.934  0.1846  1.5813  0.9285
 1991TIP3   OH2 5936   6.216   6.158   4.445 -0.3904  0.6615 -0.1146
 1991TIP3    H1 5937   6.239   6.097   4.515  0.5205  2.4983  1.2844
 1991TIP3    H2 5938   6.187   6.102   4.373  2.7184 -1.5832  0.1730
 1992TIP3   OH2 5939   3.948   0.295   2.313  0.1901  0.5044  0.3773
 1992TIP3    H1 5940   3.996   0.317   2.234  1.7445 -0.5972  0.9665
 1992TIP3    H2 5941   3.858   0.278   2.283  0.0767  2.6839 -0.7341
 1993TIP3   OH2 5942   0.984   2.398   3.589  0.0836 -0.1059 -0.4391
 1993TIP3    H1 5943   0.900   2.413   3.545 -0.3413  0.4688  0.5201
 1993TIP3    H2 5944   0.961   2.388   3.682  0.9999 -0.7462 -0.2722
 1994TIP3   OH2 5945   5.050   5.542   1.282  0.2574 -0.0073  0.2287
 1994TIP3    H1 5946   5.049   5.462   1.229  2.3800 -0.5125  0.8618
 1994TIP3    H2 5947   4.958   5.557   1.304 -0.4902 -0.8023 -2.0188
 1995TIP3   OH2 5948   0.327   6.249   5.563 -0.1021 -0.6839  0.2595
 1995TIP3    H1 5949   0.344   6.296   5.482  0.2537 -1.8958 -0.4007
 1995TIP3    H2 5950   0.233   6.263   5.580  0.1891  1.0540  0.6469
 1996TIP3   OH2 5951   6.241   2.836   3.882  0.0574  0.0533  0.1383
 1996TIP3    H1 5952   6.316   2.813   3.935  0.5411  0.8553 -0.1707
 1996TIP3    H2 5953   6.238   2.770   3.813 -0.3030 -0.7240  0.8823
 1997TIP3   OH2 5954   3.926   1.353   0.875 -0.2750 -0.2182 -0.0011
 1997TIP3    H1 5955   3.939   1.270   0.920 -0.8097  0.4989  1.5857
 1997TIP3    H2 5956   3.949   1.419   0.941 -0.6096  0.8833 -0.9632
 1998TIP3   OH2 5957   6.367   6.377   3.664 -0.0600 -0.2117 -0.1193
 1998TIP3    H1 5958   6.356   6.416   3.577  0.7199 -0.7359 -0.4696
 1998TIP3    H2 5959   6.420   6.441   3.713 -1.3278  0.5393  0.3093
 1999TIP3   OH2 5960   4.476   5.502   3.653 -0.0308 -0.7751  0.3125
 1999TIP3    H1 5961   4.434   5.584   3.628 -0.1276 -0.9999 -0.2881
 1999TIP3    H2 5962   4.558   5.529   3.695  0.1688 -0.3820 -0.3195
 2000TIP3   OH2 5963   6.776   5.534   5.072 -0.6236  0.2129 -0.1505
 2000TIP3    H1 5964   6.714   5.576   5.133 -0.4650 -0.7230  0.6860
 2000TIP3    H2 5965   6.729   5.458   5.038  0.1440 -0.6805  0.7238
 2001TIP3   OH2 5966   4.958   3.838   5.750 -0.5668 -0.3682  0.4217
 2001TIP3    H1 5967   4.874   3.792   5.755  0.3972 -2.2197  0.5647
 2001TIP3    H2 5968   4.964   3.886   5.833 -1.6153  0.0456  0.2668
 2002TIP3   OH2 5969   4.134   3.533   4.272  0.1218 -0.3519 -0.2893
 2002TIP3    H1 5970   4.075   3.592   4.318 -0.6885 -0.9526 -0.5454
 2002TIP3    H2 5971   4.080   3.491   4.205  0.6095 -1.5465  0.0216
 2003TIP3   OH2 5972   6.711   1.392   4.890  0.6170 -0.0824 -0.1422
 2003TIP3    H1 5973   6.798   1.372   4.856  0.4835 -0.3303 -0.3326
 2003TIP3    H2 5974   6.658   1.414   4.813  0.6368  0.5511  0.0153
 2004TIP3   OH2 5975   0.113   2.794   0.040 -0.6745  0.3082 -0.5911
 2004TIP3    H1 5976   0.109   2.879   0.086  2.2404  1.2713 -1.8910
 2004TIP3    H2 5977   0.173   2.741   0.093  1.2179  0.7776 -2.1446
 2005TIP3   OH2 5978   3.500   2.773   3.945  0.0664  0.3487 -0.1306
 2005TIP3    H1 5979   3.569   2.715   3.912  0.8753  1.0903  0.2324
 2005TIP3    H2 5980   3.438   2.781   3.872  0.7144  0.2246 -0.6993
 2006TIP3   OH2 5981   3.750   4.301   0.623 -0.8755 -0.1710 -0.4353
 2006TIP3    H1 5982   3.819   4.239   0.600  2.4538  2.4644  1.5908
 2006TIP3    H2 5983   3.760   4.373   0.561 -0.2635  1.2263  1.2194
 2007TIP3   OH2 5984   2.752   1.037   1.481 -0.0042  0.0522  0.6056
 2007TIP3    H1 5985   2.834   1.068   1.521 -0.0190  0.3964  0.3737
 2007TIP3    H2 5986   2.725   0.964   1.536  0.6247 -0.2656  0.5060
 2008TIP3   OH2 5987   6.887   3.268   0.307  0.3375 -1.0215  0.3212
 2008TIP3    H1 5988   6.979   3.274   0.283  0.7459 -0.3961  1.9034
 2008TIP3    H2 5989   6.882   3.310   0.393 -1.5672 -0.3238 -0.0866
 2009TIP3   OH2 5990   2.418   5.938   3.021  0.2018 -0.0797  0.6543
 2009TIP3    H1 5991   2.439   5.944   2.928 -3.5532  1.0974 -0.2859
 2009TIP3    H2 5992   2.468   5.863   3.052  2.3914  0.1205 -2.0005
 2010TIP3   OH2 5993   4.097   5.927   1.712 -0.0279  0.2859  0.1295
 2010TIP3    H1 5994   4.174   5.984   1.714 -1.5974  2.5158  0.4188
 2010TIP3    H2 5995   4.070   5.926   1.620  0.0500 -0.1035  0.1072
 2011TIP3   OH2 5996   7.180   0.164   4.667  0.0927 -0.3750 -0.5199
 2011TIP3    H1 5997   7.125   0.148   4.591  0.5310 -1.8163 -0.5657
 2011TIP3    H2 5998   7.261   0.115   4.650  0.4058 -0.3007  0.6311
 2012TIP3   OH2 5999   1.888   2.838   0.860 -1.1330  0.3783 -0.2061
 2012TIP3    H1 6000   1.966   2.829   0.805 -0.2707 -0.1102  1.0451
 2012TIP3    H2 6001   1.837   2.907   0.818 -0.4569  0.1038 -1.5427
 2013TIP3   OH2 6002   6.943   6.804   0.032  0.2317  0.1898  0.6745
 2013TIP3    H1 6003   6.974   6.713   0.034 -0.4425 -0.0366  0.9560
 2013TIP3    H2 6004   6.962   6.837   0.120  2.1650  0.9084  0.0386
 2014TIP3   OH2 6005   3.493   2.340   1.160 -0.3245  0.1684 -0.6104
 2014TIP3    H1 6006   3.502   2.251   1.124  0.9272  0.7990 -1.9540
 2014TIP3    H2 6007   3.401   2.346   1.186 -0.1800 -1.9000  0.5829
 2015TIP3   OH2 6008   5.498   6.238   2.296  0.2713 -0.2200 -0.1277
 2015TIP3    H1 6009   5.565   6.228   2.363  0.9284  1.1277 -0.5551
 2015TIP3    H2 6010   5.423   6.188   2.330  0.7209  0.0856  1.4084
 2016TIP3   OH2 6011   2.512   1.692   3.110  0.4750 -0.4485 -0.2865
 2016TIP3    H1 6012   2.581   1.659   3.053 -0.4476 -0.0681 -1.6704
 2016TIP3    H2 6013   2.529   1.786   3.117 -0.4943 -0.1485 -1.5493
 2017TIP3   OH2 6014   5.120   5.207   5.611  0.3242 -0.6061  0.2391
 2017TIP3    H1 6015   5.083   5.138   5.556 -0.7023  1.0070 -1.2035
 2017TIP3    H2 6016   5.171   5.161   5.677  0.9400 -2.6853 -1.5765
 2018TIP3   OH2 6017   1.204   0.952   2.540 -0.5151 -0.4822 -0.0910
 2018TIP3    H1 6018   1.157   1.035   2.548 -0.5396 -0.4899 -0.1608
 2018TIP3    H2 6019   1.148   0.896   2.487  0.6385  0.3080 -2.2605
 2019TIP3   OH2 6020   0.331   3.712   2.774 -0.0432 -0.5543 -0.0969
 2019TIP3    H1 6021   0.323   3.620   2.801 -0.0836 -0.7506 -0.7606
 2019TIP3    H2 6022   0.412   3.716   2.724  0.7974  0.1215  1.2831
 2020TIP3   OH2 6023   0.385   0.274   2.242 -0.4762  0.0861  0.5220
 2020TIP3    H1 6024   0.297   0.300   2.214 -0.2017  0.5074  0.0375
 2020TIP3    H2 6025   0.429   0.357   2.262  0.4960  0.0333 -1.2881
 2021TIP3   OH2 6026   5.608   5.497   5.195  0.9683 -0.1883  0.2113
 2021TIP3    H1 6027   5.679   5.465   5.250  1.1254 -0.8100 -0.3276
 2021TIP3    H2 6028   5.556   5.418   5.177  0.2245  0.2348  0.4841
 2022TIP3   OH2 6029   2.281   5.283   3.812  0.9108  0.6849  0.3146
 2022TIP3    H1 6030   2.221   5.256   3.881  0.2586  1.2621 -0.0154
 2022TIP3    H2 6031   2.293   5.377   3.825  0.5680  0.8543 -0.5006
 2023TIP3   OH2 6032   0.488   5.677   4.136 -0.3839 -0.0126  0.0544
 2023TIP3    H1 6033   0.541   5.598   4.128 -0.3023  0.2147 -2.3861
 2023TIP3    H2 6034   0.550   5.749   4.122 -0.7447  0.4392  0.7042
 2024TIP3   OH2 6035   3.026   6.443   5.787 -0.3645 -0.2651 -0.5064
 2024TIP3    H1 6036   2.961   6.389   5.832  0.0339  0.3020  0.8155
 2024TIP3    H2 6037   2.975   6.512   5.744 -0.8563 -1.5538 -2.0601
 2025TIP3   OH2 6038   6.880   2.383   1.331 -0.1081 -0.3998 -0.2260
 2025TIP3    H1 6039   6.956   2.430   1.365  0.1168 -1.2316  0.4644
 2025TIP3    H2 6040   6.911   2.294   1.315 -0.9054 -0.7319 -0.0194
 2026TIP3   OH2 6041   5.820   2.787   5.260 -0.0111  0.4462  0.0593
 2026TIP3    H1 6042   5.888   2.827   5.205 -0.4501  2.2528  0.7313
 2026TIP3    H2 6043   5.750   2.852   5.261 -1.1108 -0.7139  0.6331
 2027TIP3   OH2 6044   3.386   6.143   2.727 -0.0344 -0.3309 -0.0932
 2027TIP3    H1 6045   3.433   6.106   2.652 -1.1569 -1.9786 -0.0504
 2027TIP3    H2 6046   3.301   6.099   2.725 -2.2178  3.4943 -1.0245
 2028TIP3   OH2 6047   4.835   1.362   0.533 -0.0093 -0.2152 -0.4159
 2028TIP3    H1 6048   4.852   1.409   0.615  1.1944 -1.0639 -0.1477
 2028TIP3    H2 6049   4.780   1.288   0.559  1.1127 -0.9958 -0.1902
 2029TIP3   OH2 6050   2.723   0.148   5.066  0.1504  0.0235  0.2634
 2029TIP3    H1 6051   2.748   0.237   5.091  0.5506  0.3089 -1.0870
 2029TIP3    H2 6052   2.758   0.093   5.137  3.4527  0.5520 -0.7549
 2030TIP3   OH2 6053   6.832  -0.020   3.750 -0.5513  0.3688  0.4492
 2030TIP3    H1 6054   6.856  -0.041   3.660 -0.9146  0.9683  0.2101
 2030TIP3    H2 6055   6.790   0.066   3.745  0.0966  0.7587  1.2802
 2031TIP3   OH2 6056   6.636   1.192   2.395  0.4085  0.0404  0.5382
 2031TIP3    H1 6057   6.721   1.235   2.408  0.3941  0.3419 -0.2591
 2031TIP3    H2 6058   6.635   1.171   2.301  0.0295 -0.8834  0.7434
 2032TIP3   OH2 6059   2.381   0.451   1.201 -0.0546  0.6855  0.0106
 2032TIP3    H1 6060   2.442   0.438   1.273 -0.0627 -2.0273 -0.3704
 2032TIP3    H2 6061   2.406   0.385   1.135 -2.4858  0.3896 -0.7250
 2033TIP3   OH2 6062   1.061   2.747   1.587  0.1843 -0.4598 -0.6965
 2033TIP3    H1 6063   1.060   2.710   1.675 -0.1064  1.3634  0.1238
 2033TIP3    H2 6064   1.029   2.677   1.531 -1.5366 -1.0533  0.9269
 2034TIP3   OH2 6065   0.680   2.693   3.282 -0.3707  0.1383 -0.7206
 2034TIP3    H1 6066   0.640   2.620   3.235 -1.5608 -0.0043  0.4565
 2034TIP3    H2 6067   0.618   2.765   3.274 -0.8474 -0.0274  0.9504
 2035TIP3   OH2 6068   1.120   3.420   4.902  0.7577 -0.1882  0.1419
 2035TIP3    H1 6069   1.030   3.389   4.907  1.0184 -0.8704  0.8499
 2035TIP3    H2 6070   1.123   3.494   4.962  0.1156  1.3440 -1.6060
 2036TIP3   OH2 6071   4.250   2.931   1.028 -0.5922  0.6374  0.2474
 2036TIP3    H1 6072   4.332   2.979   1.026 -0.3094  0.1284 -0.4328
 2036TIP3    H2 6073   4.275   2.841   1.049 -1.0298  0.5818  0.5576
 2037TIP3   OH2 6074   0.819   4.960   2.662 -0.1389  0.6876  0.1604
 2037TIP3    H1 6075   0.812   4.865   2.652 -1.3392  0.8874 -1.2545
 2037TIP3    H2 6076   0.835   4.974   2.755  1.5039 -0.9571  0.1848
 2038TIP3   OH2 6077   6.475   6.545   0.413  0.4674 -0.1452 -0.4619
 2038TIP3    H1 6078   6.501   6.524   0.323  2.1472 -0.6376  0.0915
 2038TIP3    H2 6079   6.539   6.499   0.467 -2.0847 -2.1495  1.1160
 2039TIP3   OH2 6080   4.369   2.672   1.116  0.5822 -0.1021 -0.3206
 2039TIP3    H1 6081   4.373   2.645   1.208 -0.3374 -1.3868 -0.6244
 2039TIP3    H2 6082   4.394   2.594   1.067 -0.6702  0.0273 -1.2053
 2040TIP3   OH2 6083   6.352   5.637   2.178  0.4695  0.6490 -0.2087
 2040TIP3    H1 6084   6.436   5.593   2.180 -0.5556 -1.5922 -1.8445
 2040TIP3    H2 6085   6.294   5.583   2.232 -0.5088  0.6893 -1.1670
 2041TIP3   OH2 6086   1.300   6.395   1.359  0.0218  0.8342 -0.3382
 2041TIP3    H1 6087   1.323   6.381   1.451 -1.0455 -0.6724 -0.2617
 2041TIP3    H2 6088   1.305   6.308   1.319  1.4842  1.6111 -1.9840
 2042TIP3   OH2 6089   6.731   1.915  -0.024  0.1789 -0.1644  0.1100
 2042TIP3    H1 6090   6.784   1.988   0.007 -0.0969  1.6056 -3.1227
 2042TIP3    H2 6091   6.650   1.921   0.026  1.3463 -0.3160  2.1239
 2043TIP3   OH2 6092   4.912   4.796   3.812 -0.5384  0.3723  0.1612
 2043TIP3    H1 6093   4.934   4.855   3.740 -0.3764  0.7212  0.4922
 2043TIP3    H2 6094   4.865   4.851   3.874 -0.1824  0.2146  0.5763
 2044TIP3   OH2 6095   5.414   4.882   5.319 -0.2790 -0.4445 -0.2472
 2044TIP3    H1 6096   5.426   4.833   5.237  2.2990 -0.7788  0.2320
 2044TIP3    H2 6097   5.376   4.818   5.379 -2.7444 -0.0385 -1.2655
 2045TIP3   OH2 6098   2.513   3.207   0.022 -0.3358  0.3006 -0.0725
 2045TIP3    H1 6099   2.589   3.168   0.064 -1.3609 -0.3633  1.2248
 2045TIP3    H2 6100   2.546   3.237  -0.063  1.2816 -0.2739  0.3133
 2046TIP3   OH2 6101   4.242   1.618   3.645 -0.1811 -0.2497 -0.0617
 2046TIP3    H1 6102   4.294   1.567   3.707 -2.1259 -0.0278  1.8517
 2046TIP3    H2 6103   4.179   1.555   3.610 -0.2450  0.0363 -0.4621
 2047TIP3   OH2 6104   1.777   6.532   5.622 -0.3748  0.4376 -0.1957
 2047TIP3    H1 6105   1.805   6.620   5.596 -1.9030  0.4530 -2.0290
 2047TIP3    H2 6106   1.784   6.480   5.542  1.2021 -1.3667  1.0069
 2048TIP3   OH2 6107   4.279   0.137   2.989  0.3612  0.1741  0.0066
 2048TIP3    H1 6108   4.217   0.203   3.021  0.8140 -0.7947  3.1312
 2048TIP3    H2 6109   4.233   0.053   3.002  0.2469 -0.3087 -2.8339
 2049TIP3   OH2 6110   1.754   5.381   3.707 -0.4631 -0.4386 -0.0839
 2049TIP3    H1 6111   1.686   5.377   3.640  0.4380  1.3030 -1.1728
 2049TIP3    H2 6112   1.711   5.420   3.783 -0.9293 -0.2768 -0.4286
 2050TIP3   OH2 6113   2.509   1.329   4.483  0.1391  0.2795 -0.6541
 2050TIP3    H1 6114   2.419   1.299   4.497  0.3740 -0.1708 -0.0724
 2050TIP3    H2 6115   2.499   1.414   4.439 -0.5649  0.1595 -0.7405
 2051TIP3   OH2 6116   3.604   0.062   3.611  0.0522  0.1271 -0.3623
 2051TIP3    H1 6117   3.607   0.146   3.565 -1.5641  0.0293 -0.7363
 2051TIP3    H2 6118   3.646   0.001   3.551  1.8070  0.7554  0.1849
 2052TIP3   OH2 6119   6.247   5.059   0.916  0.0831  0.2614 -0.6111
 2052TIP3    H1 6120   6.284   5.006   0.845  0.3206 -1.2102  0.5691
 2052TIP3    H2 6121   6.214   4.995   0.979 -1.4080  1.5349 -0.0283
 2053TIP3   OH2 6122   5.634   5.487   4.565 -0.1126 -0.0379 -0.6680
 2053TIP3    H1 6123   5.606   5.579   4.569 -0.0000  0.0893 -2.0352
 2053TIP3    H2 6124   5.675   5.479   4.479 -0.3967 -1.4463 -0.6954
 2054TIP3   OH2 6125   1.780   0.301   0.828 -0.5903  0.5294 -0.0910
 2054TIP3    H1 6126   1.703   0.289   0.771  0.1470 -0.2160 -0.9636
 2054TIP3    H2 6127   1.801   0.394   0.821  0.0842  0.2805 -1.8641
 2055TIP3   OH2 6128   1.753   1.717   4.264  0.0432 -0.6367 -0.3913
 2055TIP3    H1 6129   1.826   1.777   4.280  0.1576 -0.9643  0.3482
 2055TIP3    H2 6130   1.795   1.634   4.244 -0.0531 -0.1130 -3.2739
 2056TIP3   OH2 6131   2.758   6.705   1.211 -0.2403  0.9180 -0.5739
 2056TIP3    H1 6132   2.692   6.773   1.223 -0.1766  0.9129 -0.1938
 2056TIP3    H2 6133   2.825   6.725   1.276 -0.4538  0.1957 -0.1223
 2057TIP3   OH2 6134   3.074   0.075   0.356 -0.6787  0.7149 -0.1872
 2057TIP3    H1 6135   3.043   0.145   0.414 -1.1432  0.7240 -0.4417
 2057TIP3    H2 6136   2.994   0.037   0.320 -0.4341 -0.1080  0.1277
 2058TIP3   OH2 6137   4.971   4.642   1.036  0.2942  0.6214 -0.0566
 2058TIP3    H1 6138   4.960   4.547   1.025  1.3978  0.3302  1.0906
 2058TIP3    H2 6139   4.883   4.675   1.052  0.0077 -0.3667  0.4788
 2059TIP3   OH2 6140   2.488   1.218   3.363  0.4404  0.5179  0.1762
 2059TIP3    H1 6141   2.575   1.203   3.327  0.3164  0.6203 -0.1767
 2059TIP3    H2 6142   2.466   1.307   3.335 -1.3358 -0.7651 -3.0683
 2060TIP3   OH2 6143   6.129   1.292   1.577  0.4335  0.8091  0.0632
 2060TIP3    H1 6144   6.099   1.379   1.604 -0.8164  0.6793 -0.8224
 2060TIP3    H2 6145   6.135   1.298   1.482  0.1641 -0.1279 -0.0142
 2061TIP3   OH2 6146   6.645   4.500   4.242  0.1081 -0.1609  0.0583
 2061TIP3    H1 6147   6.610   4.486   4.330 -1.0969  1.6466 -0.0637
 2061TIP3    H2 6148   6.644   4.414   4.201 -2.1016 -0.5799  0.8617
 2062TIP3   OH2 6149   4.226   1.002   0.707  0.4625  0.0698 -0.0039
 2062TIP3    H1 6150   4.251   1.093   0.722 -0.1538  0.1425  0.6362
 2062TIP3    H2 6151   4.150   1.007   0.648 -0.9714  0.1099  1.7709
 2063TIP3   OH2 6152   3.794   5.103   1.707 -0.0419 -0.3307 -0.3531
 2063TIP3    H1 6153   3.824   5.136   1.792  2.1367 -1.8150 -0.4890
 2063TIP3    H2 6154   3.848   5.148   1.643 -0.9794  0.0017 -0.9431
 2064TIP3   OH2 6155   1.230   0.278   0.899 -0.1592  0.5165  0.3916
 2064TIP3    H1 6156   1.295   0.233   0.952  1.6022  0.2873 -1.8200
 2064TIP3    H2 6157   1.236   0.237   0.813 -2.5796  1.1635 -0.1719
 2065TIP3   OH2 6158   7.135   4.751   5.785 -0.1393  0.1184 -0.2592
 2065TIP3    H1 6159   7.053   4.769   5.739  0.8936  0.7539 -1.9673
 2065TIP3    H2 6160   7.158   4.835   5.826 -0.1088  0.0584 -0.1529
 2066TIP3   OH2 6161   7.102   2.060   0.947  0.3199  0.0058  0.2638
 2066TIP3    H1 6162   7.071   2.149   0.964  1.9343  0.4636  1.0188
 2066TIP3    H2 6163   7.179   2.072   0.892  0.2118 -0.9656 -0.1068
 2067TIP3   OH2 6164   3.742   1.096   5.754  0.3609  0.1182  0.0534
 2067TIP3    H1 6165   3.726   1.128   5.843  1.4265 -0.7605  0.5893
 2067TIP3    H2 6166   3.785   1.012   5.767 -1.1665 -0.9366 -1.3028
 2068TIP3   OH2 6167   3.888   2.045   5.042 -0.1812 -0.2821  0.0968
 2068TIP3    H1 6168   3.957   2.106   5.017 -0.0610 -0.9777 -1.4014
 2068TIP3    H2 6169   3.807   2.095   5.031 -0.0378 -0.1316 -0.2968
 2069TIP3   OH2 6170   3.326   0.401   1.644  0.6343  0.7426 -0.6404
 2069TIP3    H1 6171   3.385   0.350   1.698  0.2275  0.8865 -0.0550
 2069TIP3    H2 6172   3.259   0.338   1.616  0.8909  0.6489 -1.0509
 2070TIP3   OH2 6173   0.546   1.593   2.541  0.5658 -0.3230  0.0070
 2070TIP3    H1 6174   0.620   1.622   2.593 -0.0359 -0.3882  0.9133
 2070TIP3    H2 6175   0.481   1.563   2.605 -0.4461  0.2043 -0.7465
 2071TIP3   OH2 6176   5.337   2.127   5.559  0.5420  0.0453  0.2791
 2071TIP3    H1 6177   5.393   2.059   5.521 -0.9339 -0.7969 -0.4724
 2071TIP3    H2 6178   5.323   2.099   5.650 -0.7151 -1.1392 -0.2458
 2072TIP3   OH2 6179   0.314   0.573   3.301 -0.2294  0.0639  0.3909
 2072TIP3    H1 6180   0.244   0.638   3.304 -1.2566 -1.0201  0.6853
 2072TIP3    H2 6181   0.273   0.496   3.261  0.7752 -0.6003  0.6118
 2073TIP3   OH2 6182   2.696   5.728   0.459 -0.0316  0.4588  0.1338
 2073TIP3    H1 6183   2.765   5.758   0.518  0.1175  0.5256 -0.0714
 2073TIP3    H2 6184   2.631   5.798   0.460  0.2199  0.6984 -0.1868
 2074TIP3   OH2 6185   1.091   4.333   0.300  0.4257 -0.0896 -0.3249
 2074TIP3    H1 6186   1.048   4.353   0.383  0.7125 -1.0023  0.0498
 2074TIP3    H2 6187   1.127   4.245   0.311 -1.1329 -1.0164 -2.0557
 2075TIP3   OH2 6188   0.141   3.305   1.993 -0.3497  0.8065  0.1986
 2075TIP3    H1 6189   0.225   3.279   2.030 -0.0652  0.0273 -0.9532
 2075TIP3    H2 6190   0.076   3.259   2.046  0.0889 -1.0993 -0.8405
 2076TIP3   OH2 6191   2.944   3.283   1.924 -0.3074  0.0990  0.1467
 2076TIP3    H1 6192   2.865   3.324   1.890 -0.0390 -0.2431 -0.9085
 2076TIP3    H2 6193   2.920   3.191   1.936  0.6700 -0.6177 -2.7566
 2077TIP3   OH2 6194   3.718   3.215   4.239 -0.3497 -0.3907 -0.2572
 2077TIP3    H1 6195   3.662   3.147   4.277 -0.6080  0.8660  1.7541
 2077TIP3    H2 6196   3.660   3.266   4.184 -1.2002  0.7043  1.5600
 2078TIP3   OH2 6197   4.106   3.479   3.315 -0.1961 -0.5566  0.0090
 2078TIP3    H1 6198   4.038   3.547   3.310 -0.6703 -0.9081  1.3385
 2078TIP3    H2 6199   4.152   3.496   3.397 -0.9155 -2.3551  0.8408
 2079TIP3   OH2 6200   2.189   6.370   3.740 -0.2721 -0.9379 -0.0838
 2079TIP3    H1 6201   2.120   6.436   3.742 -0.1713 -0.7019  4.3323
 2079TIP3    H2 6202   2.142   6.286   3.736 -0.8620 -0.7442  1.8233
 2080TIP3   OH2 6203   2.908   3.475   1.150  0.3934  0.4906  0.3974
 2080TIP3    H1 6204   2.866   3.527   1.082 -3.0157 -0.7462  1.3887
 2080TIP3    H2 6205   2.878   3.514   1.232 -0.0661 -1.3656  1.1589
 2081TIP3   OH2 6206   2.226   3.261   2.664 -0.5048  0.1344 -0.0693
 2081TIP3    H1 6207   2.225   3.354   2.639 -1.1507 -0.0595 -0.7815
 2081TIP3    H2 6208   2.171   3.257   2.742  0.6709  0.5701  0.8109
 2082TIP3   OH2 6209   2.805   2.163   3.181  0.7892  0.0225 -0.0635
 2082TIP3    H1 6210   2.854   2.218   3.243  1.3564  1.4509 -1.7199
 2082TIP3    H2 6211   2.726   2.213   3.163  0.2015 -0.8076  0.1542
 2083TIP3   OH2 6212   7.190   2.038   2.302 -0.2989  0.2021 -0.0523
 2083TIP3    H1 6213   7.242   1.958   2.295 -3.4898 -2.0276 -0.1855
 2083TIP3    H2 6214   7.152   2.050   2.214 -0.2695  1.6300  0.0961
 2084TIP3   OH2 6215   4.840   6.374   3.664  0.5686 -0.4795  0.0211
 2084TIP3    H1 6216   4.834   6.463   3.628 -3.7296 -1.4008 -2.2309
 2084TIP3    H2 6217   4.844   6.388   3.759 -0.2964  2.1765 -0.2427
 2085TIP3   OH2 6218   3.283   6.490   2.474  0.2828 -0.0100 -0.2551
 2085TIP3    H1 6219   3.203   6.531   2.505 -1.6701 -0.9489 -3.6121
 2085TIP3    H2 6220   3.336   6.562   2.440 -0.0560  0.3953  0.0704
 2086TIP3   OH2 6221   1.224   2.824   3.518 -0.0674  0.1299 -0.4206
 2086TIP3    H1 6222   1.292   2.768   3.480  1.5617  1.2819  0.6424
 2086TIP3    H2 6223   1.258   2.913   3.508 -0.3121  0.6079  2.1204
 2087TIP3   OH2 6224   2.645   5.570   5.334 -0.0324  0.3089 -0.4151
 2087TIP3    H1 6225   2.720   5.551   5.277  0.2532  1.6843 -0.5245
 2087TIP3    H2 6226   2.646   5.665   5.344 -2.0367  0.4143 -0.7872
 2088TIP3   OH2 6227   6.352   0.460   1.577  0.6812 -0.1505  0.1222
 2088TIP3    H1 6228   6.401   0.538   1.550  1.1467 -0.0974  1.0898
 2088TIP3    H2 6229   6.325   0.478   1.666 -0.4411 -0.5187 -0.1276
 2089TIP3   OH2 6230   4.037   4.836   5.507  0.0199  0.3172  0.5120
 2089TIP3    H1 6231   4.025   4.909   5.446 -1.4534 -0.9253 -0.7929
 2089TIP3    H2 6232   4.126   4.805   5.492  0.2610  1.1143  0.2625
 2090TIP3   OH2 6233   2.752   6.323   5.742 -0.1622 -0.1566 -0.6666
 2090TIP3    H1 6234   2.795   6.284   5.818  1.6353 -1.2597 -2.1709
 2090TIP3    H2 6235   2.679   6.263   5.722 -1.0526  0.4859  0.5149
 2091TIP3   OH2 6236   7.125   2.956   4.882  0.5609 -0.5723  0.6637
 2091TIP3    H1 6237   7.031   2.961   4.899  0.5673  0.6977  0.4571
 2091TIP3    H2 6238   7.131   2.929   4.790  0.3695 -0.0516  0.4901
 2092TIP3   OH2 6239   5.261   2.377   0.367  0.1506  0.0872  0.5177
 2092TIP3    H1 6240   5.179   2.401   0.325  0.4358  1.0698  0.5068
 2092TIP3    H2 6241   5.275   2.285   0.341  0.2962  0.6347 -1.5209
 2093TIP3   OH2 6242   1.143   3.956   1.001  0.1315 -0.0649  0.4164
 2093TIP3    H1 6243   1.080   3.950   0.929 -0.5672  0.8750  0.9388
 2093TIP3    H2 6244   1.215   3.900   0.973  0.7110  1.6478 -1.8595
 2094TIP3   OH2 6245   2.414   3.037   2.727  0.3624  0.4194 -0.3201
 2094TIP3    H1 6246   2.382   2.965   2.674  0.2977 -0.1258  0.4471
 2094TIP3    H2 6247   2.351   3.108   2.713  0.4367  0.3404 -1.0827
 2095TIP3   OH2 6248   1.299   2.564   2.787 -0.4885 -0.0866 -0.3666
 2095TIP3    H1 6249   1.222   2.600   2.744  0.1650  0.1538 -1.3477
 2095TIP3    H2 6250   1.286   2.585   2.880 -2.3196 -1.3506 -0.2869
 2096TIP3   OH2 6251   6.760   4.529   1.134  0.4306 -0.0948 -0.3929
 2096TIP3    H1 6252   6.744   4.466   1.205 -1.2819  1.1739  0.4315
 2096TIP3    H2 6253   6.683   4.521   1.078 -0.3338  1.9268  0.2863
 2097TIP3   OH2 6254   2.260   4.987   0.119 -0.4066 -0.3511 -0.5014
 2097TIP3    H1 6255   2.337   5.044   0.122 -0.8483  0.2309  0.8688
 2097TIP3    H2 6256   2.190   5.040   0.158 -0.6371 -2.0941  1.6687
 2098TIP3   OH2 6257   0.693   0.948   5.053 -0.2075  0.5782 -0.3677
 2098TIP3    H1 6258   0.614   0.997   5.032 -0.1777  1.2277  0.9159
 2098TIP3    H2 6259   0.765   1.003   5.023 -0.2133 -0.1890 -1.8953
 2099TIP3   OH2 6260   0.592   5.850   0.382  0.1262  0.1724 -0.3262
 2099TIP3    H1 6261   0.559   5.875   0.296 -0.5838  0.5075  0.0405
 2099TIP3    H2 6262   0.536   5.777   0.409 -0.2001  0.6179  0.2119
 2100TIP3   OH2 6263   3.786   0.549   3.674  0.3853 -0.4903 -0.4116
 2100TIP3    H1 6264   3.727   0.596   3.616  0.0055 -0.5960 -0.1122
 2100TIP3    H2 6265   3.754   0.459   3.675  0.2532 -0.4440  0.1276
 2101TIP3   OH2 6266   1.360   0.598   5.325 -0.0801 -0.2721 -0.5581
 2101TIP3    H1 6267   1.359   0.664   5.395 -3.5487 -0.0126 -0.6791
 2101TIP3    H2 6268   1.419   0.634   5.259  1.5368  0.5376  1.2206
 2102TIP3   OH2 6269   3.190   1.995   1.940  0.0950  0.1644 -0.2350
 2102TIP3    H1 6270   3.097   1.976   1.926  0.0916 -0.5503  0.6870
 2102TIP3    H2 6271   3.236   1.919   1.905  0.3431  0.5090 -0.6754
 2103TIP3   OH2 6272   4.191   5.407   0.036 -0.3244  0.1418  0.3850
 2103TIP3    H1 6273   4.136   5.395  -0.042  0.3383 -1.0061  0.0727
 2103TIP3    H2 6274   4.148   5.476   0.086 -1.0447  0.5341 -0.7511
 2104TIP3   OH2 6275   1.413   4.965   2.729 -0.0089 -0.1886  0.0260
 2104TIP3    H1 6276   1.337   4.959   2.787  0.2856 -1.7406  0.2935
 2104TIP3    H2 6277   1.401   4.893   2.666  0.9616 -0.1120 -0.2640
 2105TIP3   OH2 6278   3.194   4.214   4.868  0.0477  0.4936  0.3177
 2105TIP3    H1 6279   3.259   4.172   4.925 -1.3935 -0.0334  1.6571
 2105TIP3    H2 6280   3.140   4.266   4.927 -1.8956 -0.5618 -0.4181
 2106TIP3   OH2 6281   5.718   1.397   0.371 -0.4064  0.4659 -0.2367
 2106TIP3    H1 6282   5.679   1.458   0.307  0.4991  1.9279  0.5508
 2106TIP3    H2 6283   5.679   1.312   0.350  0.4630  0.6934 -3.2658
 2107TIP3   OH2 6284   3.250   1.491   1.523 -0.0299 -0.4890  0.3713
 2107TIP3    H1 6285   3.246   1.573   1.571 -0.2120  0.0328 -0.5139
 2107TIP3    H2 6286   3.169   1.445   1.548 -0.8212  0.3930 -0.5036
 2108TIP3   OH2 6287   3.680   2.535   1.631  0.2740  0.2691  0.4530
 2108TIP3    H1 6288   3.697   2.507   1.721  0.2546  0.2063  0.4372
 2108TIP3    H2 6289   3.585   2.543   1.627  0.1772 -0.9418  0.0804
 2109TIP3   OH2 6290   4.335   0.092   0.911  0.0203  0.0597  0.1618
 2109TIP3    H1 6291   4.241   0.075   0.915 -0.3044  1.7931  1.8648
 2109TIP3    H2 6292   4.369   0.057   0.994  0.9568 -0.8287 -0.5740
 2110TIP3   OH2 6293   6.764   6.489   3.818  0.2928 -0.3826 -0.4087
 2110TIP3    H1 6294   6.833   6.457   3.876 -0.7390  0.3939  1.3518
 2110TIP3    H2 6295   6.774   6.584   3.820 -2.3833 -0.0144  2.1030
 2111TIP3   OH2 6296   6.276   0.070   3.214 -0.4483  0.0425  0.1355
 2111TIP3    H1 6297   6.197   0.022   3.190 -0.5701  1.0794 -1.7342
 2111TIP3    H2 6298   6.277   0.068   3.310 -1.5487 -1.8271  0.1543
 2112TIP3   OH2 6299   5.683   2.006   3.853 -0.0560 -0.4276 -0.0594
 2112TIP3    H1 6300   5.588   2.005   3.843 -0.2233  0.4055  1.2394
 2112TIP3    H2 6301   5.714   2.056   3.778 -0.6498 -0.5155 -0.3740
 2113TIP3   OH2 6302   3.056   0.970   5.411  0.1808  0.3966 -0.2017
 2113TIP3    H1 6303   3.134   0.993   5.461 -0.9408  0.9888  1.3424
 2113TIP3    H2 6304   3.024   0.889   5.452  0.0369  0.0853 -0.9093
 2114TIP3   OH2 6305   3.622   1.857   4.422 -0.0332 -0.4380  0.1426
 2114TIP3    H1 6306   3.605   1.945   4.455  0.2915 -0.0295 -0.7347
 2114TIP3    H2 6307   3.577   1.854   4.337  0.8017 -0.7563 -0.2992
 2115TIP3   OH2 6308   4.230   4.380   0.445  0.4763  0.0163 -0.4507
 2115TIP3    H1 6309   4.211   4.368   0.538  0.0290 -0.6967 -0.6270
 2115TIP3    H2 6310   4.314   4.337   0.432  0.8414  0.6539 -0.2587
 2116TIP3   OH2 6311   3.402   3.044   3.986 -0.4480  0.0684  0.3133
 2116TIP3    H1 6312   3.315   3.004   3.985 -0.6774  0.5723  0.0168
 2116TIP3    H2 6313   3.458   2.976   4.023 -1.0671 -0.0592  1.0690
 2117TIP3   OH2 6314   4.790   1.072   4.515  0.5756 -0.1999  0.1784
 2117TIP3    H1 6315   4.724   1.041   4.577 -0.3868  1.0662 -0.1682
 2117TIP3    H2 6316   4.743   1.079   4.432  1.2477  0.3562 -0.1642
 2118TIP3   OH2 6317   1.392   6.598   3.117 -0.2568  0.1910 -0.1939
 2118TIP3    H1 6318   1.389   6.675   3.060  1.0701  0.4952  0.1026
 2118TIP3    H2 6319   1.305   6.560   3.110 -0.4143  0.7365 -1.7082
 2119TIP3   OH2 6320   5.991   3.588   5.097  0.1044  0.4417  0.5224
 2119TIP3    H1 6321   6.060   3.527   5.073 -0.4334 -0.4684  1.2035
 2119TIP3    H2 6322   5.966   3.630   5.015  2.1604  1.5733  0.4213
 2120TIP3   OH2 6323   2.626   2.219   0.058  0.7602  0.6296 -0.4161
 2120TIP3    H1 6324   2.583   2.139   0.088 -0.7829  0.8449 -1.9183
 2120TIP3    H2 6325   2.561   2.288   0.072  1.8044  1.5394  0.1897
 2121TIP3   OH2 6326   2.065   2.295   4.007  0.8957 -0.3200 -0.5034
 2121TIP3    H1 6327   1.978   2.258   3.989  0.9124 -0.4715 -0.2671
 2121TIP3    H2 6328   2.075   2.289   4.102  1.4577 -0.9571 -0.5975
 2122TIP3   OH2 6329   3.768   4.113   2.351 -0.2874  0.3859  0.0513
 2122TIP3    H1 6330   3.696   4.176   2.354 -0.5591  0.0687  0.3114
 2122TIP3    H2 6331   3.724   4.028   2.345  0.0826  0.2485 -0.8653
 2123TIP3   OH2 6332   3.931   2.749   5.341  0.0930  0.5398 -0.6507
 2123TIP3    H1 6333   3.962   2.732   5.430  0.4536  2.3944 -0.3643
 2123TIP3    H2 6334   4.006   2.726   5.285  0.1392  0.0977 -0.4098
 2124TIP3   OH2 6335   0.941   4.820   3.290  0.2600 -0.2049  0.7109
 2124TIP3    H1 6336   0.853   4.823   3.327 -0.2155 -1.8100 -0.2071
 2124TIP3    H2 6337   0.941   4.743   3.234  1.3806  1.3177 -1.5396
 2125TIP3   OH2 6338   1.550   6.346   0.073 -0.3744  0.1434 -0.0960
 2125TIP3    H1 6339   1.482   6.387   0.127 -0.7201 -0.4821 -0.0462
 2125TIP3    H2 6340   1.548   6.396  -0.009  1.7072  2.6102  1.1921
 2126TIP3   OH2 6341   6.734   1.479   3.652 -0.3420 -0.6633 -0.6672
 2126TIP3    H1 6342   6.731   1.568   3.618  0.2105 -0.5079 -0.3275
 2126TIP3    H2 6343   6.643   1.457   3.671 -0.3522  0.2956  0.4434
 2127TIP3   OH2 6344   4.151   5.294   4.626 -0.0995 -0.3194  0.2430
 2127TIP3    H1 6345   4.063   5.291   4.662 -0.8648  0.1665 -1.4883
 2127TIP3    H2 6346   4.153   5.375   4.575  1.0424 -0.7828 -0.4849
 2128TIP3   OH2 6347   1.080   4.314   2.269 -0.1127 -0.3181  0.3465
 2128TIP3    H1 6348   1.095   4.227   2.306 -0.8943 -0.3467  0.6314
 2128TIP3    H2 6349   1.041   4.297   2.183  0.4930 -0.2467  0.0546
 2129TIP3   OH2 6350   1.284   0.306   0.416  0.7589 -0.2253  0.0391
 2129TIP3    H1 6351   1.250   0.267   0.335  0.7422 -0.0247 -0.0494
 2129TIP3    H2 6352   1.379   0.299   0.408  0.7387 -1.0650  0.4218
 2130TIP3   OH2 6353   1.223   2.394   3.796  0.2454 -0.4094 -0.7672
 2130TIP3    H1 6354   1.237   2.302   3.775 -0.9338 -0.5287 -1.1165
 2130TIP3    H2 6355   1.131   2.409   3.777  0.4687  0.9013 -0.9289
 2131TIP3   OH2 6356   2.823   4.001   0.052  0.5074 -0.5576  0.0271
 2131TIP3    H1 6357   2.848   4.092   0.072  0.0457 -0.4891  0.3083
 2131TIP3    H2 6358   2.742   4.009   0.003  0.7768 -0.8001 -0.4661
 2132TIP3   OH2 6359   0.755   2.796   4.520 -0.4041  0.0986  0.1831
 2132TIP3    H1 6360   0.783   2.880   4.485 -1.9481  1.0348  1.1120
 2132TIP3    H2 6361   0.730   2.745   4.443 -0.9337  1.0418 -0.2853
 2133TIP3   OH2 6362   3.000   1.005   1.895  0.8730 -0.7082 -0.6245
 2133TIP3    H1 6363   3.088   1.017   1.930 -0.4355  0.3400  2.7699
 2133TIP3    H2 6364   2.985   0.910   1.900  0.6293 -0.6208  2.4424
 2134TIP3   OH2 6365   5.914   6.321   2.417  0.2482  0.8598  0.1511
 2134TIP3    H1 6366   5.833   6.363   2.446  0.6607  1.4744  0.4378
 2134TIP3    H2 6367   5.919   6.240   2.468 -0.5121  0.4864 -0.3450
 2135TIP3   OH2 6368   0.227   5.611   0.105 -0.7984 -0.2147  0.0526
 2135TIP3    H1 6369   0.237   5.698   0.143 -0.0352 -0.9410  1.6393
 2135TIP3    H2 6370   0.150   5.574   0.148  1.3279 -1.8705  2.7785
 2136TIP3   OH2 6371   6.261   6.464   3.422 -0.3730 -0.2328 -0.2535
 2136TIP3    H1 6372   6.313   6.534   3.384  2.9116 -2.7002 -0.7643
 2136TIP3    H2 6373   6.234   6.410   3.348  1.8375 -2.3805  0.3935
 2137TIP3   OH2 6374   4.124   4.408   5.008 -0.5311  0.0305 -0.8632
 2137TIP3    H1 6375   4.072   4.462   5.068 -1.4059  0.5232 -2.0336
 2137TIP3    H2 6376   4.063   4.384   4.938  0.4712 -0.5216 -1.5710
 2138TIP3   OH2 6377   3.588   4.854   4.498 -0.1820  0.1223  0.9920
 2138TIP3    H1 6378   3.553   4.926   4.551  0.1891 -0.1484  1.6226
 2138TIP3    H2 6379   3.661   4.820   4.550  0.2858 -0.0613  0.2268
 2139TIP3   OH2 6380   4.632   4.453   0.915  0.7877 -0.1810  0.1574
 2139TIP3    H1 6381   4.664   4.476   1.002 -0.7252  0.3814  0.5850
 2139TIP3    H2 6382   4.572   4.380   0.930  1.9859 -1.3831 -0.6619
 2140TIP3   OH2 6383   0.051   3.174   3.572  0.3448 -0.2983  0.0266
 2140TIP3    H1 6384   0.136   3.146   3.604  0.1517 -0.8201  0.0953
 2140TIP3    H2 6385   0.069   3.217   3.488  0.7164 -0.0377  0.2389
 2141TIP3   OH2 6386   1.108   5.677   0.355  0.3111  0.3870 -0.3247
 2141TIP3    H1 6387   1.192   5.632   0.367  0.2068  0.2563 -0.0700
 2141TIP3    H2 6388   1.117   5.758   0.405 -0.2755 -0.3508  1.0402
 2142TIP3   OH2 6389   1.862   6.633   4.227  0.2922  0.4423 -0.3880
 2142TIP3    H1 6390   1.884   6.701   4.291  2.7974 -0.0116 -0.6561
 2142TIP3    H2 6391   1.880   6.551   4.273 -3.2985 -0.1835  0.1433
 2143TIP3   OH2 6392   4.262   0.844   3.564  0.2321  0.3492  0.1667
 2143TIP3    H1 6393   4.273   0.846   3.469  0.9618  2.2810  0.2467
 2143TIP3    H2 6394   4.176   0.804   3.577 -0.3131  0.9462 -1.3715
 2144TIP3   OH2 6395   6.062   5.562   3.146 -0.4077 -0.3370  0.5352
 2144TIP3    H1 6396   5.987   5.562   3.086 -1.2247 -2.1870  1.4790
 2144TIP3    H2 6397   6.138   5.550   3.089 -0.8933  0.5590 -0.3393
 2145TIP3   OH2 6398   2.017   5.498   4.301 -0.4907  0.3740 -0.7562
 2145TIP3    H1 6399   1.979   5.470   4.384 -0.3491  1.0100 -0.4748
 2145TIP3    H2 6400   2.107   5.464   4.304 -0.3328  0.8151 -0.4361
 2146TIP3   OH2 6401   0.403   3.218   3.987  0.1165 -0.1631 -0.0013
 2146TIP3    H1 6402   0.426   3.276   4.060  1.6088  0.3770 -0.8474
 2146TIP3    H2 6403   0.411   3.274   3.909  1.5631 -1.4696 -0.8493
 2147TIP3   OH2 6404   0.507   3.423   4.521 -0.2477 -0.1219  0.7292
 2147TIP3    H1 6405   0.516   3.338   4.479 -0.6223  0.5312 -0.7483
 2147TIP3    H2 6406   0.436   3.411   4.585 -0.2572 -0.9288  0.5690
 2148TIP3   OH2 6407   2.203   5.743   0.263  0.3100  0.0629 -0.0122
 2148TIP3    H1 6408   2.124   5.726   0.213  0.9676 -0.8512 -0.7945
 2148TIP3    H2 6409   2.173   5.755   0.353 -0.5652 -2.2855  0.0814
 2149TIP3   OH2 6410   2.563   3.048   5.484  0.4253 -0.0331  0.4558
 2149TIP3    H1 6411   2.551   3.039   5.390  2.5164 -0.4522  0.1743
 2149TIP3    H2 6412   2.648   3.092   5.493  1.3558 -1.9710  2.1213
 2150TIP3   OH2 6413   6.401   5.616   3.070  0.6241  0.1016 -0.1001
 2150TIP3    H1 6414   6.492   5.587   3.074  0.0807 -1.6475  0.4935
 2150TIP3    H2 6415   6.356   5.562   3.135 -0.7441  1.3391  0.0265
 2151TIP3   OH2 6416   0.819   4.790   5.290 -0.1165  0.3714  0.2631
 2151TIP3    H1 6417   0.753   4.776   5.222 -0.3915 -0.1941  0.6422
 2151TIP3    H2 6418   0.881   4.718   5.279 -0.5486 -0.1342  1.0622
 2152TIP3   OH2 6419   0.608   2.443   2.613 -0.1487  0.6893 -0.1377
 2152TIP3    H1 6420   0.638   2.534   2.616  1.8874  0.1315 -1.6077
 2152TIP3    H2 6421   0.659   2.403   2.543  0.4733 -2.0886  1.7424
 2153TIP3   OH2 6422   5.367   6.071   2.909  0.9326  0.2174 -0.6221
 2153TIP3    H1 6423   5.418   6.009   2.857 -0.8375 -1.2719 -0.6606
 2153TIP3    H2 6424   5.369   6.152   2.858  2.2188 -0.1596 -1.2120
 2154TIP3   OH2 6425   2.518   1.388   3.742  0.3540  0.5612  0.1713
 2154TIP3    H1 6426   2.604   1.413   3.707  0.2894 -1.6989 -1.8674
 2154TIP3    H2 6427   2.534   1.306   3.788 -0.4940  0.8481  0.9879
 2155TIP3   OH2 6428   0.152   5.815   5.236 -0.3707  0.1997  0.1224
 2155TIP3    H1 6429   0.221   5.880   5.249  0.0732  0.0917 -1.4569
 2155TIP3    H2 6430   0.197   5.740   5.197 -0.8439 -1.1517  2.0370
 2156TIP3   OH2 6431   5.631   0.143   4.460 -0.6533  0.2292 -0.5196
 2156TIP3    H1 6432   5.567   0.074   4.442 -2.1216  1.3765  0.1160
 2156TIP3    H2 6433   5.612   0.172   4.549  0.1626  1.2224 -0.6465
 2157TIP3   OH2 6434   5.060   0.832   0.418 -0.1590 -0.1107 -0.2397
 2157TIP3    H1 6435   5.114   0.813   0.494  0.1511  0.4151 -0.3230
 2157TIP3    H2 6436   4.980   0.871   0.455  0.7016  1.7640 -0.2520
 2158TIP3   OH2 6437   4.965   5.918   5.282  0.7188  0.4040 -0.5861
 2158TIP3    H1 6438   4.893   5.978   5.305  0.7880  0.1796  0.2585
 2158TIP3    H2 6439   4.960   5.849   5.347 -0.2883 -1.3554 -2.4246
 2159TIP3   OH2 6440   2.797   1.965   2.564 -0.0038  0.1400  0.3992
 2159TIP3    H1 6441   2.742   1.999   2.494 -0.6151 -0.3150  0.6511
 2159TIP3    H2 6442   2.887   1.978   2.533 -0.2732 -1.0442 -0.9596
 2160TIP3   OH2 6443   1.252   0.096   5.764 -0.4478 -0.3837 -0.8086
 2160TIP3    H1 6444   1.277   0.092   5.672  0.5585 -1.8458 -0.5030
 2160TIP3    H2 6445   1.160   0.072   5.765 -0.2996 -0.9997 -1.3813
 2161TIP3   OH2 6446   4.964   6.311   5.780 -0.0560  0.5670  0.3672
 2161TIP3    H1 6447   5.007   6.313   5.865  0.4337  3.4685  0.1370
 2161TIP3    H2 6448   4.871   6.296   5.800  0.1987  0.1341  1.2838
 2162TIP3   OH2 6449   5.545   4.219   3.209  0.3738  0.1166 -0.7285
 2162TIP3    H1 6450   5.509   4.296   3.165  1.5614  0.5753 -0.9349
 2162TIP3    H2 6451   5.469   4.177   3.249 -0.4283  0.8686 -1.4102
 2163TIP3   OH2 6452   7.057   5.513   5.059 -0.0438  0.3589 -0.0972
 2163TIP3    H1 6453   6.971   5.552   5.078  0.5634  1.9086 -0.3833
 2163TIP3    H2 6454   7.102   5.513   5.143 -0.5980 -1.2689  0.2388
 2164TIP3   OH2 6455   3.931   0.702   4.690  0.5036  0.2467 -0.3643
 2164TIP3    H1 6456   3.850   0.733   4.731 -0.6221 -3.0701  0.2430
 2164TIP3    H2 6457   3.999   0.723   4.754 -0.4000  0.1730  0.6621
 2165TIP3   OH2 6458   1.258   2.222   2.050 -0.5487  0.2339  0.0251
 2165TIP3    H1 6459   1.265   2.317   2.060 -3.3864  0.4245  1.1895
 2165TIP3    H2 6460   1.341   2.188   2.082 -1.0042  2.1565  3.7491
 2166TIP3   OH2 6461   6.643   2.063   3.958 -0.5285 -0.3646  0.6245
 2166TIP3    H1 6462   6.610   1.983   4.000  0.5717  0.3027  2.9151
 2166TIP3    H2 6463   6.607   2.134   4.010 -2.3616  0.8201 -1.9936
 2167TIP3   OH2 6464   4.787   5.788   4.209  0.0819  0.4970  0.1768
 2167TIP3    H1 6465   4.724   5.835   4.154 -1.1918 -0.5059  0.7287
 2167TIP3    H2 6466   4.855   5.853   4.227 -0.4381  1.4157 -0.9914
 2168TIP3   OH2 6467   3.384   4.208   2.608 -0.5236  0.4382  0.5627
 2168TIP3    H1 6468   3.442   4.253   2.669 -1.2210  0.8486  0.9316
 2168TIP3    H2 6469   3.323   4.160   2.664  0.2411 -1.0410  0.1868
 2169TIP3   OH2 6470   1.767   5.449   4.139  0.5910  0.4034  0.1196
 2169TIP3    H1 6471   1.763   5.365   4.185  1.5081  0.1791 -0.1776
 2169TIP3    H2 6472   1.854   5.483   4.160  0.9222  0.4224 -1.1980
 2170TIP3   OH2 6473   0.949   2.740   3.878 -0.0838  0.1695 -0.1291
 2170TIP3    H1 6474   1.036   2.739   3.838  0.2167  1.5261  0.4328
 2170TIP3    H2 6475   0.950   2.817   3.935 -0.8372 -1.1189  1.7236
 2171TIP3   OH2 6476   2.189   4.756   4.473 -0.2384 -0.0499 -0.1403
 2171TIP3    H1 6477   2.265   4.743   4.529 -0.1268 -1.3161 -0.5512
 2171TIP3    H2 6478   2.222   4.747   4.384 -0.8324 -0.4750 -0.3284
 2172TIP3   OH2 6479   3.396   4.016   3.114 -0.2053 -0.2331 -0.2164
 2172TIP3    H1 6480   3.403   3.934   3.163  1.1546 -0.2498 -0.3798
 2172TIP3    H2 6481   3.409   3.990   3.023 -1.3228 -0.0223 -0.4500
 2173TIP3   OH2 6482   3.790   5.441   5.239 -1.0634  0.4318 -0.1792
 2173TIP3    H1 6483   3.759   5.486   5.317 -0.5131  0.3563  0.0924
 2173TIP3    H2 6484   3.723   5.376   5.219  0.2796 -1.8404  2.1759
 2174TIP3   OH2 6485   2.918   6.462   4.203  0.1565  0.2730 -0.1396
 2174TIP3    H1 6486   2.968   6.410   4.266  1.9634  0.8938 -0.9996
 2174TIP3    H2 6487   2.887   6.398   4.139  1.2894  0.0648 -0.4998
 2175TIP3   OH2 6488   5.775   5.324   5.389  0.6829  0.7368  0.1475
 2175TIP3    H1 6489   5.715   5.258   5.425 -0.3423  1.6492  0.1877
 2175TIP3    H2 6490   5.823   5.278   5.320  0.2492 -0.1432  0.4103
 2176TIP3   OH2 6491   2.461   0.687   4.623 -0.2193  0.2530  0.1260
 2176TIP3    H1 6492   2.524   0.753   4.595  0.6924 -1.1966 -1.4093
 2176TIP3    H2 6493   2.434   0.643   4.543 -1.3183 -0.7924  1.0281
 2177TIP3   OH2 6494   5.438   3.620   3.318 -0.4398  0.1331  0.4486
 2177TIP3    H1 6495   5.349   3.585   3.309 -0.9333  1.5040 -0.2473
 2177TIP3    H2 6496   5.459   3.606   3.410 -0.2090 -2.8272  0.0665
 2178TIP3   OH2 6497   1.473   6.258   0.927 -0.0855  0.1675 -0.6431
 2178TIP3    H1 6498   1.387   6.221   0.910 -0.3567  0.2320  0.4938
 2178TIP3    H2 6499   1.534   6.186   0.910 -0.5799 -0.7681  1.2132
 2179TIP3   OH2 6500   0.308   2.492   0.441  0.3948 -0.4826 -0.5337
 2179TIP3    H1 6501   0.273   2.561   0.497  1.2786 -0.1243 -0.4186
 2179TIP3    H2 6502   0.263   2.412   0.470  0.1212 -0.1329  0.0096
 2180TIP3   OH2 6503   3.901   1.085   4.422 -0.1005  0.3458  0.2672
 2180TIP3    H1 6504   3.863   1.127   4.499 -0.0412  0.2161  0.3681
 2180TIP3    H2 6505   3.831   1.030   4.388 -0.2455  0.6825  0.0147
 2181TIP3   OH2 6506   1.333   3.710   1.813 -0.5115 -0.0053  0.6116
 2181TIP3    H1 6507   1.320   3.805   1.806  0.8817  0.1580 -0.3145
 2181TIP3    H2 6508   1.298   3.675   1.731 -1.2596 -0.3231  1.0660
 2182TIP3   OH2 6509   2.891   5.323   1.333 -0.2657 -0.2866  0.1814
 2182TIP3    H1 6510   2.819   5.355   1.388 -0.2469 -0.4106  0.2817
 2182TIP3    H2 6511   2.936   5.402   1.302  0.3261 -0.2179  1.1519
 2183TIP3   OH2 6512   6.293   5.472   2.647  0.2202  0.0898  0.3692
 2183TIP3    H1 6513   6.357   5.515   2.591  1.1368 -0.6717  0.8037
 2183TIP3    H2 6514   6.263   5.541   2.706 -0.8139  0.9187 -1.0754
 2184TIP3   OH2 6515   0.034   5.879   2.656 -0.0615  0.1071  0.3168
 2184TIP3    H1 6516   0.122   5.875   2.694  0.7885 -0.4464 -1.5813
 2184TIP3    H2 6517  -0.010   5.802   2.693  0.5602 -0.1343  0.5880
 2185TIP3   OH2 6518   5.945   6.249   0.203 -0.1397 -0.5816  0.0944
 2185TIP3    H1 6519   5.979   6.160   0.213 -0.1939 -0.6760 -0.5709
 2185TIP3    H2 6520   5.852   6.237   0.185  0.1235 -0.4570 -1.4488
 2186TIP3   OH2 6521   0.470   0.595   3.606 -0.2352 -0.2234 -0.2668
 2186TIP3    H1 6522   0.522   0.671   3.632 -2.7841  1.2606  0.9059
 2186TIP3    H2 6523   0.441   0.614   3.517  1.4899 -1.2733 -1.1052
 2187TIP3   OH2 6524   1.378   2.640   0.075 -0.7407  0.1954  0.0619
 2187TIP3    H1 6525   1.291   2.668   0.046 -0.2605  2.2896  0.5140
 2187TIP3    H2 6526   1.427   2.627  -0.006 -0.3446  2.9212 -0.2145
 2188TIP3   OH2 6527   0.058   6.228   5.534  0.1979  0.4308 -0.0540
 2188TIP3    H1 6528  -0.002   6.300   5.517  2.4274  2.5450  0.5107
 2188TIP3    H2 6529   0.015   6.177   5.603 -2.0609  0.3237 -1.4291
 2189TIP3   OH2 6530   1.189   4.499   2.682 -0.5767 -0.3398 -0.1412
 2189TIP3    H1 6531   1.221   4.410   2.669  0.6355  0.1950 -1.0902
 2189TIP3    H2 6532   1.104   4.488   2.724 -1.3703 -2.0235 -2.0141
 2190TIP3   OH2 6533   4.025   6.649   4.354  0.0588  0.5252 -0.5803
 2190TIP3    H1 6534   4.005   6.681   4.266 -1.3164  0.4726 -0.3181
 2190TIP3    H2 6535   3.939   6.624   4.390  0.7160 -0.4160  0.3981
 2191TIP3   OH2 6536   6.716   4.437   4.793  0.4050 -0.2677  0.3435
 2191TIP3    H1 6537   6.763   4.417   4.712 -0.5516 -2.5580  0.2749
 2191TIP3    H2 6538   6.691   4.529   4.784  0.5706 -0.3779 -1.8421
 2192TIP3   OH2 6539   0.768   0.855   4.275  0.4206  0.5426  0.0067
 2192TIP3    H1 6540   0.752   0.872   4.367 -1.4693 -0.7971 -0.0149
 2192TIP3    H2 6541   0.770   0.760   4.268 -0.9111  0.5701 -1.5034
 2193TIP3   OH2 6542   1.608   2.051   0.606  0.1355 -0.4126 -0.2035
 2193TIP3    H1 6543   1.635   2.052   0.514  0.2457  3.0091 -0.2473
 2193TIP3    H2 6544   1.683   2.087   0.654 -0.6252 -0.3581  0.9972
 2194TIP3   OH2 6545   3.704   5.811   3.362 -0.1607  0.5809  0.0803
 2194TIP3    H1 6546   3.718   5.722   3.330 -0.4836  0.3284  0.6311
 2194TIP3    H2 6547   3.771   5.823   3.429 -0.7805  0.3765  0.7424
 2195TIP3   OH2 6548   2.215   2.585   2.749 -0.0821  0.0639  0.0412
 2195TIP3    H1 6549   2.218   2.504   2.801  0.6467 -1.2644 -1.9400
 2195TIP3    H2 6550   2.205   2.655   2.813  1.0099 -1.4691  1.9739
 2196TIP3   OH2 6551   0.055   4.073   0.236 -0.0742 -0.5847  0.2529
 2196TIP3    H1 6552   0.043   3.980   0.219 -1.4578 -0.2848 -0.5445
 2196TIP3    H2 6553   0.145   4.091   0.210  1.3892 -2.3312  3.4593
 2197TIP3   OH2 6554   0.922   3.024   5.471  0.2461  0.3293  0.0691
 2197TIP3    H1 6555   1.014   3.023   5.446  0.3690  0.1891  0.5164
 2197TIP3    H2 6556   0.905   2.937   5.507 -0.5013 -0.2268 -1.5386
 2198TIP3   OH2 6557   4.155   2.913   5.816 -0.2054  0.0322 -0.2691
 2198TIP3    H1 6558   4.156   2.965   5.735 -2.0735 -0.3011 -0.5375
 2198TIP3    H2 6559   4.110   2.968   5.880  0.9952  0.1692  0.4938
 2199TIP3   OH2 6560   1.658   0.521   1.471 -0.3311 -0.1397 -0.1061
 2199TIP3    H1 6561   1.568   0.549   1.461 -0.8635 -1.7018 -0.0599
 2199TIP3    H2 6562   1.673   0.460   1.399  0.4764 -0.3624  0.2314
 2200TIP3   OH2 6563   2.264   2.460   3.874 -0.0769 -0.6918  0.2980
 2200TIP3    H1 6564   2.174   2.450   3.845 -0.4257 -1.6416  1.5931
 2200TIP3    H2 6565   2.261   2.440   3.968  1.1238  1.2796  0.8224
 2201TIP3   OH2 6566   1.789   1.723   5.011  0.3019  0.0497 -0.2466
 2201TIP3    H1 6567   1.799   1.808   5.054  0.9239 -0.0934 -0.0965
 2201TIP3    H2 6568   1.846   1.728   4.934 -0.2714  0.0528 -0.6769
 2202TIP3   OH2 6569   6.609   6.779   2.045 -0.1674  0.0530  0.5603
 2202TIP3    H1 6570   6.534   6.838   2.050 -0.6403 -0.5038  0.1325
 2202TIP3    H2 6571   6.631   6.777   1.951 -0.2180 -0.5319  0.5598
 2203TIP3   OH2 6572   0.234   2.353   3.324 -0.0931 -0.4336 -0.2202
 2203TIP3    H1 6573   0.173   2.284   3.299 -0.1868  0.7017 -3.6178
 2203TIP3    H2 6574   0.190   2.399   3.395 -2.9579 -0.1174 -2.0326
 2204TIP3   OH2 6575   4.291   4.489   5.284  0.1727  0.2843  0.4973
 2204TIP3    H1 6576   4.246   4.496   5.368  3.1553  1.1295  2.1766
 2204TIP3    H2 6577   4.312   4.579   5.261  2.1382 -0.1365  0.5052
 2205TIP3   OH2 6578   2.079   0.279   3.382 -0.1645 -0.5545  0.4118
 2205TIP3    H1 6579   2.130   0.217   3.434  0.1318 -1.2524 -0.6662
 2205TIP3    H2 6580   2.124   0.362   3.393  0.2423 -0.8213  0.8026
 2206TIP3   OH2 6581   6.746   4.887   3.685 -0.4209 -0.1942  0.1884
 2206TIP3    H1 6582   6.651   4.884   3.673 -0.2061 -1.8950 -1.6590
 2206TIP3    H2 6583   6.777   4.941   3.613 -0.0508  1.6323  1.6658
 2207TIP3   OH2 6584   3.830   1.206   3.551 -0.2548  0.3679 -0.0993
 2207TIP3    H1 6585   3.873   1.127   3.585 -2.4371 -1.0646 -0.4286
 2207TIP3    H2 6586   3.774   1.174   3.480 -1.9944  2.0338  0.4217
 2208TIP3   OH2 6587   4.459   3.052   1.207 -0.2893 -0.3042  0.0684
 2208TIP3    H1 6588   4.392   3.003   1.255  0.1851 -0.5646  0.4714
 2208TIP3    H2 6589   4.490   3.118   1.269 -0.0980 -0.2526 -0.0811
 2209TIP3   OH2 6590   0.793   0.892   1.203 -0.4994 -0.2767  0.4754
 2209TIP3    H1 6591   0.823   0.878   1.113 -0.2954 -0.3094  0.5479
 2209TIP3    H2 6592   0.832   0.820   1.252 -0.2758 -0.0236  0.6659
 2210TIP3   OH2 6593   6.066   1.219   1.281 -0.1847 -0.0743  0.0829
 2210TIP3    H1 6594   6.104   1.139   1.318  1.1048  0.8974  0.8860
 2210TIP3    H2 6595   6.116   1.234   1.200 -0.2742  0.0453  0.0496
 2211TIP3   OH2 6596   5.567   0.918   2.510  0.0417  0.3979  0.1140
 2211TIP3    H1 6597   5.651   0.905   2.555 -0.5500 -0.8130  0.9258
 2211TIP3    H2 6598   5.591   0.959   2.427  1.3175  1.2205  0.8491
 2212TIP3   OH2 6599   6.193   5.232   3.372 -0.3987 -0.7309 -0.1147
 2212TIP3    H1 6600   6.224   5.257   3.285  1.4541 -1.4215  0.2856
 2212TIP3    H2 6601   6.256   5.165   3.401  0.0927  0.7112  2.4539
 2213TIP3   OH2 6602   2.135   5.729   5.150  0.1179 -0.0583  0.1987
 2213TIP3    H1 6603   2.113   5.819   5.129 -0.9889 -0.5298 -0.7177
 2213TIP3    H2 6604   2.220   5.714   5.108 -0.2471  0.1983 -0.6296
 2214TIP3   OH2 6605   2.242   6.305   2.058 -0.2370 -0.1411 -0.0468
 2214TIP3    H1 6606   2.188   6.232   2.030  0.0417 -1.0833  1.7412
 2214TIP3    H2 6607   2.271   6.346   1.977 -2.2532 -0.6019 -1.0667
 2215TIP3   OH2 6608   2.251   6.259   3.260 -0.3487  0.2135  0.1706
 2215TIP3    H1 6609   2.199   6.324   3.308 -0.9053 -0.8129  1.0065
 2215TIP3    H2 6610   2.340   6.291   3.266 -0.1986 -0.4022  2.9453
 2216TIP3   OH2 6611   4.401   1.748   4.361 -0.1632 -0.2090 -0.2989
 2216TIP3    H1 6612   4.463   1.709   4.300  0.7187  1.9954 -0.8862
 2216TIP3    H2 6613   4.373   1.675   4.416  0.7360 -1.8143 -1.8730
 2217TIP3   OH2 6614   1.342   4.556   0.836 -0.0415  0.1624  0.2045
 2217TIP3    H1 6615   1.329   4.538   0.929  0.2929  2.4843  0.7523
 2217TIP3    H2 6616   1.284   4.629   0.816  0.6179  0.3556 -1.1657
 2218TIP3   OH2 6617   5.523   5.947   2.476  0.0755  0.1845 -0.0546
 2218TIP3    H1 6618   5.455   5.899   2.429  0.0487 -0.3287  0.4942
 2218TIP3    H2 6619   5.596   5.886   2.482 -0.2695 -0.1273  1.4106
 2219TIP3   OH2 6620   1.849   0.378   4.095  0.0466 -0.0510  0.1798
 2219TIP3    H1 6621   1.918   0.329   4.139  0.2405 -1.4946 -1.6029
 2219TIP3    H2 6622   1.772   0.366   4.151  0.4192 -1.3296  0.4421
 2220TIP3   OH2 6623   5.520   3.960   0.017  0.1029 -0.2044 -0.8679
 2220TIP3    H1 6624   5.488   3.908   0.091  1.4372 -0.8218 -0.7143
 2220TIP3    H2 6625   5.440   3.990  -0.026 -0.7000 -0.3339  0.4634
 2221TIP3   OH2 6626   0.499   1.544   2.176  0.3181  0.4278 -0.0025
 2221TIP3    H1 6627   0.456   1.610   2.230  1.4702  1.3230 -0.1290
 2221TIP3    H2 6628   0.581   1.525   2.222  1.4181  1.3570 -1.4831
 2222TIP3   OH2 6629   2.350   2.882   1.333 -0.4956 -0.1896  0.4545
 2222TIP3    H1 6630   2.371   2.793   1.363 -1.9119 -0.7176  0.0005
 2222TIP3    H2 6631   2.434   2.919   1.307  0.0518 -1.6709 -0.0162
 2223TIP3   OH2 6632   7.172   0.749   0.288  0.2354  0.2109  0.0839
 2223TIP3    H1 6633   7.145   0.724   0.199 -0.5249  1.3891 -0.0329
 2223TIP3    H2 6634   7.224   0.829   0.276  2.8642 -1.3146  0.4263
 2224TIP3   OH2 6635   6.435   2.759   1.289  0.3746  0.2036  0.1390
 2224TIP3    H1 6636   6.465   2.837   1.242  0.4823 -0.3370 -0.7107
 2224TIP3    H2 6637   6.510   2.700   1.288  0.7529  0.5995  1.9881
 2225TIP3   OH2 6638   3.490   3.286   4.100 -0.1802  0.1011 -0.6737
 2225TIP3    H1 6639   3.435   3.362   4.118  0.1906 -0.1092  1.7371
 2225TIP3    H2 6640   3.428   3.217   4.076 -0.8003  0.4075  0.0075
 2226TIP3   OH2 6641   1.488   6.532   3.587 -0.3540  0.4085 -0.3303
 2226TIP3    H1 6642   1.545   6.554   3.661 -0.9809 -0.1494  0.3425
 2226TIP3    H2 6643   1.441   6.454   3.616 -0.5804  0.1522 -1.3466
 2227TIP3   OH2 6644   0.103   4.762   2.354  0.4060  0.1030  0.3296
 2227TIP3    H1 6645   0.095   4.669   2.334  1.7060 -0.0109  0.2379
 2227TIP3    H2 6646   0.015   4.797   2.342 -0.2683 -1.2457  1.0736
 2228TIP3   OH2 6647   2.622   0.359   0.324  0.2164  0.4176  0.0093
 2228TIP3    H1 6648   2.674   0.367   0.404 -0.9270 -1.3997  1.0073
 2228TIP3    H2 6649   2.648   0.274   0.287 -0.1556  0.6850 -0.8968
 2229TIP3   OH2 6650   6.563   3.154   2.614  0.1673  0.1715  0.4888
 2229TIP3    H1 6651   6.634   3.093   2.593 -1.6802 -2.0197  0.2082
 2229TIP3    H2 6652   6.537   3.191   2.529  1.0784  1.1529  0.6202
 2230TIP3   OH2 6653   1.040   3.822   1.909  0.1590  0.6270 -0.2194
 2230TIP3    H1 6654   1.023   3.912   1.935  2.9212  0.7827  1.4679
 2230TIP3    H2 6655   1.027   3.821   1.814 -1.2185  2.4201 -0.1002
 2231TIP3   OH2 6656   2.560   4.622   3.916  0.1523  0.8382 -0.6649
 2231TIP3    H1 6657   2.523   4.684   3.854  0.3098 -0.4236 -2.0766
 2231TIP3    H2 6658   2.523   4.538   3.891 -0.5977  0.4219  1.6394
 2232TIP3   OH2 6659   4.788   1.432   1.745  0.4083  0.0530 -0.7520
 2232TIP3    H1 6660   4.853   1.480   1.796 -0.1542  0.5894 -0.5314
 2232TIP3    H2 6661   4.705   1.473   1.768 -0.1590 -1.4199 -0.0862
 2233TIP3   OH2 6662   4.075   3.536   1.173  0.1729 -0.5311 -0.0313
 2233TIP3    H1 6663   3.983   3.529   1.148 -0.0401  2.8564 -0.6432
 2233TIP3    H2 6664   4.075   3.524   1.268 -0.7863 -1.3095 -0.1137
 2234TIP3   OH2 6665   0.740   1.465   3.051  0.3662 -0.0155  0.6400
 2234TIP3    H1 6666   0.691   1.384   3.064  0.9579 -0.1778  2.0952
 2234TIP3    H2 6667   0.757   1.497   3.140  1.2881  1.0079  0.1238
 2235TIP3   OH2 6668   3.203   3.548   1.227 -0.1027  0.2808  0.1007
 2235TIP3    H1 6669   3.280   3.537   1.170 -0.9160  0.3484 -1.0433
 2235TIP3    H2 6670   3.140   3.484   1.194 -1.3562  1.7521 -0.4098
 2236TIP3   OH2 6671   4.826   4.275   4.544 -0.1961  0.4536 -0.0516
 2236TIP3    H1 6672   4.914   4.311   4.533  0.3648 -0.9123 -0.2189
 2236TIP3    H2 6673   4.773   4.349   4.574  1.3562  0.9226  1.6478
 2237TIP3   OH2 6674   3.776   4.226   5.627  0.1644  0.5270 -1.0919
 2237TIP3    H1 6675   3.760   4.153   5.686  3.3068  0.7363  0.2242
 2237TIP3    H2 6676   3.805   4.184   5.545  1.1774  0.2567 -0.6081
 2238TIP3   OH2 6677   4.326   3.636   2.369 -0.0596  0.0674 -0.1599
 2238TIP3    H1 6678   4.310   3.661   2.460 -2.5964 -0.8499 -0.2768
 2238TIP3    H2 6679   4.303   3.714   2.319  1.8066  0.7389 -0.0534
 2239TIP3   OH2 6680   4.261   2.341   4.211  0.0873 -0.3735  0.5192
 2239TIP3    H1 6681   4.324   2.410   4.230 -0.8532  0.2978  1.2523
 2239TIP3    H2 6682   4.298   2.263   4.252  1.9902 -0.7706 -1.6933
 2240TIP3   OH2 6683   2.801   5.096   3.377 -0.0425 -0.2440 -0.2328
 2240TIP3    H1 6684   2.779   5.006   3.353  1.1450 -0.8448  0.8276
 2240TIP3    H2 6685   2.796   5.098   3.472 -0.2493  0.8884 -0.2455
 2241TIP3   OH2 6686   6.728   5.582   3.894 -0.0950 -0.2210 -0.3030
 2241TIP3    H1 6687   6.653   5.586   3.953  0.3095 -1.2505  0.3126
 2241TIP3    H2 6688   6.797   5.630   3.940  0.1558 -0.8343 -0.0365
 2242TIP3   OH2 6689   2.631   1.945   0.669 -0.2345  0.3314  0.1271
 2242TIP3    H1 6690   2.699   1.906   0.615  0.1594  1.4406 -0.2187
 2242TIP3    H2 6691   2.551   1.899   0.644  0.3710 -0.9886  0.5397
 2243TIP3   OH2 6692   6.903   1.159   4.216  0.6757 -0.2127 -0.3240
 2243TIP3    H1 6693   6.952   1.236   4.187 -2.6449  1.3858 -2.3735
 2243TIP3    H2 6694   6.908   1.099   4.141  2.3273 -1.6241  0.8435
 2244TIP3   OH2 6695   3.373   3.604   2.083 -0.4826  0.9038  0.1513
 2244TIP3    H1 6696   3.428   3.671   2.041  2.3359 -1.0624  0.4189
 2244TIP3    H2 6697   3.351   3.641   2.168 -2.6636  3.1669 -1.2534
 2245TIP3   OH2 6698   4.168   0.016   3.746 -0.6269  0.1386  0.1080
 2245TIP3    H1 6699   4.226   0.090   3.765  0.0659 -0.6598  1.1994
 2245TIP3    H2 6700   4.124  -0.002   3.829 -1.1666 -0.3610 -0.2826
 2246TIP3   OH2 6701   6.050   1.089   3.993  0.1519 -0.5944 -0.2035
 2246TIP3    H1 6702   6.144   1.097   4.008 -0.0414 -0.6785  1.1757
 2246TIP3    H2 6703   6.039   1.002   3.956  0.5461 -0.9459  0.4747
 2247TIP3   OH2 6704   4.546   3.108   5.897  0.2103 -0.8041  0.4808
 2247TIP3    H1 6705   4.514   3.086   5.810  0.7236 -1.9958  0.5704
 2247TIP3    H2 6706   4.623   3.052   5.909  1.2498  0.6713  0.9770
 2248TIP3   OH2 6707   1.056   2.324   4.651 -0.1937  0.3451  0.1274
 2248TIP3    H1 6708   1.081   2.378   4.726  0.7301 -0.8943  0.7421
 2248TIP3    H2 6709   1.104   2.362   4.577  1.0846 -0.1113  0.7091
 2249TIP3   OH2 6710   5.054   6.517   5.064  0.0892 -0.2730  0.4060
 2249TIP3    H1 6711   5.035   6.425   5.044 -1.4842 -0.1320  1.0358
 2249TIP3    H2 6712   5.038   6.525   5.158 -1.9541  1.0591  0.0332
 2250TIP3   OH2 6713   0.355   1.172   2.732 -0.6622 -0.6331  0.5292
 2250TIP3    H1 6714   0.401   1.101   2.778 -0.3476 -1.6958 -1.3535
 2250TIP3    H2 6715   0.262   1.147   2.736 -0.9749  0.5481  2.6503
 2251TIP3   OH2 6716   6.919   1.526   5.192 -0.1426  0.5235  0.0852
 2251TIP3    H1 6717   6.991   1.534   5.254  0.8232  1.3805 -1.0996
 2251TIP3    H2 6718   6.873   1.610   5.197  0.3830  0.8889 -0.8448
 2252TIP3   OH2 6719   3.374   1.909   2.555 -0.7486  0.1456  0.6591
 2252TIP3    H1 6720   3.317   1.864   2.493  1.1422  0.2720 -1.3314
 2252TIP3    H2 6721   3.400   1.842   2.617 -0.2689 -0.8201 -0.5444
 2253TIP3   OH2 6722   6.508   4.329   1.144  0.2383  0.5328 -0.4085
 2253TIP3    H1 6723   6.434   4.297   1.195  0.5806  0.8085  0.2731
 2253TIP3    H2 6724   6.480   4.416   1.113  0.1386  0.4835 -0.4563
 2254TIP3   OH2 6725   4.754   6.753   5.380 -0.4074  0.5364 -0.2268
 2254TIP3    H1 6726   4.740   6.671   5.333 -0.5613  1.0579 -1.1250
 2254TIP3    H2 6727   4.719   6.737   5.468 -0.8625 -0.2093 -0.5306
 2255TIP3   OH2 6728   1.408   1.786   2.475  0.3901  0.0254  0.4924
 2255TIP3    H1 6729   1.498   1.754   2.477  0.5842  0.5445  0.3070
 2255TIP3    H2 6730   1.416   1.878   2.452 -0.2233 -0.0448 -0.0167
 2256TIP3   OH2 6731   2.826   5.057   1.447 -0.2386  0.3992 -0.4435
 2256TIP3    H1 6732   2.880   5.136   1.442  0.2248  0.1409  0.1919
 2256TIP3    H2 6733   2.839   5.014   1.363  0.9423  0.1064 -0.1303
 2257TIP3   OH2 6734   2.372   5.903   1.435  0.3334  0.4752 -0.0129
 2257TIP3    H1 6735   2.372   5.857   1.519  0.2003 -1.2057 -0.8843
 2257TIP3    H2 6736   2.451   5.956   1.436  0.5517  0.1436  0.9996
 2258TIP3   OH2 6737   3.464   6.389   2.056  0.8157 -0.3874 -0.2825
 2258TIP3    H1 6738   3.369   6.393   2.048  0.9364  2.4027 -1.3478
 2258TIP3    H2 6739   3.496   6.386   1.966  1.7528 -1.9028  0.0766
 2259TIP3   OH2 6740   0.879   1.151   5.076 -0.6874 -0.1208  0.4165
 2259TIP3    H1 6741   0.881   1.241   5.109  2.8878  0.0741  0.1137
 2259TIP3    H2 6742   0.875   1.096   5.155  2.0761  0.3773  1.0035
 2260TIP3   OH2 6743   5.849   3.151   2.485  0.1707  0.3879 -0.6872
 2260TIP3    H1 6744   5.918   3.178   2.545  0.7100  0.0716 -1.1458
 2260TIP3    H2 6745   5.891   3.087   2.427  0.6898  3.1551 -3.6567
 2261TIP3   OH2 6746   0.204   4.576   0.406 -0.0578  0.1203 -0.3088
 2261TIP3    H1 6747   0.208   4.671   0.409  0.1127  0.0823  1.0405
 2261TIP3    H2 6748   0.129   4.553   0.460  0.0486 -0.5247 -0.4260
 2262TIP3   OH2 6749   1.149   2.499   4.896  0.0802 -0.6789  0.1498
 2262TIP3    H1 6750   1.212   2.571   4.885 -0.4123 -0.3133 -0.3185
 2262TIP3    H2 6751   1.068   2.542   4.924  0.0603 -1.1594  0.8552
 2263TIP3   OH2 6752   2.938   1.934   1.602  0.5255 -0.3283 -0.3773
 2263TIP3    H1 6753   2.864   1.897   1.554 -0.3352  0.6065  0.1596
 2263TIP3    H2 6754   2.923   1.907   1.693  1.0786 -0.4777 -0.3264
 2264TIP3   OH2 6755   7.080   0.934   4.474 -0.6744 -0.2499  0.4363
 2264TIP3    H1 6756   7.000   0.966   4.433 -0.5633 -1.4087 -0.7451
 2264TIP3    H2 6757   7.149   0.991   4.440 -0.6070 -1.0975 -0.9271
 2265TIP3   OH2 6758   2.450   5.653   2.792 -0.3206 -0.1282  0.0860
 2265TIP3    H1 6759   2.421   5.731   2.746 -0.0977 -0.6551 -0.9694
 2265TIP3    H2 6760   2.531   5.680   2.835 -0.8030  0.5140  0.6228
 2266TIP3   OH2 6761   6.354   3.008   0.305 -0.6672  0.6469  0.2612
 2266TIP3    H1 6762   6.355   3.046   0.392 -2.0654  0.4347  0.3911
 2266TIP3    H2 6763   6.273   2.956   0.302 -0.9090  1.0678 -1.3254
 2267TIP3   OH2 6764   0.231   3.472   2.807  0.1294 -0.3478 -0.2740
 2267TIP3    H1 6765   0.205   3.479   2.715  0.1378  4.1082 -0.1281
 2267TIP3    H2 6766   0.148   3.469   2.854  0.0546  0.7914 -0.3192
 2268TIP3   OH2 6767   5.617   0.829   1.959 -0.4075 -0.1520  0.0499
 2268TIP3    H1 6768   5.563   0.773   1.903  1.2119 -1.3184 -0.4370
 2268TIP3    H2 6769   5.646   0.900   1.901 -0.7189 -0.0069  0.0737
 2269TIP3   OH2 6770   6.123   6.291   0.519  1.1461  0.4853  0.2046
 2269TIP3    H1 6771   6.086   6.379   0.530 -1.0971 -0.4370  0.4003
 2269TIP3    H2 6772   6.156   6.268   0.606 -0.2116  0.3193  0.7011
 2270TIP3   OH2 6773   3.749   0.824   2.791  0.1373 -0.2876  0.0908
 2270TIP3    H1 6774   3.658   0.838   2.764 -0.1005 -2.0043 -0.1212
 2270TIP3    H2 6775   3.764   0.890   2.858 -1.4952 -0.3899  0.6058
 2271TIP3   OH2 6776   6.403   5.572   4.098  0.4724 -0.3281 -0.0347
 2271TIP3    H1 6777   6.375   5.577   4.190  0.2825 -3.1958  0.1397
 2271TIP3    H2 6778   6.337   5.518   4.056  0.4442  1.1188 -1.9857
 2272TIP3   OH2 6779   0.601   0.206   4.805  0.0968 -0.3217 -0.8141
 2272TIP3    H1 6780   0.618   0.293   4.842 -3.0613  0.0973  0.0268
 2272TIP3    H2 6781   0.603   0.219   4.710  0.6887  0.4239 -0.7028
 2273TIP3   OH2 6782   7.172   4.200   1.621 -0.4152 -0.0867 -0.2972
 2273TIP3    H1 6783   7.239   4.210   1.553 -0.6073 -1.3117 -0.6810
 2273TIP3    H2 6784   7.222   4.193   1.702 -0.1992  1.8277 -0.2210
 2274TIP3   OH2 6785   3.328   2.391   2.451  0.0815 -0.0815 -0.8900
 2274TIP3    H1 6786   3.301   2.315   2.400  0.8508 -2.1189  1.5158
 2274TIP3    H2 6787   3.418   2.407   2.425 -0.1477  0.1652 -1.5504
 2275TIP3   OH2 6788   2.670   0.486   5.618  1.1092  0.0774 -0.5444
 2275TIP3    H1 6789   2.603   0.492   5.687  1.6308  0.3247 -0.0490
 2275TIP3    H2 6790   2.632   0.428   5.552 -0.2725  1.5033 -1.0495
 2276TIP3   OH2 6791   0.567   4.480   2.976  0.4943 -0.5737 -0.2314
 2276TIP3    H1 6792   0.505   4.426   2.927 -3.6067  2.1566  1.4247
 2276TIP3    H2 6793   0.622   4.520   2.908  0.4363 -2.9665 -1.8167
 2277TIP3   OH2 6794   5.402   2.603   3.570  0.0540  0.1006 -0.7059
 2277TIP3    H1 6795   5.481   2.621   3.520 -0.0815 -0.2119 -1.0389
 2277TIP3    H2 6796   5.331   2.636   3.515 -0.1000 -0.2883 -0.7414
 2278TIP3   OH2 6797   0.455   0.114   1.191  0.2291  0.1039 -0.1747
 2278TIP3    H1 6798   0.368   0.080   1.209  0.8366 -1.5236 -0.1266
 2278TIP3    H2 6799   0.452   0.142   1.099  0.1213 -1.5787 -0.7126
 2279TIP3   OH2 6800   1.621   3.225   4.414 -0.1001 -0.0980 -0.0291
 2279TIP3    H1 6801   1.587   3.314   4.407  0.8652  0.3670  0.9043
 2279TIP3    H2 6802   1.713   3.236   4.440  0.6293 -1.3194 -1.8477
 2280TIP3   OH2 6803   1.982   6.776   4.444 -0.1751 -0.3115 -0.3132
 2280TIP3    H1 6804   2.036   6.701   4.469  0.5957  0.1225 -0.6269
 2280TIP3    H2 6805   2.039   6.852   4.461 -0.3105  0.0994 -1.6016
 2281TIP3   OH2 6806   5.459   1.015   2.931  0.0727 -0.6477  0.4795
 2281TIP3    H1 6807   5.371   1.041   2.961  0.1952 -0.2531  0.4985
 2281TIP3    H2 6808   5.468   1.055   2.845  1.1662  1.4027  1.4607
 2282TIP3   OH2 6809   5.145   4.941   3.780 -0.5478 -0.0052 -0.5255
 2282TIP3    H1 6810   5.164   4.991   3.859  0.0529 -1.7050  0.4488
 2282TIP3    H2 6811   5.220   4.957   3.722 -0.2018 -0.0223 -0.0863
 2283TIP3   OH2 6812   4.873   2.414   0.616 -0.2347 -0.0076 -0.3428
 2283TIP3    H1 6813   4.829   2.444   0.537  1.8349  0.5968 -1.3287
 2283TIP3    H2 6814   4.872   2.318   0.609 -1.6215 -0.0355 -0.1603
 2284TIP3   OH2 6815   4.385   2.283   3.649  0.2195  0.2838  0.3237
 2284TIP3    H1 6816   4.395   2.275   3.554  0.4215  4.0545 -0.1370
 2284TIP3    H2 6817   4.291   2.274   3.664  0.2136 -0.5751 -0.1649
 2285TIP3   OH2 6818   0.060   5.439   5.527  0.4883  0.3511  0.5301
 2285TIP3    H1 6819   0.115   5.363   5.547 -0.6959 -0.1422  2.1510
 2285TIP3    H2 6820   0.098   5.510   5.577 -0.4451 -0.0563  1.8780
 2286TIP3   OH2 6821   5.474   6.656   5.842  0.4562  0.1295  0.4548
 2286TIP3    H1 6822   5.414   6.584   5.821  0.1825  0.2087  0.9497
 2286TIP3    H2 6823   5.528   6.622   5.913 -0.6102  0.8900  1.6658
 2287TIP3   OH2 6824   0.772   4.394   2.170 -0.5021  0.5065  0.4708
 2287TIP3    H1 6825   0.814   4.313   2.144 -1.6624 -1.0219  2.9591
 2287TIP3    H2 6826   0.716   4.418   2.096  0.5800 -0.4140 -0.6719
 2288TIP3   OH2 6827   0.056   6.505   1.434 -0.3380 -0.3877  0.0359
 2288TIP3    H1 6828  -0.024   6.556   1.448 -1.3967 -1.2346 -2.4012
 2288TIP3    H2 6829   0.106   6.557   1.370  1.1190  0.1413  1.5469
 2289TIP3   OH2 6830   5.447   6.074   5.664 -0.5687 -0.2149  0.3853
 2289TIP3    H1 6831   5.414   5.988   5.640 -1.6023 -0.0066  1.0081
 2289TIP3    H2 6832   5.434   6.127   5.586 -0.7413 -0.4041  0.2837
 2290TIP3   OH2 6833   2.102   5.072   2.915  0.5227  0.3831  0.0556
 2290TIP3    H1 6834   2.136   5.050   3.002  0.0816  2.2937  0.7756
 2290TIP3    H2 6835   2.025   5.016   2.905  0.6112  0.0968  0.8768
 2291TIP3   OH2 6836   0.189   2.030   1.882 -0.5750 -0.4350  0.3641
 2291TIP3    H1 6837   0.213   1.973   1.809 -0.0215  1.1622 -0.7582
 2291TIP3    H2 6838   0.265   2.029   1.939 -0.7520 -1.1548  0.6086
 2292TIP3   OH2 6839   0.717   5.217   1.741 -0.1755 -0.0363 -0.2775
 2292TIP3    H1 6840   0.760   5.302   1.732 -0.9175  0.3970  0.1887
 2292TIP3    H2 6841   0.780   5.163   1.789  0.1599  0.3522 -0.2778
 2293TIP3   OH2 6842   2.801   3.877   0.748  0.1438  0.2010  0.3692
 2293TIP3    H1 6843   2.770   3.809   0.806  0.2351  1.4772  1.9951
 2293TIP3    H2 6844   2.831   3.831   0.669 -1.5161 -1.4210  0.6440
 2294TIP3   OH2 6845   0.053   5.149   2.780 -0.5625  0.1055  0.3502
 2294TIP3    H1 6846   0.105   5.069   2.775 -0.9454 -0.0915 -1.1142
 2294TIP3    H2 6847   0.080   5.191   2.862  0.8152 -0.7183  0.3452
 2295TIP3   OH2 6848   5.922   2.419   0.785  0.2652  0.0390 -0.1328
 2295TIP3    H1 6849   5.892   2.456   0.868  1.8308 -0.2180  0.5804
 2295TIP3    H2 6850   5.857   2.352   0.763  0.3816 -0.6073  1.4144
 2296TIP3   OH2 6851   4.879   6.072   2.777  0.4885  0.3817  0.1479
 2296TIP3    H1 6852   4.840   6.023   2.704 -0.3737 -1.4409  1.7575
 2296TIP3    H2 6853   4.923   6.006   2.830  0.1708  1.4982  1.8740
 2297TIP3   OH2 6854   0.944   0.622   3.935  0.5762 -0.2694  0.2966
 2297TIP3    H1 6855   1.039   0.612   3.936  0.6948  0.4357 -0.9116
 2297TIP3    H2 6856   0.929   0.710   3.970  0.5714  0.5241 -1.5598
 2298TIP3   OH2 6857   4.856   2.340   1.978 -0.1376 -0.2885  0.2522
 2298TIP3    H1 6858   4.816   2.424   1.998 -0.3110 -0.3334  0.0918
 2298TIP3    H2 6859   4.794   2.296   1.919  0.0229 -0.4638  0.2107
 2299TIP3   OH2 6860   1.913   5.325   1.973  0.5554 -0.7484  0.2403
 2299TIP3    H1 6861   1.945   5.399   2.025  1.4937 -1.5864  0.8801
 2299TIP3    H2 6862   1.992   5.277   1.949 -0.0782 -1.7627  0.1529
 2300TIP3   OH2 6863   1.873   3.666   0.322  0.0408 -0.2694 -0.3278
 2300TIP3    H1 6864   1.883   3.628   0.235 -0.5584  0.1119 -0.5681
 2300TIP3    H2 6865   1.845   3.756   0.306  2.1315  0.5464  0.1971
 2301TIP3   OH2 6866   5.133   0.646   2.700 -0.2835  0.6815  0.1087
 2301TIP3    H1 6867   5.185   0.578   2.742 -1.3881 -0.2291  0.0447
 2301TIP3    H2 6868   5.153   0.726   2.749  0.2094  0.1029  0.8683
 2302TIP3   OH2 6869   3.003   0.707   3.813 -0.5156 -0.3867  0.4723
 2302TIP3    H1 6870   3.083   0.709   3.761 -1.1894  0.9781 -0.5926
 2302TIP3    H2 6871   3.022   0.764   3.888 -0.4877 -0.0641  0.2210
 2303TIP3   OH2 6872   6.935   4.108   1.329  0.2038 -0.3511  0.1132
 2303TIP3    H1 6873   6.855   4.105   1.277  1.0241  0.9536 -1.3069
 2303TIP3    H2 6874   6.920   4.046   1.400 -2.0554 -0.1485 -0.1120
 2304TIP3   OH2 6875   3.058   1.108   2.471  0.0419 -0.7336  1.2060
 2304TIP3    H1 6876   3.118   1.035   2.457  0.4243 -0.1609 -0.4487
 2304TIP3    H2 6877   2.971   1.068   2.472  0.1381 -1.1406 -0.9948
 2305TIP3   OH2 6878   6.833   4.900   4.784 -0.1110  0.5235 -0.4702
 2305TIP3    H1 6879   6.914   4.951   4.777  0.1208  0.1970 -0.2287
 2305TIP3    H2 6880   6.851   4.821   4.733  0.1251 -0.0483  0.4765
 2306TIP3   OH2 6881   1.369   4.749   2.551 -0.1279  0.1615  0.1683
 2306TIP3    H1 6882   1.297   4.710   2.502  1.7236 -3.8785  0.2852
 2306TIP3    H2 6883   1.426   4.786   2.484 -0.1794 -0.5707 -0.2824
 2307TIP3   OH2 6884   2.353   4.965   0.494 -0.3608 -0.1470  0.2086
 2307TIP3    H1 6885   2.393   5.047   0.467  0.6290 -0.3546  0.9676
 2307TIP3    H2 6886   2.415   4.928   0.557 -1.9369 -0.3033  1.7391
 2308TIP3   OH2 6887   3.864   2.934   2.686 -0.1666 -0.2002 -0.2779
 2308TIP3    H1 6888   3.893   2.970   2.602 -0.0274 -0.4392 -0.3331
 2308TIP3    H2 6889   3.893   2.999   2.751 -3.2159  1.7320 -0.6498
 2309TIP3   OH2 6890   6.496   3.859   1.473  1.0012 -0.0253  0.2037
 2309TIP3    H1 6891   6.469   3.777   1.516  1.3096  0.0976  0.6359
 2309TIP3    H2 6892   6.413   3.901   1.449  0.8151 -0.0735  0.7280
 2310TIP3   OH2 6893   2.749   0.894   3.858 -0.7870  0.1776 -0.1447
 2310TIP3    H1 6894   2.816   0.829   3.878 -1.5577 -0.2075  1.4050
 2310TIP3    H2 6895   2.684   0.846   3.805 -0.7119  0.0479 -0.1193
 2311TIP3   OH2 6896   1.686   2.329   5.138  0.7516 -0.4385  0.4681
 2311TIP3    H1 6897   1.592   2.343   5.153  1.0724  0.7807  1.5410
 2311TIP3    H2 6898   1.723   2.316   5.225  1.6985 -0.0814  0.1363
 2312TIP3   OH2 6899   4.756   5.158   5.553  0.9173  0.2381  0.3680
 2312TIP3    H1 6900   4.661   5.158   5.562  0.6576 -0.5790 -1.7347
 2312TIP3    H2 6901   4.774   5.217   5.480  2.0159  0.2299  0.6020
 2313TIP3   OH2 6902   2.261   5.197   3.510  0.8611  0.2034  0.4740
 2313TIP3    H1 6903   2.269   5.188   3.605 -0.6108  0.0115  0.6026
 2313TIP3    H2 6904   2.188   5.140   3.487 -0.6718  2.4024 -0.3754
 2314TIP3   OH2 6905   1.527   0.856   0.047 -0.2275  0.0174  0.7847
 2314TIP3    H1 6906   1.477   0.912  -0.012 -1.6090 -0.7757  1.1617
 2314TIP3    H2 6907   1.473   0.849   0.126  1.4295  0.7920  2.0507
 2315TIP3   OH2 6908   3.238   1.937   3.052  0.3768  0.1665  0.8794
 2315TIP3    H1 6909   3.248   1.872   2.982  3.9248  0.6480  0.7346
 2315TIP3    H2 6910   3.163   1.990   3.025 -1.1232 -2.3689 -0.2223
 2316TIP3   OH2 6911   3.916   6.057   4.720  0.0448 -0.3534  0.3323
 2316TIP3    H1 6912   3.898   6.122   4.652 -0.1083 -0.0877  0.6243
 2316TIP3    H2 6913   3.917   5.974   4.673  1.4742 -0.0296 -0.2546
 2317TIP3   OH2 6914   0.465   1.298   1.048  0.0488 -0.0112 -0.2800
 2317TIP3    H1 6915   0.371   1.308   1.058 -0.6444 -3.4692 -1.7420
 2317TIP3    H2 6916   0.491   1.239   1.119  0.8314 -0.2125 -0.7193
 2318TIP3   OH2 6917   5.594   2.494   1.598  0.0616  0.5497 -0.5652
 2318TIP3    H1 6918   5.648   2.571   1.617 -0.1918  0.6247 -0.1181
 2318TIP3    H2 6919   5.504   2.527   1.601 -0.0904  0.0988  0.3650
 2319TIP3   OH2 6920   3.070   1.233   3.289  0.5600 -0.2151 -0.2603
 2319TIP3    H1 6921   3.047   1.209   3.379  1.0068 -0.3071 -0.1687
 2319TIP3    H2 6922   3.075   1.328   3.290  0.5062 -0.2125 -0.2030
 2320TIP3   OH2 6923   0.755   2.443   0.396 -0.4002  0.5351 -0.8860
 2320TIP3    H1 6924   0.832   2.499   0.389  0.0002  0.1039 -0.0647
 2320TIP3    H2 6925   0.778   2.364   0.346  0.6423 -0.5843  1.2289
 2321TIP3   OH2 6926   5.514   6.027   1.382  0.5695  0.1800  0.1631
 2321TIP3    H1 6927   5.567   6.008   1.459  1.2533  2.7339  0.4021
 2321TIP3    H2 6928   5.477   6.114   1.398 -1.5412 -0.3815 -1.1987
 2322TIP3   OH2 6929   4.126   2.596   4.808 -0.1426  0.1251 -0.2100
 2322TIP3    H1 6930   4.099   2.674   4.856  0.6169 -0.3460  0.9999
 2322TIP3    H2 6931   4.199   2.625   4.754  0.6496  0.0828  0.8247
 2323TIP3   OH2 6932   4.648   1.902   0.912 -0.0959 -0.1246 -0.7559
 2323TIP3    H1 6933   4.648   1.989   0.873  1.6461  0.2829  0.0309
 2323TIP3    H2 6934   4.601   1.847   0.849 -0.0552  1.1104 -1.9051
 2324TIP3   OH2 6935   1.929   2.258   4.739 -0.1702  0.1363  0.1621
 2324TIP3    H1 6936   1.894   2.305   4.664 -3.2919 -0.4484  1.1315
 2324TIP3    H2 6937   2.002   2.313   4.769  1.8600 -0.0658 -3.7079
 2325TIP3   OH2 6938   4.910   5.464   4.886 -0.4174  0.4485 -0.1668
 2325TIP3    H1 6939   4.938   5.449   4.976  2.8062 -2.1913 -1.3646
 2325TIP3    H2 6940   4.944   5.551   4.865  0.1676  0.4562  0.7334
 2326TIP3   OH2 6941   5.730   1.743   2.027 -0.9499  0.0733 -0.4718
 2326TIP3    H1 6942   5.727   1.826   1.981  2.1440 -0.5363 -2.0335
 2326TIP3    H2 6943   5.698   1.679   1.963 -1.8848 -0.1596  0.2037
 2327TIP3   OH2 6944   5.746   3.046   4.109  0.0413 -0.4255  0.5856
 2327TIP3    H1 6945   5.807   3.115   4.083 -0.5216  0.7747  2.2869
 2327TIP3    H2 6946   5.801   2.982   4.155  0.1175  0.4737  1.7992
 2328TIP3   OH2 6947   0.257   0.652   4.520 -0.8717 -0.2786 -0.2001
 2328TIP3    H1 6948   0.340   0.643   4.566  0.4041  2.9744 -1.5805
 2328TIP3    H2 6949   0.212   0.724   4.564 -1.4228  0.2295 -1.5310
 2329TIP3   OH2 6950   6.994   3.816   1.730 -0.0119  0.0048  0.1078
 2329TIP3    H1 6951   6.936   3.889   1.753 -0.8503  0.1945 -2.3415
 2329TIP3    H2 6952   6.935   3.742   1.719  0.5604 -0.4851  0.2834
 2330TIP3   OH2 6953   2.424   6.449   3.859  0.0796 -0.4095 -0.2835
 2330TIP3    H1 6954   2.466   6.532   3.839  0.4602 -0.9909 -2.1109
 2330TIP3    H2 6955   2.331   6.464   3.839 -0.1368  0.0166  0.9448
 2331TIP3   OH2 6956   1.801   1.069   1.192 -0.5834  0.2616 -0.3755
 2331TIP3    H1 6957   1.865   1.063   1.262  0.9571  0.7190 -1.6915
 2331TIP3    H2 6958   1.853   1.083   1.113 -2.3172  0.8008 -1.4743
 2332TIP3   OH2 6959   5.471   1.920   5.081  0.1234 -0.0114 -0.4246
 2332TIP3    H1 6960   5.518   1.906   5.163 -0.6238  1.0432  0.1976
 2332TIP3    H2 6961   5.379   1.901   5.102  0.0517 -0.6347 -1.2575
 2333TIP3   OH2 6962   4.945   4.106   0.262  0.3076 -0.2345 -0.0342
 2333TIP3    H1 6963   4.903   4.116   0.348  1.0399  0.8950  0.2180
 2333TIP3    H2 6964   4.882   4.056   0.211 -0.3670 -0.4953  1.0072
 2334TIP3   OH2 6965   1.325   2.407   1.167  0.6744 -0.2313  0.4375
 2334TIP3    H1 6966   1.371   2.394   1.250  0.6303  0.2368  0.5398
 2334TIP3    H2 6967   1.315   2.502   1.160 -0.6381 -0.3412  0.6034
 2335TIP3   OH2 6968   3.607   4.296   2.731  0.4970  0.5522  0.1861
 2335TIP3    H1 6969   3.694   4.327   2.755  2.0124 -3.7498  1.1254
 2335TIP3    H2 6970   3.559   4.293   2.814  0.6867 -0.3331  0.2753
 2336TIP3   OH2 6971   3.977   4.881   2.018  0.0613 -0.4687  0.2563
 2336TIP3    H1 6972   4.032   4.952   1.984 -0.7395  0.7932  1.4845
 2336TIP3    H2 6973   4.039   4.818   2.055  0.8567 -1.1001 -2.0049
 2337TIP3   OH2 6974   4.886   0.668   4.573  0.1236  0.0767 -0.0688
 2337TIP3    H1 6975   4.849   0.611   4.506  1.6534 -1.0806  0.0289
 2337TIP3    H2 6976   4.921   0.743   4.525 -0.0050 -0.0854 -0.4182
 2338TIP3   OH2 6977   2.005   0.123   1.143 -0.3834 -0.1280  0.2942
 2338TIP3    H1 6978   2.036   0.137   1.054  1.5658  0.3707  0.9999
 2338TIP3    H2 6979   2.063   0.056   1.179 -1.0938 -0.2752  1.2166
 2339TIP3   OH2 6980   4.028   2.196   1.385 -0.3644 -0.2885 -0.3677
 2339TIP3    H1 6981   4.067   2.108   1.387  0.1285 -0.1305 -1.8631
 2339TIP3    H2 6982   4.083   2.245   1.325 -1.2603  0.7514 -0.3601
 2340TIP3   OH2 6983   0.901   1.708   5.225  0.3435  0.3242  0.8261
 2340TIP3    H1 6984   0.974   1.689   5.284 -0.1242 -0.9485  1.0245
 2340TIP3    H2 6985   0.940   1.705   5.137  1.0799  2.4054  1.0365
 2341TIP3   OH2 6986   4.772   5.449   3.921 -0.1367 -0.0974  0.3522
 2341TIP3    H1 6987   4.847   5.488   3.967  1.1137 -1.7888 -0.1650
 2341TIP3    H2 6988   4.757   5.507   3.847 -0.1466  0.9289  1.1337
 2342TIP3   OH2 6989   4.468   4.421   0.028 -0.5696  0.6551 -0.3860
 2342TIP3    H1 6990   4.498   4.426   0.119  0.6350 -0.9131 -0.6653
 2342TIP3    H2 6991   4.388   4.369   0.033  0.2261 -0.5962 -0.3559
 2343TIP3   OH2 6992   2.523   4.431   5.169  0.1080  0.4833 -0.5699
 2343TIP3    H1 6993   2.551   4.442   5.078 -0.8293 -1.6687 -1.1684
 2343TIP3    H2 6994   2.428   4.437   5.167  0.0209 -0.4036  0.1333
 2344TIP3   OH2 6995   3.309   2.005   3.522 -0.5755  0.1512 -0.1293
 2344TIP3    H1 6996   3.299   2.027   3.429 -0.4486  1.1351  0.0814
 2344TIP3    H2 6997   3.282   2.084   3.569 -1.0817 -0.4944  0.6907
 2345TIP3   OH2 6998   4.217   0.794   3.996 -0.1426  0.3036 -0.5493
 2345TIP3    H1 6999   4.127   0.773   3.970 -0.2068  1.1171 -1.0282
 2345TIP3    H2 7000   4.225   0.759   4.084 -0.4188 -1.1558 -1.0770
 2346TIP3   OH2 7001   6.484   2.865   1.679  0.1637 -0.3087  0.0465
 2346TIP3    H1 7002   6.522   2.899   1.761  0.4674 -1.2205  0.2883
 2346TIP3    H2 7003   6.491   2.770   1.687 -0.9639 -0.4491 -0.4950
 2347TIP3   OH2 7004   6.164   5.081   3.639  0.2260  0.6785 -0.5814
 2347TIP3    H1 7005   6.083   5.105   3.685 -0.2793 -1.4565 -0.2567
 2347TIP3    H2 7006   6.166   5.140   3.563 -0.8663  1.7498  0.1688
 2348TIP3   OH2 7007   0.214   1.042   5.167 -0.0712 -0.3137  0.0164
 2348TIP3    H1 7008   0.179   1.103   5.103 -0.8275 -0.3760  0.3625
 2348TIP3    H2 7009   0.157   0.965   5.160 -2.1268  0.7714  2.8281
 2349TIP3   OH2 7010   3.310   4.726   2.281  0.3490  0.4661  0.3418
 2349TIP3    H1 7011   3.277   4.639   2.256 -0.0910  0.3488  1.3086
 2349TIP3    H2 7012   3.268   4.745   2.365  1.5112  1.0148  0.8199
 2350TIP3   OH2 7013   6.036   3.894   4.424  0.0921  1.0119  0.4128
 2350TIP3    H1 7014   6.040   3.818   4.365 -1.4740  0.4355  0.9970
 2350TIP3    H2 7015   6.115   3.886   4.477  1.2842  1.2620 -1.2187
 2351TIP3   OH2 7016   0.756   2.538   0.939  0.5088 -0.3202 -0.3451
 2351TIP3    H1 7017   0.793   2.522   0.852 -1.0908 -0.8621 -0.9670
 2351TIP3    H2 7018   0.749   2.451   0.977  1.6073 -0.0483  0.5430
 2352TIP3   OH2 7019   6.329   4.264   4.217 -0.0182  0.5221  0.4187
 2352TIP3    H1 7020   6.367   4.269   4.305  0.4142  0.6944  0.2266
 2352TIP3    H2 7021   6.260   4.199   4.224  0.2125  0.3166  0.8148
 2353TIP3   OH2 7022   0.118   5.480   0.816 -0.3453 -0.7834 -0.2100
 2353TIP3    H1 7023   0.093   5.560   0.862  0.8610 -0.6664  0.2668
 2353TIP3    H2 7024   0.118   5.412   0.883  0.3075 -0.8372 -0.2548
 2354TIP3   OH2 7025   2.768   2.479   0.640  0.1366 -0.1581 -0.2098
 2354TIP3    H1 7026   2.737   2.563   0.673  2.1144  0.3314  0.5356
 2354TIP3    H2 7027   2.721   2.467   0.557  0.1409  1.8974 -0.5572
 2355TIP3   OH2 7028   3.573   5.264   0.511  0.6393  0.1577  0.5885
 2355TIP3    H1 7029   3.497   5.320   0.530  1.7930  1.6130  1.0483
 2355TIP3    H2 7030   3.581   5.265   0.416 -0.5049 -0.8475  0.4546
 2356TIP3   OH2 7031   2.871   6.021   0.250  0.2069  0.6371 -0.1750
 2356TIP3    H1 7032   2.889   5.927   0.246 -1.3747  0.3265 -0.4485
 2356TIP3    H2 7033   2.956   6.060   0.270  0.7596 -0.8963  0.6368
 2357TIP3   OH2 7034   2.363   0.557   2.569 -0.2437 -0.2217 -0.1156
 2357TIP3    H1 7035   2.345   0.503   2.647  1.2996 -0.8705 -0.1857
 2357TIP3    H2 7036   2.349   0.498   2.495 -0.7823  0.1377 -0.3139
 2358TIP3   OH2 7037   1.005   3.607   4.607  0.5400  0.3662  0.3081
 2358TIP3    H1 7038   0.980   3.660   4.532 -1.6581 -0.6558  0.2374
 2358TIP3    H2 7039   1.024   3.670   4.676  1.6776  1.2849 -0.7983
 2359TIP3   OH2 7040   5.617   1.128   0.973 -0.0439 -0.1697 -0.5017
 2359TIP3    H1 7041   5.593   1.052   1.025 -0.4543 -0.4673 -1.1096
 2359TIP3    H2 7042   5.628   1.199   1.037 -2.6352  0.0189 -0.1664
 2360TIP3   OH2 7043   6.538   0.911   4.112 -0.3036 -0.0743 -0.2844
 2360TIP3    H1 7044   6.484   0.913   4.033  1.4062 -0.6950 -1.5297
 2360TIP3    H2 7045   6.571   1.000   4.121  0.5137 -0.2799 -1.0493
 2361TIP3   OH2 7046   4.220   6.254   0.035  0.4551  0.1541 -0.0025
 2361TIP3    H1 7047   4.237   6.240   0.128 -0.4785  2.6062  0.6158
 2361TIP3    H2 7048   4.190   6.169   0.003  1.8146 -1.0230  1.6487
 2362TIP3   OH2 7049   1.181   5.946   5.096  0.3200 -0.3547 -0.6324
 2362TIP3    H1 7050   1.236   5.994   5.157  0.3086  1.4237 -1.9411
 2362TIP3    H2 7051   1.095   5.985   5.105  0.2869 -0.1516 -1.6551
 2363TIP3   OH2 7052   5.268   2.699   4.137 -0.0765  0.0041  0.4071
 2363TIP3    H1 7053   5.305   2.744   4.213  0.5622 -1.2756  0.8857
 2363TIP3    H2 7054   5.343   2.652   4.099 -0.7630 -0.8092  0.0479
 2364TIP3   OH2 7055   5.386   3.624   1.502  0.3474 -0.2550  0.5018
 2364TIP3    H1 7056   5.461   3.621   1.442 -0.3580  0.4911 -0.4397
 2364TIP3    H2 7057   5.332   3.696   1.470 -0.8746 -0.8969  1.0435
 2365TIP3   OH2 7058   6.058   2.596   2.501  0.9172 -0.5741 -0.1691
 2365TIP3    H1 7059   6.145   2.557   2.492  0.8731 -0.7042 -0.0282
 2365TIP3    H2 7060   6.073   2.674   2.554  0.8217 -1.0418  0.5574
 2366TIP3   OH2 7061   4.570   3.126   4.179  0.3204  0.2055 -0.5526
 2366TIP3    H1 7062   4.649   3.079   4.153  1.3764  1.7386 -0.2592
 2366TIP3    H2 7063   4.539   3.079   4.257  0.4322 -0.9214 -1.1665
 2367TIP3   OH2 7064   4.151   6.234   4.618  0.6432  0.5645 -0.8031
 2367TIP3    H1 7065   4.117   6.217   4.706  0.1108  2.0715 -0.6896
 2367TIP3    H2 7066   4.153   6.148   4.576 -0.3528  0.0056  0.2401
 2368TIP3   OH2 7067   2.033   1.232   2.079  0.0164  1.5660 -0.2140
 2368TIP3    H1 7068   1.939   1.249   2.073 -0.4049 -0.7232 -1.5601
 2368TIP3    H2 7069   2.073   1.305   2.032 -1.2513  1.6407 -1.2603
 2369TIP3   OH2 7070   2.189   2.937   5.002  0.3279  0.3783 -0.0058
 2369TIP3    H1 7071   2.112   2.964   4.952  1.3954  1.3948 -1.1936
 2369TIP3    H2 7072   2.164   2.855   5.044 -1.1993  0.3906 -0.8412
 2370TIP3   OH2 7073   2.810   5.474   0.386  0.0677 -0.4420  0.2067
 2370TIP3    H1 7074   2.899   5.479   0.351  0.5502 -0.0305  1.4135
 2370TIP3    H2 7075   2.794   5.562   0.422 -1.1789 -0.2411 -0.7858
 2371TIP3   OH2 7076   1.931   2.963   2.428 -0.0670  0.6511 -0.6673
 2371TIP3    H1 7077   1.871   2.890   2.438 -1.2073  1.5888 -0.4744
 2371TIP3    H2 7078   1.877   3.036   2.398  1.0767  1.3667 -1.0818
 2372TIP3   OH2 7079   0.658   6.376   0.693  0.8224 -0.5733  0.2359
 2372TIP3    H1 7080   0.676   6.437   0.764  1.5388 -0.1241 -0.3225
 2372TIP3    H2 7081   0.619   6.300   0.736  1.7574 -0.5382  1.1833
 2373TIP3   OH2 7082   6.349   6.407   2.745  0.6739 -0.0395  0.5570
 2373TIP3    H1 7083   6.289   6.383   2.675 -0.0227  0.4767  0.9717
 2373TIP3    H2 7084   6.295   6.409   2.824  0.7489  2.4666  0.6165
 2374TIP3   OH2 7085   2.684   3.386   2.351 -0.4384  0.2554 -0.2550
 2374TIP3    H1 7086   2.682   3.481   2.368 -0.4549  0.5442 -1.7283
 2374TIP3    H2 7087   2.770   3.371   2.313 -0.5914 -0.2584 -0.3957
 2375TIP3   OH2 7088   0.640   5.431   4.089  0.3873  0.2433  0.4695
 2375TIP3    H1 7089   0.649   5.364   4.157  1.3581 -0.9068 -0.7461
 2375TIP3    H2 7090   0.728   5.468   4.080 -0.1660  1.8517  1.2341
 2376TIP3   OH2 7091   2.686   1.915   3.165 -0.3471  0.1295 -0.5710
 2376TIP3    H1 7092   2.760   1.857   3.181  0.7806  0.9588 -2.4728
 2376TIP3    H2 7093   2.716   2.001   3.191 -1.6868  0.0955  1.3301
 2377TIP3   OH2 7094   6.278   3.047   5.718 -0.0280 -0.5088 -0.1963
 2377TIP3    H1 7095   6.361   3.094   5.714 -0.5034  0.6209  1.9724
 2377TIP3    H2 7096   6.213   3.111   5.691 -0.6095 -0.0145  2.1569
 2378TIP3   OH2 7097   6.200   1.239   2.974 -0.5224  0.0722  0.1638
 2378TIP3    H1 7098   6.262   1.291   2.923 -0.9961  0.8401  0.3558
 2378TIP3    H2 7099   6.118   1.242   2.923  0.2891 -3.3978 -1.6588
 2379TIP3   OH2 7100   4.793   1.176   3.170 -0.0548  0.2495  0.1373
 2379TIP3    H1 7101   4.777   1.270   3.175  1.0078  0.5128 -0.9623
 2379TIP3    H2 7102   4.873   1.162   3.220 -0.3383 -0.1107  0.4972
 2380TIP3   OH2 7103   5.739   3.318   3.656 -0.1498  0.8467 -0.5727
 2380TIP3    H1 7104   5.646   3.294   3.660  0.5699 -2.0915  0.6555
 2380TIP3    H2 7105   5.766   3.292   3.568 -0.0748 -0.0768 -0.2833
 2381TIP3   OH2 7106   2.158   6.211   0.918 -0.1349 -0.4467 -0.3057
 2381TIP3    H1 7107   2.107   6.251   0.988 -0.3521 -0.5827 -0.3882
 2381TIP3    H2 7108   2.094   6.173   0.859  0.0860 -1.7750  0.2704
 2382TIP3   OH2 7109   1.094   3.604   0.161 -0.1926  0.0482  0.7650
 2382TIP3    H1 7110   1.157   3.658   0.210 -0.9069  1.3285  0.3135
 2382TIP3    H2 7111   1.103   3.633   0.070 -1.8930  0.7476  0.7864
 2383TIP3   OH2 7112   6.553   5.343   1.051 -0.0385  0.6648 -0.2613
 2383TIP3    H1 7113   6.598   5.336   1.135  0.3829 -0.6272 -0.5709
 2383TIP3    H2 7114   6.621   5.323   0.986 -0.5672  0.7883 -0.8652
 2384TIP3   OH2 7115   5.823   6.257   3.346 -0.4762 -0.1863  0.1981
 2384TIP3    H1 7116   5.863   6.342   3.366 -0.6412  0.6521 -2.6199
 2384TIP3    H2 7117   5.894   6.194   3.354  0.2926  0.6162 -0.2107
 2385TIP3   OH2 7118   6.925   4.171   1.030 -0.2736  0.0688  0.5977
 2385TIP3    H1 7119   6.936   4.227   1.107 -0.6026  0.6250  0.2491
 2385TIP3    H2 7120   6.970   4.218   0.960  1.1791 -1.0719  0.7194
 2386TIP3   OH2 7121   2.356   5.163   5.703  0.0401  0.0873 -0.4844
 2386TIP3    H1 7122   2.267   5.130   5.690 -0.3662  1.2755 -0.8205
 2386TIP3    H2 7123   2.357   5.249   5.660  1.1309  0.4148  0.1493
 2387TIP3   OH2 7124   1.033   5.817   1.061  0.1588  0.0531  0.3322
 2387TIP3    H1 7125   1.103   5.866   1.019  1.2592 -1.1428  0.7193
 2387TIP3    H2 7126   0.963   5.882   1.075  1.2242  1.2951  0.0645
 2388TIP3   OH2 7127   2.684   2.836   0.437  0.0693  0.0362  0.2462
 2388TIP3    H1 7128   2.606   2.810   0.486 -0.7179  1.5388 -0.1579
 2388TIP3    H2 7129   2.720   2.909   0.487 -0.1538  0.9101 -0.8291
 2389TIP3   OH2 7130   6.336   0.643   5.426  0.2507 -0.5198 -0.4765
 2389TIP3    H1 7131   6.257   0.650   5.373  0.0761  1.2932 -0.0581
 2389TIP3    H2 7132   6.398   0.703   5.384  1.0659 -1.1684 -0.2242
 2390TIP3   OH2 7133   0.701   1.236   5.400  0.4166 -0.2174  0.2856
 2390TIP3    H1 7134   0.694   1.296   5.474 -1.5499  0.1320 -0.1350
 2390TIP3    H2 7135   0.690   1.149   5.438  2.1181 -0.2794  0.7336
 2391TIP3   OH2 7136   4.779   3.514   0.294  0.0925  0.2224  0.2727
 2391TIP3    H1 7137   4.792   3.483   0.204  0.1836 -0.4217  0.5020
 2391TIP3    H2 7138   4.765   3.608   0.285 -1.6946 -0.0747 -0.5875
 2392TIP3   OH2 7139   0.137   3.286   5.356  0.5466  0.1061 -0.9312
 2392TIP3    H1 7140   0.224   3.258   5.383  0.1686  1.1638  1.6861
 2392TIP3    H2 7141   0.080   3.212   5.376  0.4362  0.4972  0.3073
 2393TIP3   OH2 7142   4.701   6.192   2.998  0.3159  0.2831 -0.0046
 2393TIP3    H1 7143   4.758   6.166   2.925  2.1316 -2.1350  2.0650
 2393TIP3    H2 7144   4.753   6.255   3.048  0.0252  0.2429  0.3534
 2394TIP3   OH2 7145   6.109   0.761   4.507 -0.2252  0.1831  0.1906
 2394TIP3    H1 7146   6.064   0.764   4.423  0.6184 -1.0844 -0.3360
 2394TIP3    H2 7147   6.163   0.682   4.503 -0.0015  0.2091  1.8395
 2395TIP3   OH2 7148   3.277   2.908   2.778  0.1160 -0.6311 -0.4477
 2395TIP3    H1 7149   3.340   2.850   2.736  0.2123 -0.3803 -0.6557
 2395TIP3    H2 7150   3.243   2.962   2.706 -1.1368 -1.4826 -0.5298
 2396TIP3   OH2 7151   4.120   2.116   2.779 -0.2559  0.2464 -0.2118
 2396TIP3    H1 7152   4.045   2.064   2.809 -0.9964  0.6879 -1.2545
 2396TIP3    H2 7153   4.177   2.053   2.735 -0.5100  0.0844 -0.3122
 2397TIP3   OH2 7154   5.639   0.086   0.691  0.3798  0.3640 -0.1752
 2397TIP3    H1 7155   5.694   0.091   0.769 -1.4485 -1.7050  1.3808
 2397TIP3    H2 7156   5.599   0.173   0.684 -0.2232  0.2972  1.8635
 2398TIP3   OH2 7157   2.927   1.907   4.657 -0.2822  0.0616 -0.4556
 2398TIP3    H1 7158   2.891   1.822   4.685 -0.9386 -0.1095 -1.7471
 2398TIP3    H2 7159   2.853   1.952   4.617  0.1881  1.0617 -0.2277
 2399TIP3   OH2 7160   2.089   0.179   4.526 -0.7304  0.1946  0.4836
 2399TIP3    H1 7161   2.039   0.216   4.453  0.1853 -1.4998 -1.0724
 2399TIP3    H2 7162   2.168   0.144   4.485  0.0611 -0.3396  2.3882
 2400TIP3   OH2 7163   1.768   6.650   0.119  0.1022 -0.5350 -1.0195
 2400TIP3    H1 7164   1.808   6.566   0.143 -0.0221 -0.1033  0.8752
 2400TIP3    H2 7165   1.678   6.643   0.150  0.0113  0.1757 -1.1130
 2401TIP3   OH2 7166   3.639   6.196   5.140  0.1121  0.5664 -0.0175
 2401TIP3    H1 7167   3.558   6.156   5.107  0.1496  1.2712 -1.0000
 2401TIP3    H2 7168   3.655   6.151   5.223  0.7278 -2.2561 -1.5470
 2402TIP3   OH2 7169   4.219   0.536   2.336 -0.3116 -0.2730  0.2687
 2402TIP3    H1 7170   4.187   0.615   2.291 -0.6406 -0.5367  0.0361
 2402TIP3    H2 7171   4.141   0.497   2.374 -0.0103  0.0402  1.2283
 2403TIP3   OH2 7172   1.214   3.277   4.510 -0.0472 -0.0487 -0.1764
 2403TIP3    H1 7173   1.186   3.235   4.591  0.0773  0.7929  0.3177
 2403TIP3    H2 7174   1.222   3.370   4.533  0.9372  0.0615 -0.9006
 2404TIP3   OH2 7175   5.833   2.539   3.355  0.3886  0.2252 -0.3599
 2404TIP3    H1 7176   5.873   2.524   3.269  1.2471 -0.4992  0.1463
 2404TIP3    H2 7177   5.760   2.598   3.338  0.7031  0.2881 -1.5515
 2405TIP3   OH2 7178   0.999   0.262   0.380  0.0360  0.9041 -0.1181
 2405TIP3    H1 7179   1.032   0.172   0.370  0.7685  1.0936  0.4280
 2405TIP3    H2 7180   0.913   0.261   0.339 -0.8169 -0.5610  1.5612
 2406TIP3   OH2 7181   2.238   5.956   4.542 -0.1900 -1.0684  0.3242
 2406TIP3    H1 7182   2.152   5.997   4.552  0.8023  1.0362  0.7638
 2406TIP3    H2 7183   2.219   5.863   4.535 -2.6716 -0.5122 -1.9260
 2407TIP3   OH2 7184   0.679   5.746   2.577 -0.1035 -0.3997 -0.6916
 2407TIP3    H1 7185   0.742   5.684   2.615 -1.2974 -0.1525  1.9130
 2407TIP3    H2 7186   0.596   5.698   2.578 -0.6080  0.4646 -0.7456
 2408TIP3   OH2 7187   2.635   3.444   5.717  0.3412 -0.4076  0.1798
 2408TIP3    H1 7188   2.654   3.410   5.629 -2.2414 -0.0256 -0.6296
 2408TIP3    H2 7189   2.707   3.413   5.771  0.4527 -3.3564 -1.4313
 2409TIP3   OH2 7190   2.448   5.534   0.572  0.0018 -0.2503  0.3190
 2409TIP3    H1 7191   2.437   5.446   0.609 -0.9905 -0.6689 -0.8904
 2409TIP3    H2 7192   2.454   5.520   0.477  3.3880  0.7020  0.2694
 2410TIP3   OH2 7193   5.686   6.168   0.065  0.1607 -0.1438  0.2647
 2410TIP3    H1 7194   5.635   6.158   0.146  0.3441  0.3454  0.4510
 2410TIP3    H2 7195   5.701   6.079   0.035 -0.3822 -0.3156  0.4730
 2411TIP3   OH2 7196   0.523   1.886   4.926  0.3132  0.4197  0.4098
 2411TIP3    H1 7197   0.564   1.800   4.922  0.8825  0.6089  1.7059
 2411TIP3    H2 7198   0.553   1.924   5.008 -2.2674  0.6740  1.3407
 2412TIP3   OH2 7199   2.088   3.137   5.793  0.4417  0.5925 -0.1748
 2412TIP3    H1 7200   2.066   3.143   5.886  0.1781 -1.9659  0.0031
 2412TIP3    H2 7201   2.176   3.101   5.791 -0.4573 -1.7475 -0.8420
 2413TIP3   OH2 7202   3.679   3.406   5.773  0.2349  0.1596 -0.1107
 2413TIP3    H1 7203   3.636   3.468   5.714  0.0411  0.4241  0.3065
 2413TIP3    H2 7204   3.757   3.378   5.725 -0.4816 -0.4587 -0.9459
 2414TIP3   OH2 7205   1.755   5.436   1.577 -0.0324 -0.4605  0.1435
 2414TIP3    H1 7206   1.743   5.401   1.665  0.3160  1.2083  0.8863
 2414TIP3    H2 7207   1.843   5.410   1.552  0.5529  0.5757  1.0414
 2415TIP3   OH2 7208   3.309   3.308   3.580  0.0280  0.2456  0.1221
 2415TIP3    H1 7209   3.383   3.370   3.578 -0.0398  0.3351  0.3340
 2415TIP3    H2 7210   3.338   3.239   3.640  0.2725 -0.1462 -0.4384
 2416TIP3   OH2 7211   1.777   2.035   1.608  0.0015  0.7340  0.2047
 2416TIP3    H1 7212   1.740   2.065   1.525  0.6962  0.0120 -0.3783
 2416TIP3    H2 7213   1.848   1.976   1.583  0.7717  1.1541  1.3108
 2417TIP3   OH2 7214   0.549   1.720   4.295 -0.1741 -0.1998 -0.2193
 2417TIP3    H1 7215   0.505   1.792   4.251  1.0242  0.0331 -1.0923
 2417TIP3    H2 7216   0.479   1.662   4.324 -1.1022  0.8657 -0.2917
 2418TIP3   OH2 7217   5.177   2.422   3.254 -0.1064  0.0580 -0.2820
 2418TIP3    H1 7218   5.243   2.440   3.187  4.2537  0.2264  3.4913
 2418TIP3    H2 7219   5.162   2.507   3.295  0.6260 -0.5909  1.4471
 2419TIP3   OH2 7220   1.324   3.580   2.809  0.4014  0.1948  0.0365
 2419TIP3    H1 7221   1.307   3.659   2.860 -0.1463  1.0013 -1.3499
 2419TIP3    H2 7222   1.402   3.541   2.849  0.3981  1.1739  1.0232
 2420TIP3   OH2 7223   0.641   1.170   4.531 -0.0454  0.8587 -0.8717
 2420TIP3    H1 7224   0.727   1.128   4.533  0.4059  1.7643 -0.0503
 2420TIP3    H2 7225   0.622   1.183   4.438  0.4463  0.1416 -1.0757
 2421TIP3   OH2 7226   6.758   4.865   1.551  0.2610  0.1579  0.1330
 2421TIP3    H1 7227   6.778   4.851   1.459 -0.0961  2.0312 -0.2830
 2421TIP3    H2 7228   6.838   4.905   1.586  0.5637 -0.9668  0.7738
 2422TIP3   OH2 7229   2.364   3.902   0.423 -0.4037 -0.8355  0.4801
 2422TIP3    H1 7230   2.410   3.913   0.340 -1.8941  1.5947 -0.1281
 2422TIP3    H2 7231   2.298   3.835   0.405 -1.2399  0.2330 -0.5980
 2423TIP3   OH2 7232   1.831   0.406   1.903  0.1835  0.0175  0.0469
 2423TIP3    H1 7233   1.753   0.381   1.854 -1.5034  2.1325  1.4577
 2423TIP3    H2 7234   1.871   0.475   1.851 -0.6890  1.1046  0.7561
 2424TIP3   OH2 7235   3.323   0.211   3.978  0.3811  0.7658 -0.0858
 2424TIP3    H1 7236   3.409   0.250   3.964 -0.3248  2.7390  0.7010
 2424TIP3    H2 7237   3.262   0.271   3.935 -0.8388  1.1920  2.0771
 2425TIP3   OH2 7238   6.469   4.355   0.055  0.2190 -0.0494 -0.0591
 2425TIP3    H1 7239   6.385   4.319   0.030  0.1175 -1.0573  1.6315
 2425TIP3    H2 7240   6.448   4.427   0.116  0.5502  0.5299 -0.6116
 2426TIP3   OH2 7241   3.397   3.240   5.357 -0.1860  0.3951  0.8852
 2426TIP3    H1 7242   3.367   3.261   5.445  2.8811  0.7180  1.9526
 2426TIP3    H2 7243   3.421   3.147   5.361  1.6431  0.8435  0.9638
 2427TIP3   OH2 7244   5.693   6.652   0.559  0.7940 -0.3172 -0.1895
 2427TIP3    H1 7245   5.649   6.736   0.543 -0.1549 -0.8471 -0.4033
 2427TIP3    H2 7246   5.628   6.586   0.537  1.3331 -1.1154  0.5583
 2428TIP3   OH2 7247   5.383   6.514   4.240  0.4839  0.2856 -0.0717
 2428TIP3    H1 7248   5.472   6.542   4.223  0.9466 -1.2605 -0.3503
 2428TIP3    H2 7249   5.338   6.519   4.155  0.5439  0.2765 -0.1034
 2429TIP3   OH2 7250   0.072   6.588   4.178 -0.2937  0.2633 -0.1993
 2429TIP3    H1 7251   0.158   6.623   4.151 -0.2364 -0.8121 -1.5073
 2429TIP3    H2 7252   0.090   6.543   4.261 -0.0305  1.8146  0.6170
 2430TIP3   OH2 7253   1.701   2.880   3.339  0.3071  0.1732 -0.0586
 2430TIP3    H1 7254   1.766   2.855   3.404  0.0457  2.0057  0.9688
 2430TIP3    H2 7255   1.625   2.826   3.360 -0.1470  1.4655  1.9046
 2431TIP3   OH2 7256   6.577   2.018   4.512  0.8832  0.7543 -0.4215
 2431TIP3    H1 7257   6.514   2.076   4.471  0.4561  0.1307 -0.6570
 2431TIP3    H2 7258   6.607   1.961   4.441  0.9503  0.3812 -0.0956
 2432TIP3   OH2 7259   6.574   4.971   3.135 -0.1860  0.3666  0.3800
 2432TIP3    H1 7260   6.484   4.987   3.109 -0.8868 -2.3589  0.8795
 2432TIP3    H2 7261   6.578   4.878   3.156  2.3071  0.7426  2.1387
 2433TIP3   OH2 7262   1.938   4.961   4.933 -0.3701  0.1242  0.7096
 2433TIP3    H1 7263   1.879   4.892   4.965  0.6946 -1.2176 -0.1055
 2433TIP3    H2 7264   1.958   4.935   4.843 -0.0479  1.6043  0.3361
 2434TIP3   OH2 7265   2.187   2.344   1.960 -0.1761  0.2084 -0.0539
 2434TIP3    H1 7266   2.138   2.321   1.881  0.2172  0.0739 -0.2641
 2434TIP3    H2 7267   2.124   2.390   2.015 -0.5702 -0.0794 -0.2615
 2435TIP3   OH2 7268   1.160   1.265   0.477 -0.2437 -0.1844 -0.0633
 2435TIP3    H1 7269   1.122   1.352   0.493  0.7901  0.1223  0.9394
 2435TIP3    H2 7270   1.236   1.262   0.536 -2.0602 -3.0009  2.3981
 2436TIP3   OH2 7271   0.123   0.736   4.286 -0.9122  0.2387 -0.6809
 2436TIP3    H1 7272   0.167   0.807   4.239 -0.0102  0.3457  0.2835
 2436TIP3    H2 7273   0.165   0.734   4.372 -2.6686  0.1763  0.2134
 2437TIP3   OH2 7274   4.214   1.081   5.197 -0.0300  0.0443  0.4432
 2437TIP3    H1 7275   4.304   1.104   5.174 -1.2703  2.0136 -3.4472
 2437TIP3    H2 7276   4.200   1.122   5.283  2.2690  1.2237  0.3430
 2438TIP3   OH2 7277   0.591   3.565   4.187  0.6278  0.3544  0.6671
 2438TIP3    H1 7278   0.602   3.518   4.104  0.7145  0.8142  0.4159
 2438TIP3    H2 7279   0.644   3.516   4.250  2.0778  1.0636  0.0468
 2439TIP3   OH2 7280   6.229   2.950   4.299  0.2432  0.1616  0.3868
 2439TIP3    H1 7281   6.149   2.961   4.248  0.8049 -0.5037 -0.6686
 2439TIP3    H2 7282   6.296   2.998   4.250  0.4250  1.0939  1.4956
 2440TIP3   OH2 7283   0.009   2.396   2.414  0.9808 -0.0816 -0.7851
 2440TIP3    H1 7284   0.104   2.403   2.427  0.6888  0.8162  1.1268
 2440TIP3    H2 7285  -0.008   2.449   2.336  1.9813  0.0586 -0.9247
 2441TIP3   OH2 7286   1.841   3.812   1.553  0.2731 -0.5327 -0.4104
 2441TIP3    H1 7287   1.813   3.891   1.599 -0.5712  0.3327 -2.3135
 2441TIP3    H2 7288   1.794   3.741   1.596 -1.6220  0.4103 -0.8244
 2442TIP3   OH2 7289   1.527   2.780   0.291 -0.0417  0.0656  0.2400
 2442TIP3    H1 7290   1.512   2.746   0.203  4.8002  2.9666 -2.0966
 2442TIP3    H2 7291   1.472   2.858   0.296  0.0488  0.1756 -0.4460
 2443TIP3   OH2 7292   2.449   5.198   0.130  0.2116 -0.4834 -0.5517
 2443TIP3    H1 7293   2.435   5.223   0.222  0.4515 -1.8228 -0.1273
 2443TIP3    H2 7294   2.538   5.226   0.111  0.5662 -1.2133 -0.0066
 2444TIP3   OH2 7295   4.309   6.170   1.272  0.0664  0.7151  0.2361
 2444TIP3    H1 7296   4.278   6.144   1.186  0.2174  2.6411 -0.4477
 2444TIP3    H2 7297   4.258   6.248   1.294  1.2703  1.3045  1.0898
 2445TIP3   OH2 7298   0.691   0.092   0.650  0.5257  0.2335 -0.9645
 2445TIP3    H1 7299   0.620   0.028   0.648 -0.5649  1.4240 -1.5259
 2445TIP3    H2 7300   0.653   0.172   0.613  2.2397  0.8294 -1.5440
 2446TIP3   OH2 7301   3.426   3.082   3.713 -0.6227  0.5108 -0.0023
 2446TIP3    H1 7302   3.341   3.039   3.706 -0.9360  1.0997  0.0748
 2446TIP3    H2 7303   3.443   3.087   3.807  1.1542 -2.7355 -0.0167
 2447TIP3   OH2 7304   2.521   1.478   3.298  0.5015 -0.0445 -0.0920
 2447TIP3    H1 7305   2.604   1.471   3.346  1.5584 -3.8203 -2.0966
 2447TIP3    H2 7306   2.538   1.542   3.230  1.0803  0.7143  0.7414
 2448TIP3   OH2 7307   5.474   6.281   1.454  0.0349  0.0721 -0.1611
 2448TIP3    H1 7308   5.489   6.318   1.541 -1.9854  1.2609 -0.2498
 2448TIP3    H2 7309   5.490   6.354   1.394  0.0475 -0.3516 -0.6756
 2449TIP3   OH2 7310   1.226   6.090   2.853  0.3098 -0.2132  0.0215
 2449TIP3    H1 7311   1.229   6.056   2.763  2.1154 -1.8125  0.6233
 2449TIP3    H2 7312   1.203   6.015   2.906  1.2201  0.2342  1.0852
 2450TIP3   OH2 7313   4.214   1.497   2.267  0.3810 -0.6417  0.1293
 2450TIP3    H1 7314   4.138   1.440   2.277 -0.1377  0.0866  0.4747
 2450TIP3    H2 7315   4.283   1.441   2.232 -0.2221 -1.3868  0.1276
 2451TIP3   OH2 7316   4.143   3.870   5.646  0.2827 -0.2354  0.1754
 2451TIP3    H1 7317   4.120   3.812   5.719 -2.4243 -0.4303 -0.7144
 2451TIP3    H2 7318   4.168   3.811   5.575  0.4967 -0.1592  0.1861
 2452TIP3   OH2 7319   4.013   5.811   2.690  0.3751  0.7851 -0.0057
 2452TIP3    H1 7320   3.940   5.841   2.744 -0.4413 -0.1525 -0.5517
 2452TIP3    H2 7321   4.016   5.716   2.705  0.9996  0.7138 -0.5584
 2453TIP3   OH2 7322   6.966   6.707   1.786 -0.4086 -0.2961  0.8710
 2453TIP3    H1 7323   6.967   6.612   1.769 -1.4809 -0.0285 -0.9439
 2453TIP3    H2 7324   6.912   6.743   1.716 -0.6369  1.5999  1.9687
 2454TIP3   OH2 7325   4.059   4.606   4.390  0.3902  0.4419  0.1368
 2454TIP3    H1 7326   4.071   4.514   4.367 -0.8209 -0.4263  2.5567
 2454TIP3    H2 7327   4.104   4.615   4.474  1.9051  2.5442 -0.8284
 2455TIP3   OH2 7328   6.273   4.739   1.750 -0.3309 -0.4016  0.5589
 2455TIP3    H1 7329   6.186   4.711   1.777 -0.9198  0.4101 -0.4156
 2455TIP3    H2 7330   6.329   4.723   1.826 -1.5977  0.3619  1.6832
 2456TIP3   OH2 7331   1.529   0.926   5.785 -0.0942  0.2880  0.1653
 2456TIP3    H1 7332   1.464   0.856   5.789 -0.6525  0.7739 -0.2185
 2456TIP3    H2 7333   1.487   1.000   5.828  0.1124  0.6787 -0.2907
 2457TIP3   OH2 7334   6.701   2.749   4.648 -0.1577 -0.1469 -0.2779
 2457TIP3    H1 7335   6.781   2.756   4.597 -0.9050  0.7251 -1.3734
 2457TIP3    H2 7336   6.716   2.804   4.725  0.4334 -0.3316 -0.2553
 2458TIP3   OH2 7337   2.333   1.468   1.581  0.9538  0.2532  0.3825
 2458TIP3    H1 7338   2.272   1.449   1.652 -1.0004 -0.8598 -1.4911
 2458TIP3    H2 7339   2.332   1.390   1.527  2.2307  1.1382 -0.9999
 2459TIP3   OH2 7340   6.263   3.313   4.064  0.6071  0.6226 -0.0539
 2459TIP3    H1 7341   6.343   3.366   4.061  0.4527  0.8444 -0.2345
 2459TIP3    H2 7342   6.237   3.304   3.973 -0.0654  1.2988  0.0642
 2460TIP3   OH2 7343   0.571   4.069   5.332 -0.0907  0.5591 -0.7078
 2460TIP3    H1 7344   0.619   4.107   5.406 -0.8169 -1.6216  0.9738
 2460TIP3    H2 7345   0.522   4.143   5.295 -0.3452  1.5890  1.5206
 2461TIP3   OH2 7346   5.404   1.438   5.695 -0.0585  0.5676  0.3078
 2461TIP3    H1 7347   5.327   1.467   5.745 -1.0408  0.4301 -1.0803
 2461TIP3    H2 7348   5.446   1.519   5.668  0.0652  0.6464  0.7249
 2462TIP3   OH2 7349   1.950   6.637   1.070 -0.3321  0.0862  0.0289
 2462TIP3    H1 7350   1.919   6.693   1.141 -0.4643  1.3353 -0.9746
 2462TIP3    H2 7351   1.872   6.617   1.019 -0.2284 -0.7394  0.1784
 2463TIP3   OH2 7352   0.698   4.931   4.108 -0.2851  0.2880  0.1417
 2463TIP3    H1 7353   0.748   4.953   4.030 -0.2687  2.6363  0.7370
 2463TIP3    H2 7354   0.761   4.938   4.180 -0.8265  0.4598  0.6068
 2464TIP3   OH2 7355   3.232   3.626   3.091  0.2111  0.0758 -0.2370
 2464TIP3    H1 7356   3.311   3.635   3.038 -0.5654  0.3096 -1.3870
 2464TIP3    H2 7357   3.219   3.532   3.099  0.8413  0.0325  0.3242
 2465TIP3   OH2 7358   3.066   0.386   1.891  0.0674 -0.2192  0.4466
 2465TIP3    H1 7359   3.089   0.341   1.810 -0.7866  0.3491 -0.1354
 2465TIP3    H2 7360   3.003   0.453   1.864  1.0133  1.0869  1.3347
 2466TIP3   OH2 7361   4.260   1.534   1.576 -0.3905  0.3747 -0.9622
 2466TIP3    H1 7362   4.322   1.471   1.613 -0.7859 -0.0717 -1.0574
 2466TIP3    H2 7363   4.202   1.556   1.649 -1.3243 -0.6938 -1.3580
 2467TIP3   OH2 7364   6.274   5.459   5.077  0.1794  0.6076  0.0869
 2467TIP3    H1 7365   6.313   5.539   5.112  2.5690 -0.9611  1.2692
 2467TIP3    H2 7366   6.342   5.421   5.022 -1.4802  0.1077 -1.7642
 2468TIP3   OH2 7367   0.916   6.462   3.886  0.0855  0.3124  0.3837
 2468TIP3    H1 7368   0.841   6.403   3.880  1.1046 -0.9767 -0.2440
 2468TIP3    H2 7369   0.991   6.408   3.861  1.0468  1.9424 -0.4052
 2469TIP3   OH2 7370   3.170   1.511   4.178  0.1836  0.4171 -0.4878
 2469TIP3    H1 7371   3.250   1.537   4.223 -0.1544 -2.0817  1.8245
 2469TIP3    H2 7372   3.195   1.434   4.127 -0.9653 -1.5264  1.6813
 2470TIP3   OH2 7373   6.161   6.592   3.660  0.2028  0.1753  0.1240
 2470TIP3    H1 7374   6.221   6.664   3.638 -1.5890  1.6592 -0.1274
 2470TIP3    H2 7375   6.177   6.527   3.592  0.8874  0.9467 -0.4780
 2471TIP3   OH2 7376   1.768   2.767   2.518 -0.1028 -0.1895  0.3563
 2471TIP3    H1 7377   1.708   2.706   2.475  1.1628  0.3276 -2.2843
 2471TIP3    H2 7378   1.844   2.714   2.541  0.3281  0.0687 -0.4716
 2472TIP3   OH2 7379   3.066   4.501   2.605 -0.0548  0.9209  0.5759
 2472TIP3    H1 7380   3.004   4.545   2.548 -1.2340 -0.0697  1.0482
 2472TIP3    H2 7381   3.027   4.507   2.692  0.2374 -0.1916  0.7979
 2473TIP3   OH2 7382   1.821   3.679   1.119  0.1798  0.3503 -0.1010
 2473TIP3    H1 7383   1.880   3.726   1.059 -1.5105 -0.0551 -2.2050
 2473TIP3    H2 7384   1.834   3.586   1.097 -1.8511  0.2996 -1.2927
 2474TIP3   OH2 7385   4.987   6.077   5.619 -0.6759 -0.4392  0.0845
 2474TIP3    H1 7386   5.055   6.074   5.687 -0.8479  0.5826  0.3097
 2474TIP3    H2 7387   4.907   6.101   5.666 -0.4566  2.0696 -0.6917
 2475TIP3   OH2 7388   2.348   1.267   0.878 -0.0362 -0.6095 -0.1359
 2475TIP3    H1 7389   2.427   1.273   0.931  0.0865 -1.6230 -0.1835
 2475TIP3    H2 7390   2.347   1.176   0.846 -0.4189 -0.1915 -1.3806
 2476TIP3   OH2 7391   2.520   6.038   1.916 -0.1954 -0.4138 -0.2446
 2476TIP3    H1 7392   2.431   6.056   1.948 -0.5038 -0.8846 -0.8031
 2476TIP3    H2 7393   2.566   6.001   1.991 -0.1986  0.6603  0.3010
 2477TIP3   OH2 7394   3.889   2.168   0.829  0.0725 -0.0540 -0.9383
 2477TIP3    H1 7395   3.834   2.125   0.764  0.0965 -1.4611 -0.0651
 2477TIP3    H2 7396   3.828   2.216   0.884 -0.4891 -2.3128  0.5685
 2478TIP3   OH2 7397   6.608   5.266   0.037 -0.0874 -0.3114 -0.4937
 2478TIP3    H1 7398   6.580   5.357   0.053 -0.6818 -0.4538 -0.7244
 2478TIP3    H2 7399   6.701   5.266   0.060 -0.7167 -0.3549  2.4443
 2479TIP3   OH2 7400   1.705   4.610   2.616 -0.1974 -0.8883  0.1040
 2479TIP3    H1 7401   1.732   4.699   2.593 -1.3977 -0.6283 -0.4273
 2479TIP3    H2 7402   1.612   4.620   2.639 -0.4339 -2.0518 -0.3097
 2480TIP3   OH2 7403   3.605   3.396   5.450 -0.0821 -0.0543 -0.1651
 2480TIP3    H1 7404   3.532   3.353   5.406 -0.7506  0.9143 -0.0538
 2480TIP3    H2 7405   3.664   3.326   5.474 -0.4867 -0.7652 -1.1697
 2481TIP3   OH2 7406   7.098   1.229   4.543  0.3470  0.4719 -0.3332
 2481TIP3    H1 7407   7.094   1.325   4.539  1.4313  0.7228  2.3334
 2481TIP3    H2 7408   7.163   1.205   4.477 -0.2940  1.4958 -1.3823
 2482TIP3   OH2 7409   6.231   2.587   1.699  0.1797 -0.9355 -0.3650
 2482TIP3    H1 7410   6.324   2.591   1.722 -0.2188 -0.7005  1.3078
 2482TIP3    H2 7411   6.203   2.500   1.728 -0.1401 -1.0094 -0.8718
 2483TIP3   OH2 7412   5.888   3.684   4.834 -0.2365 -0.0700 -0.4861
 2483TIP3    H1 7413   5.920   3.766   4.796  1.5092  0.4983  1.9549
 2483TIP3    H2 7414   5.898   3.620   4.764  0.0736  1.4403 -1.8867
 2484TIP3   OH2 7415   0.542   4.111   0.833  0.1101 -1.1849  0.1797
 2484TIP3    H1 7416   0.459   4.125   0.879 -0.0547  0.7150 -0.5855
 2484TIP3    H2 7417   0.604   4.167   0.880 -0.0090  0.6292 -1.6441
 2485TIP3   OH2 7418   4.327   3.719   4.751  0.4245 -1.0536 -0.3222
 2485TIP3    H1 7419   4.278   3.737   4.671 -0.0825 -0.0860  0.1846
 2485TIP3    H2 7420   4.322   3.625   4.763  0.8645 -1.2651 -1.6518
 2486TIP3   OH2 7421   2.175   3.114   0.729 -0.1655 -0.0904 -0.1654
 2486TIP3    H1 7422   2.169   3.185   0.665 -0.8419 -1.1470 -1.3304
 2486TIP3    H2 7423   2.177   3.034   0.675 -0.5161 -0.9976  1.1331
 2487TIP3   OH2 7424   3.014   5.835   1.584 -0.0399 -0.4190 -0.2748
 2487TIP3    H1 7425   2.972   5.910   1.627  2.6278  1.3276 -0.4380
 2487TIP3    H2 7426   3.009   5.857   1.490  2.5238  0.7272 -0.2369
 2488TIP3   OH2 7427   4.793   0.053   2.913  0.0529 -0.1318 -0.2459
 2488TIP3    H1 7428   4.726   0.114   2.942 -0.5355 -0.6531 -0.5024
 2488TIP3    H2 7429   4.875   0.103   2.921 -0.2431  0.2130  0.9388
 2489TIP3   OH2 7430   5.342   2.564   1.648  0.1991  0.0193  0.2039
 2489TIP3    H1 7431   5.257   2.600   1.626 -1.0822 -1.7488  1.9039
 2489TIP3    H2 7432   5.323   2.489   1.704  2.8988 -0.1128  1.1169
 2490TIP3   OH2 7433   4.578   4.801   4.597 -0.1567  0.6819 -0.3035
 2490TIP3    H1 7434   4.581   4.894   4.576  0.8069  1.2211  1.9310
 2490TIP3    H2 7435   4.628   4.793   4.678 -1.1552 -1.6147  0.1658
 2491TIP3   OH2 7436   5.846   2.030   4.278  0.7152 -0.1839  0.4510
 2491TIP3    H1 7437   5.893   2.060   4.200  1.5933 -0.7309  0.7451
 2491TIP3    H2 7438   5.899   2.062   4.352  0.3814 -0.4346  0.8045
 2492TIP3   OH2 7439   6.162   4.768   4.977  0.3384  0.3479 -0.4963
 2492TIP3    H1 7440   6.148   4.814   4.894  0.6827  0.0994 -0.6968
 2492TIP3    H2 7441   6.255   4.744   4.975  0.0415 -0.8518 -0.6580
 2493TIP3   OH2 7442   1.491   6.506   4.789  0.2982  0.4741  0.0515
 2493TIP3    H1 7443   1.581   6.508   4.821 -0.0559  0.4888  1.0743
 2493TIP3    H2 7444   1.452   6.587   4.822  0.5976  1.7758 -2.5424
 2494TIP3   OH2 7445   0.324   2.923   2.039 -0.2397  0.1674 -0.2568
 2494TIP3    H1 7446   0.361   2.835   2.050 -1.4016 -0.1118  2.0676
 2494TIP3    H2 7447   0.396   2.982   2.060 -0.3415 -0.3169  1.5867
 2495TIP3   OH2 7448   1.803   0.361   2.159  0.0896 -0.0389 -0.3276
 2495TIP3    H1 7449   1.833   0.388   2.072 -1.9171  1.2947 -0.6733
 2495TIP3    H2 7450   1.710   0.342   2.147  0.1398 -1.4719  1.1986
 2496TIP3   OH2 7451   2.802   0.097   0.924 -0.1413 -0.3064 -0.8523
 2496TIP3    H1 7452   2.783   0.101   1.018  1.2382  1.1426 -0.5906
 2496TIP3    H2 7453   2.783   0.186   0.892 -1.1153 -0.9271 -2.0753
 2497TIP3   OH2 7454   3.792   4.865   2.568  0.5636 -0.2187  0.2222
 2497TIP3    H1 7455   3.769   4.788   2.620  3.5240  0.6197  3.1183
 2497TIP3    H2 7456   3.864   4.836   2.513  1.4823  0.3702  1.0965
 2498TIP3   OH2 7457   0.743   5.129   0.978  0.7804 -0.2437  0.7110
 2498TIP3    H1 7458   0.779   5.080   1.052  0.1771  0.2961  1.3830
 2498TIP3    H2 7459   0.772   5.219   0.992  1.4443 -0.2961 -0.2324
 2499TIP3   OH2 7460   5.961   4.318   3.710  1.0214  0.1850  0.5669
 2499TIP3    H1 7461   5.878   4.357   3.740 -0.3903  0.1932 -2.8985
 2499TIP3    H2 7462   6.009   4.390   3.670  1.2216 -0.4380 -0.3413
 2500TIP3   OH2 7463   1.475   3.032   0.981 -0.0710  0.4044 -0.5361
 2500TIP3    H1 7464   1.504   3.112   0.937 -1.1416  0.8251 -0.5177
 2500TIP3    H2 7465   1.453   3.061   1.070  0.0392 -0.0225 -0.3677
 2501TIP3   OH2 7466   5.963   1.468   1.417 -0.3035 -0.0405  0.3307
 2501TIP3    H1 7467   5.898   1.407   1.451 -1.1019  0.5537 -0.1072
 2501TIP3    H2 7468   5.956   1.460   1.321  0.1187  0.1875  0.2770
 2502TIP3   OH2 7469   1.095   6.768   4.281  0.5318  0.0468  0.0152
 2502TIP3    H1 7470   1.041   6.702   4.323  0.2994  0.9386  1.1618
 2502TIP3    H2 7471   1.179   6.724   4.265 -0.4370 -1.3091 -1.6784
 2503TIP3   OH2 7472   6.732   0.905   1.765  0.2950 -0.4867  0.5818
 2503TIP3    H1 7473   6.794   0.894   1.693 -1.1584 -0.1750 -0.7761
 2503TIP3    H2 7474   6.758   0.987   1.807  1.5688 -1.0116  0.8516
 2504TIP3   OH2 7475   4.664   2.836   5.252  0.2121  0.2603  0.1934
 2504TIP3    H1 7476   4.630   2.922   5.226  1.5252  0.6805 -0.2168
 2504TIP3    H2 7477   4.587   2.779   5.253 -0.9807  1.7816  2.1225
 2505TIP3   OH2 7478   1.962   0.648   3.257 -0.3969  0.2068  0.4060
 2505TIP3    H1 7479   1.935   0.629   3.347  0.3074  0.1513  0.6145
 2505TIP3    H2 7480   2.049   0.687   3.266 -0.2054 -0.0410 -0.2673
 2506TIP3   OH2 7481   2.200   0.649   3.046  0.7858 -0.1505  0.3801
 2506TIP3    H1 7482   2.113   0.619   3.071  1.2715 -0.7485  1.3797
 2506TIP3    H2 7483   2.234   0.694   3.123  1.5690 -0.3660  0.1706
 2507TIP3   OH2 7484   1.970   1.897   4.276 -0.7049 -0.5411 -0.5095
 2507TIP3    H1 7485   2.048   1.842   4.289 -0.0811  0.6919  1.2465
 2507TIP3    H2 7486   1.979   1.968   4.339 -3.5574 -0.6564  0.1827
 2508TIP3   OH2 7487   2.518   5.121   5.289 -0.2088 -0.4146 -0.5710
 2508TIP3    H1 7488   2.460   5.196   5.279  1.7531  1.4480  1.0248
 2508TIP3    H2 7489   2.464   5.053   5.328 -2.3257 -0.3058 -3.0572
 2509TIP3   OH2 7490   0.757   3.319   3.337 -0.1804  0.3751  0.1584
 2509TIP3    H1 7491   0.748   3.320   3.241 -1.3332 -0.5923  0.2406
 2509TIP3    H2 7492   0.677   3.361   3.369 -0.8493 -1.2757  0.7386
 2510TIP3   OH2 7493   4.925   1.397   4.409  0.2164  0.6271  0.1106
 2510TIP3    H1 7494   5.000   1.378   4.353 -0.1228  0.3375 -0.2565
 2510TIP3    H2 7495   4.963   1.417   4.494  0.7387  1.0212 -0.2072
 2511TIP3   OH2 7496   7.075   2.241   4.960 -0.5010 -0.6070  0.7770
 2511TIP3    H1 7497   6.999   2.189   4.986  0.8150 -3.5118 -0.6939
 2511TIP3    H2 7498   7.143   2.219   5.023 -0.5328  1.2642  1.5368
 2512TIP3   OH2 7499   3.086   4.511   4.716 -0.4130  0.1512  0.7218
 2512TIP3    H1 7500   3.013   4.565   4.748  0.6425  1.3089  1.2977
 2512TIP3    H2 7501   3.161   4.570   4.719  0.2284 -0.4842 -1.5483
 2513TIP3   OH2 7502   5.733   5.887   0.235  0.0488 -0.2182  0.1669
 2513TIP3    H1 7503   5.736   5.799   0.273 -0.5423 -0.2881  0.0640
 2513TIP3    H2 7504   5.715   5.872   0.142 -2.3510  0.0608  0.5194
 2514TIP3   OH2 7505   4.882   5.680   2.724 -0.0695 -0.2729  0.0914
 2514TIP3    H1 7506   4.845   5.592   2.716  0.7547 -0.5710 -0.6334
 2514TIP3    H2 7507   4.970   5.667   2.758 -0.1063  0.3167  0.4365
 2515TIP3   OH2 7508   0.861   3.587   3.737  0.1936 -0.4081 -0.3947
 2515TIP3    H1 7509   0.931   3.645   3.768  0.6077 -0.3838 -1.3169
 2515TIP3    H2 7510   0.908   3.511   3.702 -0.3637 -1.5406  1.2416
 2516TIP3   OH2 7511   4.692   2.997   0.844  0.5198 -0.0752  0.5194
 2516TIP3    H1 7512   4.692   2.918   0.898 -0.3502 -0.3188  0.1869
 2516TIP3    H2 7513   4.641   3.061   0.894  1.9676  0.5923  1.2008
 2517TIP3   OH2 7514   0.645   5.462   3.355  0.5889 -0.2217  0.1498
 2517TIP3    H1 7515   0.613   5.423   3.273 -3.1650  0.4881  1.0655
 2517TIP3    H2 7516   0.672   5.387   3.408  1.4925 -0.8164 -1.1044
 2518TIP3   OH2 7517   6.093   0.836   5.561  0.0571  0.4423  0.1112
 2518TIP3    H1 7518   6.167   0.871   5.611  0.4392 -1.2846  0.8356
 2518TIP3    H2 7519   6.022   0.828   5.625  0.5921 -1.9197  0.5041
 2519TIP3   OH2 7520   3.308   1.741   1.842  0.3111  0.8595  0.1387
 2519TIP3    H1 7521   3.256   1.751   1.762 -0.3871 -1.0609  0.3133
 2519TIP3    H2 7522   3.397   1.759   1.814 -0.2845  3.8467 -0.2502
 2520TIP3   OH2 7523   5.590   4.738   1.887 -0.1055  0.3877  0.2133
 2520TIP3    H1 7524   5.516   4.695   1.929  0.1831 -1.5505 -1.1282
 2520TIP3    H2 7525   5.655   4.747   1.957 -0.4403 -0.7713  0.6889
 2521TIP3   OH2 7526   4.731   5.434   2.157 -0.2311  0.0847 -0.6503
 2521TIP3    H1 7527   4.728   5.520   2.114 -0.4473  0.2054 -0.3970
 2521TIP3    H2 7528   4.780   5.450   2.238 -0.1063 -0.0716 -0.6947
 2522TIP3   OH2 7529   4.483   5.157   5.663 -0.1994  0.0268  0.6331
 2522TIP3    H1 7530   4.538   5.220   5.709 -0.4747  0.6503  0.1074
 2522TIP3    H2 7531   4.439   5.207   5.595 -0.4653 -0.7175  0.2409
 2523TIP3   OH2 7532   1.965   5.195   2.525 -0.3148  0.1318 -0.1230
 2523TIP3    H1 7533   1.971   5.113   2.475 -0.0214 -0.1071  0.2951
 2523TIP3    H2 7534   1.872   5.213   2.530 -0.3245  0.5377 -1.3539
 2524TIP3   OH2 7535   0.553   2.956   3.207  0.1820  0.2871  0.2176
 2524TIP3    H1 7536   0.481   2.984   3.264  0.4227  0.1940  0.5732
 2524TIP3    H2 7537   0.554   3.022   3.137 -1.7025 -0.9529 -1.0811
 2525TIP3   OH2 7538   4.332   1.081   3.328 -0.1490 -0.0110  0.1534
 2525TIP3    H1 7539   4.312   1.123   3.244  0.1303  0.6415  0.4093
 2525TIP3    H2 7540   4.352   1.153   3.387  0.1215 -0.4936  0.6632
 2526TIP3   OH2 7541   4.000   0.944   0.537 -0.6701 -0.0680  0.0396
 2526TIP3    H1 7542   4.004   1.016   0.475 -1.9240 -0.3605 -0.4068
 2526TIP3    H2 7543   4.004   0.865   0.482 -1.8450 -0.3296  0.3104
 2527TIP3   OH2 7544   5.434   5.024   3.041  0.1636 -0.1985  0.3578
 2527TIP3    H1 7545   5.407   4.938   3.010  2.0053 -0.8902  0.5666
 2527TIP3    H2 7546   5.527   5.030   3.020  0.0812  1.7774  0.2970
 2528TIP3   OH2 7547   2.088   6.569   4.938 -0.1107  0.4494 -0.3893
 2528TIP3    H1 7548   2.088   6.549   5.032 -0.8391 -1.8997 -0.8357
 2528TIP3    H2 7549   2.154   6.511   4.901  0.1656  1.3572 -1.3758
 2529TIP3   OH2 7550   4.231   5.692   4.618  0.1747 -0.3937 -0.8858
 2529TIP3    H1 7551   4.281   5.656   4.691 -1.6191 -0.4795  0.3654
 2529TIP3    H2 7552   4.290   5.685   4.543  1.6435 -1.4058  0.2991
 2530TIP3   OH2 7553   1.779   6.186   0.374  0.0495 -0.5562 -0.8019
 2530TIP3    H1 7554   1.867   6.183   0.336  1.0324 -1.7521  1.3774
 2530TIP3    H2 7555   1.794   6.185   0.469 -2.2750  1.4639 -0.3103
 2531TIP3   OH2 7556   1.728   3.040   4.030 -0.0329 -0.2644  0.1830
 2531TIP3    H1 7557   1.714   2.946   4.044 -1.1359  0.0184  1.1051
 2531TIP3    H2 7558   1.655   3.082   4.075  1.7283  1.1446  1.8952
 2532TIP3   OH2 7559   5.860   1.340   1.957  0.0776 -0.3922 -0.2639
 2532TIP3    H1 7560   5.894   1.357   2.045 -1.2147 -0.4542  0.2695
 2532TIP3    H2 7561   5.928   1.290   1.914  0.6404 -0.5522  0.7809
 2533TIP3   OH2 7562   6.947   3.249   1.727  0.5058  0.0794 -0.1145
 2533TIP3    H1 7563   6.913   3.269   1.640 -0.1918 -0.7888 -0.0515
 2533TIP3    H2 7564   7.030   3.204   1.710  0.2378 -0.3307 -0.3351
 2534TIP3   OH2 7565   2.371   2.955   4.208 -0.0655 -0.4111 -0.1381
 2534TIP3    H1 7566   2.427   2.949   4.130  3.9122  0.9839  2.2843
 2534TIP3    H2 7567   2.373   3.047   4.232 -2.3321 -0.5763  0.9461
 2535TIP3   OH2 7568   6.578   4.373   3.420  0.3368 -0.1460  0.3155
 2535TIP3    H1 7569   6.667   4.362   3.455  0.5377  0.0352 -0.1327
 2535TIP3    H2 7570   6.566   4.468   3.415  1.0956 -0.1288 -2.0413
 2536TIP3   OH2 7571   3.645   4.592   3.526  0.2473  0.2388 -0.3442
 2536TIP3    H1 7572   3.655   4.635   3.611  0.1126  1.7753 -1.0671
 2536TIP3    H2 7573   3.714   4.526   3.525 -1.5859 -1.9254  2.1239
 2537TIP3   OH2 7574   5.083   0.771   0.832  0.4036  0.4950  0.0129
 2537TIP3    H1 7575   5.089   0.866   0.833  1.0393  0.4626 -0.1535
 2537TIP3    H2 7576   5.174   0.741   0.838  0.3686 -0.0899 -1.8339
 2538TIP3   OH2 7577   7.070   0.483   5.736  0.5743  0.5078  0.3432
 2538TIP3    H1 7578   7.165   0.473   5.742  0.6981  1.4470  0.1024
 2538TIP3    H2 7579   7.057   0.550   5.669 -0.2519  0.6450  0.6265
 2539TIP3   OH2 7580   1.567   6.246   4.666  0.2877 -0.3343  0.2655
 2539TIP3    H1 7581   1.521   6.252   4.582  0.2385  1.1169  0.3726
 2539TIP3    H2 7582   1.598   6.335   4.683  1.3094 -0.8529  1.2312
 2540TIP3   OH2 7583   0.157   4.300   1.117 -0.0150 -0.2810  0.2834
 2540TIP3    H1 7584   0.175   4.365   1.185  0.8233 -0.2373  0.0376
 2540TIP3    H2 7585   0.100   4.236   1.159 -2.4791  1.5910 -0.0431
 2541TIP3   OH2 7586   2.424   4.576   1.129 -0.0828 -0.1509  0.1970
 2541TIP3    H1 7587   2.461   4.561   1.216  1.4021  0.7985 -0.2272
 2541TIP3    H2 7588   2.432   4.491   1.085 -0.9997 -0.6811  1.0224
 2542TIP3   OH2 7589   1.522   2.108   2.119  0.3382 -0.1222  0.1405
 2542TIP3    H1 7590   1.614   2.079   2.123  0.0160 -1.1052  1.3760
 2542TIP3    H2 7591   1.494   2.087   2.030  1.2506 -0.0036 -0.1893
 2543TIP3   OH2 7592   5.071   5.799   0.753 -0.2003  0.0042  0.6514
 2543TIP3    H1 7593   5.026   5.733   0.699 -0.8880  0.3533  0.7952
 2543TIP3    H2 7594   5.072   5.761   0.841 -1.7857  0.7404  1.0197
 2544TIP3   OH2 7595   6.833   5.116   4.193  0.0052  0.4593 -0.0678
 2544TIP3    H1 7596   6.745   5.078   4.199 -0.3828  1.4483  1.0468
 2544TIP3    H2 7597   6.860   5.102   4.103 -0.8077 -0.9154 -0.1267
 2545TIP3   OH2 7598   6.208   3.582   2.209 -0.3296 -0.2743 -0.1365
 2545TIP3    H1 7599   6.282   3.634   2.241  0.3907 -2.4773  2.1020
 2545TIP3    H2 7600   6.248   3.512   2.158 -0.9858 -0.8237  0.0975
 2546TIP3   OH2 7601   6.772   0.930   2.446  0.1320 -0.0276 -0.3946
 2546TIP3    H1 7602   6.776   0.885   2.361  0.0317 -1.7689  0.4802
 2546TIP3    H2 7603   6.757   1.022   2.424 -0.4174 -0.5215 -2.2531
 2547TIP3   OH2 7604   2.805   0.752   4.396  0.7072  0.1117 -0.9572
 2547TIP3    H1 7605   2.869   0.822   4.410  0.3924  0.2514 -0.1782
 2547TIP3    H2 7606   2.721   0.791   4.422  0.2074  0.1033 -2.4588
 2548TIP3   OH2 7607   3.513   2.891   3.502 -0.0348 -0.5345  0.2874
 2548TIP3    H1 7608   3.467   2.807   3.504 -1.6965  0.3279  0.4230
 2548TIP3    H2 7609   3.472   2.942   3.572  1.2301  0.2623  0.4755
 2549TIP3   OH2 7610   3.896   3.299   4.957  0.5726  0.4262  0.0132
 2549TIP3    H1 7611   3.822   3.254   4.916  0.3121 -0.1607  1.1038
 2549TIP3    H2 7612   3.878   3.392   4.945  0.9570  0.2904 -2.0074
 2550TIP3   OH2 7613   3.477   0.115   2.804  0.5982 -0.5643 -0.7808
 2550TIP3    H1 7614   3.477   0.198   2.851  0.3827 -1.9598  1.8355
 2550TIP3    H2 7615   3.566   0.106   2.771  1.1357 -0.1197  0.4868
 2551TIP3   OH2 7616   5.635   4.999   2.051  0.2198  0.1061  0.2439
 2551TIP3    H1 7617   5.694   5.065   2.014  0.6531  0.1142  0.9370
 2551TIP3    H2 7618   5.692   4.924   2.070 -0.0538 -0.0180  0.5924
 2552TIP3   OH2 7619   1.751   2.302   1.161  0.1864 -0.4338  0.4252
 2552TIP3    H1 7620   1.846   2.314   1.161  0.3605 -1.6613  0.1640
 2552TIP3    H2 7621   1.718   2.371   1.104  1.2125 -1.8343 -2.0228
 2553TIP3   OH2 7622   6.993   3.514   0.810 -0.2987  0.2395 -0.9600
 2553TIP3    H1 7623   6.924   3.578   0.829 -0.9702 -0.7997  0.2363
 2553TIP3    H2 7624   7.045   3.510   0.890  2.4361  2.4266 -2.4433
 2554TIP3   OH2 7625   3.408   2.617   3.532 -0.2884  0.5805 -0.3189
 2554TIP3    H1 7626   3.437   2.568   3.609 -0.9343  0.8080  0.0829
 2554TIP3    H2 7627   3.387   2.550   3.467  0.1269  0.3799 -0.2474
 2555TIP3   OH2 7628   5.404   4.472   1.068 -0.3396  0.0323  0.0200
 2555TIP3    H1 7629   5.462   4.481   1.144  0.4140 -0.7944 -0.4420
 2555TIP3    H2 7630   5.437   4.536   1.005 -0.5898  0.2970  0.1563
 2556TIP3   OH2 7631   4.319   6.344   3.665 -0.3533 -0.7535  0.0378
 2556TIP3    H1 7632   4.377   6.271   3.687 -0.9313 -1.2789 -0.1669
 2556TIP3    H2 7633   4.298   6.332   3.573  0.0650  0.0459 -0.1710
 2557TIP3   OH2 7634   1.832   0.501   2.545  0.1331  0.7019 -0.1195
 2557TIP3    H1 7635   1.915   0.541   2.521  0.4457 -0.0866 -0.4072
 2557TIP3    H2 7636   1.833   0.416   2.501  1.2495 -1.3768  3.4499
 2558TIP3   OH2 7637   6.687   6.323   0.398  0.2082  0.1439 -0.0988
 2558TIP3    H1 7638   6.768   6.345   0.445 -0.3334 -0.8338  1.3915
 2558TIP3    H2 7639   6.716   6.280   0.318  1.1665  0.6699 -0.0454
 2559TIP3   OH2 7640   2.043   5.815   2.932  0.3559  0.0719 -0.1325
 2559TIP3    H1 7641   2.075   5.812   2.841 -1.1805  1.7209 -0.7966
 2559TIP3    H2 7642   2.122   5.830   2.984  1.2124 -0.4119 -1.2385
 2560TIP3   OH2 7643   0.041   4.199   2.689 -0.0439  0.2301  0.4980
 2560TIP3    H1 7644   0.102   4.209   2.762 -0.3173 -0.5300  0.8393
 2560TIP3    H2 7645   0.055   4.277   2.635  0.3476  0.6690  1.2216
 2561TIP3   OH2 7646   5.711   0.365   2.606 -0.4855  0.2842 -0.4577
 2561TIP3    H1 7647   5.780   0.332   2.548  0.2650  0.6572  0.2036
 2561TIP3    H2 7648   5.730   0.325   2.690  1.2897  3.3137  0.7667
 2562TIP3   OH2 7649   6.877   3.641   0.271  0.5301  0.5105 -0.1878
 2562TIP3    H1 7650   6.936   3.667   0.342  1.6643  0.0742 -0.9413
 2562TIP3    H2 7651   6.902   3.698   0.198  1.7027 -1.2484 -1.2506
 2563TIP3   OH2 7652   0.841   6.175   4.890 -0.0314  0.2494  0.7439
 2563TIP3    H1 7653   0.898   6.146   4.961  2.5107  0.5689 -1.0282
 2563TIP3    H2 7654   0.901   6.200   4.820 -2.4025 -0.6073 -1.7718
 2564TIP3   OH2 7655   6.851   0.726   4.684  0.0374  0.8122 -0.4209
 2564TIP3    H1 7656   6.854   0.729   4.780  0.4040  0.3679 -0.4139
 2564TIP3    H2 7657   6.851   0.817   4.657 -0.6729  0.9466  0.0201
 2565TIP3   OH2 7658   3.780   6.737   0.648  0.5810  0.1221 -0.0739
 2565TIP3    H1 7659   3.765   6.831   0.637 -1.3987  0.2030  2.4279
 2565TIP3    H2 7660   3.837   6.729   0.724 -0.6854 -0.6852  0.8399
 2566TIP3   OH2 7661   3.754   1.454   0.169 -0.1608 -0.0417 -0.0300
 2566TIP3    H1 7662   3.786   1.447   0.259 -0.3216  0.4158  0.0654
 2566TIP3    H2 7663   3.779   1.371   0.128  1.2167  0.3330  0.0201
 2567TIP3   OH2 7664   3.743   2.362   2.719 -0.5317  0.4387  0.3507
 2567TIP3    H1 7665   3.788   2.291   2.673 -1.2743  0.5584 -0.5904
 2567TIP3    H2 7666   3.657   2.326   2.741 -0.6383  0.7979  0.5258
 2568TIP3   OH2 7667   6.686   2.982   0.806 -0.3735 -0.0161 -0.5041
 2568TIP3    H1 7668   6.706   2.906   0.861 -1.8717 -0.8438 -1.0402
 2568TIP3    H2 7669   6.708   2.954   0.717  0.4684  0.7182 -0.5316
 2569TIP3   OH2 7670   0.305   1.909   2.632  0.3180  0.2779 -0.2561
 2569TIP3    H1 7671   0.398   1.931   2.641  0.1087  1.3440 -0.5664
 2569TIP3    H2 7672   0.288   1.850   2.706  0.6253  2.2190  1.4449
 2570TIP3   OH2 7673   1.352   2.811   4.506  0.5117  0.2520 -0.3724
 2570TIP3    H1 7674   1.411   2.739   4.483  0.1488 -0.2645  0.2674
 2570TIP3    H2 7675   1.410   2.882   4.531  0.8931 -0.6712  1.5393
 2571TIP3   OH2 7676   1.521   3.648   3.638 -0.7540  0.4017 -0.7234
 2571TIP3    H1 7677   1.540   3.554   3.640  1.4437  0.8048  0.1449
 2571TIP3    H2 7678   1.430   3.653   3.608 -0.7728 -1.9621 -1.2929
 2572TIP3   OH2 7679   1.029   3.604   1.445  0.6603 -0.1687  0.0881
 2572TIP3    H1 7680   1.011   3.518   1.484  1.9355 -0.8751 -0.7914
 2572TIP3    H2 7681   0.965   3.611   1.373  0.4024 -0.2685  0.3043
 2573TIP3   OH2 7682   1.672   6.062   3.722 -0.7388 -0.4202  0.1055
 2573TIP3    H1 7683   1.666   6.089   3.631  0.1891 -0.7004 -0.0524
 2573TIP3    H2 7684   1.593   6.010   3.737 -0.7091 -0.6941 -0.6478
 2574TIP3   OH2 7685   6.846   4.279   2.944  0.3259 -0.2283  0.2398
 2574TIP3    H1 7686   6.896   4.200   2.964  2.7003  1.3369  0.9727
 2574TIP3    H2 7687   6.845   4.284   2.848 -0.6408 -1.5685  0.1591
 2575TIP3   OH2 7688   1.057   5.447   3.737 -0.3551  0.0629 -0.1014
 2575TIP3    H1 7689   0.976   5.489   3.707  0.3310  0.9800 -0.7029
 2575TIP3    H2 7690   1.044   5.434   3.831 -1.1474  0.3226 -0.1677
 2576TIP3   OH2 7691   1.156   3.448   0.897 -0.4424  0.3525 -0.0524
 2576TIP3    H1 7692   1.191   3.389   0.963 -0.1174  0.3169 -0.2520
 2576TIP3    H2 7693   1.191   3.414   0.814 -0.3059  0.7847 -0.1743
 2577TIP3   OH2 7694   3.621   0.892   4.457  0.0467  0.0311  0.1044
 2577TIP3    H1 7695   3.636   0.798   4.466 -1.6622 -0.3647 -0.7978
 2577TIP3    H2 7696   3.639   0.911   4.365 -0.9787  0.2976 -0.0547
 2578TIP3   OH2 7697   0.062   0.852   1.429 -0.1549  0.5570 -0.0588
 2578TIP3    H1 7698   0.002   0.925   1.411 -1.2637 -0.5004 -0.8159
 2578TIP3    H2 7699   0.015   0.774   1.399  1.3088 -0.3989  0.0134
 2579TIP3   OH2 7700   6.340   3.055   0.930  0.3841  0.1773  0.0199
 2579TIP3    H1 7701   6.367   2.994   0.862 -1.8713 -0.4134 -0.4410
 2579TIP3    H2 7702   6.385   3.025   1.009  0.7746 -0.9266 -0.6090
 2580TIP3   OH2 7703   3.670   6.781   0.286 -0.0945  0.0814 -0.7133
 2580TIP3    H1 7704   3.626   6.754   0.205 -2.9007 -0.4098  0.8241
 2580TIP3    H2 7705   3.683   6.699   0.334 -0.5982  0.5639  0.2784
 2581TIP3   OH2 7706   6.627   5.417   2.674  0.3964  0.2779  0.6032
 2581TIP3    H1 7707   6.699   5.407   2.613 -1.4398 -0.3569 -1.6059
 2581TIP3    H2 7708   6.582   5.496   2.645 -1.8770 -1.3109 -0.5184
 2582TIP3   OH2 7709   5.941   4.566   3.172  0.2562  0.4624 -0.0223
 2582TIP3    H1 7710   5.868   4.504   3.169  0.5281  0.1712 -1.1944
 2582TIP3    H2 7711   6.005   4.524   3.228 -0.3484  0.5857  0.7804
 2583TIP3   OH2 7712   2.481   0.795   4.165 -0.6961 -0.1811  0.1051
 2583TIP3    H1 7713   2.445   0.724   4.219  1.4774 -1.4489 -0.0209
 2583TIP3    H2 7714   2.569   0.765   4.141 -0.0817  2.1477 -0.7774
 2584TIP3   OH2 7715   5.703   5.981   1.961  0.0735 -0.2582 -0.3673
 2584TIP3    H1 7716   5.713   5.886   1.970  0.4080 -0.1712  0.2641
 2584TIP3    H2 7717   5.612   5.998   1.988  0.5164 -0.2193  1.2074
 2585TIP3   OH2 7718   4.141   0.319   3.603  0.0573  0.5829  0.6258
 2585TIP3    H1 7719   4.079   0.249   3.580 -0.7175  1.3343  0.3751
 2585TIP3    H2 7720   4.103   0.359   3.681 -0.3329  1.7155 -0.1256
 2586TIP3   OH2 7721   1.504   3.652   0.126  0.1309 -0.2364  0.4894
 2586TIP3    H1 7722   1.497   3.594   0.050  0.6792 -0.1179  0.3479
 2586TIP3    H2 7723   1.545   3.731   0.093 -1.3931  0.5917  0.5048
 2587TIP3   OH2 7724   2.194   2.384   4.736 -0.2991  0.2686 -0.5523
 2587TIP3    H1 7725   2.261   2.334   4.689 -0.8095  1.2360 -2.3902
 2587TIP3    H2 7726   2.241   2.421   4.812  0.6412 -0.9977 -0.4860
 2588TIP3   OH2 7727   6.496   6.290   1.228 -0.0366 -0.0487  0.0232
 2588TIP3    H1 7728   6.560   6.266   1.296 -0.0016 -0.1712 -0.0521
 2588TIP3    H2 7729   6.549   6.313   1.152 -0.0000  1.9314  0.6014
 2589TIP3   OH2 7730   0.431   1.444   4.091  0.1298 -0.0102  0.9405
 2589TIP3    H1 7731   0.480   1.466   4.011 -1.5832 -0.9244 -0.4333
 2589TIP3    H2 7732   0.491   1.388   4.141  1.2604  0.6354  0.3477
 2590TIP3   OH2 7733   6.609   0.779   2.930 -0.2276  0.4324 -0.5916
 2590TIP3    H1 7734   6.590   0.688   2.952 -0.4956  0.3940 -0.9704
 2590TIP3    H2 7735   6.524   0.817   2.906 -0.7955  1.7849  2.9817
 2591TIP3   OH2 7736   7.165   6.486   5.019 -0.0349  0.1223  0.3727
 2591TIP3    H1 7737   7.156   6.393   5.038 -0.5377 -0.0653 -0.6838
 2591TIP3    H2 7738   7.259   6.502   5.025 -0.1285  0.0881  2.7977
 2592TIP3   OH2 7739   6.579   0.637   3.797  0.8017 -0.8724  0.2082
 2592TIP3    H1 7740   6.553   0.723   3.763 -0.5088 -0.7396  1.4557
 2592TIP3    H2 7741   6.673   0.631   3.778  0.6176  0.2029 -1.1981
 2593TIP3   OH2 7742   6.356   4.728   1.196 -0.3620  0.0440 -0.3114
 2593TIP3    H1 7743   6.351   4.713   1.290  0.3060  0.8910 -0.1272
 2593TIP3    H2 7744   6.414   4.660   1.164  1.0600  0.9713  0.2110
 2594TIP3   OH2 7745   1.345   2.682   4.108  0.1300 -0.0597 -0.0840
 2594TIP3    H1 7746   1.311   2.597   4.079  0.6324 -0.0976 -0.5824
 2594TIP3    H2 7747   1.267   2.736   4.119 -0.1125  0.8808 -4.3876
 2595TIP3   OH2 7748   1.335   3.476   0.408  0.0342  0.2556 -0.0869
 2595TIP3    H1 7749   1.294   3.432   0.334  2.5274 -2.4088 -0.0644
 2595TIP3    H2 7750   1.419   3.507   0.374  1.0742 -0.7140  1.4769
 2596TIP3   OH2 7751   5.360   3.583   1.097  0.7707  0.0897  0.2478
 2596TIP3    H1 7752   5.325   3.495   1.109  1.4771 -0.2773 -0.3223
 2596TIP3    H2 7753   5.394   3.608   1.183 -0.2769  0.1956  0.6485
 2597TIP3   OH2 7754   0.447   3.986   4.201 -0.1495 -0.0404 -0.3859
 2597TIP3    H1 7755   0.511   3.937   4.253  1.5572  2.4028 -0.0166
 2597TIP3    H2 7756   0.469   3.966   4.110  0.2359 -0.2816 -0.2416
 2598TIP3   OH2 7757   3.937   2.013   3.706  0.3177 -0.3551 -0.2613
 2598TIP3    H1 7758   3.945   1.917   3.709 -2.3049 -0.6361  1.5333
 2598TIP3    H2 7759   3.859   2.028   3.653 -0.2295  0.6739  0.8051
 2599TIP3   OH2 7760   4.723   4.919   1.261 -0.3367  0.9123  0.0714
 2599TIP3    H1 7761   4.688   4.873   1.337 -0.4985  0.3241 -0.3571
 2599TIP3    H2 7762   4.667   4.997   1.252 -0.8882  0.5161  0.0157
 2600TIP3   OH2 7763   1.867   5.699   1.261  0.1904 -0.0104 -0.0044
 2600TIP3    H1 7764   1.807   5.695   1.336 -0.7148 -0.5563 -0.7436
 2600TIP3    H2 7765   1.880   5.792   1.246  1.0857  0.1159  1.3765
 2601TIP3   OH2 7766   4.757   2.057   1.766  0.1112 -0.7963  0.3970
 2601TIP3    H1 7767   4.741   2.124   1.699  1.8909 -0.5930  0.1198
 2601TIP3    H2 7768   4.670   2.028   1.792 -0.6807  0.8583 -0.2527
 2602TIP3   OH2 7769   3.306   4.260   4.117 -0.3181  0.1233 -0.0584
 2602TIP3    H1 7770   3.353   4.220   4.043  0.9183  0.1547  0.6713
 2602TIP3    H2 7771   3.262   4.186   4.159  2.4556 -0.7044  1.6450
 2603TIP3   OH2 7772   1.908   2.126   0.721 -0.3615 -0.7055 -0.1082
 2603TIP3    H1 7773   1.983   2.075   0.753 -0.7450  0.3290  2.7610
 2603TIP3    H2 7774   1.850   2.133   0.797 -1.3369  2.1879 -0.9915
 2604TIP3   OH2 7775   2.709   5.255   0.112  0.3817 -0.5909  0.1298
 2604TIP3    H1 7776   2.700   5.333   0.056  0.6502 -0.4594  0.2680
 2604TIP3    H2 7777   2.803   5.236   0.111  0.2983 -1.0086 -0.0284
 2605TIP3   OH2 7778   5.401   4.782   2.921 -0.0139 -0.0473  0.7390
 2605TIP3    H1 7779   5.461   4.719   2.961  0.2803  0.6546  1.4382
 2605TIP3    H2 7780   5.424   4.782   2.829  0.7767 -0.1063  0.9281
 2606TIP3   OH2 7781   0.602   3.194   4.268 -0.0783 -0.2634  0.2965
 2606TIP3    H1 7782   0.512   3.226   4.264 -0.2817 -0.9838 -1.4984
 2606TIP3    H2 7783   0.655   3.268   4.239 -0.2167 -0.2903 -0.0272
 2607TIP3   OH2 7784   6.893   6.375   5.870  0.3630  0.0117  0.1887
 2607TIP3    H1 7785   6.906   6.284   5.896 -0.5209 -0.8811 -2.2102
 2607TIP3    H2 7786   6.958   6.391   5.802 -1.1288  0.2737 -1.2589
 2608TIP3   OH2 7787   2.078   5.253   1.047 -0.6816 -0.1623 -0.0256
 2608TIP3    H1 7788   2.022   5.246   1.125 -0.2152 -2.1326  0.2018
 2608TIP3    H2 7789   2.167   5.248   1.082 -0.3259  2.0097 -0.4688
 2609TIP3   OH2 7790   6.654   2.978   5.539  0.2038  0.2905  1.1310
 2609TIP3    H1 7791   6.691   2.913   5.480  0.4906  1.6289 -0.2415
 2609TIP3    H2 7792   6.729   3.031   5.567 -0.2515  1.1589  0.7541
 2610TIP3   OH2 7793   2.079   4.917   3.823  0.3373  0.1886 -0.1382
 2610TIP3    H1 7794   1.998   4.868   3.806  0.3445  0.9727 -2.9602
 2610TIP3    H2 7795   2.052   5.009   3.820  1.2684  0.4508 -0.7579
 2611TIP3   OH2 7796   3.562   5.549   1.945  0.2382 -0.2491  0.4587
 2611TIP3    H1 7797   3.502   5.600   1.892  0.7812  0.9515  0.9671
 2611TIP3    H2 7798   3.515   5.532   2.027  1.0752  2.0212  1.4901
 2612TIP3   OH2 7799   4.396   4.450   4.993  0.3421  0.1074  0.7551
 2612TIP3    H1 7800   4.429   4.437   5.082 -1.6272 -0.5152  1.4646
 2612TIP3    H2 7801   4.301   4.435   5.001  0.2498 -1.0972 -1.6498
 2613TIP3   OH2 7802   5.489   4.966   3.305 -0.3305 -0.0146  0.2095
 2613TIP3    H1 7803   5.469   5.004   3.219 -0.4674  0.5202  0.4752
 2613TIP3    H2 7804   5.427   4.894   3.315  0.2539 -0.6427 -0.5108
 2614TIP3   OH2 7805   4.871   1.172   0.068  0.2414  0.0767 -0.0311
 2614TIP3    H1 7806   4.835   1.214  -0.010 -0.4757  0.3998  0.4610
 2614TIP3    H2 7807   4.945   1.226   0.093  0.5024 -0.0502 -0.5027
 2615TIP3   OH2 7808   3.993   2.220   3.339 -0.1901  0.8069 -0.0962
 2615TIP3    H1 7809   3.982   2.126   3.347 -0.2210  0.7511 -0.6961
 2615TIP3    H2 7810   4.012   2.234   3.246  1.8643  1.1966  0.3260
 2616TIP3   OH2 7811   5.738   5.629   0.822  0.2418 -0.1323  0.4024
 2616TIP3    H1 7812   5.801   5.595   0.759  0.3906  1.8581 -0.6014
 2616TIP3    H2 7813   5.655   5.590   0.797  0.8136 -1.7166  0.8922
 2617TIP3   OH2 7814   0.466   5.869   5.345  0.6348 -0.3187  0.2553
 2617TIP3    H1 7815   0.550   5.829   5.323  1.5227  1.3605  0.4178
 2617TIP3    H2 7816   0.447   5.927   5.271  1.1080  1.4811  1.4659
 2618TIP3   OH2 7817   6.645   4.071   3.262  0.1062 -0.4528  0.1521
 2618TIP3    H1 7818   6.644   4.157   3.220 -0.5546 -0.1263  0.8081
 2618TIP3    H2 7819   6.614   4.011   3.194  0.1687 -0.1094 -0.1824
 2619TIP3   OH2 7820   7.081   1.005   5.011 -0.0683 -0.2778  0.1668
 2619TIP3    H1 7821   7.123   1.060   4.944  1.8623  0.2508  1.7064
 2619TIP3    H2 7822   7.120   0.919   4.999  1.7938  0.2663  1.7429
 2620TIP3   OH2 7823   0.580   6.361   2.500 -0.1522 -0.1258  0.0740
 2620TIP3    H1 7824   0.630   6.280   2.511 -0.2206  0.1081  2.6666
 2620TIP3    H2 7825   0.645   6.430   2.491 -0.0605 -0.2335 -0.0780
 2621TIP3   OH2 7826   7.156   2.842   3.412  0.5038  0.8458  0.3446
 2621TIP3    H1 7827   7.101   2.909   3.451 -0.9941 -0.1463  0.0096
 2621TIP3    H2 7828   7.169   2.871   3.321  2.1770  2.0403  0.9105
 2622TIP3   OH2 7829   1.316   1.384   2.933 -0.6527  0.3513  0.0604
 2622TIP3    H1 7830   1.253   1.442   2.890 -0.8448  0.0045 -0.1295
 2622TIP3    H2 7831   1.305   1.300   2.889  0.1588  0.3659 -0.1698
 2623TIP3   OH2 7832   7.151   3.154   5.087 -0.0428  0.5000 -0.3857
 2623TIP3    H1 7833   7.175   3.081   5.030 -2.5000  0.2663 -1.2190
 2623TIP3    H2 7834   7.232   3.205   5.096  1.1522 -1.0960 -1.6074
 2624TIP3   OH2 7835   6.041   4.665   0.876 -0.0245 -0.6929 -0.1439
 2624TIP3    H1 7836   5.953   4.631   0.894 -0.7518  0.5512 -1.1657
 2624TIP3    H2 7837   6.029   4.722   0.800  1.4311  0.5183  0.4961
 2625TIP3   OH2 7838   5.195   6.570   2.825 -0.3341  0.1597  0.2150
 2625TIP3    H1 7839   5.136   6.517   2.878  1.4858 -0.0969  2.0887
 2625TIP3    H2 7840   5.238   6.508   2.767 -0.7831  0.1316 -0.0943
 2626TIP3   OH2 7841   1.353   3.314   1.910  0.4248 -0.0440  0.3623
 2626TIP3    H1 7842   1.373   3.286   1.821  0.1433  0.0822  0.2589
 2626TIP3    H2 7843   1.422   3.377   1.931  1.5760 -1.4467  0.9167
 2627TIP3   OH2 7844   1.404   0.056   2.068 -0.3401  0.0975  0.0274
 2627TIP3    H1 7845   1.448   0.006   1.999 -1.5908 -1.3710  0.2310
 2627TIP3    H2 7846   1.339  -0.005   2.103 -0.4083  1.1456  1.8358
 2628TIP3   OH2 7847   0.496   3.076   5.174 -0.1140  0.5150 -0.7611
 2628TIP3    H1 7848   0.521   3.119   5.256 -2.1418  1.4091 -0.5421
 2628TIP3    H2 7849   0.428   3.014   5.200 -2.9947  2.8883 -2.0085
 2629TIP3   OH2 7850   2.822   3.446   0.493  0.0275 -0.4106  0.1401
 2629TIP3    H1 7851   2.795   3.458   0.584 -1.1345 -0.7499 -0.1416
 2629TIP3    H2 7852   2.853   3.356   0.489  1.7760  0.1356  0.5833
 2630TIP3   OH2 7853   4.327   2.575   0.263 -0.1672 -0.2900 -0.2108
 2630TIP3    H1 7854   4.364   2.548   0.347 -1.4611 -0.1466  0.4338
 2630TIP3    H2 7855   4.267   2.646   0.285 -2.5871 -1.9953 -0.8360
 2631TIP3   OH2 7856   0.652   1.003   5.549 -0.3670 -0.0087  0.2923
 2631TIP3    H1 7857   0.729   0.960   5.586 -0.1397 -0.1106 -0.2782
 2631TIP3    H2 7858   0.581   0.979   5.608 -0.3050 -1.4512 -0.1570
 2632TIP3   OH2 7859   4.369   2.780   3.033 -0.2749 -0.0297  0.3696
 2632TIP3    H1 7860   4.343   2.777   3.125 -0.4507  0.4299  0.3341
 2632TIP3    H2 7861   4.334   2.699   2.996  0.6126 -0.6978  0.9179
 2633TIP3   OH2 7862   2.892   0.595   5.441  0.1742  0.0685 -0.1560
 2633TIP3    H1 7863   2.980   0.586   5.406 -0.0419  2.8433 -1.6870
 2633TIP3    H2 7864   2.835   0.590   5.363 -0.5279  3.6537 -0.0484
 2634TIP3   OH2 7865   4.983   3.297   5.514  0.5053 -0.0623  0.1891
 2634TIP3    H1 7866   4.961   3.245   5.437 -0.7029 -2.1441  1.8196
 2634TIP3    H2 7867   4.943   3.250   5.587  1.3006  1.9923  2.0774
 2635TIP3   OH2 7868   1.442   4.152   0.341 -0.5400  0.0401 -0.4721
 2635TIP3    H1 7869   1.428   4.247   0.343 -1.2296 -0.0596 -0.2299
 2635TIP3    H2 7870   1.354   4.115   0.342 -0.3082 -0.6499  2.1130
 2636TIP3   OH2 7871   5.462   0.294   0.666 -0.4023  0.5425  0.4798
 2636TIP3    H1 7872   5.470   0.274   0.573  0.4552 -0.2380  0.6982
 2636TIP3    H2 7873   5.377   0.336   0.675 -0.0103  1.6596 -0.8307
 2637TIP3   OH2 7874   0.502   4.919   0.623 -0.9388  0.5145 -0.2428
 2637TIP3    H1 7875   0.581   4.869   0.602  0.1649  2.4588 -0.9185
 2637TIP3    H2 7876   0.507   4.932   0.718 -1.4288 -0.9036  0.0025
 2638TIP3   OH2 7877   6.624   5.385   5.737  0.7298 -0.1764 -0.2317
 2638TIP3    H1 7878   6.704   5.349   5.775 -0.2822 -0.8098  1.3693
 2638TIP3    H2 7879   6.611   5.333   5.657  1.5411 -0.5079 -0.1631
 2639TIP3   OH2 7880   3.464   4.475   4.214 -0.0095  0.3697 -0.1926
 2639TIP3    H1 7881   3.532   4.426   4.260 -0.2621  0.9099  0.7708
 2639TIP3    H2 7882   3.402   4.407   4.186  0.3657 -0.0093 -0.1241
 2640TIP3   OH2 7883   4.245   0.514   4.009  0.3846  0.3107 -0.7382
 2640TIP3    H1 7884   4.188   0.485   4.080  0.3232  0.3644 -0.7650
 2640TIP3    H2 7885   4.185   0.548   3.942  0.3854 -0.4360 -1.1332
 2641TIP3   OH2 7886   0.251   5.059   0.918 -0.1236 -0.3274  0.0642
 2641TIP3    H1 7887   0.342   5.074   0.892 -0.1975 -1.6410 -1.0957
 2641TIP3    H2 7888   0.221   5.143   0.953  1.6067  0.0596  0.7277
 2642TIP3   OH2 7889   3.392   3.714   5.589 -0.2947 -0.0735 -0.2260
 2642TIP3    H1 7890   3.345   3.680   5.513  1.2501  1.2063 -1.8373
 2642TIP3    H2 7891   3.478   3.672   5.585 -0.5069 -0.7493  1.4340
 2643TIP3   OH2 7892   6.154   5.470   1.359  0.2421 -0.6011  0.4564
 2643TIP3    H1 7893   6.092   5.478   1.432  1.0981 -0.6237  1.2095
 2643TIP3    H2 7894   6.105   5.425   1.290 -0.2853 -1.5074  1.3994
 2644TIP3   OH2 7895   5.138   1.515   2.924  0.2747  0.4585 -0.0817
 2644TIP3    H1 7896   5.088   1.542   2.848  2.4000  0.4484 -1.5640
 2644TIP3    H2 7897   5.177   1.596   2.958  0.2815  0.3081  0.2784
 2645TIP3   OH2 7898   3.167   4.511   2.254  0.7503  0.0644 -0.0266
 2645TIP3    H1 7899   3.218   4.492   2.332 -0.7917  0.8527  1.2440
 2645TIP3    H2 7900   3.128   4.427   2.229 -0.5279  0.1886  1.4225
 2646TIP3   OH2 7901   0.105   2.937   2.214 -0.1042  0.2008  1.0608
 2646TIP3    H1 7902   0.098   2.865   2.276 -1.1592  0.8608  1.7312
 2646TIP3    H2 7903   0.171   2.908   2.151 -1.0694 -1.6819  0.8475
 2647TIP3   OH2 7904   0.446   2.747   2.630 -0.3076 -0.0435 -0.0799
 2647TIP3    H1 7905   0.541   2.739   2.619 -0.4434  0.2111 -1.6747
 2647TIP3    H2 7906   0.433   2.746   2.725  1.2506 -0.4585  0.1642
 2648TIP3   OH2 7907   4.540   6.654   2.192  0.3534 -0.1225 -0.0882
 2648TIP3    H1 7908   4.455   6.654   2.237  0.6258 -1.3504  0.4525
 2648TIP3    H2 7909   4.519   6.673   2.101 -0.6193 -1.4138 -0.1562
 2649TIP3   OH2 7910   4.843   3.986   1.157 -0.1350  0.2506 -0.1119
 2649TIP3    H1 7911   4.917   4.019   1.209  1.4232  0.0325 -2.0772
 2649TIP3    H2 7912   4.831   4.051   1.088 -0.8801 -0.4140 -0.6306
 2650TIP3   OH2 7913   6.700   2.951   1.870 -0.3074  0.2424  1.1475
 2650TIP3    H1 7914   6.768   2.885   1.856 -1.1568 -0.5370  0.5355
 2650TIP3    H2 7915   6.743   3.019   1.921  1.2173  0.2586 -0.0712
 2651TIP3   OH2 7916   1.008   3.321   2.611 -0.3125  0.6916 -0.0154
 2651TIP3    H1 7917   0.958   3.275   2.678  0.2901  1.1916  0.7928
 2651TIP3    H2 7918   0.990   3.272   2.530 -1.4845  0.4153  0.3953
 2652TIP3   OH2 7919   4.351   2.872   1.416  0.5624  0.7744 -0.1913
 2652TIP3    H1 7920   4.285   2.812   1.381  0.9238  1.4859 -2.2160
 2652TIP3    H2 7921   4.390   2.824   1.489 -0.5011 -0.6383 -0.4947
 2653TIP3   OH2 7922   0.444   4.992   3.494  0.1817 -0.0062  0.1419
 2653TIP3    H1 7923   0.368   4.962   3.444 -0.3624 -0.1196  1.0153
 2653TIP3    H2 7924   0.488   4.911   3.521 -0.0957  0.0267  0.7000
 2654TIP3   OH2 7925   6.473   1.159   4.949 -0.2233  0.1459  0.2301
 2654TIP3    H1 7926   6.390   1.146   4.994 -0.0255  0.5191  0.7239
 2654TIP3    H2 7927   6.539   1.145   5.017  0.0674  1.1863  0.1847
 2655TIP3   OH2 7928   3.092   5.110   3.370 -0.4843  0.5849 -0.5003
 2655TIP3    H1 7929   3.123   5.185   3.421 -1.9597  0.1165  1.2019
 2655TIP3    H2 7930   2.997   5.116   3.374 -0.6321 -0.9374 -1.0142
 2656TIP3   OH2 7931   4.917   5.436   3.598 -0.1088  0.2512  0.4785
 2656TIP3    H1 7932   4.991   5.496   3.608 -0.8840  1.6979 -1.6583
 2656TIP3    H2 7933   4.853   5.486   3.547 -1.2276 -2.0621 -0.5191
 2657TIP3   OH2 7934   6.872   2.096   2.536  0.3757 -0.2372 -0.5616
 2657TIP3    H1 7935   6.822   2.062   2.463 -0.7139  1.1268 -0.4957
 2657TIP3    H2 7936   6.866   2.028   2.604 -0.7532 -0.4300 -0.8358
 2658TIP3   OH2 7937   3.866   3.434   2.352 -0.0647  0.5657 -0.0953
 2658TIP3    H1 7938   3.928   3.502   2.324  1.7400 -0.6745  0.7183
 2658TIP3    H2 7939   3.859   3.376   2.276 -0.5842  0.9316 -0.3336
 2659TIP3   OH2 7940   0.280   1.651   0.145 -0.1012 -0.0927 -0.4239
 2659TIP3    H1 7941   0.317   1.649   0.057  1.2393  1.3251  0.0684
 2659TIP3    H2 7942   0.229   1.732   0.148  0.8617  0.5108  0.4484
 2660TIP3   OH2 7943   0.416   5.877   5.858 -0.1691  0.0140 -0.5833
 2660TIP3    H1 7944   0.366   5.954   5.887  1.4234  0.7276  0.3858
 2660TIP3    H2 7945   0.441   5.897   5.768 -0.6268  0.1511 -0.6867
 2661TIP3   OH2 7946   1.376   4.604   2.099  0.0649  0.3574 -0.7644
 2661TIP3    H1 7947   1.281   4.592   2.102  0.0800  0.1747 -1.0050
 2661TIP3    H2 7948   1.389   4.683   2.047  0.1409 -1.0128 -2.9569
 2662TIP3   OH2 7949   4.355   2.382   0.925 -0.7238 -0.3762  0.1645
 2662TIP3    H1 7950   4.410   2.304   0.923  0.7093  0.5726  1.0653
 2662TIP3    H2 7951   4.274   2.355   0.881 -0.1248 -2.2410  0.1167
 2663TIP3   OH2 7952   3.918   2.077   4.664 -0.0433  0.6526 -0.4123
 2663TIP3    H1 7953   3.872   2.151   4.623  0.1615  1.6781  1.1037
 2663TIP3    H2 7954   3.952   2.113   4.746  2.3111 -0.4333 -0.8353
 2664TIP3   OH2 7955   1.698   4.127   4.166  0.1276  0.0676  0.5356
 2664TIP3    H1 7956   1.662   4.213   4.186 -0.9019 -0.3299  0.4060
 2664TIP3    H2 7957   1.651   4.098   4.088  1.1346 -0.2160  0.0108
 2665TIP3   OH2 7958   4.711   1.343   3.756  0.0771 -0.0144 -0.3711
 2665TIP3    H1 7959   4.790   1.317   3.803  0.9631  2.4654 -0.2979
 2665TIP3    H2 7960   4.661   1.262   3.745  0.8442 -1.0805  2.8642
 2666TIP3   OH2 7961   4.700   6.016   4.971  0.2851 -0.1638  0.5424
 2666TIP3    H1 7962   4.731   6.047   5.056 -1.4218  0.0234  1.1324
 2666TIP3    H2 7963   4.709   6.092   4.914  2.4142 -0.5768  0.2364
 2667TIP3   OH2 7964   0.262   5.238   5.546  0.0233  0.0260  0.2635
 2667TIP3    H1 7965   0.260   5.199   5.458  0.6104 -0.3426  0.4116
 2667TIP3    H2 7966   0.279   5.164   5.604 -1.5038  0.0794  0.8064
 2668TIP3   OH2 7967   2.838   3.093   1.340  0.3763  1.0296 -0.3923
 2668TIP3    H1 7968   2.863   3.133   1.256 -0.3640  4.2222  0.7835
 2668TIP3    H2 7969   2.894   3.136   1.405 -0.5495  0.2052  0.9917
 2669TIP3   OH2 7970   6.323   4.602   4.228  0.5948  0.1899  0.0362
 2669TIP3    H1 7971   6.302   4.537   4.161 -1.4851 -0.9749  1.6856
 2669TIP3    H2 7972   6.389   4.560   4.282 -0.6727 -0.6039  1.0392
 2670TIP3   OH2 7973   5.435   0.776   2.799  0.2988  0.0820 -0.4787
 2670TIP3    H1 7974   5.377   0.810   2.731  0.8061 -0.1762 -1.0561
 2670TIP3    H2 7975   5.452   0.851   2.856 -1.2186 -0.0284  0.1606
 2671TIP3   OH2 7976   6.590   1.382   3.950 -0.0185  0.4485 -0.1737
 2671TIP3    H1 7977   6.561   1.381   3.858 -0.1809 -0.8524 -0.1284
 2671TIP3    H2 7978   6.547   1.459   3.988 -1.3956 -0.0047 -0.7519
 2672TIP3   OH2 7979   7.086   2.066   5.703 -0.4002 -0.3979  0.4637
 2672TIP3    H1 7980   7.082   1.973   5.681 -2.5209 -0.4211  0.7911
 2672TIP3    H2 7981   7.013   2.105   5.656 -0.2691  0.9118  1.2953
 2673TIP3   OH2 7982   0.324   1.301   5.833 -0.5140  0.1835  0.3659
 2673TIP3    H1 7983   0.306   1.384   5.879  0.1536  0.0895  0.8167
 2673TIP3    H2 7984   0.288   1.314   5.745  0.5476  1.3728  0.0716
 2674TIP3   OH2 7985   4.134   0.486   2.816  0.5202  0.0611 -0.5004
 2674TIP3    H1 7986   4.092   0.404   2.839  0.6220 -0.1292 -0.9883
 2674TIP3    H2 7987   4.065   0.539   2.777 -0.3524  1.4264  2.5777
 2675TIP3   OH2 7988   5.832   2.995   1.258  0.3489 -0.2489 -0.0048
 2675TIP3    H1 7989   5.795   3.055   1.323 -1.8287 -0.3918 -1.0494
 2675TIP3    H2 7990   5.927   3.009   1.264 -0.0451  3.1338 -0.0592
 2676TIP3   OH2 7991   4.145   0.339   4.760 -0.1697  0.0454 -0.3649
 2676TIP3    H1 7992   4.210   0.272   4.783 -0.4557 -0.4928 -1.0766
 2676TIP3    H2 7993   4.197   0.414   4.732  0.1562  0.1614  0.5322
 2677TIP3   OH2 7994   6.205   2.560   2.914  0.0522  0.0600 -0.5378
 2677TIP3    H1 7995   6.230   2.652   2.911  0.6705 -0.0143  1.4280
 2677TIP3    H2 7996   6.267   2.519   2.973  0.2305 -1.8103 -1.9061
 2678TIP3   OH2 7997   1.976   4.537   4.397  0.3567  0.1700 -0.5800
 2678TIP3    H1 7998   1.930   4.498   4.470  1.3946 -0.9781 -0.5057
 2678TIP3    H2 7999   2.044   4.591   4.437 -1.2286  2.3716 -0.6734
 2679TIP3   OH2 8000   5.841   5.975   3.086  0.2595  0.1581 -0.7429
 2679TIP3    H1 8001   5.849   6.045   3.151  1.1382  0.6983 -1.4166
 2679TIP3    H2 8002   5.760   5.929   3.110 -1.5504  2.7006 -1.5510
 2680TIP3   OH2 8003   1.546   0.017   3.628 -0.6305 -0.0875  0.0653
 2680TIP3    H1 8004   1.535   0.093   3.570  3.2915  0.3003 -0.3992
 2680TIP3    H2 8005   1.577   0.054   3.710  1.1786 -1.1268 -0.1117
 2681TIP3   OH2 8006   5.889   4.906   3.555  0.1364 -0.2385  0.8773
 2681TIP3    H1 8007   5.846   4.821   3.543 -0.7935  0.2597  0.5645
 2681TIP3    H2 8008   5.963   4.904   3.494 -0.8256 -0.2171 -0.3338
 2682TIP3   OH2 8009   1.674   2.540   2.381  0.0706 -0.3755  0.0674
 2682TIP3    H1 8010   1.613   2.514   2.449 -0.3890  0.0262 -0.1863
 2682TIP3    H2 8011   1.704   2.458   2.342 -0.5687 -0.5656 -0.0337
 2683TIP3   OH2 8012   5.482   6.245   4.693 -0.2458  0.2227 -0.4272
 2683TIP3    H1 8013   5.452   6.164   4.652 -1.2760  0.1536  0.4054
 2683TIP3    H2 8014   5.577   6.238   4.695 -0.2469 -0.3553 -1.5702
 2684TIP3   OH2 8015   4.967   3.084   2.003  0.5381  0.6904 -0.2939
 2684TIP3    H1 8016   4.910   3.156   2.031  1.2914  0.7190  1.3245
 2684TIP3    H2 8017   5.055   3.111   2.029  0.7447 -1.1531  1.2157
 2685TIP3   OH2 8018   0.598   2.237   1.929  0.3532  0.2313 -0.4616
 2685TIP3    H1 8019   0.595   2.241   2.024 -1.3039 -0.2938 -0.4514
 2685TIP3    H2 8020   0.684   2.202   1.909  0.6605  0.1913  0.8516
 2686TIP3   OH2 8021   5.847   1.914   0.845 -0.1528 -0.1255 -0.0405
 2686TIP3    H1 8022   5.807   1.888   0.762 -1.2191  0.4083  0.3014
 2686TIP3    H2 8023   5.941   1.919   0.825 -0.4919  1.0964 -1.5057
 2687TIP3   OH2 8024   1.393   1.132   4.028 -0.4634  0.4509 -0.5493
 2687TIP3    H1 8025   1.361   1.213   4.067 -0.7378  0.4560 -0.7776
 2687TIP3    H2 8026   1.361   1.063   4.086 -0.8035  0.4634 -0.7191
 2688TIP3   OH2 8027   0.320   0.070   3.466 -0.0080 -0.1231  0.0369
 2688TIP3    H1 8028   0.397   0.020   3.493  0.1165  0.0968  0.0943
 2688TIP3    H2 8029   0.316   0.143   3.529 -1.3784 -1.1868  1.2479
 2689TIP3   OH2 8030   1.354   6.744   3.436 -0.4230  0.2581  0.2276
 2689TIP3    H1 8031   1.426   6.695   3.477 -0.4541  0.2570  0.2810
 2689TIP3    H2 8032   1.372   6.739   3.343 -0.0464  0.7410  0.2759
 2690TIP3   OH2 8033   4.520   3.092   5.260 -0.0002  0.2621  0.2669
 2690TIP3    H1 8034   4.456   3.112   5.328  0.8310  0.8559  0.9003
 2690TIP3    H2 8035   4.574   3.171   5.254  0.7167 -0.2536 -0.1984
 2691TIP3   OH2 8036   7.155   5.247   5.770 -0.4368  0.1081 -0.4029
 2691TIP3    H1 8037   7.243   5.283   5.782 -0.0098 -1.2041  0.4983
 2691TIP3    H2 8038   7.116   5.250   5.857  0.3278 -3.3645  0.1827
 2692TIP3   OH2 8039   3.580   4.680   2.204  0.1363  0.5207 -0.9629
 2692TIP3    H1 8040   3.487   4.698   2.217  0.1517  0.5167 -0.8438
 2692TIP3    H2 8041   3.614   4.758   2.160 -0.2133 -0.0632 -2.3073
 2693TIP3   OH2 8042   1.488   2.445   3.815 -0.1840 -0.5086 -0.5571
 2693TIP3    H1 8043   1.395   2.422   3.812 -0.2957 -0.0495 -0.6325
 2693TIP3    H2 8044   1.492   2.534   3.780  0.1887 -0.2296  0.1753
 2694TIP3   OH2 8045   6.777   3.929   1.878  0.4771  0.2288  0.8364
 2694TIP3    H1 8046   6.825   3.927   1.961  1.0842 -0.3911  0.4884
 2694TIP3    H2 8047   6.712   3.859   1.887  0.8818 -0.1810  0.5995
 2695TIP3   OH2 8048   4.591   0.895   5.185  0.0388 -0.1383  0.3863
 2695TIP3    H1 8049   4.550   0.809   5.199  0.8389 -0.7117 -0.6605
 2695TIP3    H2 8050   4.681   0.874   5.160  0.3774  1.0352  0.5882
 2696TIP3   OH2 8051   2.664   4.916   2.320 -0.3245 -0.0943  0.1645
 2696TIP3    H1 8052   2.669   5.004   2.282  1.0271  0.0052  0.4976
 2696TIP3    H2 8053   2.715   4.922   2.401 -1.9267 -0.6802  1.2732
 2697TIP3   OH2 8054   0.660   5.891   4.079 -0.8733 -0.3996 -0.5495
 2697TIP3    H1 8055   0.676   5.951   4.153 -0.3768 -1.6412  0.3905
 2697TIP3    H2 8056   0.589   5.932   4.030  0.5159  1.7728 -0.8804
 2698TIP3   OH2 8057   5.596   2.633   0.615  0.5027  0.8048  0.0164
 2698TIP3    H1 8058   5.549   2.709   0.649  0.6181  1.0787 -0.4249
 2698TIP3    H2 8059   5.560   2.619   0.528  0.0713 -0.0084  0.3091
 2699TIP3   OH2 8060   0.531   3.827   1.564  0.1980 -0.0656  0.4619
 2699TIP3    H1 8061   0.510   3.920   1.559  1.1326  0.1075 -0.6072
 2699TIP3    H2 8062   0.505   3.792   1.479  0.7998 -0.5751  0.4789
 2700TIP3   OH2 8063   1.785   2.784   2.054 -0.2538  0.5348 -0.1489
 2700TIP3    H1 8064   1.701   2.787   2.100  0.0144 -1.7397  0.6119
 2700TIP3    H2 8065   1.777   2.709   1.995  1.2439  0.2595 -0.0310
 2701TIP3   OH2 8066   4.794   0.796   2.154  1.0633 -0.0908 -0.1284
 2701TIP3    H1 8067   4.874   0.848   2.145  1.2109  0.1802  2.2621
 2701TIP3    H2 8068   4.767   0.809   2.245 -1.0494 -1.1400 -0.5483
 2702TIP3   OH2 8069   6.219   3.157   3.206  0.2477 -0.3591 -0.1167
 2702TIP3    H1 8070   6.295   3.104   3.184  0.9485  0.4371  0.3148
 2702TIP3    H2 8071   6.165   3.101   3.262  0.5965 -0.8697 -0.2922
 2703TIP3   OH2 8072   2.576   0.451   4.062  0.4168  0.3619 -0.6850
 2703TIP3    H1 8073   2.592   0.451   4.156  2.7276 -2.0785 -0.9932
 2703TIP3    H2 8074   2.630   0.523   4.029  1.1318 -0.0285 -0.3689
 2704TIP3   OH2 8075   2.293   3.675   3.068 -0.1377 -0.7769 -0.3279
 2704TIP3    H1 8076   2.377   3.708   3.037  0.1474 -0.2868  0.9120
 2704TIP3    H2 8077   2.313   3.590   3.108  0.0343 -0.0668  1.1784
 2705TIP3   OH2 8078   5.381   0.388   4.001 -0.1385 -0.8858  0.0061
 2705TIP3    H1 8079   5.403   0.296   4.012  1.0850 -0.6776 -0.4225
 2705TIP3    H2 8080   5.463   0.434   4.019 -1.2668  0.3084  2.5125
 2706TIP3   OH2 8081   6.065   3.720   1.369  0.3870  0.3981 -0.3112
 2706TIP3    H1 8082   6.160   3.709   1.361  0.3664  1.2053 -2.6644
 2706TIP3    H2 8083   6.034   3.720   1.278 -1.5659  2.4208  0.2586
 2707TIP3   OH2 8084   4.869   6.479   0.490  0.5490 -0.2353 -0.3408
 2707TIP3    H1 8085   4.854   6.384   0.486  0.4382 -0.2496  0.3929
 2707TIP3    H2 8086   4.882   6.504   0.398 -0.2827 -0.8197 -0.6346
 2708TIP3   OH2 8087   2.529   1.067   5.469 -0.6073  0.0874  0.3455
 2708TIP3    H1 8088   2.594   1.081   5.537 -1.9705  1.8323  1.3786
 2708TIP3    H2 8089   2.573   1.095   5.388  0.4480 -0.3537  0.7431
 2709TIP3   OH2 8090   0.510   2.726   2.891 -0.2551  0.1483 -0.0520
 2709TIP3    H1 8091   0.605   2.732   2.907 -0.2865  0.1981  0.1234
 2709TIP3    H2 8092   0.479   2.663   2.956 -0.4948  0.8963  0.5736
 2710TIP3   OH2 8093   2.033   5.110   5.667 -0.1406 -0.1265  0.0284
 2710TIP3    H1 8094   1.978   5.107   5.745  0.9707  0.5679  0.8704
 2710TIP3    H2 8095   2.001   5.186   5.618  0.1329  0.3479  0.5741
 2711TIP3   OH2 8096   6.750   1.886   3.744 -0.2403 -0.2107 -0.5855
 2711TIP3    H1 8097   6.842   1.909   3.736 -0.1536 -0.3300  0.0085
 2711TIP3    H2 8098   6.720   1.932   3.822 -1.1503  1.2439 -1.7535
 2712TIP3   OH2 8099   5.017   0.604   0.594  0.2641 -0.0620 -0.2660
 2712TIP3    H1 8100   4.922   0.595   0.600  0.3272 -1.2874 -0.8441
 2712TIP3    H2 8101   5.039   0.668   0.662 -0.8348 -0.7169  0.7539
 2713TIP3   OH2 8102   6.691   4.283   3.758  0.3404  0.1625 -0.0393
 2713TIP3    H1 8103   6.640   4.327   3.691  0.6252 -1.1411 -1.1701
 2713TIP3    H2 8104   6.640   4.205   3.780 -0.1460  0.9717  1.8904
 2714TIP3   OH2 8105   2.130   4.499   0.249 -0.0129  0.1370 -0.1682
 2714TIP3    H1 8106   2.068   4.507   0.321 -0.8265  0.3190 -0.8601
 2714TIP3    H2 8107   2.128   4.585   0.206  2.5130  0.9587  1.1719
 2715TIP3   OH2 8108   7.047   5.514   1.045 -0.7095 -0.1371 -0.7762
 2715TIP3    H1 8109   6.989   5.590   1.033 -1.3677 -0.2977  1.0891
 2715TIP3    H2 8110   7.008   5.466   1.118  0.7933 -1.2311 -0.6638
 2716TIP3   OH2 8111   3.723   2.938   5.414  0.4448 -0.1525  0.2820
 2716TIP3    H1 8112   3.645   2.938   5.359  1.5474  1.1048 -1.3559
 2716TIP3    H2 8113   3.771   2.859   5.389  0.0316 -0.5960  0.8489
 2717TIP3   OH2 8114   3.232   2.493   3.806  0.0911 -0.3118  0.5885
 2717TIP3    H1 8115   3.218   2.515   3.898 -0.4512 -2.4708  1.0849
 2717TIP3    H2 8116   3.322   2.520   3.787  1.4551 -2.8622  2.7879
 2718TIP3   OH2 8117   6.181   4.795   3.561 -0.3543 -0.0709 -0.5007
 2718TIP3    H1 8118   6.170   4.874   3.614 -2.4748 -0.5291 -0.2011
 2718TIP3    H2 8119   6.164   4.825   3.471 -2.5880 -0.4068 -0.2391
 2719TIP3   OH2 8120   4.811   1.892   2.622  0.0601  0.1731 -0.3319
 2719TIP3    H1 8121   4.778   1.885   2.532  0.5602  1.2626 -0.6265
 2719TIP3    H2 8122   4.876   1.963   2.618  1.5485 -1.0816  0.4783
 2720TIP3   OH2 8123   6.954   6.673   0.663 -0.1894  0.4128 -0.2473
 2720TIP3    H1 8124   6.972   6.733   0.591 -1.4164  0.3101 -0.6765
 2720TIP3    H2 8125   7.039   6.634   0.685  0.6499  2.3761  0.1401
 2721TIP3   OH2 8126   4.811   3.020   1.459 -0.5939 -0.0098 -0.3773
 2721TIP3    H1 8127   4.822   3.061   1.545 -0.5411 -1.2097  0.2092
 2721TIP3    H2 8128   4.900   3.013   1.424 -0.6749  1.1064 -0.8532
 2722TIP3   OH2 8129   2.010   1.027   2.702  0.6730  0.3477 -0.5087
 2722TIP3    H1 8130   1.965   1.093   2.650  1.1590  0.6289 -0.5733
 2722TIP3    H2 8131   2.095   1.066   2.723  0.6920  0.0224  0.0391
 2723TIP3   OH2 8132   0.065   3.362   3.336 -0.1069 -0.2175  0.4219
 2723TIP3    H1 8133   0.070   3.384   3.243 -0.3120 -0.9103  0.2389
 2723TIP3    H2 8134   0.106   3.436   3.381 -0.4812  0.3675 -0.1868
 2724TIP3   OH2 8135   1.810   2.294   1.999 -0.2895 -0.2978 -0.0169
 2724TIP3    H1 8136   1.774   2.318   2.085  0.6767  2.7081 -0.3069
 2724TIP3    H2 8137   1.867   2.219   2.016  1.1740  1.2093  2.3933
 2725TIP3   OH2 8138   4.945   4.389   0.170 -0.5208  0.0270  0.4987
 2725TIP3    H1 8139   4.938   4.410   0.077 -0.7855 -0.3411  0.4333
 2725TIP3    H2 8140   4.988   4.303   0.172  1.8640  1.1403  0.8056
 2726TIP3   OH2 8141   1.458   1.207   2.347  0.2116  0.1100  0.7716
 2726TIP3    H1 8142   1.473   1.115   2.324  0.6863  0.2094  0.6753
 2726TIP3    H2 8143   1.544   1.248   2.337 -0.3388  0.9375 -0.9183
 2727TIP3   OH2 8144   3.595   5.798   4.191 -0.7665 -0.0633 -0.4876
 2727TIP3    H1 8145   3.555   5.767   4.272  0.4323 -2.0625 -0.6141
 2727TIP3    H2 8146   3.603   5.893   4.203 -1.3856 -0.2191  1.3630
 2728TIP3   OH2 8147   2.076   4.437   2.156 -0.3579 -0.0513 -0.2058
 2728TIP3    H1 8148   2.124   4.478   2.228  0.6397  0.0682 -0.9103
 2728TIP3    H2 8149   2.028   4.508   2.114  1.8266  0.6044 -1.7890
 2729TIP3   OH2 8150   2.624   5.693   2.993  0.4200  0.4488 -0.3766
 2729TIP3    H1 8151   2.573   5.700   3.073  0.6826  1.5036 -0.2912
 2729TIP3    H2 8152   2.714   5.676   3.023  0.0366 -2.3187 -0.5424
 2730TIP3   OH2 8153   0.960   2.836   5.246  0.2650 -0.6251 -0.1192
 2730TIP3    H1 8154   0.964   2.932   5.256  3.0965 -0.6053 -0.4910
 2730TIP3    H2 8155   0.940   2.824   5.153  1.5703 -0.3100 -0.4690
 2731TIP3   OH2 8156   0.575   6.746   2.522  0.4684 -0.0067  0.1833
 2731TIP3    H1 8157   0.660   6.702   2.519 -1.3208 -3.7195 -1.6372
 2731TIP3    H2 8158   0.535   6.728   2.437 -3.0549 -0.4139  1.7639
 2732TIP3   OH2 8159   1.218   4.409   3.570  0.0042 -0.4445  0.1453
 2732TIP3    H1 8160   1.209   4.456   3.487  1.3769 -1.0656 -0.3954
 2732TIP3    H2 8161   1.207   4.476   3.637  0.9801  0.4978 -0.5926
 2733TIP3   OH2 8162   0.938   1.668   5.837 -0.0298 -0.3368 -0.9519
 2733TIP3    H1 8163   0.851   1.679   5.875  0.0703 -0.7934 -0.5847
 2733TIP3    H2 8164   0.923   1.619   5.756  0.0580 -2.0400  0.0236
 2734TIP3   OH2 8165   6.615   6.687   3.642  0.1432 -0.2731 -0.0194
 2734TIP3    H1 8166   6.581   6.635   3.715  2.4214 -0.8661  0.6886
 2734TIP3    H2 8167   6.536   6.721   3.599 -1.4499 -3.2742  0.2144
 2735TIP3   OH2 8168   6.707   4.391   1.396  0.0840 -0.0943  0.8018
 2735TIP3    H1 8169   6.689   4.465   1.453  2.2609  0.2610  1.1213
 2735TIP3    H2 8170   6.631   4.334   1.405 -1.9883  2.3696  0.0351
 2736TIP3   OH2 8171   2.241   2.861   1.703 -0.0347 -0.1250 -0.3088
 2736TIP3    H1 8172   2.201   2.794   1.758 -2.7246  0.5056 -1.3042
 2736TIP3    H2 8173   2.246   2.938   1.759  0.7827 -0.4741  0.1164
 2737TIP3   OH2 8174   7.040   3.280   4.271 -0.5980 -0.1233  0.3684
 2737TIP3    H1 8175   7.030   3.210   4.207 -2.0915  0.8868 -0.5533
 2737TIP3    H2 8176   7.029   3.361   4.222  0.9229  0.8130  1.4389
 2738TIP3   OH2 8177   5.554   5.275   4.734 -0.4172  0.1410  0.1423
 2738TIP3    H1 8178   5.486   5.301   4.797 -1.3772  0.2498 -0.9115
 2738TIP3    H2 8179   5.585   5.358   4.697 -1.5484 -0.0158 -1.2355
 2739TIP3   OH2 8180   2.271   0.998   5.737  0.0180 -0.0090  0.4332
 2739TIP3    H1 8181   2.307   0.910   5.744 -1.1893 -0.5158  0.6148
 2739TIP3    H2 8182   2.210   1.005   5.810 -1.5339  0.1539 -0.8033
 2740TIP3   OH2 8183   0.156   0.486   4.170  0.1764  0.4267  0.0973
 2740TIP3    H1 8184   0.183   0.429   4.243  0.1175  2.5395  1.8999
 2740TIP3    H2 8185   0.134   0.570   4.213  1.0434  2.0696 -2.4665
 2741TIP3   OH2 8186   4.079   1.665   1.337 -0.1694 -0.3968 -0.1666
 2741TIP3    H1 8187   4.151   1.624   1.385 -0.5713 -1.0178 -0.0861
 2741TIP3    H2 8188   4.003   1.657   1.396 -0.6819 -1.2271 -0.9252
 2742TIP3   OH2 8189   2.646   1.498   2.951  0.2694  0.3046  0.3409
 2742TIP3    H1 8190   2.630   1.407   2.926  0.1388  0.2950  0.4599
 2742TIP3    H2 8191   2.740   1.501   2.969  0.0552 -0.1525  1.7154
 2743TIP3   OH2 8192   1.912   6.753   4.858 -0.0322  0.1559  0.3838
 2743TIP3    H1 8193   1.834   6.701   4.877 -0.7141  1.1366  0.3942
 2743TIP3    H2 8194   1.985   6.694   4.874 -0.7704 -0.7858  0.3929
 2744TIP3   OH2 8195   3.205   4.755   1.350 -0.1956 -0.2262 -0.4836
 2744TIP3    H1 8196   3.198   4.663   1.323 -1.9475 -0.1203 -0.4987
 2744TIP3    H2 8197   3.127   4.771   1.402  0.7943  0.8989  0.7266
 2745TIP3   OH2 8198   0.154   5.700   0.606 -0.2720  0.4631  0.1860
 2745TIP3    H1 8199   0.084   5.760   0.578 -0.3727  0.6046  0.7251
 2745TIP3    H2 8200   0.108   5.621   0.632 -0.2977  0.7713  1.1278
 2746TIP3   OH2 8201   1.310   3.826   3.915 -0.7252 -0.1375  0.4610
 2746TIP3    H1 8202   1.373   3.797   3.981  0.1324 -1.1577 -0.7620
 2746TIP3    H2 8203   1.262   3.746   3.892 -1.2942  0.2904  0.1315
 2747TIP3   OH2 8204   3.601   1.387   2.928 -0.6445 -0.5353  0.1528
 2747TIP3    H1 8205   3.519   1.408   2.971 -1.5632 -1.7524 -0.9321
 2747TIP3    H2 8206   3.576   1.333   2.852  1.2219 -2.1203  0.5773
 2748TIP3   OH2 8207   0.123   5.641   3.977 -0.3215 -0.0615 -0.1164
 2748TIP3    H1 8208   0.130   5.619   4.069  0.4022  0.8134  0.0546
 2748TIP3    H2 8209   0.196   5.594   3.936  0.1769  0.6096 -0.0195
 2749TIP3   OH2 8210   1.232   2.942   0.887  0.4064  0.0354 -0.3724
 2749TIP3    H1 8211   1.309   2.993   0.914  0.5923  0.2239 -1.2372
 2749TIP3    H2 8212   1.266   2.853   0.875  1.2021  0.6666 -3.6490
 2750TIP3   OH2 8213   7.146   1.619   5.349 -0.0885 -0.0120  0.1156
 2750TIP3    H1 8214   7.176   1.709   5.362 -1.2623  0.5694 -0.9873
 2750TIP3    H2 8215   7.218   1.576   5.303  0.0488  0.6839 -0.3381
 2751TIP3   OH2 8216   2.315   3.709   3.981 -0.1300  0.5136  0.6290
 2751TIP3    H1 8217   2.324   3.768   4.056 -0.9709 -0.6895  1.7202
 2751TIP3    H2 8218   2.397   3.660   3.980 -0.0825  0.5889  0.7091
 2752TIP3   OH2 8219   5.357   5.830   0.947 -0.2661  0.3630 -0.4109
 2752TIP3    H1 8220   5.279   5.804   0.997 -0.4625 -0.1961 -0.9787
 2752TIP3    H2 8221   5.423   5.850   1.013 -0.3262 -0.9446  0.0779
 2753TIP3   OH2 8222   6.748   1.203   5.103 -0.2093  0.1143  0.1011
 2753TIP3    H1 8223   6.843   1.210   5.096  0.1130  0.1558  3.0338
 2753TIP3    H2 8224   6.714   1.264   5.038  1.7704  0.5090 -0.6262
 2754TIP3   OH2 8225   6.971   0.893   0.093 -0.0597  0.2747 -0.4479
 2754TIP3    H1 8226   6.913   0.943   0.036 -0.9550  1.4318  1.3736
 2754TIP3    H2 8227   7.046   0.950   0.107 -0.2854  0.4064  0.2692
 2755TIP3   OH2 8228   4.569   5.962   4.131  0.0240 -0.3302 -0.1465
 2755TIP3    H1 8229   4.494   5.996   4.081  0.2593  2.4454  1.1952
 2755TIP3    H2 8230   4.531   5.938   4.215  0.4897  0.4021  0.2824
 2756TIP3   OH2 8231   4.949   2.092   5.050  0.7588  0.1739 -0.5718
 2756TIP3    H1 8232   4.919   2.065   5.137  0.3541 -0.0329 -0.7717
 2756TIP3    H2 8233   4.890   2.165   5.026  0.7080  0.0677 -0.7746
 2757TIP3   OH2 8234   1.706   3.562   4.490  0.5792  0.2581 -0.3015
 2757TIP3    H1 8235   1.724   3.511   4.569  0.9779 -0.2635 -0.7126
 2757TIP3    H2 8236   1.787   3.609   4.472  0.1030  1.3113  0.2605
 2758TIP3   OH2 8237   1.212   2.058   2.924  0.1906 -0.1775 -0.2950
 2758TIP3    H1 8238   1.281   2.090   2.867  1.1059 -1.3095  0.1246
 2758TIP3    H2 8239   1.132   2.099   2.891  0.9472  0.5776 -1.2567
 2759TIP3   OH2 8240   1.877   4.115   0.594 -0.6720 -0.1317 -0.1674
 2759TIP3    H1 8241   1.824   4.190   0.567  1.5742  1.6993  0.1951
 2759TIP3    H2 8242   1.932   4.148   0.665 -1.6794 -2.9907  2.1937
 2760TIP3   OH2 8243   1.668   0.721   3.844 -0.2049  0.2390 -0.1038
 2760TIP3    H1 8244   1.674   0.812   3.872 -1.3066  0.0940  0.7003
 2760TIP3    H2 8245   1.759   0.692   3.837  0.2741  2.0826 -2.8358
 2761TIP3   OH2 8246   2.936   5.218   0.664 -0.3227  0.0692 -0.3556
 2761TIP3    H1 8247   2.904   5.146   0.609 -1.5788  1.1673 -1.1180
 2761TIP3    H2 8248   2.914   5.192   0.753 -1.4016 -0.1908 -0.6842
 2762TIP3   OH2 8249   4.218   5.692   1.803  0.0505  0.5424  0.2617
 2762TIP3    H1 8250   4.174   5.627   1.748  0.0940 -0.0162  0.8775
 2762TIP3    H2 8251   4.171   5.774   1.785  0.0904  0.3783 -0.6301
 2763TIP3   OH2 8252   4.848   4.368   2.632  0.5881  0.3466 -0.5619
 2763TIP3    H1 8253   4.810   4.285   2.604  0.9334  0.0557 -0.1928
 2763TIP3    H2 8254   4.904   4.395   2.560  1.3605 -0.3207 -0.2215
 2764TIP3   OH2 8255   4.904   3.586   2.151 -0.1142 -0.1869  0.1913
 2764TIP3    H1 8256   4.871   3.581   2.241 -0.7653  0.1984 -0.0277
 2764TIP3    H2 8257   4.836   3.631   2.102 -0.4545 -1.7105 -0.8279
 2765TIP3   OH2 8258   5.871   4.665   2.380 -0.4880 -0.2664 -0.0054
 2765TIP3    H1 8259   5.893   4.605   2.309 -0.1361 -0.0094 -0.1234
 2765TIP3    H2 8260   5.910   4.626   2.458  1.0919  0.5428 -0.3310
 2766TIP3   OH2 8261   0.490   1.696   3.677  0.4019 -0.0140  0.0033
 2766TIP3    H1 8262   0.398   1.707   3.699  0.6710  0.1682  1.1160
 2766TIP3    H2 8263   0.492   1.692   3.581 -0.7035  0.4613 -0.0556
 2767TIP3   OH2 8264   3.446   1.579   1.336  0.5536 -0.1386 -0.5771
 2767TIP3    H1 8265   3.535   1.543   1.347  0.2931 -0.8265 -0.6470
 2767TIP3    H2 8266   3.397   1.543   1.410 -0.1831 -1.4838 -1.6603
 2768TIP3   OH2 8267   5.811   3.529   2.998 -0.0972  0.3458 -0.4056
 2768TIP3    H1 8268   5.756   3.546   3.074  0.1618 -3.6309  0.8777
 2768TIP3    H2 8269   5.895   3.571   3.019 -1.1869  2.6405 -0.3853
 2769TIP3   OH2 8270   4.164   5.775   5.545  0.2721 -0.2832 -0.3307
 2769TIP3    H1 8271   4.075   5.751   5.519  0.3530 -0.2941 -0.6006
 2769TIP3    H2 8272   4.193   5.836   5.478  0.9277 -1.2433 -0.9543
 2770TIP3   OH2 8273   2.659   5.126   2.069 -0.5582 -0.0419 -0.1035
 2770TIP3    H1 8274   2.630   5.049   2.019 -0.5275  0.1158 -0.3660
 2770TIP3    H2 8275   2.654   5.198   2.006  0.8984 -0.1023 -0.3333
 2771TIP3   OH2 8276   4.293   2.557   4.006  0.9295  0.5210 -0.0305
 2771TIP3    H1 8277   4.207   2.538   3.967  1.7467 -0.3233 -1.5083
 2771TIP3    H2 8278   4.292   2.651   4.021 -0.4889  0.4338  0.5975
 2772TIP3   OH2 8279   2.758   3.436   0.773  0.9543 -0.3236  0.1329
 2772TIP3    H1 8280   2.759   3.492   0.850 -1.7619 -1.9052  1.4868
 2772TIP3    H2 8281   2.693   3.475   0.715  2.5087  0.4883 -1.1368
 2773TIP3   OH2 8282   0.386   4.786   5.186  0.3184  0.0328  0.0689
 2773TIP3    H1 8283   0.441   4.860   5.163  1.2735 -0.2224  1.3921
 2773TIP3    H2 8284   0.301   4.806   5.147 -0.2894  3.1983  2.5635
 2774TIP3   OH2 8285   3.231   3.914   3.414 -0.6138 -0.3565  0.2831
 2774TIP3    H1 8286   3.194   3.988   3.366  0.6764 -0.5719 -1.1191
 2774TIP3    H2 8287   3.188   3.917   3.500 -4.2924 -0.9789 -1.3597
 2775TIP3   OH2 8288   2.963   1.876   3.940  0.1804  0.9393  0.0087
 2775TIP3    H1 8289   3.008   1.792   3.928 -0.5613  0.7135 -1.2813
 2775TIP3    H2 8290   2.977   1.897   4.033  1.9309  0.3024 -0.0623
 2776TIP3   OH2 8291   4.123   1.159   3.527  0.0101  0.0533 -0.6586
 2776TIP3    H1 8292   4.203   1.135   3.480 -0.6142 -2.0910 -0.7253
 2776TIP3    H2 8293   4.052   1.144   3.464 -0.6276 -0.3842  0.1402
 2777TIP3   OH2 8294   4.074   4.742   4.134  0.6317 -0.3912 -0.6621
 2777TIP3    H1 8295   4.078   4.691   4.215  1.8821  0.5221 -0.1099
 2777TIP3    H2 8296   3.982   4.766   4.125  0.6160  0.3758  1.0765
 2778TIP3   OH2 8297   5.846   1.573   4.046 -0.1911  0.1885 -0.0298
 2778TIP3    H1 8298   5.888   1.492   4.017 -0.6928 -0.4879  1.0762
 2778TIP3    H2 8299   5.918   1.636   4.049  0.3670 -0.4236 -0.1146
 2779TIP3   OH2 8300   2.019   2.387   4.300  0.6594  0.4083  0.3704
 2779TIP3    H1 8301   2.053   2.448   4.366 -0.0381  0.8269  0.3541
 2779TIP3    H2 8302   2.011   2.303   4.346 -1.0186  0.9858  1.2063
 2780TIP3   OH2 8303   5.066   1.260   0.408 -0.1202  0.4937  0.1865
 2780TIP3    H1 8304   5.045   1.281   0.317  0.9564  1.3190  0.1126
 2780TIP3    H2 8305   4.998   1.303   0.459 -1.0879 -0.4793 -0.2327
 2781TIP3   OH2 8306   7.044   0.683   4.388  0.2228  0.2840 -0.0847
 2781TIP3    H1 8307   7.107   0.611   4.393 -0.3718 -0.2010  0.7401
 2781TIP3    H2 8308   7.087   0.756   4.433 -0.4873 -0.6047  2.2277
 2782TIP3   OH2 8309   6.639   4.787   5.035 -0.4450  0.0631 -0.5422
 2782TIP3    H1 8310   6.710   4.843   5.068 -0.4084 -0.1816 -0.1992
 2782TIP3    H2 8311   6.577   4.782   5.108 -1.0729  0.6972 -1.0164
 2783TIP3   OH2 8312   2.515   4.287   1.081 -0.1401 -0.2444  0.3699
 2783TIP3    H1 8313   2.560   4.210   1.116  1.1900 -0.0959 -0.9509
 2783TIP3    H2 8314   2.424   4.259   1.072  0.2768 -1.5888  0.1447
 2784TIP3   OH2 8315   3.031   4.030   0.852 -0.4787  0.5376  0.4267
 2784TIP3    H1 8316   2.946   3.988   0.833 -0.3976  1.1207 -1.3838
 2784TIP3    H2 8317   3.029   4.112   0.803  0.9665  0.7913  0.7473
 2785TIP3   OH2 8318   0.967   2.980   1.120 -0.1932  0.5420 -0.3811
 2785TIP3    H1 8319   1.053   2.971   1.078 -1.1997 -1.2291 -2.2661
 2785TIP3    H2 8320   0.953   3.074   1.125  0.9256  0.8513 -2.1367
 2786TIP3   OH2 8321   1.729   3.879   0.501  0.0427  0.0236  1.0906
 2786TIP3    H1 8322   1.740   3.933   0.423  1.1207 -0.6986  0.7164
 2786TIP3    H2 8323   1.780   3.924   0.569  1.5880 -0.8787  0.5785
 2787TIP3   OH2 8324   5.066   1.697   0.056 -0.5567 -0.1830  0.3494
 2787TIP3    H1 8325   5.056   1.696   0.152 -0.3216 -0.0745  0.3753
 2787TIP3    H2 8326   5.152   1.658   0.040  1.1093  3.0928  0.4145
 2788TIP3   OH2 8327   6.973   4.042   2.986  0.6364  0.1971  0.2232
 2788TIP3    H1 8328   6.910   3.972   3.001 -0.7490  1.3736  0.2013
 2788TIP3    H2 8329   7.041   4.029   3.053 -0.8904  0.2732  1.8647
 2789TIP3   OH2 8330   3.672   5.300   3.082 -0.4528 -0.3661 -0.4514
 2789TIP3    H1 8331   3.676   5.365   3.012  1.0095 -0.1982 -0.2425
 2789TIP3    H2 8332   3.755   5.252   3.074 -1.4173 -2.0919 -0.4817
 2790TIP3   OH2 8333   1.763   3.018   2.769  0.2246 -0.2652  0.6495
 2790TIP3    H1 8334   1.852   3.051   2.765  0.1902 -0.2247  0.1065
 2790TIP3    H2 8335   1.709   3.096   2.786  0.1875 -0.1015 -0.1721
 2791TIP3   OH2 8336   4.657   4.445   0.223 -0.0850 -0.8108  0.2297
 2791TIP3    H1 8337   4.665   4.470   0.316 -0.2563 -0.5291  0.1712
 2791TIP3    H2 8338   4.745   4.455   0.188 -0.1897 -0.0804  0.1601
 2792TIP3   OH2 8339   2.835   4.468   1.870 -0.0274  0.4631 -0.1967
 2792TIP3    H1 8340   2.916   4.426   1.900  0.0159  0.0319 -0.8937
 2792TIP3    H2 8341   2.794   4.403   1.813 -1.4717  0.1903  1.0666
 2793TIP3   OH2 8342   0.602   4.963   3.059 -0.4687  0.1535 -0.1294
 2793TIP3    H1 8343   0.688   4.988   3.026 -1.0097  0.7215 -1.1654
 2793TIP3    H2 8344   0.618   4.933   3.148  0.6650  1.1774  0.0328
 2794TIP3   OH2 8345   3.846   2.817   0.027  0.0888  0.4854 -0.1430
 2794TIP3    H1 8346   3.854   2.751   0.096 -0.1635  0.4214 -0.1745
 2794TIP3    H2 8347   3.834   2.767  -0.053 -2.5869  0.5519  0.1253
 2795TIP3   OH2 8348   0.777   0.818   2.127  0.7189 -0.3705 -0.3326
 2795TIP3    H1 8349   0.683   0.814   2.107  0.3982  2.8749 -0.1090
 2795TIP3    H2 8350   0.818   0.841   2.044  1.2418 -0.9953 -0.2537
 2796TIP3   OH2 8351   3.741   2.438   0.410 -0.2157  0.4333 -0.2558
 2796TIP3    H1 8352   3.788   2.357   0.388 -0.6622  0.3586 -0.9509
 2796TIP3    H2 8353   3.728   2.432   0.505  0.8126  0.2688 -0.1116
 2797TIP3   OH2 8354   2.651   5.691   1.547  0.5960  0.0684  0.1785
 2797TIP3    H1 8355   2.672   5.773   1.590 -0.6958  0.1189  0.7527
 2797TIP3    H2 8356   2.562   5.670   1.576  1.8469 -3.0321  2.4240
 2798TIP3   OH2 8357   5.317   6.768   1.473  0.0564 -0.0327 -0.7214
 2798TIP3    H1 8358   5.355   6.852   1.447  1.2395 -0.7410 -1.3805
 2798TIP3    H2 8359   5.393   6.714   1.496 -0.6956 -0.8871 -0.1890
 2799TIP3   OH2 8360   6.698   3.710   5.630  0.1953 -0.8013  0.2219
 2799TIP3    H1 8361   6.648   3.667   5.699 -0.7126 -0.1971 -0.0523
 2799TIP3    H2 8362   6.767   3.647   5.608 -1.2846 -2.2905 -0.4003
 2800TIP3   OH2 8363   3.753   1.676   1.981  0.0947 -0.2322 -0.0788
 2800TIP3    H1 8364   3.847   1.676   1.965  0.0120 -1.6107 -0.6523
 2800TIP3    H2 8365   3.721   1.595   1.942 -1.3806  0.3331 -0.1298
 2801TIP3   OH2 8366   1.401   0.541   2.185 -0.8925 -0.2473  0.2489
 2801TIP3    H1 8367   1.448   0.601   2.243 -3.4518  1.1453  1.0785
 2801TIP3    H2 8368   1.454   0.462   2.184  0.4625  0.5202  2.6232
 2802TIP3   OH2 8369   2.995   1.910   5.136  0.3922  0.3404 -0.5989
 2802TIP3    H1 8370   3.054   1.924   5.210 -0.5469  0.0453  0.2446
 2802TIP3    H2 8371   3.052   1.883   5.064  1.2905  0.2041  0.1411
 2803TIP3   OH2 8372   2.552   2.260   3.963  0.4062  0.2335  0.2895
 2803TIP3    H1 8373   2.504   2.237   3.883  0.6509  0.3757  0.0997
 2803TIP3    H2 8374   2.641   2.280   3.933  0.4279  0.5620  0.5608
 2804TIP3   OH2 8375   6.268   0.715   0.898 -0.5029  0.2931 -0.0241
 2804TIP3    H1 8376   6.180   0.749   0.884 -0.9253 -1.1929 -1.2971
 2804TIP3    H2 8377   6.317   0.741   0.820  0.1960  1.0885  0.6640
 2805TIP3   OH2 8378   3.480   4.319   2.963 -0.7453  0.4884  0.2228
 2805TIP3    H1 8379   3.495   4.396   3.018 -1.4972 -0.6483  2.1545
 2805TIP3    H2 8380   3.477   4.246   3.025  1.0196 -1.2965 -1.6244
 2806TIP3   OH2 8381   0.261   0.034   0.216 -0.4918 -0.3095 -0.2294
 2806TIP3    H1 8382   0.302   0.110   0.174  0.4867 -0.6449  0.0841
 2806TIP3    H2 8383   0.174   0.064   0.241 -0.2848  0.5659 -0.5261
 2807TIP3   OH2 8384   1.895   5.981   1.363  0.2917 -0.3089  0.1542
 2807TIP3    H1 8385   1.887   6.043   1.291  0.6094  0.9475  1.1600
 2807TIP3    H2 8386   1.988   5.982   1.386 -0.1394  1.2292  2.1581
 2808TIP3   OH2 8387   1.044   6.553   1.312  0.1663 -0.5800  0.3852
 2808TIP3    H1 8388   1.087   6.638   1.319 -1.9333  0.4817  1.5560
 2808TIP3    H2 8389   1.113   6.489   1.329  1.8039  0.8722 -0.5466
 2809TIP3   OH2 8390   0.493   3.660   3.364  0.4483 -0.2516 -0.2854
 2809TIP3    H1 8391   0.458   3.571   3.367  2.0989 -0.9818 -0.9525
 2809TIP3    H2 8392   0.422   3.716   3.395 -1.4914 -1.5508 -2.0881
 2810TIP3   OH2 8393   0.109   5.539   4.959 -0.0888 -0.5012 -0.1049
 2810TIP3    H1 8394   0.026   5.550   5.005 -0.1478 -1.7065  0.1217
 2810TIP3    H2 8395   0.102   5.595   4.882 -0.4967  0.5669  0.6985
 2811TIP3   OH2 8396   6.187   0.167   4.908  0.5132  0.2356 -0.5066
 2811TIP3    H1 8397   6.109   0.119   4.878 -0.2280  0.2273  1.2906
 2811TIP3    H2 8398   6.259   0.129   4.859 -0.6847  0.8893 -2.9532
 2812TIP3   OH2 8399   0.235   6.071   4.583 -0.0531 -0.2178 -0.0619
 2812TIP3    H1 8400   0.295   6.035   4.518 -0.4752 -0.1796 -0.4820
 2812TIP3    H2 8401   0.288   6.083   4.661  0.9136  1.4597 -0.9249
 2813TIP3   OH2 8402   6.133   3.113   3.482 -0.0770 -0.2012  0.5449
 2813TIP3    H1 8403   6.133   3.208   3.472 -1.4785  0.0793  2.6622
 2813TIP3    H2 8404   6.209   3.095   3.537 -0.5886 -0.1284  1.2909
 2814TIP3   OH2 8405   0.102   3.247   5.761 -0.2986  0.1384  0.6484
 2814TIP3    H1 8406   0.116   3.152   5.764  1.0440  0.3083  0.1938
 2814TIP3    H2 8407   0.060   3.267   5.845  0.5633 -0.6882  1.2972
 2815TIP3   OH2 8408   3.927   4.773   3.453  0.2232  0.2282 -0.9506
 2815TIP3    H1 8409   3.933   4.852   3.399  1.7855 -0.1657 -1.3783
 2815TIP3    H2 8410   4.004   4.777   3.510 -1.7853  1.0959  1.9702
 2816TIP3   OH2 8411   2.459   2.856   3.514  0.3310  0.4312 -0.3141
 2816TIP3    H1 8412   2.423   2.787   3.458 -0.1218  0.6070 -0.2432
 2816TIP3    H2 8413   2.389   2.920   3.521  0.4670  0.5234  0.2681
 2817TIP3   OH2 8414   5.252   0.703   1.581 -0.0188 -0.4556 -0.0552
 2817TIP3    H1 8415   5.189   0.718   1.510  0.0505  1.2590  0.2111
 2817TIP3    H2 8416   5.232   0.615   1.612  0.5489 -1.6525 -2.7950
 2818TIP3   OH2 8417   1.026   0.704   5.546  0.2247  0.2298  0.6847
 2818TIP3    H1 8418   1.080   0.651   5.605  0.6473  2.1022  2.0402
 2818TIP3    H2 8419   0.954   0.735   5.601 -0.7209  0.0625 -0.4177
 2819TIP3   OH2 8420   1.837   3.432   4.168 -0.3698 -0.5144 -0.5734
 2819TIP3    H1 8421   1.854   3.397   4.256  2.3656 -0.4992 -1.0268
 2819TIP3    H2 8422   1.899   3.387   4.111 -0.4485  1.1782 -2.0945
 2820TIP3   OH2 8423   2.639   1.539   0.363 -0.5691  0.3729  0.4606
 2820TIP3    H1 8424   2.554   1.495   0.364  0.9338 -2.8451  1.1319
 2820TIP3    H2 8425   2.646   1.576   0.275 -2.4472  0.3183  0.2431
 2821TIP3   OH2 8426   0.574   3.971   3.342 -0.2092  0.1519  0.3334
 2821TIP3    H1 8427   0.515   3.931   3.405 -0.1387  0.7092  0.7651
 2821TIP3    H2 8428   0.641   4.014   3.396  0.3955 -0.1795 -0.1395
 2822TIP3   OH2 8429   6.721   4.206   1.919  0.1208 -0.5145  0.3543
 2822TIP3    H1 8430   6.687   4.153   1.847  0.2989  2.4507 -2.1162
 2822TIP3    H2 8431   6.816   4.199   1.912  0.2195  1.4002 -1.1924
 2823TIP3   OH2 8432   3.639   0.268   3.926  0.3483 -0.4838  0.1299
 2823TIP3    H1 8433   3.647   0.355   3.965 -2.0505 -0.5945  1.0759
 2823TIP3    H2 8434   3.675   0.209   3.991  1.8122 -0.2475 -0.4351
 2824TIP3   OH2 8435   4.703   2.708   4.919 -0.1356  0.1651 -0.3110
 2824TIP3    H1 8436   4.662   2.685   5.002 -0.7488 -0.7795 -0.8590
 2824TIP3    H2 8437   4.636   2.690   4.853 -0.2605  2.5002 -0.9082
 2825TIP3   OH2 8438   5.233   5.090   4.024  0.0022 -0.1351  0.2927
 2825TIP3    H1 8439   5.326   5.081   4.005  0.0212  0.1593  0.2450
 2825TIP3    H2 8440   5.228   5.096   4.120  0.1839  1.5104  0.2232
 2826TIP3   OH2 8441   1.237   1.163   0.230  0.2614  0.5264  0.9984
 2826TIP3    H1 8442   1.211   1.073   0.213 -1.5080  1.2088 -0.1775
 2826TIP3    H2 8443   1.191   1.187   0.311 -0.6410  0.8761  0.3975
 2827TIP3   OH2 8444   6.395   3.193   1.333  0.1204 -0.2386  0.0323
 2827TIP3    H1 8445   6.487   3.212   1.351 -0.1413  0.8195  0.2980
 2827TIP3    H2 8446   6.362   3.159   1.416  0.3041 -0.7988 -0.1158
 2828TIP3   OH2 8447   3.436   1.241   0.029 -0.3013  0.1010  0.3695
 2828TIP3    H1 8448   3.421   1.284  -0.055 -2.0035 -1.0485  0.0579
 2828TIP3    H2 8449   3.349   1.222   0.062  0.3354 -3.3280  0.3775
 2829TIP3   OH2 8450   4.499   4.943   5.112 -0.3323  0.0181 -0.7251
 2829TIP3    H1 8451   4.540   4.937   5.198  0.4705  2.5506 -0.8363
 2829TIP3    H2 8452   4.510   4.856   5.074  2.6025 -0.1824  0.3283
 2830TIP3   OH2 8453   6.397   2.916   0.702 -0.0772 -0.1751  0.2235
 2830TIP3    H1 8454   6.365   2.841   0.651  1.3045  0.9555 -2.5181
 2830TIP3    H2 8455   6.488   2.928   0.672 -0.3147  2.7065  0.3823
 2831TIP3   OH2 8456   2.283   1.113   2.750  0.0990 -0.1998  0.1916
 2831TIP3    H1 8457   2.351   1.055   2.716 -0.1660 -0.5580  0.2623
 2831TIP3    H2 8458   2.319   1.201   2.741  0.5848 -0.3902  0.2700
 2832TIP3   OH2 8459   5.460   5.310   3.131  0.0630 -0.6736  0.1862
 2832TIP3    H1 8460   5.464   5.217   3.110 -0.1457 -1.3458  2.7595
 2832TIP3    H2 8461   5.418   5.314   3.217  1.1008  1.7057  0.6819
 2833TIP3   OH2 8462   4.532   0.518   1.851  0.4353 -0.0911 -0.3194
 2833TIP3    H1 8463   4.453   0.531   1.904 -0.2132  0.7989 -1.4581
 2833TIP3    H2 8464   4.590   0.467   1.907 -0.9256 -0.7175  0.5674
 2834TIP3   OH2 8465   6.180   2.833   1.347 -0.1109  0.1740 -0.3064
 2834TIP3    H1 8466   6.275   2.822   1.344  0.0540  0.9625  1.2224
 2834TIP3    H2 8467   6.152   2.826   1.256  1.5021  0.7319 -0.8698
 2835TIP3   OH2 8468   5.679   0.367   0.387 -0.2506 -0.7820  0.1835
 2835TIP3    H1 8469   5.745   0.320   0.335 -0.3766  1.1860 -1.9069
 2835TIP3    H2 8470   5.605   0.306   0.392 -0.4139 -0.9013 -2.4383
 2836TIP3   OH2 8471   0.771   1.383   4.715 -0.4131 -0.4486  0.2313
 2836TIP3    H1 8472   0.864   1.363   4.721 -0.4622 -0.3725  2.1066
 2836TIP3    H2 8473   0.738   1.325   4.646  0.7235 -1.7882  0.7592
 2837TIP3   OH2 8474   5.909   4.450   4.152  0.5306 -0.4859 -0.3060
 2837TIP3    H1 8475   5.853   4.444   4.230 -0.1285 -0.6482 -0.7782
 2837TIP3    H2 8476   5.958   4.531   4.164 -0.9681  0.5193 -0.6114
 2838TIP3   OH2 8477   2.585   6.733   4.507  0.1939  0.3337  0.1203
 2838TIP3    H1 8478   2.672   6.742   4.546 -0.2026 -1.6414  1.6045
 2838TIP3    H2 8479   2.599   6.678   4.429  0.2058 -0.6408  0.7899
 2839TIP3   OH2 8480   4.126   5.498   4.943  0.0519 -0.0955  0.1854
 2839TIP3    H1 8481   4.061   5.428   4.954  0.7918 -0.6953  0.9729
 2839TIP3    H2 8482   4.202   5.454   4.905  0.1185  0.5237 -0.4066
 2840TIP3   OH2 8483   1.388   2.904   3.136 -0.2871  0.1012 -0.4729
 2840TIP3    H1 8484   1.382   2.999   3.133 -1.2693  0.1354  1.3624
 2840TIP3    H2 8485   1.297   2.874   3.139  0.0164 -0.8803 -0.6408
 2841TIP3   OH2 8486   7.136   2.861   3.137 -0.1984  0.1647 -0.1048
 2841TIP3    H1 8487   7.152   2.817   3.054  0.4120 -0.4236  0.3136
 2841TIP3    H2 8488   7.059   2.916   3.121  0.6576  1.0147 -1.4094
 2842TIP3   OH2 8489   1.224   2.787   3.798 -0.3153  0.3008 -0.3726
 2842TIP3    H1 8490   1.252   2.696   3.811  0.3505  0.6255  0.6127
 2842TIP3    H2 8491   1.212   2.795   3.704 -0.4899 -0.8377 -0.4630
 2843TIP3   OH2 8492   4.655   0.818   4.024 -0.2838  0.8074  0.0857
 2843TIP3    H1 8493   4.630   0.729   4.003 -0.8440  0.4279  2.0781
 2843TIP3    H2 8494   4.581   0.853   4.074  0.3721  2.0126  0.2706
 2844TIP3   OH2 8495   0.303   4.137   0.962  0.1581 -0.3143  0.0729
 2844TIP3    H1 8496   0.277   4.057   1.007 -1.4532 -0.3892 -0.9109
 2844TIP3    H2 8497   0.279   4.207   1.021  2.2278 -0.5126  1.2558
 2845TIP3   OH2 8498   1.370   5.515   5.620  0.6786  0.0086  0.3367
 2845TIP3    H1 8499   1.419   5.439   5.589  0.7938 -0.2974  1.2272
 2845TIP3    H2 8500   1.287   5.479   5.650 -0.3874  0.6006 -1.7312
 2846TIP3   OH2 8501   5.456   6.369   0.833 -0.0393  0.2670 -0.0658
 2846TIP3    H1 8502   5.365   6.382   0.810 -0.0234  1.5146  0.5174
 2846TIP3    H2 8503   5.461   6.277   0.860 -1.5683  0.6690  1.8281
 2847TIP3   OH2 8504   0.613   5.586   0.183 -0.0918 -0.2216 -0.6639
 2847TIP3    H1 8505   0.705   5.562   0.187 -0.5103 -1.7416  1.1891
 2847TIP3    H2 8506   0.611   5.663   0.126  2.3942  0.2745 -0.2004
 2848TIP3   OH2 8507   0.390   2.529   4.725 -0.6690 -0.1628  0.5628
 2848TIP3    H1 8508   0.452   2.457   4.735  0.6463  1.0894  1.8880
 2848TIP3    H2 8509   0.353   2.541   4.813  0.1320  1.6169  0.6828
 2849TIP3   OH2 8510   5.908   0.532   3.410  0.5792 -0.2067 -0.1751
 2849TIP3    H1 8511   5.970   0.558   3.477 -0.0557  0.1280  0.2928
 2849TIP3    H2 8512   5.887   0.612   3.363 -0.4212 -0.0790  0.4583
 2850TIP3   OH2 8513   1.078   3.041   2.539  0.3348 -0.3337  0.3948
 2850TIP3    H1 8514   1.069   3.091   2.458 -0.8050  1.4501  1.5412
 2850TIP3    H2 8515   0.991   3.006   2.556  0.2323  0.3602  1.4394
 2851TIP3   OH2 8516   5.719   6.149   1.550  0.0123 -0.0776  0.8882
 2851TIP3    H1 8517   5.642   6.175   1.599  0.8031  0.3813  1.9188
 2851TIP3    H2 8518   5.791   6.196   1.591  1.0861 -1.7022  0.9749
 2852TIP3   OH2 8519   3.428   6.410   0.114 -0.0465 -0.7507  1.0004
 2852TIP3    H1 8520   3.434   6.466   0.037 -2.1617 -1.1671  0.4689
 2852TIP3    H2 8521   3.369   6.457   0.173  2.1279 -0.0801  2.7476
 2853TIP3   OH2 8522   0.186   1.346   1.098  0.5504  0.1310 -0.4131
 2853TIP3    H1 8523   0.144   1.354   1.184 -0.1387  1.0490 -0.8101
 2853TIP3    H2 8524   0.142   1.413   1.045  0.7542 -0.6333 -1.5623
 2854TIP3   OH2 8525   5.356   3.978   3.133 -0.1577 -0.6930  0.5310
 2854TIP3    H1 8526   5.363   4.016   3.220  0.8414 -0.4235  0.3499
 2854TIP3    H2 8527   5.382   3.887   3.144 -0.4471 -0.7689  0.5881
 2855TIP3   OH2 8528   1.681   5.229   0.360 -0.2199 -0.1296  0.6154
 2855TIP3    H1 8529   1.694   5.269   0.273  2.3050 -0.3297  0.8200
 2855TIP3    H2 8530   1.588   5.241   0.378 -1.0214 -0.8149 -2.4692
 2856TIP3   OH2 8531   5.271   6.324   1.082  0.1373  0.5044 -0.1231
 2856TIP3    H1 8532   5.366   6.326   1.072  0.0237  2.2630 -1.4272
 2856TIP3    H2 8533   5.249   6.412   1.114 -0.7682 -1.0207  4.0407
 2857TIP3   OH2 8534   6.239   4.124   5.012 -0.1785  0.3621  0.0721
 2857TIP3    H1 8535   6.253   4.154   5.102  0.0838  1.7607 -0.4198
 2857TIP3    H2 8536   6.157   4.075   5.016  0.1040 -0.0658  1.1754
 2858TIP3   OH2 8537   3.408   4.166   3.420 -0.1992  0.4107 -0.3424
 2858TIP3    H1 8538   3.487   4.142   3.370  1.0590 -0.1088  1.7821
 2858TIP3    H2 8539   3.377   4.083   3.457 -0.9164  0.8309  0.0155
 2859TIP3   OH2 8540   4.790   5.437   3.017 -0.3313  0.1158 -0.0820
 2859TIP3    H1 8541   4.700   5.440   3.048 -0.8826 -0.1872 -1.5772
 2859TIP3    H2 8542   4.785   5.465   2.926  1.0268 -0.3595 -0.3208
 2860TIP3   OH2 8543   0.396   2.252   4.055  0.2062 -0.0562 -0.1027
 2860TIP3    H1 8544   0.410   2.185   3.988  0.1942  0.3326 -0.5010
 2860TIP3    H2 8545   0.320   2.221   4.105  1.2268 -1.1852  0.8043
 2861TIP3   OH2 8546   3.090   3.725   3.267 -0.2146  0.2960 -0.2810
 2861TIP3    H1 8547   3.153   3.675   3.216  1.1907  0.6462  1.0428
 2861TIP3    H2 8548   3.140   3.798   3.304 -1.0556 -0.0863  1.8112
 2862TIP3   OH2 8549   3.494   0.333   3.686 -0.0093 -0.0849 -0.2894
 2862TIP3    H1 8550   3.555   0.285   3.742 -0.1932 -1.1269 -0.9629
 2862TIP3    H2 8551   3.468   0.409   3.739  1.5040  0.1387  0.1827
 2863TIP3   OH2 8552   4.597   6.192   1.265  0.2200 -0.2027  0.1760
 2863TIP3    H1 8553   4.505   6.182   1.291  0.3602 -0.5366  0.5614
 2863TIP3    H2 8554   4.638   6.234   1.340 -0.0572  2.0931 -0.8576
 2864TIP3   OH2 8555   0.736   3.006   3.914  0.0704  0.3490  0.3011
 2864TIP3    H1 8556   0.756   3.045   3.829 -1.0418  0.2228 -0.0332
 2864TIP3    H2 8557   0.642   2.986   3.910  0.0892 -0.0317  1.4069
 2865TIP3   OH2 8558   0.947   5.593   4.579  1.3790 -0.1238  0.1723
 2865TIP3    H1 8559   0.943   5.531   4.652  0.9708  0.9219  1.0671
 2865TIP3    H2 8560   1.020   5.651   4.601 -0.2831  1.7414  1.0683
 2866TIP3   OH2 8561   1.052   0.205   5.558 -0.0332 -0.1287 -0.0116
 2866TIP3    H1 8562   1.124   0.157   5.517 -2.4077 -1.3986 -3.0787
 2866TIP3    H2 8563   1.055   0.292   5.518  0.0911 -0.0181  0.2375
 2867TIP3   OH2 8564   1.182   6.758   1.403  0.0955  0.3699 -0.2634
 2867TIP3    H1 8565   1.137   6.802   1.475  1.1120  0.2211  0.4844
 2867TIP3    H2 8566   1.211   6.829   1.345  2.1736  0.8180  1.1955
 2868TIP3   OH2 8567   0.728   4.303   4.335  0.0400  0.4970 -0.1896
 2868TIP3    H1 8568   0.789   4.373   4.359  0.4371 -0.0785  0.4911
 2868TIP3    H2 8569   0.782   4.225   4.328 -0.0735  0.5560 -2.7543
 2869TIP3   OH2 8570   0.529   4.248   1.791 -0.0267  0.8865  0.2015
 2869TIP3    H1 8571   0.509   4.196   1.713 -0.0738  1.1394  0.0446
 2869TIP3    H2 8572   0.459   4.226   1.853  1.5850 -1.5842  1.2991
 2870TIP3   OH2 8573   6.042   1.552   5.259 -0.0675 -0.0530  0.3589
 2870TIP3    H1 8574   6.103   1.562   5.185 -0.4611 -0.3708 -0.0148
 2870TIP3    H2 8575   6.093   1.578   5.335 -0.5858  3.5885 -0.3435
 2871TIP3   OH2 8576   0.545   5.415   5.200  0.0577 -1.2215  0.3419
 2871TIP3    H1 8577   0.639   5.433   5.204 -0.1935 -0.0024  1.5952
 2871TIP3    H2 8578   0.521   5.396   5.291 -0.8468 -1.9830 -0.0305
 2872TIP3   OH2 8579   6.719   6.149   3.353 -0.0304  0.3582 -0.4659
 2872TIP3    H1 8580   6.794   6.207   3.369 -1.2261  2.0463 -0.6283
 2872TIP3    H2 8581   6.675   6.142   3.438 -1.1563  1.6191 -0.9042
 2873TIP3   OH2 8582   6.737   0.592   2.022  0.0973 -0.2056  0.0860
 2873TIP3    H1 8583   6.806   0.563   1.962  0.4648  0.0625  0.3751
 2873TIP3    H2 8584   6.671   0.522   2.018  0.6194 -0.7150  0.1977
 2874TIP3   OH2 8585   1.797   2.427   3.425 -0.1966 -0.3135 -0.5036
 2874TIP3    H1 8586   1.781   2.422   3.331  0.9937 -1.7818 -0.6751
 2874TIP3    H2 8587   1.735   2.366   3.464  0.0478 -0.5317 -0.4519
 2875TIP3   OH2 8588   4.368   2.503   4.682 -0.2607  0.2373  0.3586
 2875TIP3    H1 8589   4.323   2.427   4.646 -1.0661 -0.1559  2.0995
 2875TIP3    H2 8590   4.401   2.550   4.605 -3.0035  0.1549 -0.9690
 2876TIP3   OH2 8591   0.326   3.440   1.475  0.6669 -0.1674 -0.2374
 2876TIP3    H1 8592   0.260   3.418   1.540  1.2252 -2.0288 -0.2639
 2876TIP3    H2 8593   0.373   3.515   1.513  0.5753 -0.8185  1.2037
 2877TIP3   OH2 8594   5.300   4.039   2.868 -0.4223 -0.7421  0.1355
 2877TIP3    H1 8595   5.296   3.948   2.839 -1.3175 -0.6419 -0.0928
 2877TIP3    H2 8596   5.306   4.034   2.963  0.4943 -1.0425  0.0740
 2878TIP3   OH2 8597   4.709   6.745   1.855 -0.5579 -0.6812  0.6067
 2878TIP3    H1 8598   4.614   6.736   1.865 -0.9579  0.6789 -1.3411
 2878TIP3    H2 8599   4.730   6.691   1.779 -0.0563  0.2909  0.0403
 2879TIP3   OH2 8600   0.412   4.701   3.617  0.2522 -0.0586  0.2732
 2879TIP3    H1 8601   0.444   4.771   3.674  1.6470 -1.0845  0.8081
 2879TIP3    H2 8602   0.317   4.708   3.621  0.3138  0.0922  2.4859
 2880TIP3   OH2 8603   3.737   5.132   2.674  0.2033 -0.0048 -0.3168
 2880TIP3    H1 8604   3.793   5.201   2.710  0.3061 -0.2953  0.0866
 2880TIP3    H2 8605   3.787   5.051   2.687  0.2729 -0.1122 -1.1801
 2881TIP3   OH2 8606   6.178   1.832   0.259 -0.7528 -0.0610  0.1835
 2881TIP3    H1 8607   6.166   1.901   0.324  2.3807  1.8329 -1.0156
 2881TIP3    H2 8608   6.143   1.869   0.178  0.1175 -0.2023 -0.2738
 2882TIP3   OH2 8609   0.625   1.655   5.846 -0.0620  0.3843  0.6217
 2882TIP3    H1 8610   0.591   1.569   5.872  2.2904 -0.5319  0.9362
 2882TIP3    H2 8611   0.573   1.717   5.897 -0.9941 -0.9227  1.3514
 2883TIP3   OH2 8612   0.792   2.290   1.119  0.6072 -0.1523  0.1745
 2883TIP3    H1 8613   0.713   2.244   1.089  0.9695 -0.5785 -0.1501
 2883TIP3    H2 8614   0.822   2.238   1.193 -0.2325  0.8456  1.2581
 2884TIP3   OH2 8615   0.646   1.315   3.641 -0.3499 -0.1809 -0.0172
 2884TIP3    H1 8616   0.652   1.228   3.601 -0.3786  0.0433 -0.5247
 2884TIP3    H2 8617   0.644   1.376   3.566 -0.4694  0.2469  0.3258
 2885TIP3   OH2 8618   3.059   4.929   3.150  0.2702  0.0016 -0.1891
 2885TIP3    H1 8619   2.966   4.922   3.175  0.7200 -0.5941  1.4919
 2885TIP3    H2 8620   3.097   4.986   3.217  1.0853  0.4139 -0.9883
 2886TIP3   OH2 8621   5.692   0.060   5.109  0.0683 -0.8939 -0.1154
 2886TIP3    H1 8622   5.717   0.029   5.197 -0.5236  0.6835  0.6448
 2886TIP3    H2 8623   5.766   0.114   5.081 -0.5696  0.2150  0.2771
 2887TIP3   OH2 8624   1.171   0.136   2.809 -0.5328  0.1260 -0.1714
 2887TIP3    H1 8625   1.106   0.155   2.876  0.1419 -0.0947  0.5546
 2887TIP3    H2 8626   1.250   0.181   2.839  0.0649 -0.8409 -0.2793
 2888TIP3   OH2 8627   3.390   6.758   5.371 -0.0279  0.3763 -0.0517
 2888TIP3    H1 8628   3.469   6.724   5.329 -0.8180 -1.6673  0.0074
 2888TIP3    H2 8629   3.335   6.681   5.385 -2.7921  1.8929 -1.6360
 2889TIP3   OH2 8630   0.535   6.704   2.250  0.0260 -0.0272 -0.0865
 2889TIP3    H1 8631   0.510   6.748   2.169  2.4839 -3.2455 -2.8756
 2889TIP3    H2 8632   0.474   6.630   2.257  0.8296 -0.6883  0.0778
 2890TIP3   OH2 8633   1.417   1.647   2.725 -0.2426  0.1000 -0.5564
 2890TIP3    H1 8634   1.401   1.691   2.642 -1.4702  0.2188 -0.2792
 2890TIP3    H2 8635   1.431   1.555   2.702 -1.2984 -0.0008 -0.8487
 2891TIP3   OH2 8636   4.235   3.389   2.331 -0.4335 -0.2191 -0.5232
 2891TIP3    H1 8637   4.169   3.358   2.392 -1.1431  0.2777 -1.0158
 2891TIP3    H2 8638   4.244   3.483   2.350  1.2710 -0.5467  0.5725
 2892TIP3   OH2 8639   5.853   5.942   1.738  0.5450 -0.0567 -0.3190
 2892TIP3    H1 8640   5.934   5.986   1.766 -0.3699  0.7650  1.1569
 2892TIP3    H2 8641   5.787   5.971   1.801 -1.1322  0.0154 -2.0275
 2893TIP3   OH2 8642   2.767   4.058   0.453 -0.4700  0.3128  0.1264
 2893TIP3    H1 8643   2.773   4.136   0.508 -1.1599  1.9368 -1.9569
 2893TIP3    H2 8644   2.855   4.022   0.451 -0.2936  0.6188  1.6877
 2894TIP3   OH2 8645   0.240   2.893   2.559  0.1145  0.4752  0.0404
 2894TIP3    H1 8646   0.231   2.963   2.624  0.0727 -0.4346  1.0446
 2894TIP3    H2 8647   0.313   2.840   2.591  0.5959  0.4399 -1.0793
 2895TIP3   OH2 8648   2.478   1.282   5.222 -0.0827 -0.1243  0.0311
 2895TIP3    H1 8649   2.536   1.254   5.152  1.8365 -0.1233  1.5352
 2895TIP3    H2 8650   2.502   1.373   5.238 -0.5613 -0.0918  0.6049
 2896TIP3   OH2 8651   3.616   5.213   4.918 -0.4941 -0.1996  0.2368
 2896TIP3    H1 8652   3.521   5.204   4.917 -0.5883  0.7219 -1.0683
 2896TIP3    H2 8653   3.649   5.123   4.917 -1.3743 -0.5432 -1.5885
 2897TIP3   OH2 8654   2.152   3.490   0.853  0.5476 -0.0709  0.2890
 2897TIP3    H1 8655   2.126   3.580   0.832  0.9448  0.7997  3.1495
 2897TIP3    H2 8656   2.075   3.452   0.895  0.8586 -0.5791  0.4099
 2898TIP3   OH2 8657   5.355   4.356   5.435  0.9162  0.2087  0.5240
 2898TIP3    H1 8658   5.336   4.392   5.521  1.0175  1.5902 -0.0060
 2898TIP3    H2 8659   5.309   4.272   5.434  1.4093 -0.1128  2.1250
 2899TIP3   OH2 8660   0.104   4.123   1.845  0.3717 -0.5836 -0.1375
 2899TIP3    H1 8661   0.188   4.167   1.860  1.4821 -1.7476 -2.4957
 2899TIP3    H2 8662   0.109   4.043   1.898  0.2646 -0.1283  0.5751
 2900TIP3   OH2 8663   6.604   4.850   0.556 -0.0246 -0.4624 -0.2097
 2900TIP3    H1 8664   6.582   4.759   0.575 -0.8649 -0.5996 -1.7073
 2900TIP3    H2 8665   6.698   4.848   0.538  0.2039 -0.8063  0.9252
 2901TIP3   OH2 8666   2.958   1.759   3.106  0.3153 -0.0988  0.2159
 2901TIP3    H1 8667   2.957   1.677   3.057 -4.1600  1.2721 -2.5816
 2901TIP3    H2 8668   3.008   1.820   3.052  0.2607  0.0053  0.2810
 2902TIP3   OH2 8669   2.611   4.696   2.809 -0.7256 -0.0319 -0.0130
 2902TIP3    H1 8670   2.566   4.776   2.836  0.8759  0.9783 -0.2066
 2902TIP3    H2 8671   2.648   4.661   2.890 -1.0426 -0.3262  0.0042
 2903TIP3   OH2 8672   4.549   0.466   2.801  0.2678 -0.3479 -0.3786
 2903TIP3    H1 8673   4.493   0.507   2.735 -0.1509 -2.4923 -1.4836
 2903TIP3    H2 8674   4.602   0.404   2.751 -0.8873 -2.9120  1.3494
 2904TIP3   OH2 8675   4.191   6.171   3.042 -0.3060 -0.0365 -0.0328
 2904TIP3    H1 8676   4.130   6.239   3.012 -0.0475 -0.6964 -2.2187
 2904TIP3    H2 8677   4.269   6.183   2.987  0.5292 -0.8456  0.9353
 2905TIP3   OH2 8678   1.459   2.668   3.643  0.0188 -0.8323  0.0998
 2905TIP3    H1 8679   1.446   2.634   3.554 -0.5007 -0.7416  0.1411
 2905TIP3    H2 8680   1.499   2.754   3.630  0.9520 -1.2643 -0.0149
 2906TIP3   OH2 8681   5.941   0.736   0.258 -0.1102  0.5022  0.3680
 2906TIP3    H1 8682   5.967   0.792   0.331 -0.9509 -0.2792  1.2844
 2906TIP3    H2 8683   5.864   0.689   0.289  0.7419 -1.3995 -0.2474
 2907TIP3   OH2 8684   6.186   0.656   4.078 -0.0933  0.4874  0.8147
 2907TIP3    H1 8685   6.226   0.590   4.022 -0.6435 -0.9528  2.0418
 2907TIP3    H2 8686   6.094   0.659   4.050 -0.2254  0.2044  1.1878
 2908TIP3   OH2 8687   3.553   0.822   1.739  0.0564 -0.0317  0.2393
 2908TIP3    H1 8688   3.581   0.736   1.709 -0.0975 -0.3535  1.0000
 2908TIP3    H2 8689   3.571   0.880   1.665  1.4146 -0.4768  0.1893
 2909TIP3   OH2 8690   2.897   6.526   1.568  0.5939  0.0141 -0.6064
 2909TIP3    H1 8691   2.920   6.612   1.602 -0.2095 -0.2179  0.5841
 2909TIP3    H2 8692   2.804   6.532   1.547  0.6139 -0.4555 -0.8538
 2910TIP3   OH2 8693   1.832   4.825   3.779  0.3372 -0.0879 -0.3605
 2910TIP3    H1 8694   1.791   4.844   3.864 -1.6048 -1.7261 -0.8439
 2910TIP3    H2 8695   1.842   4.730   3.778  1.7158  0.0370 -1.3958
 2911TIP3   OH2 8696   1.748   0.987   0.446  0.4138 -0.2045 -0.2508
 2911TIP3    H1 8697   1.666   1.000   0.399  1.4075  0.9525 -1.7703
 2911TIP3    H2 8698   1.739   1.040   0.525 -0.6645 -0.8539  0.0706
 2912TIP3   OH2 8699   2.987   5.375   4.760  0.3556 -0.6408 -0.3434
 2912TIP3    H1 8700   2.914   5.364   4.822 -1.3177 -0.9313 -2.2760
 2912TIP3    H2 8701   2.954   5.438   4.696  2.7535  1.1130  0.0450
 2913TIP3   OH2 8702   4.366   0.499   4.421 -0.2816  0.2055  0.4169
 2913TIP3    H1 8703   4.281   0.459   4.403  0.0292  0.5161 -2.1981
 2913TIP3    H2 8704   4.428   0.443   4.374  1.1079 -0.4238  2.8490
 2914TIP3   OH2 8705   3.056   2.556   2.872  0.3448 -0.2823  0.1937
 2914TIP3    H1 8706   3.111   2.511   2.937  0.2009  0.4533  0.8462
 2914TIP3    H2 8707   3.116   2.579   2.802  0.7331 -0.0957  0.5835
 2915TIP3   OH2 8708   4.368   3.647   1.655  0.0169  0.1312 -0.4997
 2915TIP3    H1 8709   4.402   3.600   1.731  0.6433 -0.5969 -1.2127
 2915TIP3    H2 8710   4.444   3.695   1.622  0.2748 -1.1179 -1.8201
 2916TIP3   OH2 8711   3.698   2.865   1.017 -0.2344 -0.2389  0.1750
 2916TIP3    H1 8712   3.712   2.926   0.944 -0.4729 -1.8620 -1.2851
 2916TIP3    H2 8713   3.661   2.919   1.086 -0.6399  1.2429 -1.1373
 2917TIP3   OH2 8714   2.958   6.647   5.244  0.7510 -0.0445  0.4547
 2917TIP3    H1 8715   3.008   6.603   5.176  0.4249 -1.5714  1.1547
 2917TIP3    H2 8716   2.866   6.635   5.217  0.6446 -0.1945  0.8758
 2918TIP3   OH2 8717   1.178   4.495   4.357 -0.2626 -0.3965 -0.3942
 2918TIP3    H1 8718   1.213   4.490   4.268 -3.3302 -1.5023 -1.6618
 2918TIP3    H2 8719   1.206   4.413   4.398  1.3007  0.1877 -0.1981
 2919TIP3   OH2 8720   0.205   1.251   4.128  0.1547  0.0084  0.0411
 2919TIP3    H1 8721   0.240   1.210   4.207 -1.0152  1.1506  1.2048
 2919TIP3    H2 8722   0.270   1.319   4.105  0.7449 -0.6563 -0.3064
 2920TIP3   OH2 8723   3.240   4.679   5.278 -0.1273  0.0694 -0.2398
 2920TIP3    H1 8724   3.322   4.724   5.297  0.2915 -1.1975  1.0912
 2920TIP3    H2 8725   3.263   4.587   5.272 -1.5866 -0.4464  1.1943
 2921TIP3   OH2 8726   4.720   4.746   4.812  0.4754 -0.5549  0.1919
 2921TIP3    H1 8727   4.783   4.803   4.856  0.4020 -0.8265  0.6487
 2921TIP3    H2 8728   4.649   4.734   4.876 -0.3689  0.2927 -0.5549
 2922TIP3   OH2 8729   1.813   3.872   3.123 -0.0539  0.1801 -0.0644
 2922TIP3    H1 8730   1.867   3.803   3.085 -0.1627  0.0250  0.0568
 2922TIP3    H2 8731   1.810   3.851   3.217 -0.3322  0.1817 -0.0722
 2923TIP3   OH2 8732   6.505   5.817   4.067 -0.3435  0.1245  0.0665
 2923TIP3    H1 8733   6.574   5.800   4.131 -0.0362  0.3790 -0.1933
 2923TIP3    H2 8734   6.461   5.733   4.056  2.5153 -1.2139 -2.8271
 2924TIP3   OH2 8735   5.339   5.162   5.385  0.4467  0.2062 -0.5866
 2924TIP3    H1 8736   5.356   5.163   5.480 -0.6660  1.3827 -0.3667
 2924TIP3    H2 8737   5.361   5.073   5.358 -1.2677 -0.8539  1.2003
 2925TIP3   OH2 8738   6.061   6.184   4.050 -0.3322  0.1251 -0.1800
 2925TIP3    H1 8739   6.011   6.105   4.071  1.2804 -0.8229  0.3189
 2925TIP3    H2 8740   6.149   6.152   4.032  0.7128  1.9246  1.3413
 2926TIP3   OH2 8741   7.013   3.606   3.121 -0.5086 -0.8699 -0.5811
 2926TIP3    H1 8742   7.037   3.600   3.029  1.7846 -0.2039 -0.1106
 2926TIP3    H2 8743   6.971   3.691   3.130  0.4771 -0.3498 -0.7976
 2927TIP3   OH2 8744   6.863   1.523   2.771  0.0545  0.3705 -0.0949
 2927TIP3    H1 8745   6.837   1.591   2.708  0.3323  1.1309  0.5933
 2927TIP3    H2 8746   6.782   1.476   2.791  0.1319 -0.5625 -1.7830
 2928TIP3   OH2 8747   2.764   3.902   2.279 -0.0996  0.0958 -0.0091
 2928TIP3    H1 8748   2.745   3.973   2.339 -0.0500  0.1743 -0.0866
 2928TIP3    H2 8749   2.835   3.935   2.224  0.0534 -0.0834  0.0809
 2929TIP3   OH2 8750   6.905   4.475   3.990 -0.1772 -0.2736  0.3504
 2929TIP3    H1 8751   6.812   4.468   4.012  0.0832 -2.0919  1.0802
 2929TIP3    H2 8752   6.929   4.564   4.017 -1.2558 -0.4427  2.0304
 2930TIP3   OH2 8753   6.378   0.665   0.413  0.3578  0.0379  0.1122
 2930TIP3    H1 8754   6.323   0.630   0.343  0.1244 -2.1456  1.2948
 2930TIP3    H2 8755   6.468   0.657   0.379  0.1490  0.6687 -0.6077
 2931TIP3   OH2 8756   4.403   5.654   4.390 -0.4984  0.0950  0.2725
 2931TIP3    H1 8757   4.486   5.621   4.356 -1.9735 -0.6287 -3.0121
 2931TIP3    H2 8758   4.406   5.748   4.375 -0.2870  0.0493  0.0182
 2932TIP3   OH2 8759   2.619   3.416   0.327 -0.0926 -0.3753 -0.3572
 2932TIP3    H1 8760   2.683   3.452   0.388 -0.2873 -0.3422 -0.1693
 2932TIP3    H2 8761   2.535   3.452   0.357 -0.8812 -3.7425  2.0757
 2933TIP3   OH2 8762   6.308   0.169   0.217  0.1434  0.2899  0.5114
 2933TIP3    H1 8763   6.215   0.172   0.239  0.2988 -0.7897  1.3651
 2933TIP3    H2 8764   6.324   0.078   0.194  0.9295  0.5431  0.0165
 2934TIP3   OH2 8765   4.319   1.368   3.159  0.1188  0.2981 -0.0299
 2934TIP3    H1 8766   4.369   1.324   3.090 -0.1347 -0.3650  0.2026
 2934TIP3    H2 8767   4.386   1.406   3.216  0.3973 -1.2448  0.7096
 2935TIP3   OH2 8768   1.132   1.138   4.962 -0.3250  0.0789  0.5974
 2935TIP3    H1 8769   1.038   1.126   4.968 -0.3866 -0.6072 -1.2173
 2935TIP3    H2 8770   1.143   1.232   4.945 -0.5400  0.4731  2.3765
 2936TIP3   OH2 8771   0.711   2.236   5.138 -0.6941  0.3374 -0.3390
 2936TIP3    H1 8772   0.712   2.141   5.149 -1.2327  0.3022 -0.5879
 2936TIP3    H2 8773   0.803   2.259   5.125 -0.4692 -0.0510  0.5335
 2937TIP3   OH2 8774   4.644   1.685   1.691  0.0763 -0.5935 -0.1245
 2937TIP3    H1 8775   4.714   1.646   1.639  1.4446  0.7089  0.6347
 2937TIP3    H2 8776   4.651   1.779   1.674 -0.8257 -0.3482  0.7489
 2938TIP3   OH2 8777   6.697   4.276   4.098 -0.1519 -0.5416 -0.0254
 2938TIP3    H1 8778   6.632   4.267   4.028 -0.8474 -1.0346  0.6570
 2938TIP3    H2 8779   6.724   4.186   4.117  0.0195 -0.4123  0.3406
 2939TIP3   OH2 8780   5.944   6.443   2.180 -0.0222  0.8063  0.5868
 2939TIP3    H1 8781   6.021   6.499   2.194 -1.2757  2.0913  3.1635
 2939TIP3    H2 8782   5.951   6.375   2.247 -0.7693  0.5548  0.4181
 2940TIP3   OH2 8783   1.624   3.520   2.640 -0.5974 -0.2715  0.7898
 2940TIP3    H1 8784   1.680   3.593   2.613 -0.1648 -1.0710 -0.6111
 2940TIP3    H2 8785   1.678   3.469   2.700  0.1352 -0.9144 -0.3804
 2941TIP3   OH2 8786   6.902   6.714   3.657  0.3490  0.0976 -0.3548
 2941TIP3    H1 8787   6.931   6.764   3.581  1.4509 -1.5220 -1.0780
 2941TIP3    H2 8788   6.808   6.728   3.662  0.4391  1.1315 -1.3323
 2942TIP3   OH2 8789   4.904   0.900   5.845 -0.0843  0.2840 -0.1389
 2942TIP3    H1 8790   4.826   0.896   5.901 -0.6898  1.5687 -0.8498
 2942TIP3    H2 8791   4.888   0.973   5.786  0.7079 -0.7881 -1.7640
 2943TIP3   OH2 8792   5.595   2.703   0.979 -0.6534 -0.5311 -0.5353
 2943TIP3    H1 8793   5.642   2.647   1.040 -0.4315  0.4636  0.2410
 2943TIP3    H2 8794   5.521   2.650   0.949 -1.0991 -0.8697  1.0550
 2944TIP3   OH2 8795   5.209   0.169   3.522  0.3220 -0.4096  0.5409
 2944TIP3    H1 8796   5.292   0.125   3.501  0.5565  0.7755 -1.1262
 2944TIP3    H2 8797   5.226   0.212   3.606  1.6071  0.3191 -0.0674
 2945TIP3   OH2 8798   4.848   5.354   1.936 -0.0668 -0.2003 -0.2560
 2945TIP3    H1 8799   4.916   5.418   1.916 -2.0117  2.4134  0.7921
 2945TIP3    H2 8800   4.844   5.353   2.032 -0.5179 -1.4487 -0.2678
 2946TIP3   OH2 8801   5.443   6.445   3.785  0.1133 -0.3280  0.2352
 2946TIP3    H1 8802   5.494   6.412   3.859 -1.5555 -3.0452  0.3160
 2946TIP3    H2 8803   5.459   6.382   3.715 -0.3181  0.7952 -0.9133
 2947TIP3   OH2 8804   6.793   6.455   4.254  0.7963  0.1768 -0.0718
 2947TIP3    H1 8805   6.716   6.403   4.276  1.6459 -1.1364 -0.0442
 2947TIP3    H2 8806   6.843   6.400   4.194  2.6368  0.1456  1.3918
 2948TIP3   OH2 8807   0.484   2.039   2.407  0.0720  0.9657  0.2823
 2948TIP3    H1 8808   0.395   2.072   2.397  0.8488  2.6903 -1.6783
 2948TIP3    H2 8809   0.487   1.960   2.352 -0.2816  0.7983  0.4994
 2949TIP3   OH2 8810   5.030   6.502   0.743 -0.3661 -0.0810  1.0219
 2949TIP3    H1 8811   4.996   6.520   0.831  1.0695  0.5027  1.4848
 2949TIP3    H2 8812   5.094   6.432   0.757  1.4108  1.4490  0.7959
 2950TIP3   OH2 8813   4.620   5.748   3.114  0.1905 -0.3560  0.6156
 2950TIP3    H1 8814   4.619   5.752   3.019  1.4131 -0.2068  0.5995
 2950TIP3    H2 8815   4.592   5.658   3.134  0.9816 -0.7320  0.0792
 2951TIP3   OH2 8816   1.540   3.310   2.812  0.0215 -0.6666  0.2815
 2951TIP3    H1 8817   1.522   3.383   2.753  1.4472 -1.9326 -1.9015
 2951TIP3    H2 8818   1.476   3.243   2.787 -0.5957 -0.5534  1.5232
 2952TIP3   OH2 8819   0.259   4.170   2.878  0.3214 -0.4159 -0.3098
 2952TIP3    H1 8820   0.287   4.257   2.907 -0.1726  0.0262 -1.0990
 2952TIP3    H2 8821   0.332   4.139   2.825  0.8333 -0.8316  0.6187
 2953TIP3   OH2 8822   1.446   0.927   3.016  0.6339 -0.8436 -0.3286
 2953TIP3    H1 8823   1.428   0.917   2.922 -1.3730  1.7760 -0.3132
 2953TIP3    H2 8824   1.541   0.940   3.021  0.6671 -0.1517 -2.0986
 2954TIP3   OH2 8825   0.812   2.931   2.571  0.1456 -0.1182  0.4183
 2954TIP3    H1 8826   0.757   2.973   2.637  0.1894  2.0615 -0.8492
 2954TIP3    H2 8827   0.776   2.961   2.488  2.1900 -0.0252 -0.4721
 2955TIP3   OH2 8828   3.438   1.690   2.712  0.3028 -0.0556  0.5075
 2955TIP3    H1 8829   3.524   1.677   2.752  0.4385  0.7449  0.5011
 2955TIP3    H2 8830   3.422   1.610   2.661  0.9524 -0.2904  0.6666
 2956TIP3   OH2 8831   0.217   3.919   2.633 -0.5312  0.2288 -0.1282
 2956TIP3    H1 8832   0.244   3.844   2.686 -0.9646  0.1478 -0.0144
 2956TIP3    H2 8833   0.201   3.989   2.697 -1.2823  0.0628 -0.1211
 2957TIP3   OH2 8834   3.905   0.639   2.987 -0.1219  0.2399 -0.0589
 2957TIP3    H1 8835   3.864   0.725   2.997 -1.7569 -0.4771 -0.3616
 2957TIP3    H2 8836   3.947   0.643   2.901 -0.7925  0.4829 -0.3766
 2958TIP3   OH2 8837   2.072   6.719   3.063  0.1520 -0.1899 -0.4016
 2958TIP3    H1 8838   2.032   6.805   3.077  1.4197  0.5033 -0.8000
 2958TIP3    H2 8839   2.053   6.670   3.142 -1.9151 -0.0954 -0.7897
 2959TIP3   OH2 8840   5.042   4.551   5.042  0.3304  0.3636  0.4712
 2959TIP3    H1 8841   5.029   4.623   4.980  0.4593 -0.0701 -0.0703
 2959TIP3    H2 8842   4.988   4.574   5.117  0.6922  1.2366  0.4827
 2960TIP3   OH2 8843   0.964   1.138   1.679  0.2318  0.3786  0.3494
 2960TIP3    H1 8844   0.963   1.200   1.752  1.4915  0.1206  0.6027
 2960TIP3    H2 8845   1.047   1.154   1.635 -0.9580  1.2421 -1.6891
 2961TIP3   OH2 8846   2.609   6.793   4.066 -0.4571 -0.2424  0.0893
 2961TIP3    H1 8847   2.528   6.840   4.085  0.4318  0.6211  1.9669
 2961TIP3    H2 8848   2.642   6.766   4.152  0.6019 -1.7208 -0.7260
 2962TIP3   OH2 8849   4.219   1.905   2.202 -0.5367 -0.3534 -0.3826
 2962TIP3    H1 8850   4.283   1.971   2.228 -1.3172  1.4836 -2.7887
 2962TIP3    H2 8851   4.187   1.869   2.284  1.8026  0.3791  0.9440
 2963TIP3   OH2 8852   3.453   5.571   2.454 -0.7758  0.8030 -0.0027
 2963TIP3    H1 8853   3.365   5.545   2.428 -0.7606  0.2852  0.4510
 2963TIP3    H2 8854   3.493   5.492   2.490  0.7039  0.4069 -2.2741
 2964TIP3   OH2 8855   1.378   4.369   2.237  0.1628 -0.1712  0.3093
 2964TIP3    H1 8856   1.413   4.452   2.205 -0.8662 -0.1414 -0.8420
 2964TIP3    H2 8857   1.284   4.385   2.245 -0.0484 -1.2122  0.0895
 2965TIP3   OH2 8858   5.673   0.961   2.240 -0.0456 -0.2325  0.2381
 2965TIP3    H1 8859   5.760   0.949   2.203 -0.5245 -0.8422 -0.7108
 2965TIP3    H2 8860   5.651   1.052   2.220 -0.5076 -0.6976 -1.4436
 2966TIP3   OH2 8861   0.355   3.292   0.929  0.1089 -0.5000 -0.0242
 2966TIP3    H1 8862   0.332   3.312   1.019  0.6894 -0.6464  0.1597
 2966TIP3    H2 8863   0.274   3.304   0.880  0.1758  1.2860  0.2432
 2967TIP3   OH2 8864   1.008   4.774   2.782  0.3739 -0.5530 -0.0117
 2967TIP3    H1 8865   1.090   4.809   2.817 -0.2664  1.2180 -0.1664
 2967TIP3    H2 8866   1.001   4.687   2.819  3.0269 -1.3407 -1.1430
 2968TIP3   OH2 8867   7.130   5.741   0.439  0.2623 -0.1200  0.6791
 2968TIP3    H1 8868   7.035   5.737   0.449  0.4273 -1.3558  2.1817
 2968TIP3    H2 8869   7.150   5.677   0.370 -0.1025  1.4874 -0.9951
 2969TIP3   OH2 8870   3.962   2.909   3.635  0.2917  0.3727  0.3233
 2969TIP3    H1 8871   3.886   2.904   3.577 -0.4847  1.2880  1.2269
 2969TIP3    H2 8872   3.999   2.821   3.634 -1.5108 -0.4298  0.8227
 2970TIP3   OH2 8873   0.565   1.616   0.824 -0.0545 -0.3397 -0.2387
 2970TIP3    H1 8874   0.597   1.669   0.751  3.4177 -0.0941  1.2437
 2970TIP3    H2 8875   0.559   1.528   0.789  0.5330 -0.0468 -1.0991
 2971TIP3   OH2 8876   3.992   4.013   4.930 -0.2218 -0.3577  0.4704
 2971TIP3    H1 8877   4.039   3.930   4.936 -0.1065 -0.2322  1.6471
 2971TIP3    H2 8878   4.052   4.077   4.970 -0.8948  0.0156  0.8999
 2972TIP3   OH2 8879   6.836   6.101   1.026 -0.1210 -0.0568 -0.4258
 2972TIP3    H1 8880   6.780   6.144   0.961 -0.2459  0.6012  0.1014
 2972TIP3    H2 8881   6.884   6.034   0.977 -2.8336 -2.0758 -0.5669
 2973TIP3   OH2 8882   7.190   1.265   5.320  0.5094 -0.4069 -0.0831
 2973TIP3    H1 8883   7.228   1.276   5.407 -2.2809 -0.3416  1.2290
 2973TIP3    H2 8884   7.124   1.197   5.331 -2.3247  1.9341 -1.2124
 2974TIP3   OH2 8885   2.524   5.772   0.930 -0.1176  0.1681  0.0423
 2974TIP3    H1 8886   2.546   5.861   0.960  0.2098  0.7173 -1.7409
 2974TIP3    H2 8887   2.464   5.786   0.857 -1.5517 -1.1632  0.9038
 2975TIP3   OH2 8888   4.028   0.158   2.529 -0.4502 -0.1774  0.2556
 2975TIP3    H1 8889   4.004   0.193   2.443  0.7542 -0.4361 -0.2078
 2975TIP3    H2 8890   4.091   0.089   2.511  0.3515  0.2216  1.3739
 2976TIP3   OH2 8891   5.090   4.307   2.396  0.4468  0.6477 -0.3054
 2976TIP3    H1 8892   5.035   4.237   2.430  1.6367 -0.1689 -0.0160
 2976TIP3    H2 8893   5.032   4.356   2.337 -0.3689 -0.6535 -0.6274
 2977TIP3   OH2 8894   5.196   1.028   0.754 -0.3278 -0.4616  0.0900
 2977TIP3    H1 8895   5.188   1.112   0.709  1.4811 -0.9916 -1.3790
 2977TIP3    H2 8896   5.286   1.000   0.737 -0.2748 -1.8161  2.1755
 2978TIP3   OH2 8897   6.917   3.041   3.206 -0.2526  0.4563  0.2229
 2978TIP3    H1 8898   6.891   3.127   3.175 -1.8206 -0.6269 -1.6998
 2978TIP3    H2 8899   6.834   2.997   3.228  0.3513 -1.1268 -0.5033
 2979TIP3   OH2 8900   1.819   0.027   4.583 -0.1931 -0.1750 -0.1368
 2979TIP3    H1 8901   1.908   0.047   4.554 -0.2130 -0.2726 -0.2650
 2979TIP3    H2 8902   1.807   0.079   4.662 -0.7351  1.4050 -1.2152
 2980TIP3   OH2 8903   2.721   4.263   2.150  0.0995  0.6738  0.4600
 2980TIP3    H1 8904   2.762   4.349   2.161 -0.7658  1.3212 -0.9657
 2980TIP3    H2 8905   2.636   4.283   2.111  0.3985 -0.8834 -1.1138
 2981TIP3   OH2 8906   6.060   3.689   4.161  0.3821 -0.0957  0.3533
 2981TIP3    H1 8907   6.031   3.641   4.082  1.5119 -0.3932  0.1057
 2981TIP3    H2 8908   6.152   3.710   4.144  0.2383  1.1370  0.9771
 2982TIP3   OH2 8909   1.042   1.751   1.386  0.2484 -0.2079  0.3023
 2982TIP3    H1 8910   1.085   1.826   1.427 -0.8439  1.1319 -0.9042
 2982TIP3    H2 8911   0.975   1.724   1.449 -0.2432  0.7008  0.1800
 2983TIP3   OH2 8912   3.771   0.050   1.149  0.2193 -0.0290 -0.6365
 2983TIP3    H1 8913   3.750   0.020   1.060 -3.2302  1.4676 -0.5065
 2983TIP3    H2 8914   3.787   0.144   1.138  1.7130 -0.1853  0.1039
 2984TIP3   OH2 8915   2.599   5.385   0.855 -0.4678 -0.1285 -0.1592
 2984TIP3    H1 8916   2.552   5.401   0.937 -0.4033  2.0771 -0.4845
 2984TIP3    H2 8917   2.628   5.294   0.861 -1.0527 -0.2267  1.9518
 2985TIP3   OH2 8918   4.673   4.675   2.164 -0.3004 -0.2616  0.0468
 2985TIP3    H1 8919   4.677   4.627   2.081  1.7472  0.7422 -0.5113
 2985TIP3    H2 8920   4.700   4.764   2.142  3.7936 -0.7265  2.1991
 2986TIP3   OH2 8921   6.582   6.276   4.323  0.1703  0.8965  0.0539
 2986TIP3    H1 8922   6.551   6.285   4.413  0.1332  1.8006 -0.0367
 2986TIP3    H2 8923   6.525   6.209   4.285  1.4004 -0.8800  1.2165
 2987TIP3   OH2 8924   2.103   2.862   4.518  0.1325 -0.0542  0.2376
 2987TIP3    H1 8925   2.135   2.950   4.537  2.8589 -0.7454 -0.6704
 2987TIP3    H2 8926   2.127   2.847   4.426 -0.5304 -1.6437  0.2873
 2988TIP3   OH2 8927   7.131   5.764   3.842 -0.0268  0.2962  0.7421
 2988TIP3    H1 8928   7.146   5.759   3.748 -0.5379 -0.7919  0.7065
 2988TIP3    H2 8929   7.195   5.704   3.880 -2.6648 -2.7998  0.7303
 2989TIP3   OH2 8930   5.519   2.630   5.156  0.7401 -0.4076  0.2616
 2989TIP3    H1 8931   5.551   2.634   5.246  0.3324 -0.5494  0.4121
 2989TIP3    H2 8932   5.447   2.567   5.158 -0.2087  0.6441  0.1199
 2990TIP3   OH2 8933   4.568   3.244   4.660 -0.2323  0.0101 -0.0068
 2990TIP3    H1 8934   4.603   3.159   4.632 -0.1092  0.0629 -0.0153
 2990TIP3    H2 8935   4.635   3.307   4.633  0.4887 -0.0613  1.4719
 2991TIP3   OH2 8936   2.895   1.599   0.046 -0.6406 -0.5793 -0.7080
 2991TIP3    H1 8937   2.912   1.661  -0.025 -0.3923 -0.3790 -0.4704
 2991TIP3    H2 8938   2.885   1.514   0.001 -1.7071 -0.2567 -1.1037
 2992TIP3   OH2 8939   1.390   2.693   1.853 -0.2513 -0.4128 -0.1691
 2992TIP3    H1 8940   1.379   2.624   1.787 -0.9366 -1.0303  0.5636
 2992TIP3    H2 8941   1.308   2.691   1.903  0.6835 -0.7317  1.4183
 2993TIP3   OH2 8942   6.170   2.200   0.895 -0.3192  0.0778 -0.3502
 2993TIP3    H1 8943   6.112   2.223   0.967  0.7791  0.1515  0.5401
 2993TIP3    H2 8944   6.258   2.222   0.927  0.1867  0.1270 -1.7217
 2994TIP3   OH2 8945   2.997   6.676   2.821 -0.3434  0.2381  0.7935
 2994TIP3    H1 8946   3.040   6.614   2.762  2.0829  1.1171  1.5292
 2994TIP3    H2 8947   2.962   6.623   2.892 -0.3078 -0.4878  0.2744
 2995TIP3   OH2 8948   4.455   4.464   4.700 -0.3900  0.4544  0.2311
 2995TIP3    H1 8949   4.476   4.507   4.783 -2.7298 -1.0977  1.7308
 2995TIP3    H2 8950   4.501   4.380   4.704  0.0650  0.6569 -0.4203
 2996TIP3   OH2 8951   0.290   6.733   4.890  0.6912  1.4191 -0.2938
 2996TIP3    H1 8952   0.335   6.812   4.919  0.1527  2.0357 -1.0969
 2996TIP3    H2 8953   0.217   6.765   4.837 -1.4442  0.5177  1.8933
 2997TIP3   OH2 8954   1.444   5.150   2.522  0.5670 -0.1230 -0.2317
 2997TIP3    H1 8955   1.452   5.073   2.579 -0.1111 -0.7302 -0.9292
 2997TIP3    H2 8956   1.383   5.207   2.568 -1.2304 -1.3086 -1.0456
 2998TIP3   OH2 8957   5.670   0.213   5.387  0.0741 -0.8103 -0.0302
 2998TIP3    H1 8958   5.739   0.147   5.392  0.5733 -0.2088  1.3953
 2998TIP3    H2 8959   5.589   0.163   5.394  0.4598 -1.2092  2.9978
 2999TIP3   OH2 8960   6.108   0.701   1.755 -0.1565 -0.0263 -0.0389
 2999TIP3    H1 8961   6.032   0.751   1.726  0.4596  1.2350  0.4209
 2999TIP3    H2 8962   6.103   0.703   1.851  0.3097 -0.1528 -0.0094
 3000TIP3   OH2 8963   5.057   3.008   0.234  0.0021 -0.1704 -0.1268
 3000TIP3    H1 8964   5.151   2.990   0.226 -0.1288 -0.4662 -1.1023
 3000TIP3    H2 8965   5.032   3.042   0.148 -0.5279  1.1577  0.5189
 3001TIP3   OH2 8966   6.167   2.825   2.635  0.0486 -0.0895  0.0735
 3001TIP3    H1 8967   6.222   2.867   2.701 -1.7193  1.4129  0.6723
 3001TIP3    H2 8968   6.224   2.813   2.560  0.6198  3.9789 -0.3544
 3002TIP3   OH2 8969   5.778   1.527   4.745 -0.2469 -0.1109 -0.1606
 3002TIP3    H1 8970   5.731   1.602   4.781  1.2389  1.1541 -0.6905
 3002TIP3    H2 8971   5.824   1.563   4.668  1.4321 -1.2683  0.2448
 3003TIP3   OH2 8972   3.156   2.283   5.121  0.5963 -0.2702 -0.1018
 3003TIP3    H1 8973   3.067   2.249   5.120  0.1695  0.7321  1.0357
 3003TIP3    H2 8974   3.151   2.363   5.174  1.7587  0.9805 -1.7858
 3004TIP3   OH2 8975   1.786   2.270   2.745  0.2498  0.1537  0.0654
 3004TIP3    H1 8976   1.838   2.247   2.821 -0.7728  0.1019  0.7616
 3004TIP3    H2 8977   1.844   2.252   2.670  1.3844  0.5382  0.8274
 3005TIP3   OH2 8978   1.012   0.283   1.672 -0.0786  0.4415  0.1889
 3005TIP3    H1 8979   1.093   0.302   1.719 -0.2655  1.0891  0.2639
 3005TIP3    H2 8980   1.021   0.329   1.589 -0.2396  0.2644  0.0718
 3006TIP3   OH2 8981   1.261   4.706   0.427  0.1180 -0.5097 -0.0790
 3006TIP3    H1 8982   1.235   4.694   0.336 -0.0834  1.3504 -0.2932
 3006TIP3    H2 8983   1.357   4.701   0.426  0.1626  0.4570 -0.5451
 3007TIP3   OH2 8984   2.344   5.291   1.119 -0.5727 -0.0399  0.1204
 3007TIP3    H1 8985   2.365   5.384   1.125  1.7423 -0.4202 -1.1843
 3007TIP3    H2 8986   2.413   5.248   1.170 -1.1268 -1.1007 -0.0010
 3008TIP3   OH2 8987   4.021   4.582   0.446  0.8180 -0.1538  0.1472
 3008TIP3    H1 8988   4.057   4.501   0.411  0.1269 -0.1125 -0.6699
 3008TIP3    H2 8989   4.069   4.596   0.528  1.9763 -0.5970 -0.4454
 3009TIP3   OH2 8990   0.561   5.195   2.352 -0.1408  0.2389  0.1638
 3009TIP3    H1 8991   0.567   5.101   2.372  0.2698 -0.0459 -1.1872
 3009TIP3    H2 8992   0.637   5.234   2.395 -0.2716 -0.0481  0.6691
 3010TIP3   OH2 8993   1.013   2.238   0.759 -0.0946 -0.3640  0.1276
 3010TIP3    H1 8994   0.953   2.291   0.812  0.6331 -0.4534  1.0611
 3010TIP3    H2 8995   1.075   2.201   0.822  1.2487  0.1205 -0.8597
 3011TIP3   OH2 8996   3.914   5.597   4.009  0.0434 -0.1001  0.2701
 3011TIP3    H1 8997   3.907   5.511   3.968 -1.6479  0.8539 -1.6385
 3011TIP3    H2 8998   3.969   5.648   3.949 -1.2120  0.8850 -0.0947
 3012TIP3   OH2 8999   2.155   6.049   4.238 -0.8552  0.0088 -0.2801
 3012TIP3    H1 9000   2.187   5.959   4.225 -1.8222 -0.2318 -1.1323
 3012TIP3    H2 9001   2.158   6.088   4.151  0.7099  1.2332  0.2700
 3013TIP3   OH2 9002   1.144   6.354   4.471 -0.4252  0.0337 -0.0419
 3013TIP3    H1 9003   1.204   6.425   4.496 -0.7735  0.4119 -0.2636
 3013TIP3    H2 9004   1.195   6.299   4.412  0.4245 -0.8801  1.4658
 3014TIP3   OH2 9005   1.489   5.922   4.419 -0.1943  0.4292  0.3776
 3014TIP3    H1 9006   1.511   6.000   4.369 -1.4260  0.7118  0.2689
 3014TIP3    H2 9007   1.554   5.921   4.490  1.1698  0.3642 -0.8216
 3015TIP3   OH2 9008   5.182   5.916   1.608  0.3422  0.5413  0.4348
 3015TIP3    H1 9009   5.184   5.993   1.550  2.3790  0.1207 -0.1395
 3015TIP3    H2 9010   5.236   5.942   1.683 -1.9830  0.9494  2.0837
 3016TIP3   OH2 9011   6.510   3.165   5.670  0.3383 -0.2107 -0.2680
 3016TIP3    H1 9012   6.545   3.103   5.606  2.4259  0.0963  0.5045
 3016TIP3    H2 9013   6.533   3.251   5.636 -0.5674  0.0687 -0.2137
 3017TIP3   OH2 9014   0.460   0.269   2.831 -0.2531 -0.7237 -0.1435
 3017TIP3    H1 9015   0.368   0.268   2.856  0.2583  0.2071  2.0437
 3017TIP3    H2 9016   0.485   0.176   2.832 -0.7335 -0.8632  1.1536
 3018TIP3   OH2 9017   6.342   3.184   4.493  0.0117  0.7814 -0.7084
 3018TIP3    H1 9018   6.264   3.197   4.439  0.0486  0.1777 -0.9185
 3018TIP3    H2 9019   6.383   3.106   4.456 -0.4153 -0.1582  0.7170
 3019TIP3   OH2 9020   4.384   6.030   0.948  0.4326 -0.3450 -0.0740
 3019TIP3    H1 9021   4.317   6.037   0.879 -1.1504  1.5549  1.5168
 3019TIP3    H2 9022   4.446   5.966   0.915 -1.3450 -1.0290 -2.3513
 3020TIP3   OH2 9023   6.341   2.493   0.814  0.0044 -0.4316  0.3236
 3020TIP3    H1 9024   6.364   2.581   0.844  1.9520  0.6383 -3.6192
 3020TIP3    H2 9025   6.251   2.481   0.842 -0.8233  3.4221 -0.0879
 3021TIP3   OH2 9026   2.658   1.703   0.154  0.1968  0.0426  0.3460
 3021TIP3    H1 9027   2.655   1.790   0.113  2.1503  0.1833  0.4463
 3021TIP3    H2 9028   2.741   1.665   0.126  0.5874 -0.7503  2.3687
 3022TIP3   OH2 9029   2.405   5.546   0.306 -0.0980 -0.2239  0.2937
 3022TIP3    H1 9030   2.346   5.498   0.249  0.6924 -2.2276  1.0850
 3022TIP3    H2 9031   2.376   5.637   0.299 -1.6181 -0.7766 -1.2985
 3023TIP3   OH2 9032   6.716   0.543   2.720  0.4512  0.0764  0.1104
 3023TIP3    H1 9033   6.807   0.519   2.703  0.1802 -1.4423  0.6042
 3023TIP3    H2 9034   6.690   0.596   2.645  1.4751 -0.2400 -0.4876
 3024TIP3   OH2 9035   6.692   2.150   5.769 -0.1229 -0.0426  0.3006
 3024TIP3    H1 9036   6.650   2.065   5.757  1.1271 -1.3430  3.9490
 3024TIP3    H2 9037   6.769   2.147   5.711 -0.5127 -1.0629 -0.1921
 3025TIP3   OH2 9038   0.047   4.728   1.629  0.1161 -0.4995 -0.9934
 3025TIP3    H1 9039  -0.038   4.690   1.608  0.0216  0.3075 -2.1613
 3025TIP3    H2 9040   0.043   4.745   1.724 -0.3423 -2.0744 -0.7094
 3026TIP3   OH2 9041   1.468   6.153   2.976 -0.1548 -1.2044  0.0220
 3026TIP3    H1 9042   1.380   6.123   2.952 -0.2041 -0.6785 -0.4953
 3026TIP3    H2 9043   1.461   6.178   3.068 -0.8740 -0.0358 -0.3271
 3027TIP3   OH2 9044   2.896   4.005   3.416 -0.3410  0.5138  0.0973
 3027TIP3    H1 9045   2.919   3.985   3.325  1.5478 -1.4747  0.9210
 3027TIP3    H2 9046   2.867   3.921   3.452 -1.0801  1.2758  1.3425
 3028TIP3   OH2 9047   0.052   2.917   0.586  0.1223 -0.3853 -0.1933
 3028TIP3    H1 9048  -0.020   2.890   0.644 -0.0908 -0.8787 -0.6813
 3028TIP3    H2 9049   0.116   2.957   0.645 -0.2082 -0.6393  0.3474
 3029TIP3   OH2 9050   2.816   2.636   2.954  0.4873  0.1657 -0.0427
 3029TIP3    H1 9051   2.808   2.558   3.009  0.4788 -0.7281 -1.2838
 3029TIP3    H2 9052   2.887   2.616   2.893 -0.0166  0.8130 -0.8715
 3030TIP3   OH2 9053   3.578   1.866   0.336  0.0244  0.2627  0.9085
 3030TIP3    H1 9054   3.505   1.810   0.308 -1.2491  1.5096  1.6087
 3030TIP3    H2 9055   3.544   1.955   0.331  1.8102  0.9707  0.4025
 3031TIP3   OH2 9056   3.496   6.323   2.918  0.2831 -0.0379  0.1834
 3031TIP3    H1 9057   3.415   6.285   2.884  0.2013  0.4158 -0.1414
 3031TIP3    H2 9058   3.508   6.403   2.866  0.9146 -0.0832  0.2591
 3032TIP3   OH2 9059   0.946   3.932   3.218 -0.0526 -0.0199 -0.0644
 3032TIP3    H1 9060   0.907   3.924   3.305 -0.7446 -1.1112 -0.4578
 3032TIP3    H2 9061   0.897   4.004   3.177  0.7821  1.0088  0.6876
 3033TIP3   OH2 9062   3.032   6.503   0.413  0.0118 -0.0593  0.6813
 3033TIP3    H1 9063   2.961   6.538   0.359  0.6905 -0.4409 -0.5091
 3033TIP3    H2 9064   3.082   6.580   0.441  2.3640  0.0683 -3.1256
 3034TIP3   OH2 9065   3.890   5.819   5.526 -0.4191 -0.1360 -0.1155
 3034TIP3    H1 9066   3.796   5.827   5.509 -0.4794 -0.1106  0.2356
 3034TIP3    H2 9067   3.930   5.824   5.439 -0.7572 -0.3987 -0.2874
 3035TIP3   OH2 9068   2.928   5.746   0.228  0.5603 -0.2023  0.3516
 3035TIP3    H1 9069   2.968   5.707   0.151  0.4841 -2.0431  1.2044
 3035TIP3    H2 9070   2.975   5.707   0.302  0.3925  1.2459  1.2588
 3036TIP3   OH2 9071   3.593   0.558   0.565 -0.3111  0.3091  0.3157
 3036TIP3    H1 9072   3.670   0.508   0.538 -0.6178 -1.7238  2.7479
 3036TIP3    H2 9073   3.528   0.540   0.497  0.4550 -0.4061 -0.2489
 3037TIP3   OH2 9074   0.903   4.208   3.928 -0.6212  0.4674 -0.8376
 3037TIP3    H1 9075   0.835   4.272   3.907 -1.7194 -0.9027 -1.6329
 3037TIP3    H2 9076   0.870   4.125   3.894 -0.5380 -1.1341  2.5473
 3038TIP3   OH2 9077   5.137   4.240   3.182 -0.1702  0.4451 -0.0840
 3038TIP3    H1 9078   5.128   4.266   3.090 -1.5716  0.3341  0.0025
 3038TIP3    H2 9079   5.053   4.202   3.204 -0.0546  1.0035  1.4287
 3039TIP3   OH2 9080   1.894   6.592   3.918  0.1258 -0.0807  0.5939
 3039TIP3    H1 9081   1.870   6.614   3.828  0.3750 -1.2084  0.2399
 3039TIP3    H2 9082   1.862   6.666   3.970 -0.9541  0.1048 -0.2965
 3040TIP3   OH2 9083   1.571   3.726   5.280  0.4023 -0.0328 -0.1608
 3040TIP3    H1 9084   1.620   3.756   5.203 -0.8353  1.9180 -0.2395
 3040TIP3    H2 9085   1.482   3.757   5.266  0.1450  0.4225  2.0760
 3041TIP3   OH2 9086   6.577   0.624   5.170  0.8423 -0.0282 -0.0389
 3041TIP3    H1 9087   6.519   0.634   5.095  0.0646  0.0001  0.5582
 3041TIP3    H2 9088   6.580   0.710   5.211 -0.8483 -0.6277  1.4669
 3042TIP3   OH2 9089   4.581   4.489   5.481  0.4611  0.0930  0.5023
 3042TIP3    H1 9090   4.587   4.397   5.507  2.6570  0.1546  0.3878
 3042TIP3    H2 9091   4.513   4.525   5.537 -0.6344 -1.6456  0.3773
 3043TIP3   OH2 9092   3.072   0.722   2.935 -0.7481 -0.3403  0.5818
 3043TIP3    H1 9093   3.135   0.703   3.006 -0.7108 -0.8530  0.4191
 3043TIP3    H2 9094   2.998   0.664   2.953 -0.8811 -0.2303  0.3879
 3044TIP3   OH2 9095   6.577   3.924   0.697 -0.3189  0.0310  0.0516
 3044TIP3    H1 9096   6.489   3.913   0.734 -0.2407  0.8647  0.5317
 3044TIP3    H2 9097   6.636   3.915   0.772 -0.1722  1.9762  0.2263
 3045TIP3   OH2 9098   4.047   1.164   0.374 -0.0557  1.1304  0.3492
 3045TIP3    H1 9099   4.065   1.254   0.400  3.3436  0.6352  0.1983
 3045TIP3    H2 9100   4.044   1.166   0.278  0.5406  1.0372  0.3236
 3046TIP3   OH2 9101   5.239   2.721   0.303 -0.2034 -0.3227  0.2397
 3046TIP3    H1 9102   5.310   2.662   0.328  0.2043 -0.8145 -1.9006
 3046TIP3    H2 9103   5.284   2.795   0.261 -0.9121 -0.1986 -0.3066
 3047TIP3   OH2 9104   3.971   0.657   2.675  0.3170  0.0186 -0.1833
 3047TIP3    H1 9105   3.939   0.614   2.596 -0.2916  1.2625 -0.6394
 3047TIP3    H2 9106   3.907   0.727   2.692  2.3455  2.1064 -0.6633
 3048TIP3   OH2 9107   4.085   5.110   4.105  0.2111 -0.0243  0.5348
 3048TIP3    H1 9108   4.140   5.172   4.058  0.4177 -0.0331  0.7663
 3048TIP3    H2 9109   4.116   5.024   4.076 -0.0531 -0.0248  0.2394
 3049TIP3   OH2 9110   4.763   0.922   0.532 -0.0334 -0.2718 -0.2949
 3049TIP3    H1 9111   4.684   0.868   0.530 -0.8030  0.8213 -0.1710
 3049TIP3    H2 9112   4.764   0.967   0.448  0.0014  0.3481  0.0285
 3050TIP3   OH2 9113   5.790   3.100   0.235 -0.1018 -0.0471  0.1971
 3050TIP3    H1 9114   5.720   3.162   0.212 -0.3040 -0.2630  0.2293
 3050TIP3    H2 9115   5.839   3.089   0.153 -0.7963 -0.7834 -0.1318
 3051TIP3   OH2 9116   5.999   1.832   1.992  0.0586  0.4612 -0.2933
 3051TIP3    H1 9117   5.927   1.832   2.055 -0.2384 -1.2149 -0.5742
 3051TIP3    H2 9118   6.036   1.744   1.999  1.6685  1.0881 -0.6283
 3052TIP3   OH2 9119   5.958   0.187   5.104  0.2831  0.4443 -0.0514
 3052TIP3    H1 9120   6.042   0.207   5.063  0.4974  1.5544  0.8744
 3052TIP3    H2 9121   5.973   0.104   5.150  0.8076  0.5044 -0.1044
 3053TIP3   OH2 9122   2.164   5.365   2.365 -0.2914  0.4844 -0.4803
 3053TIP3    H1 9123   2.111   5.320   2.431  0.5858 -3.7668 -2.3596
 3053TIP3    H2 9124   2.245   5.388   2.411 -1.7317  2.7335  1.1761
 3054TIP3   OH2 9125   6.222   2.703   5.241 -0.0782  0.2695  0.3014
 3054TIP3    H1 9126   6.294   2.766   5.236  0.2433 -0.0145  1.1757
 3054TIP3    H2 9127   6.176   2.726   5.321  0.2708 -0.8420  0.8406
 3055TIP3   OH2 9128   4.485   4.614   2.384 -0.0889  0.1344  0.5829
 3055TIP3    H1 9129   4.573   4.648   2.405 -0.1895  0.6891  0.1219
 3055TIP3    H2 9130   4.457   4.572   2.465  0.7905 -0.4684  0.5979
 3056TIP3   OH2 9131   2.328   6.454   0.937  0.1897 -0.2372 -0.1750
 3056TIP3    H1 9132   2.418   6.430   0.912  0.0813 -2.0083  0.9117
 3056TIP3    H2 9133   2.283   6.370   0.946 -1.2207  0.5616  0.5740
 3057TIP3   OH2 9134   3.121   5.090   5.226  0.2021  0.5102  0.3975
 3057TIP3    H1 9135   3.043   5.144   5.240  0.8823  2.0648 -1.3622
 3057TIP3    H2 9136   3.100   5.036   5.150  0.9905  1.3461 -0.4436
 3058TIP3   OH2 9137   0.318   3.153   4.969 -0.0403 -0.1385  0.5528
 3058TIP3    H1 9138   0.377   3.132   5.042 -2.0677 -0.3511  2.2237
 3058TIP3    H2 9139   0.329   3.247   4.956  0.7647 -0.1975  0.7324
 3059TIP3   OH2 9140   7.082   1.628   1.196  0.1736  0.1636  0.5188
 3059TIP3    H1 9141   7.096   1.576   1.117 -0.1016  0.7975  0.0446
 3059TIP3    H2 9142   7.017   1.694   1.170 -0.1554  0.1797  1.3646
 3060TIP3   OH2 9143   4.524   3.594   0.080  0.1396 -0.3821 -0.4793
 3060TIP3    H1 9144   4.538   3.689   0.082  0.7196 -0.4802  0.8884
 3060TIP3    H2 9145   4.610   3.557   0.101  0.1060 -1.2476 -1.7372
 3061TIP3   OH2 9146   4.754   1.804   3.698 -0.6748  0.1355  0.1891
 3061TIP3    H1 9147   4.680   1.843   3.743  0.4265  2.3162  0.2691
 3061TIP3    H2 9148   4.772   1.864   3.625  0.2237 -1.0143 -0.5667
 3062TIP3   OH2 9149   3.159   5.964   0.458 -0.6783  0.1173  0.1678
 3062TIP3    H1 9150   3.176   5.977   0.364  3.5810  0.7455  0.8381
 3062TIP3    H2 9151   3.155   5.869   0.468  1.5195 -0.1019 -0.4077
 3063TIP3   OH2 9152   2.996   1.465   1.906  0.1458  0.3969  0.5336
 3063TIP3    H1 9153   3.033   1.547   1.941  0.3095  1.1565 -1.3054
 3063TIP3    H2 9154   2.902   1.482   1.899  0.0775  0.1520  0.8399
 3064TIP3   OH2 9155   4.078   5.651   0.138  0.3403 -0.0870  0.2195
 3064TIP3    H1 9156   4.012   5.619   0.077  0.9949  0.3194 -0.7300
 3064TIP3    H2 9157   4.030   5.703   0.201 -0.1536  0.9695 -0.9910
 3065TIP3   OH2 9158   6.086   5.654   0.754  0.4846 -0.5233  0.5184
 3065TIP3    H1 9159   6.075   5.658   0.849  1.7999 -1.5817  0.7413
 3065TIP3    H2 9160   6.109   5.744   0.729  0.3194 -0.2769  1.2161
 3066TIP3   OH2 9161   2.442   1.928   1.729 -0.1122 -0.6117  0.5675
 3066TIP3    H1 9162   2.470   1.864   1.794  1.5288 -1.0539 -0.5359
 3066TIP3    H2 9163   2.368   1.973   1.771 -0.0728 -1.9020  2.1178
 3067TIP3   OH2 9164   0.223   6.532   3.791  0.2687  0.4768  0.2807
 3067TIP3    H1 9165   0.281   6.565   3.722  1.5465  0.2481  1.1944
 3067TIP3    H2 9166   0.142   6.582   3.781  1.8227  3.3956  1.1134
 3068TIP3   OH2 9167   1.177   0.038   4.297 -0.7697  0.0496  0.3057
 3068TIP3    H1 9168   1.244  -0.015   4.340 -1.4028  0.5755  2.0012
 3068TIP3    H2 9169   1.225   0.115   4.265 -0.0340 -1.0117 -1.2911
 3069TIP3   OH2 9170   2.121   0.357   0.566  0.2691 -0.7511  0.2916
 3069TIP3    H1 9171   2.198   0.375   0.512 -0.1050 -1.3980 -0.4878
 3069TIP3    H2 9172   2.107   0.263   0.557 -0.5048 -0.6716  0.5607
 3070TIP3   OH2 9173   0.314   6.144   4.847 -0.3671  0.3411 -0.6544
 3070TIP3    H1 9174   0.272   6.150   4.932 -1.2554  0.2628 -1.0735
 3070TIP3    H2 9175   0.331   6.234   4.821  0.8973  0.3347  0.0658
 3071TIP3   OH2 9176   0.336   6.167   2.601  0.4259  0.0432 -0.2736
 3071TIP3    H1 9177   0.417   6.217   2.594 -0.1548  0.8544 -1.8951
 3071TIP3    H2 9178   0.277   6.223   2.651  0.2903  0.2982 -0.7082
 3072TIP3   OH2 9179   5.109   4.372   4.444 -0.5349 -0.0507 -0.3684
 3072TIP3    H1 9180   5.099   4.462   4.415 -0.0823  0.8783  2.1010
 3072TIP3    H2 9181   5.114   4.321   4.364 -0.5938  2.1373 -1.8381
 3073TIP3   OH2 9182   2.537   3.669   1.476 -0.5882  0.0303  0.7206
 3073TIP3    H1 9183   2.450   3.647   1.511 -0.5631  1.5861  1.8675
 3073TIP3    H2 9184   2.576   3.725   1.543  0.7525  0.5279 -0.4351
 3074TIP3   OH2 9185   1.426   3.066   3.488  0.0232 -0.1146 -0.5434
 3074TIP3    H1 9186   1.471   3.081   3.405 -0.2832  0.2643 -0.6488
 3074TIP3    H2 9187   1.487   3.014   3.540  1.5912  2.2546  0.1775
 3075TIP3   OH2 9188   0.402   0.190   0.448  0.4969  0.4979 -0.4542
 3075TIP3    H1 9189   0.443   0.140   0.377  1.7578 -0.8953  1.1880
 3075TIP3    H2 9190   0.470   0.249   0.479  0.3621  0.2330  0.3754
 3076TIP3   OH2 9191   4.918   4.488   3.004 -0.1004  0.0850 -0.3536
 3076TIP3    H1 9192   4.929   4.408   2.951 -0.9309  0.0373 -0.4687
 3076TIP3    H2 9193   4.963   4.556   2.954  0.4714 -0.2714 -0.3373
 3077TIP3   OH2 9194   6.476   5.075   4.428  0.1962 -0.2132 -0.1843
 3077TIP3    H1 9195   6.543   5.010   4.451  1.0105  0.4248 -0.6899
 3077TIP3    H2 9196   6.394   5.037   4.460  1.0883  0.1524  2.8629
 3078TIP3   OH2 9197   4.581   3.247   1.919 -0.1537 -0.2578 -0.2495
 3078TIP3    H1 9198   4.542   3.327   1.886 -0.0344 -0.5692 -1.1835
 3078TIP3    H2 9199   4.589   3.191   1.842  1.0658 -0.6289  0.1264
 3079TIP3   OH2 9200   4.499   6.142   0.508 -0.0206  0.4823  0.0207
 3079TIP3    H1 9201   4.507   6.223   0.558 -0.5661  0.9048 -0.5513
 3079TIP3    H2 9202   4.405   6.133   0.493  0.0033 -0.4298  0.3393
 3080TIP3   OH2 9203   1.636   1.692   3.892 -0.2866 -0.1167 -0.1231
 3080TIP3    H1 9204   1.568   1.691   3.825  0.7681  2.0820 -1.3156
 3080TIP3    H2 9205   1.708   1.642   3.855 -0.1495  0.0763 -0.1179
 3081TIP3   OH2 9206   2.667   5.848   2.573  0.2539 -0.5760 -0.4050
 3081TIP3    H1 9207   2.734   5.851   2.642 -0.4684  1.2187  0.2939
 3081TIP3    H2 9208   2.660   5.756   2.549  1.1454 -1.1280  1.3256
 3082TIP3   OH2 9209   5.064   6.152   3.050  0.4412 -0.0196 -0.5831
 3082TIP3    H1 9210   5.066   6.079   2.989  1.2711 -0.6384  0.1522
 3082TIP3    H2 9211   5.011   6.121   3.124 -0.4822  0.6865 -0.9313
 3083TIP3   OH2 9212   3.247   0.156   3.027 -0.7678  0.1120 -0.0516
 3083TIP3    H1 9213   3.192   0.085   2.996  0.2737 -1.1535  0.8754
 3083TIP3    H2 9214   3.332   0.141   2.985 -0.7660  1.3128 -0.5056
 3084TIP3   OH2 9215   4.836   2.519   3.535  0.1169 -0.4541  0.4699
 3084TIP3    H1 9216   4.855   2.481   3.449 -0.1588 -0.3159  0.3442
 3084TIP3    H2 9217   4.822   2.443   3.592 -0.1029 -0.5457  0.2975
 3085TIP3   OH2 9218   0.327   2.787   5.057  0.3336  0.4439  0.1758
 3085TIP3    H1 9219   0.392   2.812   4.992  1.7387 -1.1830  0.8654
 3085TIP3    H2 9220   0.286   2.708   5.021 -0.9059  1.1313  0.0092
 3086TIP3   OH2 9221   0.233   4.321   1.692 -1.3814  0.3536  0.4754
 3086TIP3    H1 9222   0.276   4.249   1.646 -1.1398  0.8044 -0.0139
 3086TIP3    H2 9223   0.291   4.396   1.678 -0.7446  0.2885  2.3855
 3087TIP3   OH2 9224   1.853   2.633   3.055  0.2949 -0.3471 -0.3697
 3087TIP3    H1 9225   1.861   2.724   3.028 -1.3982 -0.0344  0.0424
 3087TIP3    H2 9226   1.932   2.615   3.105  0.0172  1.3494  0.7632
 3088TIP3   OH2 9227   5.453   3.843   4.140 -0.4253  0.0361  0.0201
 3088TIP3    H1 9228   5.374   3.878   4.100 -0.5688  0.4804  0.6689
 3088TIP3    H2 9229   5.515   3.835   4.068 -0.8857  0.1987 -0.3996
 3089TIP3   OH2 9230   0.731   1.170   3.871  0.5688 -0.2543  0.0798
 3089TIP3    H1 9231   0.703   1.229   3.801 -0.9226 -1.9183 -0.8310
 3089TIP3    H2 9232   0.786   1.105   3.826 -0.3371 -1.2928  0.4411
 3090TIP3   OH2 9233   4.920   2.190   4.226  0.0189 -0.2175 -0.3686
 3090TIP3    H1 9234   4.984   2.244   4.179  0.1330 -0.2692 -0.2734
 3090TIP3    H2 9235   4.842   2.245   4.231 -0.1762 -0.4108 -1.0941
 3091TIP3   OH2 9236   1.423   6.380   2.720 -0.1323 -0.1267  0.0785
 3091TIP3    H1 9237   1.357   6.372   2.789  1.0875  1.7162  1.5351
 3091TIP3    H2 9238   1.484   6.309   2.736  1.3120  1.5006  2.3113
 3092TIP3   OH2 9239   4.326   4.135   4.852 -0.0450  0.0484 -0.3834
 3092TIP3    H1 9240   4.365   4.082   4.783 -0.6789  0.0926 -0.7752
 3092TIP3    H2 9241   4.338   4.083   4.932  2.9293  1.0656 -0.0461
 3093TIP3   OH2 9242   1.047   3.794   1.651  0.1613 -0.1250  0.3075
 3093TIP3    H1 9243   1.036   3.726   1.585 -4.4274 -0.0945  0.7046
 3093TIP3    H2 9244   1.016   3.874   1.609  1.8995  0.9904  1.0408
 3094TIP3   OH2 9245   5.395   4.940   4.827 -0.4300 -0.6521 -0.4120
 3094TIP3    H1 9246   5.355   4.950   4.740  0.1082 -2.5253 -0.9209
 3094TIP3    H2 9247   5.421   5.029   4.852 -0.7928 -0.0478 -2.0724
 3095TIP3   OH2 9248   4.476   1.085   1.468 -0.0252 -0.6986  0.0818
 3095TIP3    H1 9249   4.414   1.158   1.467 -0.4456 -1.0401  0.3923
 3095TIP3    H2 9250   4.557   1.122   1.504  0.3826  0.0740 -1.5580
 3096TIP3   OH2 9251   6.585   5.344   0.695 -0.2155  0.2432  0.1671
 3096TIP3    H1 9252   6.653   5.365   0.758 -0.2202  0.3817  0.1245
 3096TIP3    H2 9253   6.568   5.250   0.709  0.9590 -0.1288 -0.7708
 3097TIP3   OH2 9254   5.740   2.010   2.343 -0.0959 -0.5707 -0.2404
 3097TIP3    H1 9255   5.767   2.060   2.266 -0.2656 -1.5741 -0.9747
 3097TIP3    H2 9256   5.743   2.073   2.415  2.4344 -0.1621 -0.5965
 3098TIP3   OH2 9257   6.491   3.455   3.993 -0.1308 -0.1117 -0.0792
 3098TIP3    H1 9258   6.556   3.525   3.984  0.3210 -0.3742  0.9784
 3098TIP3    H2 9259   6.524   3.385   3.937  0.6848 -0.3618  0.6852
 3099TIP3   OH2 9260   3.594   3.332   5.023  0.8181  0.6963  0.0297
 3099TIP3    H1 9261   3.552   3.246   5.024  1.8078  0.1368 -2.0012
 3099TIP3    H2 9262   3.585   3.362   4.932  2.4405  1.7387  0.1779
 3100TIP3   OH2 9263   2.740   5.654   1.119  0.3369 -0.5294 -0.4730
 3100TIP3    H1 9264   2.715   5.682   1.031 -0.5756 -0.0577 -0.0683
 3100TIP3    H2 9265   2.761   5.734   1.165  2.0536 -0.8574 -0.5992
 3101TIP3   OH2 9266   6.368   5.648   4.764 -0.0299 -0.1790 -0.3028
 3101TIP3    H1 9267   6.437   5.665   4.828  0.6834 -1.7395 -0.5954
 3101TIP3    H2 9268   6.293   5.698   4.794  0.6661  0.0675  1.0732
 3102TIP3   OH2 9269   1.828   4.833   0.120  0.0941  0.3614 -0.2495
 3102TIP3    H1 9270   1.797   4.749   0.154  0.2588  0.6574  0.6556
 3102TIP3    H2 9271   1.767   4.898   0.156 -1.1992  0.4856 -2.4753
 3103TIP3   OH2 9272   0.043   5.676   2.868  0.2088 -0.2815  0.5176
 3103TIP3    H1 9273   0.079   5.638   2.949  1.0248 -2.0122 -0.6033
 3103TIP3    H2 9274  -0.023   5.613   2.839  0.2179  0.1130 -0.3761
 3104TIP3   OH2 9275   1.979   3.610   5.880 -0.3649  0.7600 -0.4677
 3104TIP3    H1 9276   2.060   3.661   5.886 -0.7827  1.2920  1.2322
 3104TIP3    H2 9277   1.956   3.613   5.787  1.3864  0.8500 -0.9392
 3105TIP3   OH2 9278   6.618   2.226   1.303  0.3035 -0.4075  0.1401
 3105TIP3    H1 9279   6.634   2.207   1.395 -0.3289 -2.6169 -0.1380
 3105TIP3    H2 9280   6.679   2.297   1.282  0.7178 -0.1061  2.1437
 3106TIP3   OH2 9281   3.376   4.457   3.513  0.0339  0.1529 -0.0447
 3106TIP3    H1 9282   3.463   4.495   3.522 -0.2021  1.6132 -2.8188
 3106TIP3    H2 9283   3.392   4.364   3.498  1.3942  0.7309 -2.8898
 3107TIP3   OH2 9284   1.168   0.290   2.400 -0.0474 -0.4741 -0.3832
 3107TIP3    H1 9285   1.078   0.260   2.403 -0.6065  1.1548  1.0575
 3107TIP3    H2 9286   1.220   0.217   2.434 -1.1632 -0.4639  1.4756
 3108TIP3   OH2 9287   0.265   0.619   5.316  0.2583 -0.3700  0.0408
 3108TIP3    H1 9288   0.285   0.684   5.383 -0.1280 -0.5119  0.2994
 3108TIP3    H2 9289   0.348   0.573   5.301  0.9299  1.1560 -1.2333
 3109TIP3   OH2 9290   0.971   0.272   5.887 -0.2677 -0.4915 -0.6514
 3109TIP3    H1 9291   0.976   0.226   5.803 -1.8966 -1.7882 -0.0886
 3109TIP3    H2 9292   1.039   0.230   5.940 -0.1154 -0.5704 -0.9045
 3110TIP3   OH2 9293   3.868   4.340   4.888  0.0855 -0.2968  0.7480
 3110TIP3    H1 9294   3.794   4.393   4.917  1.4460  1.6919  0.7842
 3110TIP3    H2 9295   3.831   4.281   4.822 -1.4059  1.1160  0.2470
 3111TIP3   OH2 9296   3.217   6.381   3.209 -0.3832 -0.6861  0.0173
 3111TIP3    H1 9297   3.278   6.454   3.216 -1.8727  0.5757  0.2923
 3111TIP3    H2 9298   3.255   6.325   3.141 -0.3297  1.4775 -1.8500
 3112TIP3   OH2 9299   5.322   3.177   5.595 -0.3553  0.1767  0.1867
 3112TIP3    H1 9300   5.324   3.252   5.536  0.4180 -0.5456 -0.7284
 3112TIP3    H2 9301   5.324   3.100   5.537  0.2275 -0.5477  1.1413
 3113TIP3   OH2 9302   0.241   1.021   2.117 -0.2817  0.3661  0.5382
 3113TIP3    H1 9303   0.174   0.953   2.117 -0.0611  0.1378  1.1109
 3113TIP3    H2 9304   0.288   1.009   2.035 -0.0236 -0.4043  0.7864
 3114TIP3   OH2 9305   5.769   3.568   3.761  0.2358 -0.3230 -0.0645
 3114TIP3    H1 9306   5.711   3.617   3.703 -1.4006 -1.3450  0.6322
 3114TIP3    H2 9307   5.757   3.476   3.737  0.5571 -0.6566  0.9626
 3115TIP3   OH2 9308   6.488   6.549   1.756 -0.4163 -0.2014 -0.2922
 3115TIP3    H1 9309   6.401   6.530   1.720 -2.0796  2.2554  2.0087
 3115TIP3    H2 9310   6.501   6.481   1.823 -0.6225 -0.4928 -0.5415
 3116TIP3   OH2 9311   4.796   2.687   5.850 -0.6714  0.2260 -0.0589
 3116TIP3    H1 9312   4.781   2.772   5.891  0.6140  0.7469 -0.6046
 3116TIP3    H2 9313   4.719   2.673   5.795 -1.2940  0.6202  0.6941
 3117TIP3   OH2 9314   0.209   5.288   4.670  0.5124  0.0593  0.9531
 3117TIP3    H1 9315   0.125   5.277   4.715  0.1274  0.3662  0.3147
 3117TIP3    H2 9316   0.224   5.382   4.671  1.1548 -0.0382  1.5996
 3118TIP3   OH2 9317   5.561   6.407   1.681 -0.2803 -0.0688 -0.5059
 3118TIP3    H1 9318   5.489   6.470   1.687  0.2465  0.6612 -1.5410
 3118TIP3    H2 9319   5.640   6.460   1.689  0.1829 -1.0066  1.8558
 3119TIP3   OH2 9320   5.800   2.108   0.394  0.2566 -0.5064 -0.1972
 3119TIP3    H1 9321   5.824   2.087   0.304  2.4561 -1.7033  0.5935
 3119TIP3    H2 9322   5.857   2.181   0.418 -2.7735  2.3119 -0.7917
 3120TIP3   OH2 9323   1.149   6.186   0.309 -0.0540 -0.2428 -0.1297
 3120TIP3    H1 9324   1.193   6.117   0.260 -0.1004 -0.7768  0.5654
 3120TIP3    H2 9325   1.143   6.259   0.248 -0.0543 -0.8737 -0.8884
 3121TIP3   OH2 9326   3.644   4.487   4.717  0.5532  0.3907  0.1702
 3121TIP3    H1 9327   3.692   4.461   4.638 -0.0970 -1.4250  0.3397
 3121TIP3    H2 9328   3.564   4.435   4.715  1.2623 -0.9690  2.8823
 3122TIP3   OH2 9329   3.865   6.465   1.114  0.0448 -0.0474  0.2789
 3122TIP3    H1 9330   3.857   6.520   1.192  1.5712 -0.1090  0.5133
 3122TIP3    H2 9331   3.954   6.429   1.120  0.0805 -0.2770 -1.3408
 3123TIP3   OH2 9332   5.835   0.341   1.032  0.1171 -0.0961  0.1000
 3123TIP3    H1 9333   5.761   0.359   1.090  0.5034 -1.4442  1.0450
 3123TIP3    H2 9334   5.900   0.409   1.054 -0.0037 -0.1962  0.7811
 3124TIP3   OH2 9335   7.011   0.603   0.787  0.1282 -0.2024 -0.0157
 3124TIP3    H1 9336   6.955   0.549   0.730  0.5396  1.2451 -1.9086
 3124TIP3    H2 9337   7.095   0.558   0.789 -0.0786 -0.5906 -0.0334
 3125TIP3   OH2 9338   3.201   5.952   0.837  0.0055  0.5075 -0.0357
 3125TIP3    H1 9339   3.168   5.984   0.753 -0.7261 -0.4184 -0.1117
 3125TIP3    H2 9340   3.249   6.026   0.874  2.2742  0.2712 -2.2771
 3126TIP3   OH2 9341   0.139   5.715   1.176  0.3293 -0.1417 -0.7136
 3126TIP3    H1 9342   0.053   5.707   1.217  0.5282  2.2364  0.3122
 3126TIP3    H2 9343   0.196   5.660   1.230 -0.0214  0.5226  0.3775
 3127TIP3   OH2 9344   5.539   5.810   2.736  0.3460  0.0661  0.6169
 3127TIP3    H1 9345   5.550   5.746   2.806  0.5785 -2.2810 -1.4315
 3127TIP3    H2 9346   5.627   5.845   2.721  0.7221 -1.0646  0.0719
 3128TIP3   OH2 9347   1.786   0.164   4.829  0.4869 -1.1910  0.4348
 3128TIP3    H1 9348   1.861   0.133   4.880 -0.0726 -2.2875  0.6269
 3128TIP3    H2 9349   1.777   0.256   4.851  0.3272 -1.6140  2.2286
 3129TIP3   OH2 9350   0.003   4.992   5.873 -0.0781  0.3705 -0.0212
 3129TIP3    H1 9351  -0.034   5.067   5.828 -1.9631  0.3661  1.3880
 3129TIP3    H2 9352   0.077   5.028   5.923 -0.0348  0.9926 -0.5302
 3130TIP3   OH2 9353   0.521   5.285   4.343  0.6070 -0.1003 -0.5979
 3130TIP3    H1 9354   0.503   5.248   4.429 -1.3763  1.3042 -0.3303
 3130TIP3    H2 9355   0.446   5.261   4.289 -0.7023  3.0896 -0.4650
 3131TIP3   OH2 9356   6.898   4.627   4.953  0.3927 -0.1373 -0.5120
 3131TIP3    H1 9357   6.839   4.561   4.989  0.7495  0.5642  1.5223
 3131TIP3    H2 9358   6.957   4.579   4.896  1.3229 -1.8245  1.7269
 3132TIP3   OH2 9359   1.507   0.375   3.879  0.3002 -0.6341 -0.2301
 3132TIP3    H1 9360   1.440   0.309   3.894  0.9348 -0.7719  2.4606
 3132TIP3    H2 9361   1.468   0.457   3.910  0.5456 -0.2524 -0.8970
 3133TIP3   OH2 9362   3.160   1.416   5.414  0.0653 -0.5103 -0.5341
 3133TIP3    H1 9363   3.065   1.410   5.421  0.0135 -0.3120 -1.0308
 3133TIP3    H2 9364   3.190   1.325   5.404 -0.0866 -0.5610 -0.5202
 3134TIP3   OH2 9365   6.489   0.645   4.454  0.2968 -0.1320  0.3885
 3134TIP3    H1 9366   6.496   0.634   4.359 -0.8109  1.3957  0.0809
 3134TIP3    H2 9367   6.501   0.739   4.469  0.4214 -0.3373  1.7635
 3135TIP3   OH2 9368   2.764   1.070   1.179  0.4691 -0.4919 -0.1171
 3135TIP3    H1 9369   2.745   1.086   1.272  0.4668  0.4542 -0.2683
 3135TIP3    H2 9370   2.853   1.103   1.168  0.2072  0.0539 -0.6080
 3136TIP3   OH2 9371   3.790   3.044   1.985 -0.3120  0.4058  0.5004
 3136TIP3    H1 9372   3.804   3.067   1.893  0.7759  1.2842  0.8676
 3136TIP3    H2 9373   3.865   2.988   2.007  0.3450  1.5601  1.2956
 3137TIP3   OH2 9374   3.187   3.670   4.782  0.1348 -0.1737 -0.4748
 3137TIP3    H1 9375   3.235   3.753   4.771  0.1948 -0.1686 -0.1887
 3137TIP3    H2 9376   3.204   3.622   4.702  2.2493 -0.9976  0.3903
 3138TIP3   OH2 9377   0.509   2.303   4.948  0.3389 -0.5484  0.4369
 3138TIP3    H1 9378   0.589   2.276   4.992 -0.4642 -1.4561  1.4025
 3138TIP3    H2 9379   0.442   2.300   5.017 -0.5605  0.0173 -0.3858
 3139TIP3   OH2 9380   3.829   0.761   3.382 -0.2153  0.0325  0.4035
 3139TIP3    H1 9381   3.758   0.821   3.362  1.0857  1.2646 -0.7711
 3139TIP3    H2 9382   3.900   0.787   3.323  1.9562  0.1920  2.9240
 3140TIP3   OH2 9383   7.130   3.492   1.531 -0.2836  0.1705 -0.1788
 3140TIP3    H1 9384   7.044   3.460   1.502 -0.2018  0.1634 -0.4171
 3140TIP3    H2 9385   7.136   3.581   1.495 -0.3330  0.2972  0.1244
 3141TIP3   OH2 9386   1.951   1.168   0.707 -0.0335 -0.1814 -0.7484
 3141TIP3    H1 9387   2.004   1.100   0.664 -0.5032  0.3738 -2.2656
 3141TIP3    H2 9388   1.921   1.224   0.636  0.1269  1.4971  0.4388
 3142TIP3   OH2 9389   1.688   5.953   4.597  0.1011 -0.1352  0.0321
 3142TIP3    H1 9390   1.686   6.044   4.626 -2.6816  0.2489 -1.0224
 3142TIP3    H2 9391   1.776   5.922   4.620  0.4392  2.1573  2.3380
 3143TIP3   OH2 9392   5.385   5.875   5.023 -0.6931 -0.0115 -0.4489
 3143TIP3    H1 9393   5.296   5.910   5.031 -0.2194  0.8714  1.5943
 3143TIP3    H2 9394   5.436   5.946   4.985 -0.4738  0.1933  0.2224
 3144TIP3   OH2 9395   5.414   5.664   3.233  0.0146 -0.1704 -0.1349
 3144TIP3    H1 9396   5.471   5.603   3.280  0.3289 -0.6634 -1.1140
 3144TIP3    H2 9397   5.343   5.609   3.201 -1.5096  0.5744  1.7768
 3145TIP3   OH2 9398   5.392   5.714   4.374 -0.1568 -1.5393 -0.1518
 3145TIP3    H1 9399   5.462   5.667   4.419  2.0263  1.4149 -0.1570
 3145TIP3    H2 9400   5.364   5.780   4.437 -0.3903 -0.3804 -1.4460
 3146TIP3   OH2 9401   3.533   1.181   5.583 -0.2802  0.3459  0.0980
 3146TIP3    H1 9402   3.519   1.276   5.577 -0.0544  0.2873 -2.3694
 3146TIP3    H2 9403   3.605   1.172   5.645  0.4902  1.8838 -0.5147
 3147TIP3   OH2 9404   0.294   5.759   1.620  0.5567 -0.1527 -0.1794
 3147TIP3    H1 9405   0.200   5.767   1.607  0.2933 -0.0239  1.5845
 3147TIP3    H2 9406   0.304   5.686   1.681  1.6264 -0.3788 -0.6076
 3148TIP3   OH2 9407   1.109   0.458   1.463  0.2560  0.2676 -0.0184
 3148TIP3    H1 9408   1.187   0.460   1.407  3.1033  0.8001  3.5639
 3148TIP3    H2 9409   1.038   0.435   1.404  2.9745  0.3420 -3.6988
 3149TIP3   OH2 9410   0.552   5.921   1.093  0.1721  0.5784  0.3264
 3149TIP3    H1 9411   0.639   5.939   1.128  1.0760  1.3630 -2.1218
 3149TIP3    H2 9412   0.548   5.826   1.085  0.3705  0.4701  1.4762
 3150TIP3   OH2 9413   6.669   2.199   0.641 -0.2655  0.0145  0.3202
 3150TIP3    H1 9414   6.585   2.228   0.675 -0.5681  0.0336 -0.4209
 3150TIP3    H2 9415   6.648   2.128   0.581  0.3405 -0.7016  0.9344
 3151TIP3   OH2 9416   3.418   4.238   3.868 -0.0254  0.0742  0.5708
 3151TIP3    H1 9417   3.348   4.242   3.803  2.6434 -0.7404 -2.6965
 3151TIP3    H2 9418   3.443   4.145   3.870  1.9352  0.5519  0.3944
 3152TIP3   OH2 9419   0.623   3.469   4.995 -0.2301  0.5968 -0.3428
 3152TIP3    H1 9420   0.620   3.564   4.984 -1.1660  0.3508 -2.7931
 3152TIP3    H2 9421   0.536   3.439   4.968  0.0155 -0.9663  0.4800
 3153TIP3   OH2 9422   2.842   0.997   0.480 -0.5424  0.3770 -0.4689
 3153TIP3    H1 9423   2.773   1.062   0.468 -1.0956 -0.0240  0.4052
 3153TIP3    H2 9424   2.887   1.025   0.560 -2.4219 -1.6647  1.4410
 3154TIP3   OH2 9425   2.564   3.384   1.679 -0.1016  0.5349  0.0213
 3154TIP3    H1 9426   2.582   3.343   1.764 -1.1330  0.5676  0.2751
 3154TIP3    H2 9427   2.469   3.401   1.681  0.0382  1.4453 -0.7379
 3155TIP3   OH2 9428   6.132   3.399   3.596  0.0334  0.0597 -0.7094
 3155TIP3    H1 9429   6.066   3.460   3.564 -1.0228 -0.9067 -0.4136
 3155TIP3    H2 9430   6.172   3.443   3.671  0.2992  0.9821 -1.3775
 3156TIP3   OH2 9431   0.082   2.748   4.728  0.1195  0.6223 -0.2521
 3156TIP3    H1 9432   0.018   2.753   4.656  0.1424  2.2748 -0.1757
 3156TIP3    H2 9433   0.167   2.748   4.684  0.1086  0.0397 -0.2814
 3157TIP3   OH2 9434   0.835   4.725   0.285  0.4442  0.2256 -0.3628
 3157TIP3    H1 9435   0.878   4.810   0.276  0.9402  0.0082 -0.0901
 3157TIP3    H2 9436   0.772   4.738   0.356 -0.8779  0.9052 -1.6120
 3158TIP3   OH2 9437   6.435   6.673   3.325  0.5637 -0.0182 -0.2914
 3158TIP3    H1 9438   6.497   6.602   3.307  1.9191  1.4239 -1.6425
 3158TIP3    H2 9439   6.491   6.746   3.351 -0.5692  1.3206 -1.5231
 3159TIP3   OH2 9440   4.893   0.600   5.536  0.0867  0.1077 -0.3195
 3159TIP3    H1 9441   4.835   0.594   5.461  0.3170 -0.8232 -0.4338
 3159TIP3    H2 9442   4.969   0.649   5.503  0.1586 -0.2385 -0.6789
 3160TIP3   OH2 9443   0.633   1.868   1.750 -0.3269  0.0604  0.1227
 3160TIP3    H1 9444   0.688   1.804   1.707  1.5902  1.3649  0.4868
 3160TIP3    H2 9445   0.641   1.848   1.844 -1.6767 -0.6316  0.1086
 3161TIP3   OH2 9446   4.048   0.889   1.677 -0.3851  0.1518  0.1735
 3161TIP3    H1 9447   4.137   0.900   1.642 -0.1294  0.5107  0.9124
 3161TIP3    H2 9448   4.013   0.813   1.631  0.2021  0.1831 -0.3359
 3162TIP3   OH2 9449   5.149   3.609   3.320  0.5222 -0.0701  0.3588
 3162TIP3    H1 9450   5.101   3.583   3.242  1.8650 -0.5930 -0.3234
 3162TIP3    H2 9451   5.120   3.699   3.337 -0.7485 -0.4002  0.0454
 3163TIP3   OH2 9452   1.046   0.324   3.799 -0.0439 -0.1699 -0.4398
 3163TIP3    H1 9453   1.100   0.389   3.844  1.2770 -0.5885 -1.3741
 3163TIP3    H2 9454   1.001   0.374   3.731 -1.0649  0.2191  0.4758
 3164TIP3   OH2 9455   0.667   6.007   4.980 -0.2064 -0.3769 -0.3193
 3164TIP3    H1 9456   0.722   5.940   5.021 -1.5337 -0.6593  1.0656
 3164TIP3    H2 9457   0.730   6.068   4.940  1.0361 -2.1927 -1.2755
 3165TIP3   OH2 9458   0.155   3.917   1.078  0.1522 -0.0540 -0.2602
 3165TIP3    H1 9459   0.070   3.892   1.040  0.4052  1.4857 -1.9708
 3165TIP3    H2 9460   0.151   3.884   1.168 -1.7804 -1.0480 -0.6404
 3166TIP3   OH2 9461   3.640   2.161   5.077 -0.0460  0.1530 -0.5066
 3166TIP3    H1 9462   3.569   2.107   5.045 -0.7271  0.0117  1.1337
 3166TIP3    H2 9463   3.598   2.240   5.111  0.6983  0.5970 -0.5710
 3167TIP3   OH2 9464   5.741   3.773   3.203  0.7727 -0.0408 -0.0826
 3167TIP3    H1 9465   5.716   3.840   3.266 -0.0510  1.4552 -1.9165
 3167TIP3    H2 9466   5.665   3.764   3.145  1.2876 -1.7737 -0.5673
 3168TIP3   OH2 9467   6.612   1.809   4.327  0.0586  0.3127  0.0384
 3168TIP3    H1 9468   6.698   1.770   4.344 -0.1387 -0.6828 -1.1690
 3168TIP3    H2 9469   6.552   1.761   4.384 -0.0229 -0.4608 -0.6878
 3169TIP3   OH2 9470   6.499   4.869   2.712  0.0453 -0.0586 -0.6547
 3169TIP3    H1 9471   6.419   4.905   2.674 -0.1064  0.4161  0.0922
 3169TIP3    H2 9472   6.557   4.857   2.637 -0.6221 -0.1552 -1.1760
 3170TIP3   OH2 9473   6.877   3.491   3.554  0.6810 -0.4596 -0.1220
 3170TIP3    H1 9474   6.859   3.397   3.559 -0.4517 -0.1733  2.7988
 3170TIP3    H2 9475   6.819   3.522   3.484  1.9164 -2.0172 -1.9683
 3171TIP3   OH2 9476   6.007   2.423   2.776  0.4732 -0.5551 -0.5846
 3171TIP3    H1 9477   6.063   2.499   2.791 -0.3898  0.6724 -2.9654
 3171TIP3    H2 9478   6.056   2.368   2.715  0.4836 -1.2053 -0.0020
 3172TIP3   OH2 9479   4.353   2.056   0.248  0.0827  0.3857 -0.2893
 3172TIP3    H1 9480   4.320   2.094   0.329  0.5579 -1.6867  0.9274
 3172TIP3    H2 9481   4.276   2.052   0.191 -0.9237 -0.6802  1.0723
 3173TIP3   OH2 9482   6.106   3.144   2.582 -0.0551  0.0405 -0.6419
 3173TIP3    H1 9483   6.148   3.227   2.603 -0.6023  0.8052 -2.3639
 3173TIP3    H2 9484   6.165   3.077   2.617  1.4527  1.1146 -1.0461
 3174TIP3   OH2 9485   1.574   3.841   2.158 -0.5282 -0.5479  0.6145
 3174TIP3    H1 9486   1.616   3.927   2.156  0.0182 -0.6930 -3.3313
 3174TIP3    H2 9487   1.602   3.802   2.241  1.0851  2.1711  1.4840
 3175TIP3   OH2 9488   3.680   1.707   0.072 -0.3397  0.7331 -0.3407
 3175TIP3    H1 9489   3.700   1.619   0.104 -0.2254  1.3003  1.2076
 3175TIP3    H2 9490   3.753   1.728   0.013 -1.2974 -0.8866 -2.2190
 3176TIP3   OH2 9491   5.981   2.065   3.812 -0.1125  0.4235  0.3264
 3176TIP3    H1 9492   6.073   2.081   3.793 -0.5848  1.0074 -1.7103
 3176TIP3    H2 9493   5.933   2.119   3.749 -1.8553 -0.5797  0.7070
 3177TIP3   OH2 9494   3.169   2.141   0.336 -0.5428  0.4476 -0.0829
 3177TIP3    H1 9495   3.119   2.070   0.376 -0.3186 -1.8454 -3.4543
 3177TIP3    H2 9496   3.111   2.178   0.270  0.0322  2.1696  0.3140
 3178TIP3   OH2 9497   0.122   3.915   4.794  0.0802 -0.4090  0.4102
 3178TIP3    H1 9498   0.045   3.886   4.842  0.5585 -1.9086  0.3199
 3178TIP3    H2 9499   0.088   3.973   4.726 -0.9858 -1.1135  0.3203
 3179TIP3   OH2 9500   3.940   6.505   0.359 -0.0460  0.3511 -0.8313
 3179TIP3    H1 9501   3.847   6.520   0.376 -0.5536 -2.0090 -1.1640
 3179TIP3    H2 9502   3.985   6.557   0.426 -1.6696  0.0776  0.5511
 3180TIP3   OH2 9503   2.010   1.874   1.194  0.2078 -0.3966  0.3092
 3180TIP3    H1 9504   2.032   1.782   1.178  1.0406 -0.1917  0.2089
 3180TIP3    H2 9505   2.066   1.923   1.134  0.1147  0.1936  0.6945
 3181TIP3   OH2 9506   5.296   4.014   4.008 -0.0270  0.4685 -0.3519
 3181TIP3    H1 9507   5.202   4.020   3.992 -0.0672  1.9680  0.3559
 3181TIP3    H2 9508   5.333   4.094   3.970  0.9999 -0.1862 -0.7878
 3182TIP3   OH2 9509   3.568   6.112   2.511 -0.0175 -0.6748 -0.5134
 3182TIP3    H1 9510   3.529   6.027   2.494 -2.1143  0.0653  0.1789
 3182TIP3    H2 9511   3.553   6.162   2.431  0.1419 -0.6032 -0.4988
 3183TIP3   OH2 9512   3.702   1.619   0.980  0.5729  0.9697 -0.4963
 3183TIP3    H1 9513   3.664   1.683   1.040  1.8307  1.6213 -0.3625
 3183TIP3    H2 9514   3.639   1.547   0.979  0.2299  1.1931  1.1564
 3184TIP3   OH2 9515   4.555   3.064   3.537 -0.0771  0.6415 -0.2273
 3184TIP3    H1 9516   4.560   3.092   3.628  0.8143  1.2641 -0.4539
 3184TIP3    H2 9517   4.596   2.978   3.536  1.8295  1.5089 -0.3675
 3185TIP3   OH2 9518   2.707   5.213   3.862  0.1654 -0.0970  0.5736
 3185TIP3    H1 9519   2.629   5.159   3.859  0.3676 -0.3696  0.0438
 3185TIP3    H2 9520   2.745   5.205   3.774  0.4682  0.4994  0.6470
 3186TIP3   OH2 9521   6.804   5.648   1.353  0.1758 -0.3000  0.0070
 3186TIP3    H1 9522   6.730   5.648   1.292 -0.1530  0.1272  0.3958
 3186TIP3    H2 9523   6.766   5.677   1.436  0.8508  0.2706  0.1237
 3187TIP3   OH2 9524   1.168   0.101   3.566 -0.1473  0.0105  0.6598
 3187TIP3    H1 9525   1.262   0.095   3.581 -0.0981 -0.0474  0.3422
 3187TIP3    H2 9526   1.153   0.191   3.539  0.1580 -0.5349 -1.5010
 3188TIP3   OH2 9527   5.050   1.301   4.924 -0.3780  0.3194  0.2494
 3188TIP3    H1 9528   5.055   1.280   4.831 -2.1876  0.0863  0.1810
 3188TIP3    H2 9529   5.141   1.317   4.949  0.3927 -1.6178 -1.0693
 3189TIP3   OH2 9530   6.907   4.873   5.089  0.3551  0.2082 -0.0779
 3189TIP3    H1 9531   6.944   4.939   5.030  1.2136  0.1646  0.3982
 3189TIP3    H2 9532   6.891   4.798   5.033 -2.6302  1.4636 -1.0923
 3190TIP3   OH2 9533   2.550   2.269   4.380  0.6366 -0.4432  0.1565
 3190TIP3    H1 9534   2.493   2.207   4.425  0.9973 -1.0875 -0.2482
 3190TIP3    H2 9535   2.596   2.315   4.450 -1.5208  1.2581  0.5665
 3191TIP3   OH2 9536   3.617   6.234   0.628  0.4190 -0.1727  0.0958
 3191TIP3    H1 9537   3.661   6.279   0.556 -0.5043  0.6976  0.0614
 3191TIP3    H2 9538   3.528   6.219   0.597  0.0457  0.0991  0.9935
 3192TIP3   OH2 9539   0.794   2.807   0.187  0.2574 -0.4253 -0.1289
 3192TIP3    H1 9540   0.840   2.855   0.119  0.6492 -1.3724 -0.5466
 3192TIP3    H2 9541   0.809   2.858   0.267  3.7317 -1.6706  0.1837
 3193TIP3   OH2 9542   3.085   5.160   1.508 -0.0753  0.0747  0.1672
 3193TIP3    H1 9543   3.149   5.223   1.540 -0.7457  0.2177  1.3013
 3193TIP3    H2 9544   3.118   5.075   1.539 -1.0015  0.2671  1.8034
 3194TIP3   OH2 9545   4.000   5.328   5.360  0.1541 -0.2115  0.4871
 3194TIP3    H1 9546   3.977   5.356   5.448 -0.5933 -0.7846  0.4871
 3194TIP3    H2 9547   3.930   5.363   5.305 -1.4826 -2.9506  0.6416
 3195TIP3   OH2 9548   6.918   3.370   5.851  0.3679  1.1192  0.5948
 3195TIP3    H1 9549   6.893   3.291   5.899  1.1209  0.8499  0.5553
 3195TIP3    H2 9550   6.966   3.338   5.774  1.6039  1.6369  1.1224
 3196TIP3   OH2 9551   5.887   3.267   1.705  0.2979 -0.0135 -0.5797
 3196TIP3    H1 9552   5.915   3.357   1.691  2.1653 -0.3110  0.8068
 3196TIP3    H2 9553   5.841   3.268   1.788  0.7617 -0.4010 -0.3090
 3197TIP3   OH2 9554   6.151   6.363   0.067 -0.2192 -0.2471 -0.2808
 3197TIP3    H1 9555   6.080   6.322   0.118  0.1520 -0.2910  0.2100
 3197TIP3    H2 9556   6.173   6.442   0.118 -0.2121 -0.0017 -0.6637
 3198TIP3   OH2 9557   1.221   2.678   5.447 -0.0232 -0.3233 -0.1298
 3198TIP3    H1 9558   1.283   2.734   5.401  1.4980 -0.4499  1.6157
 3198TIP3    H2 9559   1.167   2.739   5.498 -1.6004 -0.1938 -1.8463
 3199TIP3   OH2 9560   6.658   6.424   1.012 -0.2455 -0.2127 -0.3515
 3199TIP3    H1 9561   6.724   6.488   0.988 -0.1995  0.0163  0.3724
 3199TIP3    H2 9562   6.658   6.361   0.940 -0.2546  0.5684 -1.0439
 3200TIP3   OH2 9563   1.427   0.350   5.007  0.4489 -0.3264 -0.1631
 3200TIP3    H1 9564   1.381   0.329   4.926 -0.6888 -1.9724  0.8717
 3200TIP3    H2 9565   1.420   0.271   5.060  3.0503 -0.0605  0.7279
 3201TIP3   OH2 9566   6.644   4.766   5.792 -0.3421 -0.3750 -0.0060
 3201TIP3    H1 9567   6.613   4.731   5.876 -0.4604  2.9985  1.4851
 3201TIP3    H2 9568   6.565   4.796   5.747 -0.1008 -0.5078 -0.5277
 3202TIP3   OH2 9569   5.540   1.406   2.609 -0.6363 -0.2483 -0.3514
 3202TIP3    H1 9570   5.571   1.429   2.521 -2.7105  1.1673 -0.7928
 3202TIP3    H2 9571   5.480   1.477   2.633 -1.0011 -1.1766  1.7478
 3203TIP3   OH2 9572   5.888   0.104   4.537  0.1855  0.4956  0.5096
 3203TIP3    H1 9573   5.920   0.036   4.478  1.7400  0.3283  1.5052
 3203TIP3    H2 9574   5.793   0.105   4.522  0.3667 -0.5379 -0.9161
 3204TIP3   OH2 9575   6.213   2.865   2.122  0.4031  0.1378  0.2284
 3204TIP3    H1 9576   6.133   2.910   2.094  0.0800 -1.4285 -1.6424
 3204TIP3    H2 9577   6.208   2.863   2.217 -2.1704 -0.5248  0.1538
 3205TIP3   OH2 9578   3.229   5.322   3.507 -0.4570 -0.0916  0.1695
 3205TIP3    H1 9579   3.181   5.403   3.490 -4.6021 -2.1920  0.4524
 3205TIP3    H2 9580   3.236   5.318   3.602 -1.5543 -0.6204  0.2515
 3206TIP3   OH2 9581   5.446   5.003   2.256  0.2479  0.4942  0.3212
 3206TIP3    H1 9582   5.451   4.909   2.273  0.7441  0.6021  0.8149
 3206TIP3    H2 9583   5.508   5.018   2.186  1.1747  0.6499  1.1562
 3207TIP3   OH2 9584   5.226   4.478   3.578  0.0162 -0.8322  0.0866
 3207TIP3    H1 9585   5.225   4.528   3.659  0.0385  0.1002 -0.4782
 3207TIP3    H2 9586   5.134   4.478   3.549  0.3117  0.6196 -0.9464
 3208TIP3   OH2 9587   6.920   5.674   5.890 -0.3738  0.5632 -0.4754
 3208TIP3    H1 9588   6.861   5.749   5.884 -1.6541 -0.2005  1.6868
 3208TIP3    H2 9589   6.872   5.602   5.849 -0.4083  0.2557  0.0892
 3209TIP3   OH2 9590   2.030   1.579   4.195 -0.7782 -0.4222 -0.3935
 3209TIP3    H1 9591   2.042   1.491   4.231  0.5527 -1.0077 -2.0923
 3209TIP3    H2 9592   2.078   1.636   4.255 -1.8304 -0.8078  0.8428
 3210TIP3   OH2 9593   0.495   6.248   3.538 -0.1247 -0.0593  0.2918
 3210TIP3    H1 9594   0.533   6.277   3.621 -0.8483  0.2581  0.5117
 3210TIP3    H2 9595   0.480   6.329   3.489 -0.9088 -0.1567  0.3716
 3211TIP3   OH2 9596   4.476   2.877   2.230 -0.2088  0.0674  0.2172
 3211TIP3    H1 9597   4.408   2.944   2.242  1.0522  1.6365 -0.8702
 3211TIP3    H2 9598   4.483   2.867   2.135 -1.1391 -2.5247  0.3565
 3212TIP3   OH2 9599   4.261   6.432   1.025 -0.1132  0.5102  0.4998
 3212TIP3    H1 9600   4.356   6.422   1.026  0.2045  0.2707 -4.8014
 3212TIP3    H2 9601   4.247   6.524   1.002 -0.8050 -0.2911 -2.8161
 3213TIP3   OH2 9602   3.566   3.684   2.505 -0.0984 -0.1908 -0.0401
 3213TIP3    H1 9603   3.578   3.594   2.537 -0.2647 -0.6048 -1.1036
 3213TIP3    H2 9604   3.554   3.736   2.584 -2.6654 -1.5055  0.5465
 3214TIP3   OH2 9605   1.504   1.455   0.060  0.0597 -0.3154  0.1096
 3214TIP3    H1 9606   1.575   1.394   0.081  0.5200 -0.0795 -0.7105
 3214TIP3    H2 9607   1.499   1.512   0.136  1.3196  0.1796 -0.1481
 3215TIP3   OH2 9608   2.076   6.661   5.435 -0.0695 -0.0390 -0.5300
 3215TIP3    H1 9609   2.001   6.719   5.451 -0.5637 -1.0821  1.1982
 3215TIP3    H2 9610   2.109   6.640   5.522  1.0097 -1.1915 -1.1823
 3216TIP3   OH2 9611   0.344   1.902   1.704  0.2785  0.1825  0.3631
 3216TIP3    H1 9612   0.336   1.809   1.683 -0.2924  0.8033 -2.6166
 3216TIP3    H2 9613   0.421   1.907   1.761  0.4762 -2.0707  0.3890
 3217TIP3   OH2 9614   0.711   3.035   4.791  0.0305 -0.0558  0.1437
 3217TIP3    H1 9615   0.703   3.121   4.749 -1.7948  0.0706  0.6555
 3217TIP3    H2 9616   0.795   3.001   4.760 -0.2122  0.9738 -1.8146
 3218TIP3   OH2 9617   0.549   0.636   2.337 -0.1023  0.3920  0.8552
 3218TIP3    H1 9618   0.620   0.591   2.291 -0.0693  1.1085  0.1811
 3218TIP3    H2 9619   0.577   0.639   2.428  1.2675  1.6319  0.4324
 3219TIP3   OH2 9620   0.582   3.774   2.664  0.5782  0.0971  0.2522
 3219TIP3    H1 9621   0.638   3.698   2.678 -0.7759 -0.6972  1.6404
 3219TIP3    H2 9622   0.589   3.791   2.570  0.5105 -2.1096 -0.2165
 3220TIP3   OH2 9623   1.274   2.376   0.760  0.2475 -0.0263 -0.0535
 3220TIP3    H1 9624   1.265   2.323   0.681 -0.5272 -0.3749  0.2579
 3220TIP3    H2 9625   1.284   2.312   0.831 -1.4573  0.1972  0.4222
 3221TIP3   OH2 9626   1.568   3.640   3.934  0.5902 -0.5512 -0.1205
 3221TIP3    H1 9627   1.537   3.585   4.006  0.2149  0.2211  0.3227
 3221TIP3    H2 9628   1.512   3.615   3.860 -1.5973  1.2178  0.8043
 3222TIP3   OH2 9629   1.973   5.027   1.497 -0.6850  0.5816 -0.4344
 3222TIP3    H1 9630   2.040   4.980   1.546  0.7499  0.6788 -2.2078
 3222TIP3    H2 9631   2.006   5.116   1.490 -1.1927  0.7388 -0.9464
 3223TIP3   OH2 9632   2.664   6.233   2.372  0.0986  0.0927  0.1675
 3223TIP3    H1 9633   2.661   6.303   2.307 -0.4944 -0.0752  0.0100
 3223TIP3    H2 9634   2.714   6.270   2.445 -1.2040  1.0958  0.5831
 3224TIP3   OH2 9635   4.281   4.783   5.330  0.1199 -0.7939 -0.4589
 3224TIP3    H1 9636   4.376   4.773   5.324  0.4170  1.0237  0.5912
 3224TIP3    H2 9637   4.253   4.798   5.240  1.5781  3.7641 -0.4113
 3225TIP3   OH2 9638   2.034   4.484   5.835  0.2304  0.6526 -0.2445
 3225TIP3    H1 9639   1.942   4.473   5.857 -0.3101  2.3844 -1.3996
 3225TIP3    H2 9640   2.037   4.482   5.739  1.5487 -0.3626 -0.2136
 3226TIP3   OH2 9641   3.418   1.205   3.589  0.2177  0.0325  0.2287
 3226TIP3    H1 9642   3.480   1.180   3.521 -0.1339  0.8233 -0.3948
 3226TIP3    H2 9643   3.471   1.218   3.667  1.0390  1.8805 -0.5801
 3227TIP3   OH2 9644   3.083   2.978   2.133  0.4063 -0.0747  0.4744
 3227TIP3    H1 9645   3.100   2.932   2.051  2.7177  0.6198  0.4899
 3227TIP3    H2 9646   3.168   2.982   2.176 -0.6063  0.2598  2.5717
 3228TIP3   OH2 9647   5.599   2.871   5.057  0.0540  0.0929  0.2203
 3228TIP3    H1 9648   5.554   2.795   5.095  1.3017 -0.3039  0.9409
 3228TIP3    H2 9649   5.604   2.851   4.964  2.1139 -1.6890  0.6359
 3229TIP3   OH2 9650   5.634   2.330   5.292  0.0783  0.1857  0.6513
 3229TIP3    H1 9651   5.555   2.277   5.281 -1.0922  1.8630  0.6450
 3229TIP3    H2 9652   5.704   2.266   5.307 -1.4876 -1.3117  1.9795
 3230TIP3   OH2 9653   4.659   4.004   1.914  0.0525 -0.7256  0.1985
 3230TIP3    H1 9654   4.640   3.997   1.820  0.1966 -0.7812  0.1734
 3230TIP3    H2 9655   4.699   3.920   1.937 -1.9181 -1.5562  0.7709
 3231TIP3   OH2 9656   5.329   6.666   0.637 -0.2052 -0.1372 -0.1024
 3231TIP3    H1 9657   5.379   6.626   0.709 -1.7182 -0.8974  0.5656
 3231TIP3    H2 9658   5.299   6.592   0.585 -1.8839  0.1873  0.3590
 3232TIP3   OH2 9659   3.162   5.099   0.951  0.1212  0.1842 -0.0771
 3232TIP3    H1 9660   3.203   5.040   1.014 -0.3122  0.1516  0.1783
 3232TIP3    H2 9661   3.213   5.088   0.871 -0.5620 -1.2787 -0.3399
 3233TIP3   OH2 9662   3.750   4.286   2.024  0.4864 -0.1532  0.0197
 3233TIP3    H1 9663   3.740   4.352   2.093 -1.2992  1.9251 -2.0742
 3233TIP3    H2 9664   3.690   4.216   2.050 -0.6413  0.8818  0.3320
 3234TIP3   OH2 9665   4.393   1.706   5.080  0.0879  0.1904 -0.0850
 3234TIP3    H1 9666   4.438   1.790   5.063  1.3394 -0.6548 -1.1788
 3234TIP3    H2 9667   4.350   1.685   4.998 -0.8836  0.1159  0.4299
 3235TIP3   OH2 9668   1.830   1.382   1.683  0.1861  0.0151  0.3653
 3235TIP3    H1 9669   1.822   1.476   1.695  0.1530  0.4303 -2.2315
 3235TIP3    H2 9670   1.751   1.357   1.635  0.7937 -1.0788 -0.1231
 3236TIP3   OH2 9671   4.454   1.982   0.001  0.1985 -0.4906  0.7728
 3236TIP3    H1 9672   4.519   2.008   0.067 -0.2405 -2.5264  2.1050
 3236TIP3    H2 9673   4.369   2.001   0.041 -0.0791  0.6543 -0.3009
 3237TIP3   OH2 9674   4.877   3.502   4.329  0.0495  0.0852 -0.7063
 3237TIP3    H1 9675   4.896   3.449   4.251  3.8587 -1.6463  1.1110
 3237TIP3    H2 9676   4.959   3.549   4.346 -1.1733  1.6107  1.3789
 3238TIP3   OH2 9677   3.728   4.690   1.232 -0.4605  0.3249  0.1854
 3238TIP3    H1 9678   3.724   4.598   1.258 -1.3378  0.2382 -0.2174
 3238TIP3    H2 9679   3.755   4.688   1.140 -0.4870  0.4677  0.1744
 3239TIP3   OH2 9680   5.752   2.604   2.530  0.5055 -0.0880 -1.0496
 3239TIP3    H1 9681   5.831   2.622   2.480  0.4694  0.6892 -0.8281
 3239TIP3    H2 9682   5.680   2.632   2.474  0.2286 -2.6818 -2.1290
 3240TIP3   OH2 9683   5.822   5.600   2.117  0.0517 -0.2653  0.1780
 3240TIP3    H1 9684   5.834   5.651   2.198  2.0288  0.2990 -0.4269
 3240TIP3    H2 9685   5.843   5.510   2.142 -0.3039 -0.2653  0.4995
 3241TIP3   OH2 9686   6.076   3.693   2.003 -0.5732 -0.4477 -0.4412
 3241TIP3    H1 9687   5.990   3.734   2.000 -0.3100  0.0875 -0.8302
 3241TIP3    H2 9688   6.077   3.646   2.087 -0.8699  0.3571  0.0248
 3242TIP3   OH2 9689   1.310   4.507   1.093 -0.0388  0.8330  0.2779
 3242TIP3    H1 9690   1.269   4.498   1.180 -1.4010  0.1899 -0.3967
 3242TIP3    H2 9691   1.326   4.417   1.066  1.5157  1.0633  0.3455
 3243TIP3   OH2 9692   4.935   6.566   4.292  0.0200 -0.2578 -0.4422
 3243TIP3    H1 9693   4.880   6.488   4.286 -2.9644  1.3760  2.6292
 3243TIP3    H2 9694   4.899   6.625   4.226 -2.0937  0.7748  1.5013
 3244TIP3   OH2 9695   1.715   1.498   4.436  0.3644  0.2945  0.4464
 3244TIP3    H1 9696   1.668   1.569   4.391  1.7988  0.5107 -0.7628
 3244TIP3    H2 9697   1.741   1.537   4.519 -1.5205  0.1760  1.1578
 3245TIP3   OH2 9698   4.894   3.937   5.115  0.8736  0.3823  0.0150
 3245TIP3    H1 9699   4.857   3.961   5.030 -0.0457 -2.5858 -0.5598
 3245TIP3    H2 9700   4.971   3.885   5.093  1.1787  0.3810  1.0432
 3246TIP3   OH2 9701   7.000   4.649   1.573  0.0161  0.2095 -0.3652
 3246TIP3    H1 9702   6.950   4.697   1.507  1.6731  0.4336 -1.5533
 3246TIP3    H2 9703   7.001   4.558   1.541  0.5764  0.2640 -0.5275
 3247TIP3   OH2 9704   3.545   5.147   2.888 -0.2877 -0.9278 -0.1318
 3247TIP3    H1 9705   3.604   5.198   2.943 -1.9644  1.2660 -0.1908
 3247TIP3    H2 9706   3.591   5.137   2.805  0.9401 -1.3994  0.5911
 3248TIP3   OH2 9707   1.251   4.505   4.813 -0.2336 -0.3411  0.1576
 3248TIP3    H1 9708   1.280   4.480   4.900 -0.3482 -0.9325  0.0290
 3248TIP3    H2 9709   1.196   4.432   4.783 -1.4771  0.5348  0.2035
 3249TIP3   OH2 9710   3.589   3.336   1.706  0.6106 -0.4610 -0.8147
 3249TIP3    H1 9711   3.549   3.257   1.742 -1.0675  0.9949  0.6917
 3249TIP3    H2 9712   3.526   3.406   1.725  2.2803  1.3525 -1.6056
 3250TIP3   OH2 9713   6.834   0.505   5.039 -0.4891 -0.8715  0.0456
 3250TIP3    H1 9714   6.853   0.427   5.092  1.2465  0.8385  2.1111
 3250TIP3    H2 9715   6.752   0.539   5.074 -1.0612 -1.5390 -0.6171
 3251TIP3   OH2 9716   2.272   2.709   5.428 -0.0674 -0.1690 -0.2500
 3251TIP3    H1 9717   2.332   2.747   5.492  0.6982 -3.7850  1.4527
 3251TIP3    H2 9718   2.189   2.699   5.474 -0.3367 -0.3106 -0.7482
 3252TIP3   OH2 9719   0.621   0.084   2.532 -0.0306 -0.6752 -0.2781
 3252TIP3    H1 9720   0.526   0.074   2.535 -0.0512 -0.2897  0.5792
 3252TIP3    H2 9721   0.634   0.177   2.512  0.1705 -0.9005 -1.2331
 3253TIP3   OH2 9722   4.891   2.365   2.950  0.2827  0.4512  0.0662
 3253TIP3    H1 9723   4.821   2.305   2.976  0.0738  1.5211  2.1777
 3253TIP3    H2 9724   4.852   2.419   2.882 -0.3364 -0.1586 -0.0785
 3254TIP3   OH2 9725   5.870   2.617   0.093  0.4761 -0.3033  0.0808
 3254TIP3    H1 9726   5.861   2.665   0.011  0.8099 -0.8980 -0.3081
 3254TIP3    H2 9727   5.855   2.683   0.161 -2.1398 -0.2676 -0.4327
 3255TIP3   OH2 9728   2.608   3.655   0.702  0.2270  0.3208 -0.0135
 3255TIP3    H1 9729   2.603   3.631   0.794 -0.3947  0.2826 -0.0515
 3255TIP3    H2 9730   2.540   3.722   0.691  0.9124  0.9844 -0.2451
 3256TIP3   OH2 9731   5.776   1.669   5.246  0.0079  0.3297  0.3851
 3256TIP3    H1 9732   5.730   1.586   5.247  0.5997 -0.0078 -0.1522
 3256TIP3    H2 9733   5.868   1.646   5.261  0.2376  0.8417 -0.1997
 3257TIP3   OH2 9734   7.184   3.669   4.655  0.0258 -0.0875 -0.4211
 3257TIP3    H1 9735   7.269   3.709   4.635  0.2691  0.4294  1.4962
 3257TIP3    H2 9736   7.185   3.587   4.605  0.7992  0.8145 -1.9832
 3258TIP3   OH2 9737   0.491   4.540   3.374  0.0010  0.1214 -0.5310
 3258TIP3    H1 9738   0.558   4.476   3.398  1.3389  1.6012 -0.1061
 3258TIP3    H2 9739   0.454   4.569   3.457  0.1722  0.6708 -0.6411
 3259TIP3   OH2 9740   4.410   5.083   1.466  0.2688  0.2959 -0.4230
 3259TIP3    H1 9741   4.412   5.135   1.546 -0.3620  0.1061 -0.2751
 3259TIP3    H2 9742   4.317   5.079   1.443  0.3783 -0.2254 -0.7841
 3260TIP3   OH2 9743   3.343   4.617   0.115  0.2513 -0.1156  0.2104
 3260TIP3    H1 9744   3.417   4.582   0.064  1.1187 -0.8245  1.8864
 3260TIP3    H2 9745   3.380   4.635   0.201 -1.7624 -1.5036  1.4511
 3261TIP3   OH2 9746   5.496   0.837   4.478 -0.6202 -0.9030 -0.5810
 3261TIP3    H1 9747   5.469   0.806   4.391 -4.2760  0.6610 -0.1949
 3261TIP3    H2 9748   5.525   0.927   4.462 -1.0649 -0.6953 -0.2108
 3262TIP3   OH2 9749   1.193   3.158   1.320 -0.3004  0.2487 -0.0713
 3262TIP3    H1 9750   1.198   3.089   1.386 -0.0406  1.5738  1.3515
 3262TIP3    H2 9751   1.104   3.194   1.329 -0.5877 -0.1769 -1.1072
 3263TIP3   OH2 9752   1.426   0.073   4.099 -0.2094 -0.3157 -0.2771
 3263TIP3    H1 9753   1.379   0.113   4.026 -0.4274 -1.6615 -0.9161
 3263TIP3    H2 9754   1.441   0.144   4.161  0.9570  1.1273 -2.1049
 3264TIP3   OH2 9755   3.266   2.770   3.028  0.8365  0.2029 -0.2169
 3264TIP3    H1 9756   3.175   2.799   3.033  1.4407  2.0534  1.0492
 3264TIP3    H2 9757   3.286   2.769   2.935  0.2063  2.2299 -0.4234
 3265TIP3   OH2 9758   0.378   2.203   0.683 -0.3227 -0.3005 -0.3098
 3265TIP3    H1 9759   0.429   2.270   0.638 -0.6576 -0.8072 -1.4663
 3265TIP3    H2 9760   0.332   2.156   0.614  2.0871 -3.6517  0.0856
 3266TIP3   OH2 9761   0.233   6.362   2.767  0.0443  0.1636  0.6011
 3266TIP3    H1 9762   0.142   6.391   2.769 -0.0807 -0.2445  1.2831
 3266TIP3    H2 9763   0.284   6.443   2.775 -0.2975  0.2483  2.4655
 3267TIP3   OH2 9764   6.433   2.756   4.067 -0.5236 -0.7957 -0.2456
 3267TIP3    H1 9765   6.517   2.800   4.079  0.6411 -2.7545 -0.7579
 3267TIP3    H2 9766   6.399   2.743   4.156  0.1799 -0.8194  0.0203
 3268TIP3   OH2 9767   0.617   5.002   4.877  0.0404  0.4197  0.1703
 3268TIP3    H1 9768   0.646   5.084   4.919  0.3321 -0.7199  2.3437
 3268TIP3    H2 9769   0.529   5.021   4.846 -0.3766  1.2372  1.7401
 3269TIP3   OH2 9770   3.985   1.176   4.028 -0.0540  0.0278 -0.2110
 3269TIP3    H1 9771   4.021   1.146   4.111 -0.8547 -1.0624 -0.2343
 3269TIP3    H2 9772   4.059   1.174   3.967 -0.0344 -1.7957 -0.1706
 3270TIP3   OH2 9773   1.825   3.561   5.361 -0.1664  0.4672  0.1346
 3270TIP3    H1 9774   1.915   3.571   5.334  0.0227 -0.3286  0.4237
 3270TIP3    H2 9775   1.776   3.628   5.313  0.7466  1.7120  0.8804
 3271TIP3   OH2 9776   4.058   4.972   3.782 -0.0873  0.0769 -0.0633
 3271TIP3    H1 9777   4.018   4.886   3.775 -0.1873  0.2199 -1.4876
 3271TIP3    H2 9778   4.132   4.969   3.721  0.4144  0.7285  0.4965
 3272TIP3   OH2 9779   2.085   3.959   4.647  0.2728  0.0749 -0.6581
 3272TIP3    H1 9780   2.056   3.993   4.732  1.0758 -0.3483 -0.1975
 3272TIP3    H2 9781   2.132   3.879   4.669 -0.6887 -0.7872 -1.6315
 3273TIP3   OH2 9782   6.849   1.177   1.128 -0.2853  0.2254  0.6427
 3273TIP3    H1 9783   6.902   1.123   1.070  0.5200 -0.7089  2.1710
 3273TIP3    H2 9784   6.779   1.119   1.157 -1.0699  0.8829  0.1351
 3274TIP3   OH2 9785   3.907   3.461   4.130  0.3147  0.1874 -0.2730
 3274TIP3    H1 9786   3.836   3.422   4.182  0.8548  2.2863  2.2593
 3274TIP3    H2 9787   3.875   3.549   4.108  1.4162  0.4886 -0.7083
 3275TIP3   OH2 9788   2.992   5.972   1.830 -0.0273 -0.2746 -0.7002
 3275TIP3    H1 9789   3.028   6.057   1.854  2.0759 -0.6324 -2.3656
 3275TIP3    H2 9790   3.023   5.913   1.900 -0.7235  0.1251 -0.0362
 3276TIP3   OH2 9791   2.636   0.104   1.891  0.0621  0.1661  0.3723
 3276TIP3    H1 9792   2.588   0.027   1.864  1.6849 -1.0188  0.7019
 3276TIP3    H2 9793   2.569   0.168   1.916 -1.4418  0.1062 -3.0401
 3277TIP3   OH2 9794   1.445   5.970   1.419 -0.0839 -0.5142  0.4490
 3277TIP3    H1 9795   1.365   5.954   1.369  0.3415  0.0173 -0.4212
 3277TIP3    H2 9796   1.511   5.993   1.354  0.7594 -0.8150  1.1617
 3278TIP3   OH2 9797   2.005   2.231   5.702 -0.2635  0.1643 -0.0964
 3278TIP3    H1 9798   2.092   2.261   5.728  0.2120  0.3399 -1.7470
 3278TIP3    H2 9799   2.020   2.146   5.659 -0.8563  0.3179 -0.6399
 3279TIP3   OH2 9800   1.559   4.515   3.200 -0.1595  0.3851 -0.2144
 3279TIP3    H1 9801   1.517   4.435   3.167  2.8904 -1.5133  0.2012
 3279TIP3    H2 9802   1.603   4.552   3.123  0.0570  0.5972  0.0109
 3280TIP3   OH2 9803   0.752   5.174   3.890  0.2010  0.1543  0.2558
 3280TIP3    H1 9804   0.761   5.233   3.816  0.7332 -0.7918 -0.4612
 3280TIP3    H2 9805   0.663   5.189   3.922 -0.1929  0.2623 -0.8516
 3281TIP3   OH2 9806   4.408   0.203   4.838 -0.3062 -0.1208  0.4253
 3281TIP3    H1 9807   4.380   0.113   4.849 -0.7014  0.0633  0.9756
 3281TIP3    H2 9808   4.446   0.206   4.751  0.2333 -0.9508  0.6225
 3282TIP3   OH2 9809   3.168   5.744   2.930 -0.5091 -0.7245  0.2392
 3282TIP3    H1 9810   3.122   5.686   2.870 -1.6403 -0.3289  0.6801
 3282TIP3    H2 9811   3.149   5.832   2.897 -0.7452 -0.5249  0.8863
 3283TIP3   OH2 9812   7.029   2.004   4.338  0.4901 -0.1197 -0.6569
 3283TIP3    H1 9813   6.968   2.034   4.271  0.0309 -0.6183 -0.4704
 3283TIP3    H2 9814   7.038   1.910   4.322 -0.2383 -0.4042  0.4432
 3284TIP3   OH2 9815   2.570   6.534   5.802  0.5875  0.0496 -0.0601
 3284TIP3    H1 9816   2.514   6.494   5.868  0.2341  1.5421  0.5888
 3284TIP3    H2 9817   2.598   6.461   5.746 -0.7864 -0.9345  0.4906
 3285TIP3   OH2 9818   0.386   6.507   3.074  0.3453 -0.0180 -0.3916
 3285TIP3    H1 9819   0.319   6.572   3.096 -0.6670 -1.1328 -0.1037
 3285TIP3    H2 9820   0.394   6.512   2.979 -0.0213  0.2513 -0.4108
 3286TIP3   OH2 9821   4.678   1.711   5.853  0.4527 -0.9201 -0.2076
 3286TIP3    H1 9822   4.637   1.627   5.836  0.3199 -1.1277  0.9933
 3286TIP3    H2 9823   4.652   1.766   5.779 -3.0398 -0.6931  0.9736
 3287TIP3   OH2 9824   0.304   1.300   0.604  0.7650  0.6588  0.1376
 3287TIP3    H1 9825   0.329   1.360   0.674  0.5583 -1.2911  1.9762
 3287TIP3    H2 9826   0.342   1.216   0.630  0.6566 -0.1555 -2.0997
 3288TIP3   OH2 9827   4.564   3.141   1.659  0.3759  0.2863 -0.6827
 3288TIP3    H1 9828   4.529   3.053   1.677  0.9675 -0.1512 -1.5747
 3288TIP3    H2 9829   4.658   3.131   1.669  0.3278  1.3671  1.3313
 3289TIP3   OH2 9830   5.579   4.419   4.138 -0.1607 -0.0654  0.2186
 3289TIP3    H1 9831   5.624   4.342   4.105 -0.0221 -0.1931  0.6893
 3289TIP3    H2 9832   5.638   4.454   4.205 -0.2520  0.4081  0.0574
 3290TIP3   OH2 9833   0.798   2.718   1.194  0.2364 -0.1623 -0.6818
 3290TIP3    H1 9834   0.744   2.658   1.244 -2.5518  0.9875 -2.0682
 3290TIP3    H2 9835   0.808   2.676   1.109 -1.0286  0.8573 -1.3812
 3291TIP3   OH2 9836   5.540   1.141   3.658 -0.0630  0.1471 -0.2493
 3291TIP3    H1 9837   5.488   1.066   3.689  1.0390 -0.7828 -0.6029
 3291TIP3    H2 9838   5.475   1.210   3.646 -0.9133 -0.2604  1.5527
 3292TIP3   OH2 9839   1.067   5.742   1.627  0.1651 -0.0485 -0.3018
 3292TIP3    H1 9840   1.126   5.696   1.568 -0.0506 -0.8952  0.1212
 3292TIP3    H2 9841   1.018   5.801   1.571  0.6403 -0.1396 -0.8221
 3293TIP3   OH2 9842   0.183   4.734   1.129 -0.0212 -0.3265  0.3734
 3293TIP3    H1 9843   0.275   4.725   1.105  0.4214  2.7516  0.5574
 3293TIP3    H2 9844   0.135   4.725   1.046  0.3613 -1.9928  0.2876
 3294TIP3   OH2 9845   6.326   2.507   3.962 -0.1678  0.2496  0.3014
 3294TIP3    H1 9846   6.360   2.597   3.965  1.3682 -0.0484 -3.0135
 3294TIP3    H2 9847   6.247   2.513   3.909  0.6348 -0.4470 -1.0370
 3295TIP3   OH2 9848   6.773   5.132   4.445  0.0974 -0.4419 -0.3996
 3295TIP3    H1 9849   6.806   5.207   4.495 -1.9018  1.9837 -2.4462
 3295TIP3    H2 9850   6.835   5.123   4.373  0.3685 -0.8019 -0.1224
 3296TIP3   OH2 9851   2.210   6.699   0.941  0.7290 -0.1724 -0.1728
 3296TIP3    H1 9852   2.274   6.628   0.952  0.1890 -0.6019  0.2518
 3296TIP3    H2 9853   2.130   6.665   0.981 -0.2946 -0.3589 -2.2851
 3297TIP3   OH2 9854   1.380   2.407   5.218  0.3617 -0.0278  0.7281
 3297TIP3    H1 9855   1.303   2.437   5.265  0.4472 -0.6309  1.2592
 3297TIP3    H2 9856   1.345   2.356   5.145  0.2683 -0.7936  1.3069
 3298TIP3   OH2 9857   3.437   2.084   3.865  0.0532 -0.5439 -0.1926
 3298TIP3    H1 9858   3.485   2.015   3.821  1.4527 -0.4493  1.1060
 3298TIP3    H2 9859   3.349   2.081   3.826  0.8488 -1.2501 -2.0527
 3299TIP3   OH2 9860   1.698   2.504   0.166  0.1811  0.0872  0.8461
 3299TIP3    H1 9861   1.622   2.533   0.216 -0.0798 -0.0936  0.5620
 3299TIP3    H2 9862   1.704   2.410   0.183  0.1941  0.0565  0.6798
 3300TIP3   OH2 9863   0.146   2.272   0.172 -0.0754  0.0796 -0.3930
 3300TIP3    H1 9864   0.115   2.346   0.224 -0.6774  1.4156 -2.5018
 3300TIP3    H2 9865   0.146   2.305   0.082  3.6469 -1.1436 -1.0176
 3301TIP3   OH2 9866   6.816   1.174   1.878 -0.1616 -0.2869 -0.0687
 3301TIP3    H1 9867   6.816   1.269   1.867 -3.5244 -0.1604  0.1574
 3301TIP3    H2 9868   6.864   1.159   1.959  1.5101  1.0570 -0.7567
 3302TIP3   OH2 9869   4.315   0.938   1.966  0.0708 -0.4573 -0.0749
 3302TIP3    H1 9870   4.381   0.868   1.969  0.2832 -0.2788 -0.5220
 3302TIP3    H2 9871   4.241   0.900   1.918  0.0282 -0.5063  0.0290
 3303TIP3   OH2 9872   6.432   5.128   3.454 -0.1763  0.4240  0.6326
 3303TIP3    H1 9873   6.463   5.218   3.459  0.1001  0.4070 -0.4536
 3303TIP3    H2 9874   6.502   5.081   3.408 -1.0413  0.0122 -0.3105
 3304TIP3   OH2 9875   3.442   3.796   1.879  0.2656  0.0508 -0.1439
 3304TIP3    H1 9876   3.528   3.813   1.840  1.3519  0.1182  2.1476
 3304TIP3    H2 9877   3.389   3.872   1.854  0.9262  0.1350 -1.3673
 3305TIP3   OH2 9878   7.127   5.845   5.372 -0.7767  0.3148 -0.8306
 3305TIP3    H1 9879   7.119   5.819   5.464 -0.3665  1.7708 -0.3611
 3305TIP3    H2 9880   7.222   5.846   5.356 -0.8397  0.2878 -1.2081
 3306TIP3   OH2 9881   5.749   1.005   4.095 -0.7053 -0.1394  0.1378
 3306TIP3    H1 9882   5.805   0.989   4.171  0.3636  0.1227 -0.5803
 3306TIP3    H2 9883   5.773   1.092   4.064  0.6642 -1.1894 -1.9627
 3307TIP3   OH2 9884   4.332   4.671   4.549  0.0700 -0.0358 -0.1785
 3307TIP3    H1 9885   4.407   4.727   4.571  1.2970 -0.6821 -2.3996
 3307TIP3    H2 9886   4.341   4.596   4.608  1.8317 -0.5978 -1.0904
 3308TIP3   OH2 9887   2.292   0.719   5.115 -0.2750  0.1495 -0.1225
 3308TIP3    H1 9888   2.199   0.734   5.130 -0.3225  2.4363 -2.1516
 3308TIP3    H2 9889   2.336   0.768   5.185 -0.5314 -0.6637  0.6376
 3309TIP3   OH2 9890   4.431   2.422   3.237 -0.5964 -0.0638 -0.8263
 3309TIP3    H1 9891   4.480   2.501   3.217 -0.1446 -0.0001  0.4579
 3309TIP3    H2 9892   4.494   2.365   3.282 -1.1012 -0.8687 -1.1226
 3310TIP3   OH2 9893   1.466   4.055   5.462  0.5267  0.2269  0.3740
 3310TIP3    H1 9894   1.437   4.092   5.545 -0.9206 -2.4887  1.1916
 3310TIP3    H2 9895   1.556   4.027   5.477  0.8856  1.3564  0.4153
 3311TIP3   OH2 9896   4.173   5.991   4.181  0.4750  0.1218 -0.4020
 3311TIP3    H1 9897   4.098   6.004   4.239 -0.4076  1.9904 -1.8554
 3311TIP3    H2 9898   4.176   5.897   4.166 -1.3258 -0.0339  0.0253
 3312TIP3   OH2 9899   3.731   4.953   1.000 -0.1283  0.0172 -0.0245
 3312TIP3    H1 9900   3.667   4.892   0.961 -0.8159  1.2365 -0.8522
 3312TIP3    H2 9901   3.683   4.995   1.072 -0.2846  0.9389 -0.6510
 3313TIP3   OH2 9902   4.553   5.089   0.098 -0.3408  0.4411 -0.2309
 3313TIP3    H1 9903   4.535   5.008   0.145 -0.1103 -0.1559 -1.1629
 3313TIP3    H2 9904   4.480   5.147   0.121  0.4985  0.7241  2.0715
 3314TIP3   OH2 9905   0.211   3.312   0.690 -0.2693  0.2741  0.1317
 3314TIP3    H1 9906   0.118   3.292   0.698 -1.1568  3.3979 -1.0037
 3314TIP3    H2 9907   0.237   3.270   0.608 -0.1152 -2.0889  1.2898
 3315TIP3   OH2 9908   2.622   3.740   4.688  0.3989 -0.6659  0.0815
 3315TIP3    H1 9909   2.665   3.817   4.725  0.6216 -0.4140 -0.6918
 3315TIP3    H2 9910   2.545   3.726   4.744  1.8697 -1.6029  1.9936
 3316TIP3   OH2 9911   5.043   1.941   2.844  0.1689  0.1727  0.4156
 3316TIP3    H1 9912   5.111   1.933   2.912  0.3348  0.1086  0.2438
 3316TIP3    H2 9913   4.964   1.964   2.892 -0.1135 -1.5156  0.8311
 3317TIP3   OH2 9914   4.502   6.762   5.163  0.1121  0.1238  0.3649
 3317TIP3    H1 9915   4.587   6.731   5.132  0.9972  1.9539  0.8184
 3317TIP3    H2 9916   4.453   6.782   5.084  1.1856  1.7375  0.0575
 3318TIP3   OH2 9917   5.068   2.042   3.703  0.1563  0.0369 -0.0630
 3318TIP3    H1 9918   5.139   2.024   3.641 -1.0508  1.0681 -1.8269
 3318TIP3    H2 9919   5.071   1.969   3.764 -0.0122 -2.3381 -2.6793
 3319TIP3   OH2 9920   2.955   2.871   3.457  0.0879  0.2245 -0.4734
 3319TIP3    H1 9921   2.910   2.955   3.472  0.9953  0.9224 -1.5314
 3319TIP3    H2 9922   2.963   2.865   3.362  1.9883 -0.0068 -0.3244
 3320TIP3   OH2 9923   2.957   3.605   1.405  0.1364 -0.4108 -0.5045
 3320TIP3    H1 9924   3.047   3.637   1.406 -0.2925  0.9028 -1.3711
 3320TIP3    H2 9925   2.955   3.538   1.474  1.4260  0.4911  0.4699
 3321TIP3   OH2 9926   5.041   0.918   2.558 -0.0750  0.1917  0.4143
 3321TIP3    H1 9927   5.126   0.953   2.584  0.8921 -0.4295 -1.6405
 3321TIP3    H2 9928   5.061   0.861   2.483 -2.5465  2.0405 -1.8467
 3322TIP3   OH2 9929   3.978   1.562   1.023  0.4162 -0.0799 -0.2814
 3322TIP3    H1 9930   4.001   1.629   1.087  1.2495 -0.1725 -0.4793
 3322TIP3    H2 9931   3.884   1.574   1.009  0.5212  0.9256 -0.1812
 3323TIP3   OH2 9932   0.129   5.605   2.518 -0.4646  0.3473  0.0659
 3323TIP3    H1 9933   0.109   5.513   2.535 -2.0948  0.7991  0.8143
 3323TIP3    H2 9934   0.189   5.630   2.587  1.3646 -0.5541 -1.1173
 3324TIP3   OH2 9935   7.085   5.557   5.317  0.3692 -0.7049 -0.2871
 3324TIP3    H1 9936   7.147   5.526   5.382 -0.8838 -0.7359  0.9497
 3324TIP3    H2 9937   7.073   5.650   5.337  0.5702 -0.5180 -0.9925
 3325TIP3   OH2 9938   5.656   4.389   2.111  0.1134 -0.0826 -0.4181
 3325TIP3    H1 9939   5.671   4.296   2.128 -0.3476 -0.1668 -0.4655
 3325TIP3    H2 9940   5.741   4.422   2.081  1.2287  0.2139  2.6217
 3326TIP3   OH2 9941   6.568   0.325   2.772 -0.2610 -0.6413  0.1038
 3326TIP3    H1 9942   6.611   0.408   2.753 -1.4574  0.1574  0.7463
 3326TIP3    H2 9943   6.634   0.271   2.815  0.2264  0.3676  0.6266
 3327TIP3   OH2 9944   1.004   2.144   0.514  0.0778 -0.3478 -0.1090
 3327TIP3    H1 9945   1.054   2.196   0.452  1.6326  0.5186  1.7544
 3327TIP3    H2 9946   1.018   2.187   0.599 -0.0784 -2.7465  1.2354
 3328TIP3   OH2 9947   6.009   1.539   1.781  0.0752 -0.0476 -0.3194
 3328TIP3    H1 9948   5.957   1.515   1.857  0.8864  0.9545  0.5803
 3328TIP3    H2 9949   5.952   1.598   1.731  0.4730  1.3926  0.8800
 3329TIP3   OH2 9950   4.156   1.906   4.808  0.1009 -0.0425  0.6885
 3329TIP3    H1 9951   4.204   1.979   4.770  0.5814 -1.4853 -1.6680
 3329TIP3    H2 9952   4.066   1.918   4.778 -0.1485  0.3552  1.5552
 3330TIP3   OH2 9953   1.468   5.848   2.830 -0.4097 -0.2132  0.0580
 3330TIP3    H1 9954   1.558   5.834   2.857  0.4819 -1.1198 -2.9724
 3330TIP3    H2 9955   1.472   5.920   2.766 -2.3160  1.6556  1.8383
 3331TIP3   OH2 9956   2.467   5.240   2.999  0.0726  0.0642 -0.2704
 3331TIP3    H1 9957   2.430   5.328   3.005  0.8890  0.4521 -0.6936
 3331TIP3    H2 9958   2.454   5.215   2.907 -1.3867 -0.8381  0.1384
 3332TIP3   OH2 9959   6.606   6.739   2.316 -0.2790 -0.2005 -0.3721
 3332TIP3    H1 9960   6.604   6.751   2.221 -0.9700  3.3964 -0.0395
 3332TIP3    H2 9961   6.695   6.712   2.335  0.0845 -0.2286 -1.9662
 3333TIP3   OH2 9962   5.154   5.435   4.701  0.0468 -0.5908 -0.3883
 3333TIP3    H1 9963   5.082   5.390   4.745  0.5479 -1.5978 -0.5528
 3333TIP3    H2 9964   5.116   5.516   4.669 -0.3336  0.2502  1.9675
 3334TIP3   OH2 9965   1.678   1.665   5.721  0.1421  0.5423  0.0478
 3334TIP3    H1 9966   1.760   1.616   5.725  0.1191  0.0469 -3.2845
 3334TIP3    H2 9967   1.705   1.757   5.715  0.4385  0.4281 -0.3962
 3335TIP3   OH2 9968   1.361   5.574   0.341  0.0635 -0.1270 -0.3039
 3335TIP3    H1 9969   1.383   5.566   0.249  1.8905  0.0935  0.0651
 3335TIP3    H2 9970   1.388   5.490   0.380  1.0209  0.4383  0.3057
 3336TIP3   OH2 9971   5.954   5.692   2.789 -0.0179  0.2232  0.1154
 3336TIP3    H1 9972   5.887   5.658   2.848  0.7435  0.5680  1.2118
 3336TIP3    H2 9973   5.999   5.759   2.839 -0.2974  1.5903 -1.3847
 3337TIP3   OH2 9974   2.918   4.967   0.840  0.2393 -0.2515 -0.2189
 3337TIP3    H1 9975   2.992   4.909   0.822 -0.5374 -1.4809  0.4004
 3337TIP3    H2 9976   2.946   5.019   0.915  1.7610  1.7573 -2.0309
 3338TIP3   OH2 9977   3.746   5.745   4.786  0.0117 -0.2320 -0.4655
 3338TIP3    H1 9978   3.734   5.652   4.801  0.4232 -0.4371 -1.3490
 3338TIP3    H2 9979   3.841   5.758   4.789 -0.0374  0.1351 -0.4618
 3339TIP3   OH2 9980   1.592   2.605   4.236 -0.3024  0.1445 -0.6391
 3339TIP3    H1 9981   1.507   2.599   4.191 -0.1543 -0.7471 -0.8229
 3339TIP3    H2 9982   1.640   2.671   4.188 -1.3340  1.5779  0.2209
 3340TIP3   OH2 9983   1.402   2.073   0.801 -0.0458  0.0692 -0.1441
 3340TIP3    H1 9984   1.409   1.984   0.833  0.0730  0.4786  1.0268
 3340TIP3    H2 9985   1.463   2.077   0.727  0.9357 -0.4653  0.6186
 3341TIP3   OH2 9986   2.990   6.523   4.652  0.5788 -0.0657 -0.2022
 3341TIP3    H1 9987   2.933   6.523   4.575 -0.1184  1.7850  0.2711
 3341TIP3    H2 9988   2.957   6.593   4.707 -0.2372 -2.5795  2.8144
 3342TIP3   OH2 9989   2.552   4.905   4.205 -0.4123 -0.4135 -0.3432
 3342TIP3    H1 9990   2.616   4.971   4.177 -0.0311 -0.7579 -0.3094
 3342TIP3    H2 9991   2.596   4.859   4.277 -0.9901 -0.1849  0.1647
 3343TIP3   OH2 9992   0.669   2.733   3.973 -0.3944 -0.2383 -0.0160
 3343TIP3    H1 9993   0.684   2.814   4.022 -1.4292 -1.8620  3.2451
 3343TIP3    H2 9994   0.574   2.720   3.978 -0.1941 -1.8782 -0.0302
 3344TIP3   OH2 9995   5.750   6.574   1.075 -0.1938 -0.0322  0.4664
 3344TIP3    H1 9996   5.683   6.616   1.021 -1.7553 -0.1250  2.2285
 3344TIP3    H2 9997   5.831   6.620   1.054 -0.9750  0.7212 -1.0454
 3345TIP3   OH2 9998   5.731   1.976   1.608  0.1566 -0.5269  0.1135
 3345TIP3    H1 9999   5.711   1.979   1.701 -0.1092  1.7395  0.0398
 3345TIP3    H210000   5.653   2.010   1.565  0.6695 -0.5151 -0.8578
 3346TIP3   OH210001   7.130   2.831   3.795 -0.4781 -0.1347  0.2080
 3346TIP3    H110002   7.189   2.768   3.754  0.1170  0.8924 -0.5602
 3346TIP3    H210003   7.188   2.892   3.840 -0.9667  0.6819 -0.2488
 3347TIP3   OH210004   6.205   0.575   3.223  0.9455 -0.2225 -0.0707
 3347TIP3    H110005   6.149   0.501   3.246  0.2103  0.4206  0.2674
 3347TIP3    H210006   6.275   0.537   3.170  0.1408 -1.0472 -0.5774
 3348TIP3   OH210007   5.520   3.446   0.453 -0.5942 -0.2273 -0.1873
 3348TIP3    H110008   5.466   3.464   0.375  0.2862 -1.8352 -1.2198
 3348TIP3    H210009   5.569   3.367   0.430  1.9186  0.9470  0.8552
 3349TIP3   OH210010   5.132   3.987   1.850 -0.2913  0.3272 -0.4175
 3349TIP3    H110011   5.141   4.047   1.924  0.6030 -0.5341  0.1961
 3349TIP3    H210012   5.154   4.040   1.773 -0.5525  1.0505 -0.0075
 3350TIP3   OH210013   5.262   0.422   1.580  0.5168  0.0069 -0.3112
 3350TIP3    H110014   5.213   0.430   1.661  1.9324  1.8612  0.4321
 3350TIP3    H210015   5.350   0.395   1.607  1.3572  1.8238 -1.0302
 3351TIP3   OH210016   2.304   1.261   4.182  0.2097 -0.0425  0.0921
 3351TIP3    H110017   2.316   1.222   4.268 -1.2456  2.6269  1.6553
 3351TIP3    H210018   2.224   1.221   4.147  0.5204 -0.7545  0.1796
 3352TIP3   OH210019   6.575   3.566   0.463 -0.4708 -0.0558  0.5467
 3352TIP3    H110020   6.572   3.623   0.386  3.4519  0.4617  0.5862
 3352TIP3    H210021   6.512   3.604   0.524  0.7797  3.3093 -0.0872
 3353TIP3   OH210022   0.213   3.687   1.651  0.3261  0.2260  0.1837
 3353TIP3    H110023   0.228   3.750   1.580 -0.2119 -0.0246 -0.1575
 3353TIP3    H210024   0.120   3.697   1.672 -0.0624 -1.3026 -0.6998
 3354TIP3   OH210025   5.445   5.471   0.804  0.0374  0.2941 -0.0003
 3354TIP3    H110026   5.388   5.490   0.879 -0.9247  0.4452 -0.7471
 3354TIP3    H210027   5.384   5.449   0.733  0.8885  1.0790 -0.9975
 3355TIP3   OH210028   3.857   5.139   3.855 -0.1505  0.2370  0.2616
 3355TIP3    H110029   3.815   5.084   3.921 -0.2079  1.0739  0.9506
 3355TIP3    H210030   3.946   5.104   3.848 -0.7053 -1.0663 -0.6509
 3356TIP3   OH210031   5.167   4.990   3.317 -0.1646 -1.3029 -0.4822
 3356TIP3    H110032   5.121   4.930   3.376  1.8817 -1.1786  1.3814
 3356TIP3    H210033   5.234   4.935   3.275 -0.9378 -1.1590 -1.9679
 3357TIP3   OH210034   0.762   2.619   5.128  0.0429  0.6556  0.3731
 3357TIP3    H110035   0.781   2.577   5.045 -0.9539  1.1797 -0.1416
 3357TIP3    H210036   0.733   2.707   5.104 -0.2549  0.8151  1.2705
 3358TIP3   OH210037   6.792   3.913   0.007 -0.0958 -0.0889  0.4985
 3358TIP3    H110038   6.735   3.976   0.051 -0.3869  0.3307 -0.4499
 3358TIP3    H210039   6.875   3.918   0.055 -0.1485  0.9533  0.4989
 3359TIP3   OH210040   0.867   3.872   3.487 -0.9843  0.2205  0.2967
 3359TIP3    H110041   0.829   3.785   3.476  0.2225 -0.1776 -0.9710
 3359TIP3    H210042   0.952   3.856   3.529  0.1310  0.5482 -1.7093
 3360TIP3   OH210043   1.481   4.795   0.966 -0.1326 -0.1987 -0.3569
 3360TIP3    H110044   1.577   4.792   0.965 -0.1309 -2.8712  0.6798
 3360TIP3    H210045   1.454   4.709   0.936 -2.2735  0.6634 -1.0825
 3361TIP3   OH210046   6.883   6.767   2.067 -0.0508 -0.3831 -0.5227
 3361TIP3    H110047   6.915   6.755   1.978 -0.3722  0.1683 -0.7125
 3361TIP3    H210048   6.789   6.779   2.058 -0.2481 -1.4146 -0.0137
 3362TIP3   OH210049   6.783   1.380   0.532  0.3124 -0.2243  0.2943
 3362TIP3    H110050   6.844   1.306   0.528 -0.3761 -0.9251  1.7727
 3362TIP3    H210051   6.702   1.342   0.566 -0.3251  1.0523  0.2505
 3363TIP3   OH210052   2.998   6.140   2.158 -0.0125 -1.3287 -0.0141
 3363TIP3    H110053   2.938   6.167   2.088  0.3681  0.4298  0.2843
 3363TIP3    H210054   2.952   6.069   2.202 -2.2769  0.3857  0.6273
 3364TIP3   OH210055   2.940   6.271   4.691  0.4202  0.0633  0.3612
 3364TIP3    H110056   2.951   6.365   4.681  0.3656  0.6612  4.3991
 3364TIP3    H210057   3.029   6.236   4.687  0.4975  0.3208 -0.5003
 3365TIP3   OH210058   3.876   3.621   2.876  0.0838  0.4525 -0.2970
 3365TIP3    H110059   3.783   3.595   2.871  0.3179 -0.6288  0.5137
 3365TIP3    H210060   3.916   3.553   2.930  0.9398  2.0971  1.2298
 3366TIP3   OH210061   6.615   2.508   1.995  0.6912 -0.6073 -0.9328
 3366TIP3    H110062   6.608   2.454   2.073  0.9706 -0.3154 -0.7027
 3366TIP3    H210063   6.654   2.590   2.025 -0.0074 -0.1606 -1.2310
 3367TIP3   OH210064   6.562   0.285   2.425 -0.1429 -0.3089  0.5050
 3367TIP3    H110065   6.471   0.256   2.419  0.0598 -0.7031 -0.9182
 3367TIP3    H210066   6.604   0.220   2.481 -0.3410 -1.1421 -0.3011
 3368TIP3   OH210067   3.366   0.077   1.500  0.6012 -0.2354  0.0648
 3368TIP3    H110068   3.372   0.121   1.585 -0.1003  2.2898 -1.1093
 3368TIP3    H210069   3.298   0.124   1.453  0.4598 -2.0446 -1.6657
 3369TIP3   OH210070   4.208   1.883   3.550 -0.0001 -0.2394 -0.0999
 3369TIP3    H110071   4.230   1.930   3.631  1.3617  0.1638 -0.6693
 3369TIP3    H210072   4.236   1.793   3.567  2.2760  0.2668 -0.8125
 3370TIP3   OH210073   1.778   4.004   4.562 -0.0588  0.3964 -0.2775
 3370TIP3    H110074   1.698   3.973   4.604  0.2741 -1.4193 -0.8813
 3370TIP3    H210075   1.847   3.947   4.597  0.9513  1.8174  0.0988
 3371TIP3   OH210076   3.871   3.960   0.185 -0.3549  0.0071 -0.4176
 3371TIP3    H110077   3.793   4.015   0.178 -0.7411 -0.4616  0.0384
 3371TIP3    H210078   3.938   4.017   0.222 -1.3675 -0.3571  2.1567
 3372TIP3   OH210079   1.998   6.368   1.834  0.4375  0.0171  0.1392
 3372TIP3    H110080   1.905   6.379   1.855  0.7955 -0.2006  2.0394
 3372TIP3    H210081   2.041   6.443   1.875  1.4563 -1.7056  2.4531
 3373TIP3   OH210082   0.962   1.303   2.883 -0.3492 -0.1639 -0.1693
 3373TIP3    H110083   0.901   1.375   2.867 -1.3736 -0.9397  0.1369
 3373TIP3    H210084   1.041   1.345   2.916 -1.2234  0.7657  0.8080
 3374TIP3   OH210085   0.440   5.911   4.807  0.6807 -0.5805  0.3620
 3374TIP3    H110086   0.389   5.990   4.823  0.9366 -0.4746  0.6596
 3374TIP3    H210087   0.530   5.936   4.827  0.7179 -1.0410  0.8019
 3375TIP3   OH210088   5.164   6.330   1.706 -0.2874  0.3320 -0.0060
 3375TIP3    H110089   5.238   6.308   1.763 -1.0246 -0.3934  0.6866
 3375TIP3    H210090   5.198   6.318   1.618  1.2081  2.5319  0.1784
 3376TIP3   OH210091   3.739   2.347   3.099  0.2872  0.5305 -0.1578
 3376TIP3    H110092   3.830   2.315   3.099 -0.0132 -0.3936 -1.4351
 3376TIP3    H210093   3.742   2.430   3.052  0.5280  0.7038  0.1592
 3377TIP3   OH210094   0.371   3.726   5.678  0.0976  0.2072 -0.0714
 3377TIP3    H110095   0.371   3.632   5.697  1.9899  0.2744  0.5170
 3377TIP3    H210096   0.314   3.735   5.602 -3.2791 -0.8503  2.0628
 3378TIP3   OH210097   2.183   3.444   0.094 -0.0731 -0.5273  0.1965
 3378TIP3    H110098   2.263   3.487   0.125 -0.6322  0.5512  0.1896
 3378TIP3    H210099   2.123   3.516   0.077 -0.6618 -1.2572 -0.9079
 3379TIP3   OH210100   6.854   4.686   2.549  0.3868 -0.2865  0.3689
 3379TIP3    H110101   6.773   4.725   2.517 -1.6273 -3.9132  0.5008
 3379TIP3    H210102   6.892   4.643   2.472  2.7530  2.0051  0.1226
 3380TIP3   OH210103   6.368   4.481   4.838  0.6977 -0.1716  0.2054
 3380TIP3    H110104   6.273   4.478   4.827  0.7694 -1.2298 -0.2625
 3380TIP3    H210105   6.382   4.452   4.928  0.6556 -1.8280 -0.2943
 3381TIP3   OH210106   0.991   3.038   4.950  1.0376  0.0421  0.0128
 3381TIP3    H110107   0.945   3.121   4.960 -0.6296 -0.9081  0.6189
 3381TIP3    H210108   1.084   3.062   4.953  0.6061  1.8188  0.6438
 3382TIP3   OH210109   0.274   4.696   5.464  0.7180 -0.4160 -0.2772
 3382TIP3    H110110   0.308   4.724   5.379 -0.1951  4.0620  0.5536
 3382TIP3    H210111   0.183   4.672   5.447  0.8630 -0.6271 -0.7539
 3383TIP3   OH210112   1.052   3.109   0.763  0.6407 -0.2335  0.0960
 3383TIP3    H110113   1.107   3.187   0.772 -0.2259  0.4118 -0.0301
 3383TIP3    H210114   1.109   3.036   0.789  1.1430  0.5470  1.2552
 3384TIP3   OH210115   2.863   1.604   2.281  0.3983  0.0880 -0.3298
 3384TIP3    H110116   2.865   1.580   2.374  1.2897  0.3210 -0.2808
 3384TIP3    H210117   2.955   1.606   2.255  0.1112 -1.6644 -1.6590
 3385TIP3   OH210118   1.523   6.101   4.189  0.1895  0.4158 -0.1958
 3385TIP3    H110119   1.607   6.138   4.216  0.5571 -0.5372  0.0300
 3385TIP3    H210120   1.461   6.173   4.196  0.5585  0.6013  1.7476
 3386TIP3   OH210121   1.632   2.118   5.652  0.2993 -0.1756 -0.2950
 3386TIP3    H110122   1.687   2.042   5.633  3.3939  1.7450  0.0870
 3386TIP3    H210123   1.611   2.154   5.566  0.3129 -0.5036 -0.4357
 3387TIP3   OH210124   2.622   0.628   0.262 -0.0080  0.1555  0.1440
 3387TIP3    H110125   2.703   0.615   0.213 -0.0063 -1.2963  0.5024
 3387TIP3    H210126   2.596   0.541   0.291 -0.4864  0.8395  1.9544
 3388TIP3   OH210127   6.544   2.842   2.423  0.7205 -0.5334 -0.7127
 3388TIP3    H110128   6.621   2.802   2.464 -0.0833  0.0257  1.5078
 3388TIP3    H210129   6.573   2.930   2.397  0.3380  0.6211  2.3208
 3389TIP3   OH210130   1.424   1.258   1.299 -0.2175  0.1225 -0.4906
 3389TIP3    H110131   1.442   1.348   1.274  1.8369  0.7571  2.6529
 3389TIP3    H210132   1.351   1.264   1.361  0.4494 -0.2325  0.3456
 3390TIP3   OH210133   5.296   3.607   3.832  0.4398  0.1276 -0.7373
 3390TIP3    H110134   5.277   3.639   3.920 -1.3778 -1.1906 -0.6068
 3390TIP3    H210135   5.337   3.521   3.846 -1.6692 -1.0134 -1.1321
 3391TIP3   OH210136   0.991   6.401   2.548  0.4401 -0.0804 -0.3735
 3391TIP3    H110137   1.047   6.417   2.624  0.6016 -1.2368 -0.2360
 3391TIP3    H210138   1.044   6.344   2.492 -0.2685 -0.4692 -0.6525
 3392TIP3   OH210139   4.829   3.358   1.366  0.0935  0.0225 -0.1573
 3392TIP3    H110140   4.903   3.335   1.422  0.6596  1.8821 -0.0829
 3392TIP3    H210141   4.862   3.346   1.276 -0.4045 -1.7102 -0.1465
 3393TIP3   OH210142   3.533   2.887   0.296  0.1909  0.0388  0.5833
 3393TIP3    H110143   3.582   2.806   0.312  0.9623  0.4352  0.2829
 3393TIP3    H210144   3.528   2.894   0.201 -0.0727  0.2308  0.6104
 3394TIP3   OH210145   3.760   0.446   1.846  0.7546 -0.9411  0.0727
 3394TIP3    H110146   3.770   0.520   1.786  0.7173 -0.6473  0.4264
 3394TIP3    H210147   3.822   0.381   1.814  1.6066 -0.3185  0.4299
 3395TIP3   OH210148   6.801   3.725   4.085  0.0344  0.0034  0.3414
 3395TIP3    H110149   6.761   3.684   4.008 -0.9251  0.3776  0.6186
 3395TIP3    H210150   6.884   3.760   4.053 -0.5440  0.5302 -0.6402
 3396TIP3   OH210151   3.069   4.696   2.094 -0.0609 -0.1232  0.1223
 3396TIP3    H110152   3.123   4.640   2.151  1.3944 -0.7145 -1.7468
 3396TIP3    H210153   3.120   4.706   2.014 -2.5759 -0.4273 -1.6546
 3397TIP3   OH210154   0.896   4.299   2.717 -0.1696 -0.2318 -0.0400
 3397TIP3    H110155   0.899   4.204   2.712  1.1692 -0.3751  2.1871
 3397TIP3    H210156   0.855   4.326   2.635  3.0812 -2.4667 -2.6548
 3398TIP3   OH210157   6.473   3.945   2.825  0.1378  0.7578  0.1130
 3398TIP3    H110158   6.482   4.038   2.844 -0.2849  1.0897 -1.2483
 3398TIP3    H210159   6.550   3.923   2.772  1.2659 -0.1442  1.9998
 3399TIP3   OH210160   5.756   4.399   5.289 -0.2922 -0.0053  0.6652
 3399TIP3    H110161   5.704   4.478   5.300  1.0194  1.3317 -1.9387
 3399TIP3    H210162   5.726   4.362   5.206  0.5149 -1.1099  0.8428
 3400TIP3   OH210163   6.100   1.606   2.074 -0.4221 -0.4105 -0.2568
 3400TIP3    H110164   6.113   1.513   2.055 -1.0039 -0.7698  0.9697
 3400TIP3    H210165   6.133   1.617   2.163 -0.7616  0.4645 -0.2308
 3401TIP3   OH210166   0.506   4.679   5.595 -0.1934  0.4439 -0.1947
 3401TIP3    H110167   0.417   4.675   5.559 -0.3049  0.4411  0.0770
 3401TIP3    H210168   0.553   4.610   5.549  0.3613  2.0378 -2.1656
 3402TIP3   OH210169   1.265   4.206   1.385  0.3172 -0.3483 -0.8465
 3402TIP3    H110170   1.328   4.184   1.316  0.5773 -1.0734 -0.3883
 3402TIP3    H210171   1.184   4.162   1.358  1.1241 -2.9662  0.6229
 3403TIP3   OH210172   7.100   3.943   1.041  0.4438 -0.5714  0.2987
 3403TIP3    H110173   7.044   3.891   1.099  0.5242 -0.7614  0.2053
 3403TIP3    H210174   7.046   4.019   1.018  1.8231  1.8035  4.0197
 3404TIP3   OH210175   3.138   5.572   3.383 -0.1875  0.3755 -0.0562
 3404TIP3    H110176   3.073   5.568   3.312  0.2280  0.9212 -0.4693
 3404TIP3    H210177   3.107   5.642   3.440  0.0987  0.7109 -0.3129
 3405TIP3   OH210178   5.935   1.432   0.918 -0.2902  0.3977  0.3591
 3405TIP3    H110179   5.943   1.450   1.012  1.7486  0.9178  0.1399
 3405TIP3    H210180   5.842   1.446   0.898 -0.4000  2.2645  1.9062
 3406TIP3   OH210181   2.243   4.912   1.542 -0.1981 -0.3390  0.0632
 3406TIP3    H110182   2.335   4.897   1.564  0.5393  2.1775 -0.9241
 3406TIP3    H210183   2.245   4.936   1.449 -1.9937 -1.0754 -0.2094
 3407TIP3   OH210184   5.243  -0.013   4.525 -0.2318 -0.1644  0.1162
 3407TIP3    H110185   5.336   0.009   4.520 -0.2111 -0.4881 -1.1575
 3407TIP3    H210186   5.206   0.021   4.443 -1.5324  1.3052  1.2607
 3408TIP3   OH210187   6.341   1.875   3.157  0.2470 -0.6928  0.1544
 3408TIP3    H110188   6.289   1.852   3.080  0.3182 -1.4355  0.3224
 3408TIP3    H210189   6.320   1.967   3.173  0.8313 -0.2781 -1.2323
 3409TIP3   OH210190   0.014   1.034   1.764 -0.2981 -0.3824 -0.1499
 3409TIP3    H110191   0.050   0.964   1.710 -0.8264  0.3196 -1.4715
 3409TIP3    H210192  -0.061   0.994   1.808 -0.0248 -0.9018 -0.1503
 3410TIP3   OH210193   2.474   3.353   2.165 -0.0128 -0.8206  0.2000
 3410TIP3    H110194   2.539   3.355   2.235  0.5285  0.1828 -0.3081
 3410TIP3    H210195   2.397   3.311   2.204  0.5025 -0.8532  1.1943
 3411TIP3   OH210196   1.951   4.855   4.250  0.6072  0.2621  0.4712
 3411TIP3    H110197   1.884   4.836   4.185 -0.4662  0.7916  1.3871
 3411TIP3    H210198   1.964   4.772   4.296  0.7379  0.1068  0.1570
 3412TIP3   OH210199   0.495   0.788   2.096  0.1973  0.1733  0.0535
 3412TIP3    H110200   0.414   0.836   2.077  0.6523  0.8090 -0.3367
 3412TIP3    H210201   0.476   0.740   2.177  0.5467  3.1315  2.0688
 3413TIP3   OH210202   6.544   3.912   3.082 -0.0426  0.2440 -0.3545
 3413TIP3    H110203   6.493   3.844   3.125  0.9709 -0.6073 -0.4378
 3413TIP3    H210204   6.520   3.905   2.989  0.3148 -0.2474 -0.4140
 3414TIP3   OH210205   6.160   3.312   1.155  0.3784 -0.8279  0.1121
 3414TIP3    H110206   6.118   3.234   1.190 -1.4654  0.2299  0.3841
 3414TIP3    H210207   6.253   3.301   1.177 -0.0630 -2.2091  1.4839
 3415TIP3   OH210208   3.033   2.348   4.101 -0.5969  0.2251 -0.1030
 3415TIP3    H110209   2.991   2.359   4.186 -1.8910 -0.8788 -0.5776
 3415TIP3    H210210   3.080   2.431   4.087 -0.8061  0.6256  1.4244
 3416TIP3   OH210211   1.591   4.241   1.181  0.0995 -0.8679  0.2115
 3416TIP3    H110212   1.627   4.319   1.223  2.4891 -1.2871 -0.8815
 3416TIP3    H210213   1.574   4.181   1.253  1.0144 -0.3796  0.8580
 3417TIP3   OH210214   1.741   5.884   2.881 -0.9229 -0.0720  0.1110
 3417TIP3    H110215   1.788   5.916   2.805  0.0185  0.9436  1.0785
 3417TIP3    H210216   1.808   5.839   2.934 -1.3719 -0.0456  0.7167
 3418TIP3   OH210217   3.431   2.510   0.185 -0.4829 -0.1558  0.3948
 3418TIP3    H110218   3.417   2.425   0.144  0.3318  0.0827 -0.3900
 3418TIP3    H210219   3.394   2.500   0.273  0.6962 -1.7282  0.7650
 3419TIP3   OH210220   6.061   2.693   0.847 -0.0110  0.2202  0.3622
 3419TIP3    H110221   5.990   2.752   0.827  0.1351  0.2238 -0.1625
 3419TIP3    H210222   6.037   2.611   0.804 -0.1749 -0.0835  1.0171
 3420TIP3   OH210223   3.472   0.031   5.319  0.4974  0.2494 -0.6734
 3420TIP3    H110224   3.547   0.054   5.265  0.9948  3.1596  1.0386
 3420TIP3    H210225   3.509   0.011   5.405 -0.5580  0.3973 -0.1661
 3421TIP3   OH210226   0.541   3.126   1.172 -0.4300  0.0615 -0.1500
 3421TIP3    H110227   0.559   3.042   1.130 -0.9517 -0.5446  0.7968
 3421TIP3    H210228   0.579   3.191   1.113  0.3283 -0.8565 -0.7049
 3422TIP3   OH210229   5.626   5.790   4.143 -0.1917  0.5606 -0.1827
 3422TIP3    H110230   5.647   5.834   4.061 -1.1629  1.3826 -0.0021
 3422TIP3    H210231   5.536   5.760   4.132  0.1314 -0.5672  0.0615
 3423TIP3   OH210232   4.964   3.754   0.447  0.7887  0.1604 -0.3058
 3423TIP3    H110233   5.018   3.825   0.482 -1.4729  1.6966  0.2605
 3423TIP3    H210234   4.994   3.675   0.494  2.6550  0.8879 -0.2033
 3424TIP3   OH210235   0.036   1.031   3.929 -0.6230  0.0084 -0.1240
 3424TIP3    H110236  -0.010   0.960   3.973 -0.3571 -0.6730 -0.9096
 3424TIP3    H210237   0.069   0.991   3.848  0.7882  0.6266  0.1080
 3425TIP3   OH210238   2.791   2.119   2.789  0.7958  0.3232  0.3793
 3425TIP3    H110239   2.773   2.057   2.718  0.9222 -1.6426  1.9688
 3425TIP3    H210240   2.704   2.149   2.816  0.5042 -1.1514  1.2212
 3426TIP3   OH210241   3.765   4.063   4.422 -0.2719 -0.9355  0.2206
 3426TIP3    H110242   3.723   4.087   4.505  1.8449  0.5482  0.9521
 3426TIP3    H210243   3.858   4.083   4.436 -0.0179  0.7426 -2.9610
 3427TIP3   OH210244   2.248   3.028   0.442  0.7062  0.0311  0.3201
 3427TIP3    H110245   2.290   3.108   0.412  2.6344 -1.5318 -1.4976
 3427TIP3    H210246   2.181   3.011   0.375  0.5628 -0.0745  0.4908
 3428TIP3   OH210247   3.115   0.808   0.098  0.4445  1.0274  0.3199
 3428TIP3    H110248   3.159   0.743   0.152 -1.5051  0.6393  1.5361
 3428TIP3    H210249   3.081   0.873   0.160  0.5804  2.1139 -0.6941
 3429TIP3   OH210250   2.509   5.633   4.721  0.1310 -0.6048 -0.3196
 3429TIP3    H110251   2.450   5.620   4.795 -0.6744 -1.2007 -1.0620
 3429TIP3    H210252   2.530   5.544   4.691  0.0525 -0.3556 -1.1243
 3430TIP3   OH210253   6.560   4.065   5.308 -0.4433 -0.1223 -0.2788
 3430TIP3    H110254   6.484   4.104   5.352 -0.1397 -0.5291  0.6383
 3430TIP3    H210255   6.627   4.061   5.376  0.5756  0.6836 -1.2012
 3431TIP3   OH210256   7.081   1.205   5.627  0.0718 -0.7531  0.1370
 3431TIP3    H110257   7.144   1.136   5.608 -0.1348 -1.1952  1.0438
 3431TIP3    H210258   6.996   1.161   5.631 -0.3098 -0.1757 -1.0013
 3432TIP3   OH210259   6.209   0.205   0.726  0.7449  0.3642 -0.0358
 3432TIP3    H110260   6.279   0.268   0.710  0.9530 -0.0987 -1.0272
 3432TIP3    H210261   6.129   0.258   0.724  1.1133  1.1188  2.4385
 3433TIP3   OH210262   0.798   3.269   0.768 -0.3648  0.3309  0.2842
 3433TIP3    H110263   0.715   3.222   0.778  0.2718 -1.0134 -0.5419
 3433TIP3    H210264   0.859   3.203   0.737  1.0939  1.2486  1.1239
 3434TIP3   OH210265   1.651   5.391   3.421  0.3810 -0.2619  0.5575
 3434TIP3    H110266   1.612   5.472   3.390  0.2615 -0.4029  0.3324
 3434TIP3    H210267   1.583   5.325   3.407  0.9272 -0.6309 -0.4647
 3435TIP3   OH210268   4.839   0.438   0.117  0.2765 -0.6194  0.0843
 3435TIP3    H110269   4.839   0.511   0.055 -0.6425 -0.1765  0.5796
 3435TIP3    H210270   4.897   0.466   0.187 -0.3638 -0.1798  0.4554
 3436TIP3   OH210271   5.427   4.790   3.839  0.2292  0.2389  0.7381
 3436TIP3    H110272   5.433   4.885   3.832  0.7683  0.0960 -1.0422
 3436TIP3    H210273   5.485   4.768   3.912 -0.3720  1.3002  1.5756
 3437TIP3   OH210274   3.054   4.426   4.457 -0.6049 -0.2581 -0.0716
 3437TIP3    H110275   3.040   4.437   4.551  2.3838 -0.2438  0.4899
 3437TIP3    H210276   3.068   4.514   4.424  0.1032 -0.3892 -0.1473
 3438TIP3   OH210277   4.296   5.317   5.551 -0.0406  0.6828  0.1878
 3438TIP3    H110278   4.236   5.244   5.565 -1.3086  1.1732 -2.1758
 3438TIP3    H210279   4.263   5.386   5.608 -0.0197  0.0631  0.9661
 3439TIP3   OH210280   6.897   0.452   3.286  0.3697 -0.5473  0.2000
 3439TIP3    H110281   6.836   0.384   3.258 -0.0247 -1.4657  2.9232
 3439TIP3    H210282   6.983   0.418   3.264  0.2818 -2.7254  2.6905
 3440TIP3   OH210283   5.841   2.546   0.473 -0.4120 -0.3321 -0.0510
 3440TIP3    H110284   5.844   2.628   0.423  1.8780  0.4327  1.2307
 3440TIP3    H210285   5.771   2.560   0.537  0.6828  1.1199  0.8820
 3441TIP3   OH210286   4.612   1.533   5.158  0.1624  0.3850  0.2633
 3441TIP3    H110287   4.695   1.497   5.127  0.8635  1.6550  0.5916
 3441TIP3    H210288   4.608   1.621   5.119 -1.0906  0.2979  0.1621
 3442TIP3   OH210289   7.127   2.578   4.023  0.3305 -0.3420 -0.2255
 3442TIP3    H110290   7.099   2.497   3.982  0.2947  0.3727 -1.6703
 3442TIP3    H210291   7.046   2.622   4.048  0.2864 -2.1596  3.7038
 3443TIP3   OH210292   1.179   5.775   2.885  0.5899 -0.0600 -0.5381
 3443TIP3    H110293   1.174   5.683   2.859  0.8913 -0.4293  0.6355
 3443TIP3    H210294   1.270   5.799   2.870  0.8758 -0.4032  0.4884
 3444TIP3   OH210295   3.116   3.786   5.698  0.1945 -0.1404 -0.1761
 3444TIP3    H110296   3.205   3.750   5.697  0.2935 -0.1736  2.6973
 3444TIP3    H210297   3.062   3.719   5.656  1.4250 -0.2679 -1.6574
 3445TIP3   OH210298   6.884   6.243   4.426  0.5301 -0.0435  0.5857
 3445TIP3    H110299   6.799   6.240   4.471  1.0674 -2.2065  1.5889
 3445TIP3    H210300   6.901   6.336   4.413 -1.2756  0.5008  1.7536
 3446TIP3   OH210301   2.978   6.747   1.719 -0.5791 -0.3000 -0.0496
 3446TIP3    H110302   2.950   6.809   1.785  0.8266 -0.7676  1.0224
 3446TIP3    H210303   3.030   6.682   1.766 -1.0748 -1.6779 -1.3117
 3447TIP3   OH210304   5.195   4.642   3.800 -0.2823  0.0133  0.2339
 3447TIP3    H110305   5.130   4.712   3.804 -0.1468  0.1632 -0.0723
 3447TIP3    H210306   5.279   4.687   3.810 -0.1684 -0.0476 -0.3721
 3448TIP3   OH210307   2.943   0.178   1.436  0.4920  0.0706  0.1003
 3448TIP3    H110308   2.889   0.106   1.467 -0.8951  1.0419  0.0109
 3448TIP3    H210309   2.899   0.257   1.467  0.2061  1.0191 -2.4529
 3449TIP3   OH210310   2.113   1.463   0.844 -0.0450 -0.3049  0.3804
 3449TIP3    H110311   2.030   1.426   0.812 -0.4070  0.5689  0.2813
 3449TIP3    H210312   2.174   1.389   0.841 -0.2713 -0.4716 -1.5679
 3450TIP3   OH210313   6.854   4.634   2.855  0.0923  0.2535  0.2741
 3450TIP3    H110314   6.894   4.716   2.830 -0.0020  0.0558 -0.5309
 3450TIP3    H210315   6.921   4.568   2.837  0.4270  0.2027  1.5539
 3451TIP3   OH210316   4.207   3.691   2.049 -0.1985  0.1309  0.1055
 3451TIP3    H110317   4.179   3.734   1.969  1.2916  0.2796 -0.3626
 3451TIP3    H210318   4.274   3.748   2.086 -0.9924  0.1742  1.5896
 3452TIP3   OH210319   4.162   6.590   4.776  0.0328  0.0535 -0.0621
 3452TIP3    H110320   4.186   6.618   4.865  1.6681  1.4844 -0.9011
 3452TIP3    H210321   4.066   6.594   4.776  0.0330  1.1485  1.3035
 3453TIP3   OH210322   3.110   1.584   5.199  0.4097 -0.1527  0.5048
 3453TIP3    H110323   3.033   1.543   5.160  0.5622 -1.2030  1.2618
 3453TIP3    H210324   3.113   1.549   5.288  0.1271  2.0662  1.4649
 3454TIP3   OH210325   0.968   3.165   3.450  0.2504 -0.3096  0.2730
 3454TIP3    H110326   1.046   3.217   3.432 -1.1964  3.0775  2.8810
 3454TIP3    H210327   0.895   3.221   3.424 -1.4193 -0.6607  3.7318
 3455TIP3   OH210328   0.257   4.455   3.998 -0.0590 -0.1751 -0.1394
 3455TIP3    H110329   0.287   4.455   3.908 -1.8226  0.0051 -0.7595
 3455TIP3    H210330   0.303   4.381   4.038 -0.3816 -1.1809 -1.5725
 3456TIP3   OH210331   1.541   0.586   5.109 -0.1990  0.0746 -0.2532
 3456TIP3    H110332   1.610   0.561   5.171 -0.4855  0.2883  0.1590
 3456TIP3    H210333   1.503   0.503   5.081 -0.8978  0.0164  0.8197
 3457TIP3   OH210334   6.213   5.449   3.536  0.3497 -0.1367 -0.0870
 3457TIP3    H110335   6.283   5.493   3.487 -0.3329  0.7176 -0.3111
 3457TIP3    H210336   6.193   5.371   3.484  0.6869 -0.0375 -0.3700
 3458TIP3   OH210337   4.677   3.302   5.222  0.2576 -0.8833  0.3452
 3458TIP3    H110338   4.690   3.390   5.258  0.5027 -0.5112 -0.6216
 3458TIP3    H210339   4.686   3.313   5.127 -1.1102 -1.7072  0.0921
 3459TIP3   OH210340   5.098   3.779   3.717 -0.6643  0.8255 -0.0994
 3459TIP3    H110341   5.152   3.722   3.770 -2.2165  0.1687  0.8423
 3459TIP3    H210342   5.124   3.868   3.742 -0.9510  0.5260  1.3631
 3460TIP3   OH210343   1.868   3.402   1.549 -0.1451 -0.3025 -0.6795
 3460TIP3    H110344   1.778   3.388   1.519 -0.3318 -0.7897  0.0658
 3460TIP3    H210345   1.889   3.321   1.596  1.1509 -0.7429 -1.9514
 3461TIP3   OH210346   1.589   2.806   1.077  0.3039  0.0747 -0.2209
 3461TIP3    H110347   1.548   2.883   1.036 -2.9444 -0.6993  1.2425
 3461TIP3    H210348   1.655   2.843   1.135  2.1891  1.3981 -3.0082
 3462TIP3   OH210349   4.168   2.997   4.723  0.0641  0.2310  0.3319
 3462TIP3    H110350   4.230   2.926   4.706 -1.6742 -1.3984  0.4198
 3462TIP3    H210351   4.187   3.062   4.656 -0.1726 -1.6432 -1.6717
 3463TIP3   OH210352   6.936   1.507   2.067  0.1994  0.1440  0.0239
 3463TIP3    H110353   6.989   1.446   2.119  0.3177  0.7563  0.6378
 3463TIP3    H210354   6.847   1.495   2.100  0.4412  1.3780  1.2516
 3464TIP3   OH210355   6.976   3.042   0.104 -0.3274  0.2988 -0.3374
 3464TIP3    H110356   6.928   2.967   0.069  0.2562 -0.7635  1.0474
 3464TIP3    H210357   6.917   3.082   0.167 -0.3055  0.4751 -0.4277
 3465TIP3   OH210358   6.281   0.587   0.166  0.3428  0.3610  0.4367
 3465TIP3    H110359   6.191   0.578   0.136  0.9396  0.9969 -1.7407
 3465TIP3    H210360   6.327   0.513   0.128  1.1224  1.1516 -0.2252
 3466TIP3   OH210361   1.095   4.528   2.020 -0.0830 -0.4598 -0.2866
 3466TIP3    H110362   1.060   4.592   2.082  0.1193 -0.0973 -0.5427
 3466TIP3    H210363   1.114   4.579   1.942  1.6336 -0.5318  0.0580
 3467TIP3   OH210364   4.336   3.984   1.238 -0.4541 -0.3827  0.2666
 3467TIP3    H110365   4.418   4.026   1.266 -0.6080  0.7849 -0.9580
 3467TIP3    H210366   4.364   3.914   1.180 -0.3268  1.0154 -1.4380
 3468TIP3   OH210367   5.505   3.681   4.362 -0.5162  0.2706  0.5343
 3468TIP3    H110368   5.553   3.728   4.430  0.8661 -0.5715  0.1886
 3468TIP3    H210369   5.454   3.748   4.317 -1.1368  0.8951  2.1357
 3469TIP3   OH210370   2.538   1.988   2.418  0.1411 -0.1079  0.2687
 3469TIP3    H110371   2.552   1.909   2.471  1.4721 -0.7440 -0.9284
 3469TIP3    H210372   2.453   2.021   2.445  0.3973 -0.8740  2.1656
 3470TIP3   OH210373   6.229   1.013   3.115 -0.3182  0.2062 -0.0234
 3470TIP3    H110374   6.206   1.104   3.096 -1.4037 -0.0296  0.0849
 3470TIP3    H210375   6.296   0.991   3.050 -0.1337  1.0400 -0.1236
 3471TIP3   OH210376   4.155   1.663   5.178  0.4065  0.2201 -0.4559
 3471TIP3    H110377   4.250   1.675   5.183  0.6097 -0.6849 -1.7355
 3471TIP3    H210378   4.143   1.588   5.121 -1.1217  1.0446 -1.2837
 3472TIP3   OH210379   5.801   3.486   0.797 -0.3980 -0.3045  0.2583
 3472TIP3    H110380   5.833   3.421   0.734  0.4021  1.0848 -0.8315
 3472TIP3    H210381   5.706   3.490   0.782 -0.4175 -1.0411  0.1776
 3473TIP3   OH210382   3.694   0.088   5.193  0.1837  0.2197  0.0817
 3473TIP3    H110383   3.776   0.039   5.195  0.9752  1.4106 -1.3040
 3473TIP3    H210384   3.721   0.179   5.186 -1.2641  0.6311 -0.3969
 3474TIP3   OH210385   1.838   0.301   5.601  0.5166 -0.0621 -0.6459
 3474TIP3    H110386   1.758   0.249   5.609 -0.1975  1.2365  1.4612
 3474TIP3    H210387   1.897   0.265   5.667 -0.2715  2.1528  1.4016
 3475TIP3   OH210388   3.617   1.772   5.354  0.2305  0.5899  0.4129
 3475TIP3    H110389   3.619   1.678   5.373  1.3001  0.2475 -1.2113
 3475TIP3    H210390   3.535   1.785   5.306 -0.2665  0.6457  1.2483
 3476TIP3   OH210391   0.071   1.193   2.791 -0.2598  0.3162 -0.1884
 3476TIP3    H110392   0.087   1.270   2.847 -0.0488 -0.2291  0.5161
 3476TIP3    H210393   0.020   1.134   2.846  0.9381 -0.7189 -0.1456
 3477TIP3   OH210394   3.815   4.836   5.665  0.7820 -0.7975 -0.0982
 3477TIP3    H110395   3.867   4.827   5.745  0.6697  2.2155  0.4221
 3477TIP3    H210396   3.879   4.835   5.594  1.0567 -1.6068  0.1477
 3478TIP3   OH210397   0.315   1.257   4.385 -0.3941 -0.0632  0.6627
 3478TIP3    H110398   0.374   1.332   4.378 -1.1059  0.6377  1.9213
 3478TIP3    H210399   0.309   1.239   4.479 -1.2978 -0.8382  0.4738
 3479TIP3   OH210400   4.606   5.975   1.837  0.1148  0.3403  0.6547
 3479TIP3    H110401   4.693   6.011   1.819  0.2154 -0.0977  0.2575
 3479TIP3    H210402   4.547   6.029   1.784  0.5506 -1.9079 -2.3702
 3480TIP3   OH210403   1.390   0.018   4.545 -0.2027  0.0248 -0.5785
 3480TIP3    H110404   1.457   0.001   4.612 -0.2903  0.6180 -0.3362
 3480TIP3    H210405   1.364   0.109   4.560  1.0194  0.7417 -2.5435
 3481TIP3   OH210406   3.178   4.621   3.645 -0.3229  0.2358  0.4690
 3481TIP3    H110407   3.270   4.605   3.627 -0.3363  0.2647  0.3745
 3481TIP3    H210408   3.151   4.549   3.702 -0.0245  0.6774  1.1845
 3482TIP3   OH210409   2.639   6.094   3.779 -0.2854 -0.4799  0.4987
 3482TIP3    H110410   2.563   6.102   3.837  0.3250  1.8364  1.0802
 3482TIP3    H210411   2.710   6.067   3.837 -0.0377  0.2263  0.5330
 3483TIP3   OH210412   5.364   0.327   3.308 -0.0710 -0.3131  0.1753
 3483TIP3    H110413   5.415   0.331   3.389 -1.5864  1.1798  1.1292
 3483TIP3    H210414   5.279   0.290   3.335  0.3483 -2.5457 -1.3212
 3484TIP3   OH210415   6.745   0.113   4.989  0.4974  0.2506  0.3821
 3484TIP3    H110416   6.811   0.147   4.928  1.3077 -1.9742 -0.0611
 3484TIP3    H210417   6.666   0.104   4.936  0.4589  0.7489  0.3437
 3485TIP3   OH210418   1.119   5.198   5.861  0.4310  0.1367  0.5640
 3485TIP3    H110419   1.177   5.261   5.904 -0.0668  0.8303  0.2328
 3485TIP3    H210420   1.068   5.250   5.800 -0.0161 -0.5889  0.3057
 3486TIP3   OH210421   1.131   1.025   3.618  0.2405 -0.4568  0.4774
 3486TIP3    H110422   1.212   0.977   3.601  0.3120 -0.3601  0.5425
 3486TIP3    H210423   1.100   1.050   3.531  0.4462 -0.2235  0.4701
 3487TIP3   OH210424   0.939   2.141   2.877 -0.5323  0.0770 -0.0757
 3487TIP3    H110425   0.879   2.208   2.909 -0.6657 -0.5688  1.0611
 3487TIP3    H210426   0.892   2.098   2.806 -0.6940  0.7641 -0.3862
 3488TIP3   OH210427   4.430   2.337   2.538  0.8267 -0.4161  0.3692
 3488TIP3    H110428   4.475   2.421   2.533  0.3653 -0.2160 -1.1345
 3488TIP3    H210429   4.497   2.272   2.517  0.5993 -0.1666 -1.2894
 3489TIP3   OH210430   2.004   3.113   2.725 -0.0961  0.0466 -0.0505
 3489TIP3    H110431   2.013   3.162   2.643 -1.0036  0.2810 -0.0266
 3489TIP3    H210432   2.009   3.021   2.698  0.9904  0.1299 -0.1777
 3490TIP3   OH210433   0.971   2.544   1.436  0.1271  0.2327  0.3636
 3490TIP3    H110434   0.949   2.455   1.462 -2.6315  0.6143 -0.3656
 3490TIP3    H210435   0.996   2.536   1.344 -0.1999  0.2143  0.2755
 3491TIP3   OH210436   0.625   3.614   0.548  0.1771 -0.0969  0.7323
 3491TIP3    H110437   0.587   3.594   0.462 -1.6896  1.5612  1.0890
 3491TIP3    H210438   0.707   3.564   0.551 -0.6509 -1.6820 -1.2215
 3492TIP3   OH210439   6.357   4.096   0.260 -0.2271  0.2724  0.1088
 3492TIP3    H110440   6.289   4.049   0.212  0.0000  0.4196 -0.3754
 3492TIP3    H210441   6.427   4.031   0.272 -0.2462  0.2605  0.1515
 3493TIP3   OH210442   0.930   0.117   0.800  0.3650  0.3077  0.5176
 3493TIP3    H110443   0.887   0.153   0.877  0.0179  1.2682 -0.1061
 3493TIP3    H210444   0.861   0.113   0.733  0.9830  0.8842 -0.1813
 3494TIP3   OH210445   5.040   6.641   0.977 -0.4073 -0.7114  0.0423
 3494TIP3    H110446   4.986   6.711   1.013 -0.6391 -1.1084  0.4794
 3494TIP3    H210447   5.108   6.627   1.042 -0.7490 -1.3385  0.2764
 3495TIP3   OH210448   4.920   1.180   2.730  0.2230 -0.2577  0.1441
 3495TIP3    H110449   4.937   1.149   2.819 -0.5375  0.3654  0.5134
 3495TIP3    H210450   5.008   1.194   2.693  0.5534  0.8630  1.2871
 3496TIP3   OH210451   0.056   2.195   1.663  0.0788  0.4195  0.0495
 3496TIP3    H110452   0.107   2.228   1.589 -0.7100  1.0188 -0.2455
 3496TIP3    H210453   0.121   2.158   1.723  0.7459  0.0714 -0.8687
 3497TIP3   OH210454   6.813   0.351   2.312 -0.2093  0.3551  0.8224
 3497TIP3    H110455   6.739   0.346   2.373 -0.5168 -0.1876  0.4125
 3497TIP3    H210456   6.871   0.280   2.338 -0.6143 -0.2380  0.1396
 3498TIP3   OH210457   2.876   5.553   1.883  0.1949 -0.0991 -0.5536
 3498TIP3    H110458   2.966   5.537   1.910  0.2187 -0.0977 -0.6332
 3498TIP3    H210459   2.878   5.551   1.788  0.2533  0.6713 -0.5772
 3499TIP3   OH210460   3.171   2.231   4.849  0.2963 -0.3510 -1.1778
 3499TIP3    H110461   3.178   2.231   4.944  0.5106 -0.6275 -1.1942
 3499TIP3    H210462   3.191   2.141   4.823 -2.1578 -0.9461 -1.3193
 3500TIP3   OH210463   0.498   4.814   2.804 -0.0062  0.3958  0.1257
 3500TIP3    H110464   0.576   4.763   2.783  0.0190  0.3069  0.4319
 3500TIP3    H210465   0.500   4.822   2.899  0.3364  1.5263  0.0300
 3501TIP3   OH210466   3.419   5.847   3.404  0.0494 -0.2401 -0.6059
 3501TIP3    H110467   3.503   5.869   3.445 -0.1505 -1.1165  0.3293
 3501TIP3    H210468   3.442   5.784   3.336  0.2334  0.1614 -0.9211
 3502TIP3   OH210469   5.478   3.547   4.753 -0.2221 -0.5258 -0.4230
 3502TIP3    H110470   5.542   3.555   4.681 -1.0271  0.3248 -1.0800
 3502TIP3    H210471   5.528   3.569   4.832  0.8722 -2.2385 -0.5864
 3503TIP3   OH210472   0.632   6.227   0.351 -0.6402 -0.5059 -0.1167
 3503TIP3    H110473   0.648   6.199   0.261 -1.7752 -2.7253  0.3089
 3503TIP3    H210474   0.716   6.216   0.395 -0.2151  0.0806 -0.7545
 3504TIP3   OH210475   3.304   6.035   1.242 -0.1791  0.3999 -0.1553
 3504TIP3    H110476   3.248   6.067   1.312  0.9133 -0.1751  1.0204
 3504TIP3    H210477   3.330   5.947   1.270 -0.0535 -0.0146 -1.4883
 3505TIP3   OH210478   6.951   0.135   4.824  0.2222  0.4159 -0.0979
 3505TIP3    H110479   6.973   0.043   4.837 -0.8908  0.3670  1.9231
 3505TIP3    H210480   7.024   0.170   4.773 -0.6745 -2.1462 -3.5362
 3506TIP3   OH210481   3.488   1.865   0.694  0.3900 -0.0511 -0.1572
 3506TIP3    H110482   3.484   1.811   0.774 -1.6991 -1.6035 -1.1867
 3506TIP3    H210483   3.429   1.938   0.712  1.9387  1.0402  0.6325
 3507TIP3   OH210484   4.537   6.269   0.999  0.8557 -0.0469 -0.3592
 3507TIP3    H110485   4.588   6.258   1.079  2.5525  1.3217 -1.1976
 3507TIP3    H210486   4.470   6.201   1.004  2.3004 -1.4474  1.1504
 3508TIP3   OH210487   2.316   6.736   4.261 -0.2521 -0.2085  0.3197
 3508TIP3    H110488   2.251   6.676   4.225 -0.7081  0.2191  0.4338
 3508TIP3    H210489   2.323   6.711   4.353 -3.0939  2.1922  1.3199
 3509TIP3   OH210490   3.228   0.427   0.212  0.3458  0.1635 -0.3852
 3509TIP3    H110491   3.135   0.410   0.223  0.1072  1.5653 -0.0968
 3509TIP3    H210492   3.264   0.343   0.184 -1.3320  0.1266 -2.6676
 3510TIP3   OH210493   5.567   6.171   2.634 -0.1724  0.3217 -0.4795
 3510TIP3    H110494   5.556   6.088   2.587  1.0474  0.2996 -0.7437
 3510TIP3    H210495   5.652   6.164   2.676 -0.0662  1.4341 -0.4844
 3511TIP3   OH210496   3.219   0.529   0.965 -0.3646  0.0634  0.1187
 3511TIP3    H110497   3.292   0.495   1.016 -0.3379 -0.1947 -0.0871
 3511TIP3    H210498   3.206   0.464   0.895  1.5436  1.8212 -2.0257
 3512TIP3   OH210499   6.915   1.984   1.621 -0.2925 -0.3073  0.1768
 3512TIP3    H110500   6.936   1.893   1.599 -1.4536 -0.1319 -1.9303
 3512TIP3    H210501   6.963   2.036   1.556 -0.3535  0.5449  0.8005
 3513TIP3   OH210502   0.691   0.220   4.530 -0.5744 -0.4951 -0.3948
 3513TIP3    H110503   0.769   0.182   4.489 -1.2185 -1.7818 -0.4774
 3513TIP3    H210504   0.619   0.193   4.473 -1.0285  1.2143 -0.6630
 3514TIP3   OH210505   3.994   3.863   2.365  0.2499 -0.4054 -0.0560
 3514TIP3    H110506   4.084   3.893   2.379 -0.1422  0.6912  0.1807
 3514TIP3    H210507   3.945   3.897   2.440 -0.8781  1.2848 -1.4858
 3515TIP3   OH210508   6.937   4.822   0.043 -0.2719 -0.2185  0.4494
 3515TIP3    H110509   6.841   4.819   0.045 -0.4649  1.2126 -2.3713
 3515TIP3    H210510   6.962   4.741  -0.000 -0.2221 -0.3724  0.7625
 3516TIP3   OH210511   0.283   3.438   1.812 -0.1256 -0.3525 -0.0009
 3516TIP3    H110512   0.310   3.365   1.757 -1.9633 -1.8070  0.9260
 3516TIP3    H210513   0.229   3.399   1.881  0.8941  1.5661  2.0325
 3517TIP3   OH210514   3.081   1.823   0.765  0.1652 -0.1162  0.1273
 3517TIP3    H110515   3.140   1.871   0.706  1.3180  0.6032  1.7906
 3517TIP3    H210516   3.058   1.744   0.716  0.0344  1.0175 -1.7880
 3518TIP3   OH210517   0.501   0.346   1.691  0.2796 -0.2102 -0.0579
 3518TIP3    H110518   0.530   0.432   1.660 -1.5014 -0.1831 -1.8694
 3518TIP3    H210519   0.518   0.347   1.785  1.6298  1.5543 -0.2787
 3519TIP3   OH210520   5.296   3.830   4.478 -1.0545 -0.2185  0.2897
 3519TIP3    H110521   5.240   3.895   4.521 -1.5896 -0.0189 -0.6830
 3519TIP3    H210522   5.385   3.858   4.499 -1.2492  1.3756 -0.8594
 3520TIP3   OH210523   3.758   6.473   1.842  0.2574  0.4007 -0.2630
 3520TIP3    H110524   3.666   6.469   1.815 -0.8992  1.4324  3.0327
 3520TIP3    H210525   3.778   6.385   1.872 -0.3729  0.6142  0.8638
 3521TIP3   OH210526   6.550   4.558   5.342 -0.2815 -0.0472  0.0981
 3521TIP3    H110527   6.544   4.649   5.369  1.3514 -0.2923  1.4533
 3521TIP3    H210528   6.507   4.509   5.412 -0.0349 -0.3929  0.0116
 3522TIP3   OH210529   4.288   2.514   2.979  0.3085 -0.7353  0.5890
 3522TIP3    H110530   4.293   2.473   3.066  0.8347 -2.0515 -0.0257
 3522TIP3    H210531   4.271   2.441   2.920  1.7242 -0.1443 -0.6155
 3523TIP3   OH210532   2.281   4.019   1.646 -0.4207 -0.1576 -0.1179
 3523TIP3    H110533   2.338   4.038   1.572 -1.1596  2.1025 -0.1784
 3523TIP3    H210534   2.336   4.033   1.723 -0.5585  0.9215 -0.2002
 3524TIP3   OH210535   0.470   2.560   1.547 -0.4139 -0.3874 -0.5892
 3524TIP3    H110536   0.446   2.532   1.636  0.7475 -1.5656 -0.6163
 3524TIP3    H210537   0.566   2.559   1.546 -0.3579  1.3209 -1.3556
 3525TIP3   OH210538   1.551   2.938   5.846 -0.5924  0.0474  0.1021
 3525TIP3    H110539   1.508   2.892   5.918  0.4076  0.0707  0.7422
 3525TIP3    H210540   1.644   2.916   5.856 -0.1642  1.6662  0.0495
 3526TIP3   OH210541   3.129   3.025   5.496  0.1826  0.2406  0.4006
 3526TIP3    H110542   3.114   2.964   5.569  1.0919  1.6706  1.8446
 3526TIP3    H210543   3.185   2.976   5.436 -0.1669 -0.8057  0.8919
 3527TIP3   OH210544   3.739   3.820   1.756  0.2306  0.1477  0.2849
 3527TIP3    H110545   3.742   3.728   1.781 -2.8349 -0.1109  0.0556
 3527TIP3    H210546   3.814   3.831   1.696  0.9563 -2.0238  0.6970
 3528TIP3   OH210547   4.412   4.183   2.559 -0.1333 -0.0644  0.4097
 3528TIP3    H110548   4.437   4.271   2.585  0.2248 -0.4863  1.5873
 3528TIP3    H210549   4.360   4.150   2.633  1.3134 -1.4753  0.8622
 3529TIP3   OH210550   1.604   3.948   0.876  0.2187 -0.2432  0.1174
 3529TIP3    H110551   1.569   3.896   0.803 -1.7611 -0.1861  0.9601
 3529TIP3    H210552   1.585   4.039   0.852  1.3656 -0.0689 -0.1816
 3530TIP3   OH210553   7.189   5.991   0.750 -0.0397 -0.2317  0.1549
 3530TIP3    H110554   7.103   6.012   0.715 -0.0985 -1.5139 -0.5610
 3530TIP3    H210555   7.248   6.055   0.712 -0.2984 -0.8812 -1.4058
 3531TIP3   OH210556   1.234   4.755   5.053 -0.5352 -0.5776  0.4119
 3531TIP3    H110557   1.208   4.820   5.118 -0.7068  0.6773 -0.8549
 3531TIP3    H210558   1.154   4.706   5.035 -1.1652  0.8085 -0.7405
 3532TIP3   OH210559   3.345   3.068   2.438 -0.4619 -0.1408  0.1452
 3532TIP3    H110560   3.278   3.135   2.446  0.6378  0.9070  0.8807
 3532TIP3    H210561   3.336   3.034   2.349 -0.6195  1.4365 -0.4646
 3533TIP3   OH210562   5.812   0.650   5.298 -0.2921 -0.0583 -0.4781
 3533TIP3    H110563   5.767   0.571   5.269 -0.8235  0.3034 -0.6577
 3533TIP3    H210564   5.901   0.621   5.319  0.1544 -0.3588 -2.5008
 3534TIP3   OH210565   6.849   6.040   1.490  0.3644  0.2689  0.5793
 3534TIP3    H110566   6.930   5.990   1.498  0.5087  0.0995 -1.4707
 3534TIP3    H210567   6.802   5.999   1.417 -1.1547  0.9348  1.1429
 3535TIP3   OH210568   3.087   1.434   0.190  0.8021  0.4383  0.5401
 3535TIP3    H110569   3.013   1.494   0.202  1.0205  1.1756 -1.3954
 3535TIP3    H210570   3.134   1.436   0.273 -0.7211  0.8311  1.4257
 3536TIP3   OH210571   6.865   2.524   1.672 -0.1590  0.0937 -0.0120
 3536TIP3    H110572   6.795   2.459   1.665 -0.5168  0.5001 -0.2233
 3536TIP3    H210573   6.938   2.476   1.711  0.4720 -1.1416 -2.5269
 3537TIP3   OH210574   1.968   3.889   1.285 -0.2631 -0.1028  0.3148
 3537TIP3    H110575   2.037   3.943   1.247 -0.8457 -0.3805 -1.2052
 3537TIP3    H210576   1.927   3.847   1.210  0.7302 -3.4048  1.4605
 3538TIP3   OH210577   1.810   3.860   3.445 -0.8245 -0.8016 -0.1545
 3538TIP3    H110578   1.853   3.943   3.427 -1.5832 -0.4927 -0.5847
 3538TIP3    H210579   1.880   3.802   3.474 -0.3002 -0.0025  0.1763
 3539TIP3   OH210580   3.622   5.349   4.559 -0.0368  0.0937 -0.2325
 3539TIP3    H110581   3.548   5.296   4.529  1.0851 -2.7591  1.6436
 3539TIP3    H210582   3.659   5.387   4.479 -0.6866 -2.3598 -1.7840
 3540TIP3   OH210583   5.301   1.059   4.852  0.3792 -0.1305 -0.4677
 3540TIP3    H110584   5.268   1.068   4.762  1.2142 -0.7775 -0.8548
 3540TIP3    H210585   5.243   0.995   4.893  0.7963 -0.8443 -0.9708
 3541TIP3   OH210586   1.510   3.547   3.027 -0.6264 -0.8386  0.2234
 3541TIP3    H110587   1.505   3.605   3.103  1.9142  0.2044 -0.2935
 3541TIP3    H210588   1.601   3.520   3.023 -0.9429 -1.8156 -1.7822
 3542TIP3   OH210589   2.695   0.835   5.509  0.4487 -0.4627 -0.7834
 3542TIP3    H110590   2.638   0.844   5.433 -1.0431 -0.1991  0.3216
 3542TIP3    H210591   2.685   0.744   5.537  1.1748 -0.6227 -1.0401
 3543TIP3   OH210592   1.475   5.308   5.398 -0.1354  0.0390  0.4308
 3543TIP3    H110593   1.458   5.365   5.323 -0.1801  0.5312  0.8124
 3543TIP3    H210594   1.571   5.301   5.401 -0.1487 -0.4379 -0.0034
 3544TIP3   OH210595   2.111   4.118   5.197  0.2375 -0.1868  0.8643
 3544TIP3    H110596   2.068   4.195   5.235  0.3132 -0.3170  1.2220
 3544TIP3    H210597   2.202   4.124   5.226  0.3461 -0.1767  0.5247
 3545TIP3   OH210598   4.762   4.024   4.599 -0.0427 -0.1359 -0.2812
 3545TIP3    H110599   4.789   4.111   4.570 -0.5364 -0.6647 -2.4582
 3545TIP3    H210600   4.811   3.963   4.543 -2.0478 -1.1871 -0.9815
 3546TIP3   OH210601   3.965   1.942   3.389  0.4283  0.1571  0.2733
 3546TIP3    H110602   4.046   1.916   3.434  0.6801  3.2490  1.8892
 3546TIP3    H210603   3.897   1.932   3.455  0.0557  0.6276 -0.0386
 3547TIP3   OH210604   0.775   3.872   5.630  0.4267 -0.5378  0.3167
 3547TIP3    H110605   0.728   3.874   5.547 -0.6537  1.2635  0.9040
 3547TIP3    H210606   0.707   3.865   5.696  1.0701  0.5196  1.1238
 3548TIP3   OH210607   2.381   0.864   2.071 -0.3568  0.0558 -0.2944
 3548TIP3    H110608   2.346   0.945   2.034 -0.7876 -0.1288 -0.3055
 3548TIP3    H210609   2.457   0.891   2.122 -0.3035  0.4260 -0.5693
 3549TIP3   OH210610   5.941   4.240   3.373  0.2442  0.2777  0.2333
 3549TIP3    H110611   5.970   4.244   3.282 -1.5243 -1.2062 -0.4642
 3549TIP3    H210612   5.995   4.171   3.413  1.6071  1.5059  0.5892
 3550TIP3   OH210613   2.446   5.022   4.961  0.6616  0.0502  0.2648
 3550TIP3    H110614   2.378   4.956   4.949  1.0459 -0.4790  0.9008
 3550TIP3    H210615   2.404   5.090   5.013 -0.1617  1.0130 -1.5738
 3551TIP3   OH210616   5.871   0.247   2.404 -0.0031  0.1733  0.1589
 3551TIP3    H110617   5.823   0.186   2.348  0.1008 -1.1536  1.4531
 3551TIP3    H210618   5.935   0.288   2.345  1.2032 -2.3578 -0.4461
 3552TIP3   OH210619   2.138   0.199   2.389 -0.2666  0.0255  0.5051
 3552TIP3    H110620   2.137   0.269   2.323  0.1012  0.4287  0.9171
 3552TIP3    H210621   2.144   0.245   2.472  1.3230 -0.5232  0.7221
 3553TIP3   OH210622   2.315   5.792   1.673  0.0339 -0.9780  0.0069
 3553TIP3    H110623   2.257   5.867   1.666  1.4595  0.3244  1.3908
 3553TIP3    H210624   2.303   5.761   1.763  2.5768  0.3521  0.9064
 3554TIP3   OH210625   5.088   4.030   4.804  0.6846 -0.5704 -0.4043
 3554TIP3    H110626   5.013   3.972   4.815 -0.0641  0.4555  0.0988
 3554TIP3    H210627   5.078   4.095   4.874  0.7550  0.9470 -1.7651
 3555TIP3   OH210628   0.307   0.762   2.779 -0.2355  0.0398  0.6597
 3555TIP3    H110629   0.310   0.778   2.685 -1.7430 -0.6581  0.4728
 3555TIP3    H210630   0.238   0.819   2.812 -0.3759 -0.4293  1.1971
 3556TIP3   OH210631   0.573   3.856   0.656 -0.0110 -0.2161 -0.3937
 3556TIP3    H110632   0.502   3.843   0.719  1.5113  0.0291  1.4821
 3556TIP3    H210633   0.579   3.772   0.610 -1.5026 -0.2320 -0.5963
 3557TIP3   OH210634   3.707   4.646   2.693 -0.0727 -0.2606 -0.5846
 3557TIP3    H110635   3.771   4.578   2.715  0.1876 -0.0905 -0.8141
 3557TIP3    H210636   3.665   4.615   2.613  1.2447  0.6452 -1.6705
 3558TIP3   OH210637   1.297   0.197   3.894 -0.1444 -0.6968 -0.1266
 3558TIP3    H110638   1.246   0.120   3.868 -0.9827 -0.1392 -0.1878
 3558TIP3    H210639   1.242   0.271   3.868  0.3983 -0.0881  0.4387
 3559TIP3   OH210640   6.782   1.583   0.033 -0.1882  0.1204 -0.0628
 3559TIP3    H110641   6.840   1.640   0.084 -0.2291 -0.9781  1.2716
 3559TIP3    H210642   6.773   1.504   0.086 -0.6936 -0.8624 -1.5356
 3560TIP3   OH210643   1.377   5.250   3.420 -0.5224  0.3689 -0.4402
 3560TIP3    H110644   1.328   5.325   3.385  0.2237  0.6513 -0.9058
 3560TIP3    H210645   1.372   5.260   3.515 -0.9284  0.6812 -0.4928
 3561TIP3   OH210646   4.714   1.792   5.448  0.6212  0.7784 -0.2588
 3561TIP3    H110647   4.729   1.720   5.509 -1.1909  0.2189 -0.4136
 3561TIP3    H210648   4.722   1.752   5.361 -3.0034  0.0064 -0.3961
 3562TIP3   OH210649   6.439   1.301   5.288  0.1912 -0.1255 -0.3647
 3562TIP3    H110650   6.384   1.253   5.226 -2.4597  0.5678  1.2802
 3562TIP3    H210651   6.477   1.372   5.238  0.3535 -1.1465 -1.7531
 3563TIP3   OH210652   6.631   5.668   5.737  0.2744 -0.1732  0.7379
 3563TIP3    H110653   6.645   5.600   5.671 -0.7300 -0.0829  0.4124
 3563TIP3    H210654   6.697   5.734   5.718  1.1832 -0.9786  0.9736
 3564TIP3   OH210655   4.172   0.797   2.503  0.6144  0.2439  0.5079
 3564TIP3    H110656   4.144   0.785   2.412  2.4040  0.0352 -0.0437
 3564TIP3    H210657   4.096   0.769   2.554 -0.3731  0.1892 -0.9020
 3565TIP3   OH210658   0.019   2.523   3.425 -0.2990 -0.6318 -0.1458
 3565TIP3    H110659  -0.030   2.496   3.504  0.5796  0.7930  0.9345
 3565TIP3    H210660   0.030   2.618   3.436  1.1444 -0.6561 -1.2554
 3566TIP3   OH210661   2.285   5.775   1.206  0.3415  0.6427  0.1021
 3566TIP3    H110662   2.329   5.824   1.276  0.5763  1.9062 -0.8788
 3566TIP3    H210663   2.272   5.840   1.137 -1.8294 -0.0354 -0.1947
 3567TIP3   OH210664   7.120   6.525   3.395  0.2156 -0.5908  0.0550
 3567TIP3    H110665   7.116   6.446   3.449  1.6194 -0.5189  0.3008
 3567TIP3    H210666   7.078   6.500   3.313  1.6515 -1.9856 -0.3035
 3568TIP3   OH210667   1.153   2.277   1.786 -0.4843  0.2727 -0.1591
 3568TIP3    H110668   1.190   2.257   1.872 -1.3180  0.9536  0.3682
 3568TIP3    H210669   1.228   2.274   1.727  0.1271 -0.0320  0.6145
 3569TIP3   OH210670   5.331   4.398   0.690  0.2701  0.2174 -0.1944
 3569TIP3    H110671   5.252   4.412   0.742 -0.5731 -0.1514 -1.3098
 3569TIP3    H210672   5.342   4.303   0.687  0.7704  0.2664 -0.0324
 3570TIP3   OH210673   6.536   6.185   3.974 -0.1746  0.2538 -0.6756
 3570TIP3    H110674   6.462   6.134   4.006  1.4428 -0.9471  1.3758
 3570TIP3    H210675   6.512   6.276   3.992 -1.7512  0.0084 -1.4263
 3571TIP3   OH210676   5.760   2.220   2.497 -0.1292  0.2553 -0.2569
 3571TIP3    H110677   5.742   2.169   2.576  1.3174 -1.5920 -1.0242
 3571TIP3    H210678   5.681   2.271   2.482 -0.2693  1.0284  2.6118
 3572TIP3   OH210679   6.584   3.726   1.899 -0.3825  0.6016  0.5727
 3572TIP3    H110680   6.605   3.676   1.978  1.5976 -1.0190 -0.8537
 3572TIP3    H210681   6.490   3.742   1.904 -0.3187  0.4806  3.1848
 3573TIP3   OH210682   3.373   3.198   2.024 -0.0486  0.7457  0.0941
 3573TIP3    H110683   3.321   3.262   1.976  1.4674  2.4457  0.6218
 3573TIP3    H210684   3.448   3.247   2.057  1.3117 -1.3414  0.3473
 3574TIP3   OH210685   2.245   5.999   2.261  0.0338 -0.2281 -0.3603
 3574TIP3    H110686   2.322   6.018   2.315  0.1324  0.1198 -0.6128
 3574TIP3    H210687   2.259   6.051   2.182  1.7782 -3.5047 -2.4502
 3575TIP3   OH210688   6.040   0.195   5.802 -0.1364  0.3410 -0.2478
 3575TIP3    H110689   6.123   0.160   5.834 -1.1950 -1.4830  0.6656
 3575TIP3    H210690   6.065   0.272   5.751  1.9762  0.8482  1.3858
 3576TIP3   OH210691   4.533   0.827   2.528  0.0485 -0.1697 -0.2438
 3576TIP3    H110692   4.478   0.841   2.606  2.1477  0.1628  1.2551
 3576TIP3    H210693   4.494   0.883   2.461 -1.1943  0.3665  0.8748
 3577TIP3   OH210694   0.855   1.784   1.578  0.4354 -0.1143  0.5166
 3577TIP3    H110695   0.924   1.825   1.631  0.7391  0.8062 -0.5471
 3577TIP3    H210696   0.807   1.858   1.541 -0.4354 -0.7469  0.3650
 3578TIP3   OH210697   3.342   5.989   4.564  0.3438  0.3513 -0.0816
 3578TIP3    H110698   3.367   5.926   4.496 -0.1177  0.2634 -0.1767
 3578TIP3    H210699   3.248   5.973   4.577  0.2496  0.9370 -0.0215
 3579TIP3   OH210700   5.221   1.748   3.375  0.3680  0.5420 -0.0846
 3579TIP3    H110701   5.137   1.775   3.339  0.4668 -0.1597 -0.8552
 3579TIP3    H210702   5.278   1.739   3.300  1.1238  0.9276  0.4276
 3580TIP3   OH210703   4.633   4.555   0.475  0.0840 -0.1884  0.5609
 3580TIP3    H110704   4.642   4.647   0.501 -0.9337 -0.1657  0.8767
 3580TIP3    H210705   4.655   4.506   0.553  1.1748 -0.2368  0.2335
 3581TIP3   OH210706   0.223   2.885   4.261 -0.1854 -0.0271  0.1197
 3581TIP3    H110707   0.196   2.963   4.213 -1.3721  1.8173  3.4103
 3581TIP3    H210708   0.306   2.910   4.302 -0.3190 -0.6558  0.8009
 3582TIP3   OH210709   1.402   3.910   2.901 -0.4691 -0.2975 -0.2477
 3582TIP3    H110710   1.483   3.879   2.941 -0.9385 -0.9732  0.1910
 3582TIP3    H210711   1.406   3.879   2.810  0.2514  0.5986 -0.5414
 3583TIP3   OH210712   5.188   6.546   0.410  0.0542 -0.6284 -0.5761
 3583TIP3    H110713   5.156   6.463   0.446 -0.6616 -0.0360  0.2022
 3583TIP3    H210714   5.267   6.522   0.361  1.2129 -1.4528  1.5825
 3584TIP3   OH210715   4.288   1.058   5.837  0.4745 -0.4085  0.3977
 3584TIP3    H110716   4.225   0.997   5.874  0.2317 -1.7141 -1.9961
 3584TIP3    H210717   4.235   1.126   5.796  0.5336 -1.5263 -1.6504
 3585TIP3   OH210718   0.544   0.614   5.576  0.1946  0.0231 -0.4727
 3585TIP3    H110719   0.541   0.583   5.486  1.9264 -0.1586 -0.5152
 3585TIP3    H210720   0.525   0.707   5.570 -0.7380 -0.1873 -0.8870
 3586TIP3   OH210721   1.907   5.408   4.525  0.2111  0.1484 -0.1873
 3586TIP3    H110722   1.857   5.457   4.591  0.8121  1.3083 -0.5611
 3586TIP3    H210723   1.939   5.331   4.571 -1.1774 -0.1767  0.2934
 3587TIP3   OH210724   1.946   4.573   4.746  0.5467 -0.1163 -0.4228
 3587TIP3    H110725   2.020   4.547   4.802 -0.2859 -1.2822  0.1751
 3587TIP3    H210726   1.920   4.492   4.702 -0.3370  0.3026 -0.6825
 3588TIP3   OH210727   5.212   1.614   1.850  0.4691  0.0550 -0.1996
 3588TIP3    H110728   5.305   1.632   1.835  0.3047  1.5522  0.4578
 3588TIP3    H210729   5.168   1.651   1.773  0.3136  0.4860  0.0951
 3589TIP3   OH210730   2.096   6.526   1.435 -0.2303  0.0902 -0.6611
 3589TIP3    H110731   2.129   6.492   1.351  0.4818 -1.1413  0.0851
 3589TIP3    H210732   2.120   6.618   1.435 -1.4097  0.4490 -2.3739
 3590TIP3   OH210733   6.173   0.498   2.879 -0.5862  0.0501 -0.5534
 3590TIP3    H110734   6.166   0.403   2.876 -1.6397  0.1249 -2.5077
 3590TIP3    H210735   6.096   0.526   2.929  1.7271 -0.1671  3.5206
 3591TIP3   OH210736   3.875   2.614   3.355  0.1211 -0.0208  0.3667
 3591TIP3    H110737   3.911   2.575   3.275  0.5965 -0.5628  0.8328
 3591TIP3    H210738   3.781   2.601   3.348 -0.0958  1.9217 -1.1464
 3592TIP3   OH210739   0.670   0.427   2.888  0.0367  0.0034  0.1819
 3592TIP3    H110740   0.662   0.442   2.982 -2.1505 -0.5720  0.1556
 3592TIP3    H210741   0.595   0.371   2.867  0.3303  0.3353 -1.9375
 3593TIP3   OH210742   6.753   0.445   1.735 -0.3830 -0.1003 -0.0978
 3593TIP3    H110743   6.688   0.444   1.804 -0.0519 -2.1151  0.2413
 3593TIP3    H210744   6.712   0.398   1.662 -0.0484  0.4113 -0.6320
 3594TIP3   OH210745   2.320   4.093   5.648 -0.3788  0.0678 -0.3451
 3594TIP3    H110746   2.358   4.016   5.605  0.3826 -1.3810  2.6540
 3594TIP3    H210747   2.383   4.163   5.632  1.5812 -1.2613  1.0020
 3595TIP3   OH210748   1.484   6.773   4.525  0.4555  0.1188  0.0359
 3595TIP3    H110749   1.479   6.857   4.570  0.0428  0.0047  0.2087
 3595TIP3    H210750   1.577   6.752   4.524  0.9024  1.7866 -2.2435
 3596TIP3   OH210751   3.317   6.512   1.213 -0.4033 -0.3428  0.2744
 3596TIP3    H110752   3.232   6.521   1.257 -0.2093  3.7293  0.1699
 3596TIP3    H210753   3.295   6.492   1.122 -1.1230 -1.0966  0.5973
 3597TIP3   OH210754   0.499   5.011   5.818  0.2988 -0.4613  0.4577
 3597TIP3    H110755   0.536   4.928   5.848  2.9066  0.7472  0.8709
 3597TIP3    H210756   0.442   4.987   5.744 -3.5896 -3.1534  3.8613
 3598TIP3   OH210757   5.517   3.743   0.911  0.0976  0.5049  0.3380
 3598TIP3    H110758   5.487   3.663   0.954  1.4239 -0.5836 -0.6586
 3598TIP3    H210759   5.594   3.770   0.962  0.1519  0.6606  0.1759
 3599TIP3   OH210760   2.646   4.080   0.891  0.0497 -0.4632 -0.4324
 3599TIP3    H110761   2.660   4.026   0.969 -2.9857  1.2285  1.5087
 3599TIP3    H210762   2.653   4.019   0.817  3.2616 -2.1153  1.0187
 3600TIP3   OH210763   4.560   6.151  -0.015  0.3924  0.0273 -0.4260
 3600TIP3    H110764   4.526   6.157   0.075  0.9383 -0.2455 -0.2020
 3600TIP3    H210765   4.624   6.222  -0.020 -1.2751  1.5699 -1.3379
 3601TIP3   OH210766   7.205   4.114   1.248  0.4142 -0.4739  0.4084
 3601TIP3    H110767   7.118   4.129   1.284 -0.0146  1.4526 -1.2323
 3601TIP3    H210768   7.191   4.055   1.173  0.5850 -0.5368  0.4259
 3602TIP3   OH210769   2.946   2.709   5.207  0.0092  0.5781 -0.1485
 3602TIP3    H110770   2.873   2.703   5.268  1.1692  0.2454  1.2535
 3602TIP3    H210771   2.948   2.802   5.181  0.2772  1.0036  1.3279
 3603TIP3   OH210772   1.806   2.230   3.746  0.1630 -0.0444  0.0723
 3603TIP3    H110773   1.743   2.269   3.685 -0.3250 -0.3776  0.3623
 3603TIP3    H210774   1.886   2.220   3.694 -0.8671 -2.4292 -1.2214
 3604TIP3   OH210775   0.871   5.688   2.072 -0.7413  0.7065 -0.4077
 3604TIP3    H110776   0.866   5.783   2.079 -0.0993  0.7034  0.2433
 3604TIP3    H210777   0.961   5.667   2.098 -1.0921 -0.1344  0.1590
 3605TIP3   OH210778   2.935   6.256   1.656  0.4615  0.2170 -0.1135
 3605TIP3    H110779   2.932   6.347   1.626  0.0592  0.8302  1.6715
 3605TIP3    H210780   3.006   6.255   1.719  1.4069 -1.0770 -1.1588
 3606TIP3   OH210781   6.897   2.320   0.710 -0.3343 -0.0436  0.3063
 3606TIP3    H110782   6.951   2.282   0.641 -0.6377  0.3511 -0.1469
 3606TIP3    H210783   6.807   2.303   0.683 -0.6716  3.8832 -1.6660
 3607TIP3   OH210784   3.413   2.814   2.540  0.4150  0.4990  0.1150
 3607TIP3    H110785   3.365   2.884   2.494 -0.0175 -0.6955 -1.3666
 3607TIP3    H210786   3.504   2.827   2.514  0.3059  0.4027 -0.3330
 3608TIP3   OH210787   1.126   1.298   5.766 -0.1169 -0.4783 -0.5233
 3608TIP3    H110788   1.060   1.322   5.701  1.3535  0.6061 -1.6934
 3608TIP3    H210789   1.110   1.358   5.839 -0.6580 -0.4829 -0.6337
 3609TIP3   OH210790   4.337   0.927   2.721  0.0201  0.1352  0.1487
 3609TIP3    H110791   4.290   0.897   2.644 -0.9178 -0.7432  1.0382
 3609TIP3    H210792   4.317   1.021   2.726  1.0539  0.4637 -1.3137
 3610TIP3   OH210793   3.365   5.509   2.147 -0.1138  0.3393  0.4834
 3610TIP3    H110794   3.287   5.493   2.093  0.2603 -1.0113  0.3118
 3610TIP3    H210795   3.333   5.500   2.237 -0.1542 -0.3004  0.4126
 3611TIP3   OH210796   4.484   5.328   2.390  0.2061  0.2781 -0.1118
 3611TIP3    H110797   4.429   5.379   2.450 -1.0486  3.2274 -3.4334
 3611TIP3    H210798   4.428   5.255   2.363 -0.2939  0.5689  0.1284
 3612TIP3   OH210799   4.569   6.319   0.721  0.0232  0.6523  0.1277
 3612TIP3    H110800   4.639   6.255   0.733  0.8802  1.7542  1.2324
 3612TIP3    H210801   4.542   6.342   0.810 -1.5121  0.5256 -0.2719
 3613TIP3   OH210802   1.781   5.638   5.012  0.3250 -0.1620  0.1233
 3613TIP3    H110803   1.862   5.675   5.047 -0.4757 -0.2362  2.2314
 3613TIP3    H210804   1.755   5.572   5.077 -0.0736 -2.0296 -1.8297
 3614TIP3   OH210805   6.486   1.156   2.659 -0.4592 -0.0380 -0.1575
 3614TIP3    H110806   6.538   1.119   2.730 -0.6268  0.4286  0.2174
 3614TIP3    H210807   6.541   1.147   2.581 -0.9653 -2.1313 -0.3155
 3615TIP3   OH210808   7.185   0.233   5.350 -0.1377  0.0766 -0.1978
 3615TIP3    H110809   7.150   0.231   5.260 -1.7188 -1.5661  0.3871
 3615TIP3    H210810   7.170   0.144   5.383 -0.0348  0.7774  1.8517
 3616TIP3   OH210811   3.567   4.570   2.467 -0.2335  0.0835 -0.1158
 3616TIP3    H110812   3.479   4.550   2.436  0.7869 -2.1804 -1.8658
 3616TIP3    H210813   3.611   4.609   2.392  0.3791  0.8900  0.6416
 3617TIP3   OH210814   4.180   3.579   0.666 -0.6562  0.8883  0.0197
 3617TIP3    H110815   4.225   3.506   0.709 -2.7444  0.2301  1.2376
 3617TIP3    H210816   4.245   3.649   0.665 -0.5288  1.2937  5.2311
 3618TIP3   OH210817   2.020   5.775   0.450  0.1365 -0.1118  0.2559
 3618TIP3    H110818   2.036   5.706   0.514 -0.6796 -1.0242 -0.4890
 3618TIP3    H210819   1.933   5.756   0.416 -0.1230  1.3318  0.0698
 3619TIP3   OH210820   6.998   4.717   2.107 -0.0762  0.1194  0.1031
 3619TIP3    H110821   7.044   4.636   2.129  0.3180  0.7428  1.6857
 3619TIP3    H210822   6.946   4.695   2.030  1.7712 -0.9975 -0.8841
 3620TIP3   OH210823   7.152   1.917   2.898 -0.0568 -0.3148 -0.5796
 3620TIP3    H110824   7.058   1.902   2.890 -0.1458  0.1156 -0.3345
 3620TIP3    H210825   7.168   2.000   2.854  0.2836 -0.6051 -1.0195
 3621TIP3   OH210826   4.864   2.151   2.548  0.6279 -0.3186 -0.4055
 3621TIP3    H110827   4.943   2.147   2.601  1.1815 -0.5342 -1.2385
 3621TIP3    H210828   4.866   2.236   2.506  1.0626 -0.7978 -1.3921
 3622TIP3   OH210829   6.211   1.668   0.596  0.3866 -0.5570 -0.2992
 3622TIP3    H110830   6.270   1.740   0.618  0.3205 -0.3466 -0.7956
 3622TIP3    H210831   6.243   1.636   0.511  0.6390 -1.3498  0.0906
 3623TIP3   OH210832   0.203   1.460   2.940 -0.2160  0.3320 -0.1076
 3623TIP3    H110833   0.225   1.368   2.947  0.9122  0.5850 -0.1935
 3623TIP3    H210834   0.175   1.485   3.028 -0.8467 -0.1508 -0.1566
 3624TIP3   OH210835   0.848   5.527   2.678 -0.8787 -0.0183 -0.6532
 3624TIP3    H110836   0.823   5.436   2.689 -2.6670  0.5751  0.6247
 3624TIP3    H210837   0.929   5.536   2.730 -1.1218 -0.7025 -0.1391
 3625TIP3   OH210838   0.101   3.307   1.568 -0.1995  0.2183  0.3881
 3625TIP3    H110839   0.024   3.365   1.570 -0.9964 -0.8027  2.4109
 3625TIP3    H210840   0.069   3.224   1.604  1.1756 -1.1959 -1.4635
 3626TIP3   OH210841   4.852   3.248   0.057  0.0794 -0.1877 -0.3912
 3626TIP3    H110842   4.795   3.228  -0.018 -0.3791 -1.1886  0.1909
 3626TIP3    H210843   4.797   3.229   0.134  0.5220  0.8764  0.2023
 3627TIP3   OH210844   2.284   0.110   2.825  0.0463 -0.3158  0.1019
 3627TIP3    H110845   2.234   0.181   2.864 -0.1502 -1.3667  1.8799
 3627TIP3    H210846   2.363   0.104   2.879  1.4260  0.3451 -1.7497
 3628TIP3   OH210847   1.839   0.571   5.549 -1.0735  0.7071  0.1478
 3628TIP3    H110848   1.927   0.607   5.562 -1.1784  0.5093  1.5199
 3628TIP3    H210849   1.844   0.482   5.585 -1.6065  0.3835 -0.5557
 3629TIP3   OH210850   0.433   5.658   0.471 -0.3918 -0.8226  0.3318
 3629TIP3    H110851   0.434   5.603   0.392 -0.6603 -0.0593 -0.2050
 3629TIP3    H210852   0.357   5.628   0.520 -1.7913  0.4586 -0.9682
 3630TIP3   OH210853   1.056   3.381   1.876  0.3404  0.0461  0.3861
 3630TIP3    H110854   1.090   3.471   1.885  1.6175 -0.0502 -2.3331
 3630TIP3    H210855   1.128   3.325   1.904  0.7729 -0.1204 -0.9903
 3631TIP3   OH210856   5.628   1.087   4.438 -0.0852  0.0399 -0.2520
 3631TIP3    H110857   5.565   1.145   4.394 -1.5748 -1.5387 -0.3078
 3631TIP3    H210858   5.710   1.102   4.392 -0.9805  0.3945 -1.8092
 3632TIP3   OH210859   2.860   6.337   3.926  0.1658  0.1661 -0.2368
 3632TIP3    H110860   2.863   6.242   3.938  0.4452  0.2890  0.7864
 3632TIP3    H210861   2.851   6.349   3.832 -0.0297 -0.8781 -0.3672
 3633TIP3   OH210862   5.020   6.674   2.327  0.2130 -0.4949 -0.2804
 3633TIP3    H110863   4.950   6.673   2.262  0.9701 -0.1947 -1.1192
 3633TIP3    H210864   5.093   6.627   2.286  0.7566 -0.1730  0.2871
 3634TIP3   OH210865   0.991   4.265   2.018  0.1907 -0.6264  0.0775
 3634TIP3    H110866   0.987   4.356   1.988  1.6353 -0.1752  1.1541
 3634TIP3    H210867   1.027   4.217   1.943  0.2620 -0.1688 -0.1865
 3635TIP3   OH210868   7.014   4.940   1.647 -0.4228  0.0053 -0.0553
 3635TIP3    H110869   7.049   4.888   1.719 -1.5903 -0.2024  0.3851
 3635TIP3    H210870   7.091   4.979   1.605  0.3316 -0.6157  0.7291
 3636TIP3   OH210871   5.601   6.678   4.310 -0.5801  0.0484  0.4593
 3636TIP3    H110872   5.680   6.625   4.309 -0.7223 -0.1606 -0.4438
 3636TIP3    H210873   5.549   6.642   4.382  0.3785  0.5720  1.4510
 3637TIP3   OH210874   2.756   3.821   2.968 -0.0064 -0.4264  0.0655
 3637TIP3    H110875   2.764   3.784   3.056  0.4443  0.6982  0.5077
 3637TIP3    H210876   2.837   3.869   2.954 -0.2010 -0.3495 -0.8577
 3638TIP3   OH210877   1.898   0.985   4.268 -0.1501 -0.3514 -0.3631
 3638TIP3    H110878   1.885   0.892   4.251  0.4565 -0.7509  1.1334
 3638TIP3    H210879   1.872   0.996   4.360 -1.0867  1.1538 -0.7752
 3639TIP3   OH210880   0.048   3.339   4.698  0.0529 -0.3562 -0.3739
 3639TIP3    H110881  -0.003   3.278   4.752 -0.5395 -0.8072 -1.4211
 3639TIP3    H210882   0.046   3.301   4.610  1.1040  0.3088 -0.6996
 3640TIP3   OH210883   1.476   2.905   3.896 -0.1980  0.0669  0.0564
 3640TIP3    H110884   1.396   2.864   3.862  1.0100 -1.2024 -1.4036
 3640TIP3    H210885   1.470   2.894   3.991 -2.2884  1.0691  0.0972
 3641TIP3   OH210886   2.405   4.574   1.511  1.0205 -0.5286 -0.0162
 3641TIP3    H110887   2.327   4.532   1.547  1.3269 -0.5889  0.5934
 3641TIP3    H210888   2.430   4.638   1.577  1.6370 -0.6884 -0.0861
 3642TIP3   OH210889   1.772   6.732   2.458 -0.4360  0.4549 -0.0825
 3642TIP3    H110890   1.714   6.659   2.478 -0.2862 -0.3000 -2.1642
 3642TIP3    H210891   1.824   6.744   2.537 -0.6576 -1.5283  0.4132
 3643TIP3   OH210892   0.035   3.022   0.140  0.2148 -0.4367 -0.3729
 3643TIP3    H110893  -0.060   3.033   0.135 -0.3388 -2.5306  2.6111
 3643TIP3    H210894   0.059   3.064   0.224  1.8451 -0.4685 -0.7822
 3644TIP3   OH210895   6.960   6.066   4.907  0.3550 -0.1607  0.5455
 3644TIP3    H110896   6.933   6.153   4.939  1.2361  1.2199 -2.1086
 3644TIP3    H210897   7.042   6.048   4.953 -0.1246  0.1240  1.5496
 3645TIP3   OH210898   4.739   3.383   4.965  0.1767 -0.1499 -0.1313
 3645TIP3    H110899   4.730   3.334   4.884  0.6853  0.2926 -0.4591
 3645TIP3    H210900   4.775   3.468   4.939  1.1630 -0.3077  0.6429
 3646TIP3   OH210901   5.276   0.890   0.256 -0.4540 -0.0648 -0.1118
 3646TIP3    H110902   5.192   0.887   0.302  0.3568 -0.3066  1.4196
 3646TIP3    H210903   5.259   0.848   0.172 -1.8331 -0.2367  0.2343
 3647TIP3   OH210904   1.398   6.279   3.655  0.4232 -0.0341 -0.0107
 3647TIP3    H110905   1.424   6.225   3.580  2.7325  0.8832  0.0459
 3647TIP3    H210906   1.439   6.238   3.730  0.6291  0.7159  0.3023
 3648TIP3   OH210907   0.394   6.292   0.468  0.0089  0.1357 -0.0866
 3648TIP3    H110908   0.485   6.301   0.439 -0.3668  1.6203 -0.9256
 3648TIP3    H210909   0.352   6.374   0.441 -1.4107 -0.2123  0.9327
 3649TIP3   OH210910   2.702   1.166   0.245  0.2228 -0.2720  0.0283
 3649TIP3    H110911   2.648   1.222   0.301  0.7333 -0.3196  0.5783
 3649TIP3    H210912   2.777   1.220   0.222 -0.4879  0.1114 -1.4996
 3650TIP3   OH210913   4.216   2.437   5.403 -0.3229  0.5484 -0.0290
 3650TIP3    H110914   4.196   2.345   5.423 -0.9982  0.8031  0.5321
 3650TIP3    H210915   4.312   2.441   5.401 -0.2434 -0.7619 -3.0185
 3651TIP3   OH210916   2.454   0.070   5.038  0.3366 -0.1350  0.5351
 3651TIP3    H110917   2.474   0.028   4.954  1.7372 -1.1088  1.3133
 3651TIP3    H210918   2.537   0.110   5.064 -0.3344  0.9619  1.0313
 3652TIP3   OH210919   3.213   3.966   4.070 -0.2996  0.1773 -0.2332
 3652TIP3    H110920   3.208   3.881   4.027  3.3418 -0.4585  0.3255
 3652TIP3    H210921   3.236   3.946   4.160  4.2347  1.5940 -0.8205
 3653TIP3   OH210922   1.618   2.960   2.199 -0.2778 -0.4947  0.1219
 3653TIP3    H110923   1.649   2.993   2.283  2.0214  0.8180 -1.1248
 3653TIP3    H210924   1.577   3.035   2.157  1.4218 -0.2194 -1.1452
 3654TIP3   OH210925   5.665   1.526   0.911 -0.3844 -0.6585  0.1634
 3654TIP3    H110926   5.679   1.578   0.990 -0.8201 -0.2144 -0.0414
 3654TIP3    H210927   5.585   1.477   0.928 -0.8131 -0.1099 -0.2214
 3655TIP3   OH210928   6.576   5.327   4.051  0.6909 -0.6454 -0.4621
 3655TIP3    H110929   6.520   5.385   4.102  0.6659 -0.0355 -1.1737
 3655TIP3    H210930   6.590   5.251   4.108 -0.0095 -0.3447  0.1223
 3656TIP3   OH210931   5.126   5.206   1.419  0.1577  0.6240 -0.3109
 3656TIP3    H110932   5.152   5.243   1.335  1.3607  0.0166 -0.2235
 3656TIP3    H210933   5.206   5.168   1.455 -0.8067 -1.1417  0.0799
 3657TIP3   OH210934   5.831   0.129   3.250  0.2731 -0.4419  0.5156
 3657TIP3    H110935   5.814   0.218   3.219 -1.4264 -0.8435  0.1677
 3657TIP3    H210936   5.828   0.136   3.345 -2.0448 -0.4385  0.5009
 3658TIP3   OH210937   5.029   2.678   1.891  0.2907 -0.1421 -0.1594
 3658TIP3    H110938   4.952   2.628   1.919  0.9724 -0.8218  0.5147
 3658TIP3    H210939   5.096   2.658   1.956  1.3100 -0.2121 -1.2095
 3659TIP3   OH210940   3.487   6.323   0.981 -0.2386  0.1533 -0.4261
 3659TIP3    H110941   3.408   6.270   0.971  0.0208  0.1586 -3.7518
 3659TIP3    H210942   3.482   6.386   0.909  2.5655  0.4621 -0.4439
 3660TIP3   OH210943   6.192   4.298   4.504  0.2033  0.1426  0.7970
 3660TIP3    H110944   6.133   4.256   4.442 -1.8282  1.3892  1.7603
 3660TIP3    H210945   6.189   4.244   4.583  1.6915 -0.6788  0.3340
 3661TIP3   OH210946   4.263   0.422   0.582 -0.0517 -0.5070  0.0135
 3661TIP3    H110947   4.248   0.509   0.619 -0.9844  0.3668 -2.2729
 3661TIP3    H210948   4.300   0.438   0.495  0.4720 -2.4304 -0.1815
 3662TIP3   OH210949   6.182   5.154   5.463 -0.5807  0.2967 -0.7767
 3662TIP3    H110950   6.186   5.243   5.497 -1.7233 -0.0624  0.3704
 3662TIP3    H210951   6.090   5.129   5.472 -0.2571 -1.0372 -0.9814
 3663TIP3   OH210952   0.225   5.256   0.213  0.2857  0.3468 -0.2611
 3663TIP3    H110953   0.241   5.280   0.122 -4.2959 -1.7715 -1.9321
 3663TIP3    H210954   0.273   5.173   0.225  1.1777  0.8060 -0.5769
 3664TIP3   OH210955   1.706   5.477   5.245  0.4843 -0.2618 -0.1966
 3664TIP3    H110956   1.630   5.535   5.250  0.9506  0.3704 -0.3780
 3664TIP3    H210957   1.772   5.520   5.300  0.3001 -1.4494  1.0065
 3665TIP3   OH210958   0.143   5.210   1.373 -0.6506 -0.8509  0.1100
 3665TIP3    H110959   0.206   5.155   1.326 -1.3593 -1.0837 -0.5897
 3665TIP3    H210960   0.184   5.297   1.374  0.7142 -1.4578  1.6753
 3666TIP3   OH210961   0.913   1.450   2.579 -0.2625 -0.0929  0.0712
 3666TIP3    H110962   1.002   1.417   2.571 -0.2828 -0.4923  1.3369
 3666TIP3    H210963   0.858   1.380   2.543 -0.0739  0.2443 -0.9123
 3667TIP3   OH210964   3.011   6.007   3.725 -0.2470 -0.0795 -0.5977
 3667TIP3    H110965   3.106   6.022   3.726 -0.2461 -0.1068  0.6984
 3667TIP3    H210966   2.988   5.994   3.816 -1.0552 -2.9827 -1.1213
 3668TIP3   OH210967   2.860   5.479   3.643  0.2596  0.0403  0.3291
 3668TIP3    H110968   2.896   5.564   3.616  0.4263 -0.6830 -1.8511
 3668TIP3    H210969   2.888   5.471   3.735  2.5269  1.1712 -0.1709
 3669TIP3   OH210970   3.262   5.231   0.215  0.0042  0.0118  0.2998
 3669TIP3    H110971   3.300   5.185   0.290  0.3773  0.5731  0.4625
 3669TIP3    H210972   3.321   5.304   0.200 -1.7920  1.8315  1.5403
 3670TIP3   OH210973   2.133   3.753   5.477  0.2781  0.1696  0.2915
 3670TIP3    H110974   2.085   3.826   5.440 -0.9600 -0.1848  1.1394
 3670TIP3    H210975   2.067   3.701   5.524  1.3899 -0.6054  1.0662
 3671TIP3   OH210976   1.490   2.914   4.224 -0.5145 -0.3461  0.0769
 3671TIP3    H110977   1.431   2.844   4.195 -2.1273  1.0846 -0.2523
 3671TIP3    H210978   1.432   2.980   4.262  1.1365 -0.0491  2.2522
 3672TIP3   OH210979   5.384   0.746   1.289 -0.0702 -0.4871  0.4391
 3672TIP3    H110980   5.308   0.689   1.297  1.0697 -1.9980  1.0419
 3672TIP3    H210981   5.429   0.737   1.372  1.4670 -0.6937 -0.3781
 3673TIP3   OH210982   6.645   3.564   2.114 -0.1359 -0.0474  0.2915
 3673TIP3    H110983   6.707   3.496   2.087  0.2713  0.1350  0.7373
 3673TIP3    H210984   6.630   3.547   2.207  0.0701  0.5478  0.4375
 3674TIP3   OH210985   3.517   3.669   0.864 -0.1558  0.4760  0.3359
 3674TIP3    H110986   3.510   3.576   0.842  1.7746  0.4189 -0.2487
 3674TIP3    H210987   3.567   3.671   0.945  0.2371  1.0144  0.0851
 3675TIP3   OH210988   0.672   4.724   2.232 -0.5032 -0.1930 -0.6629
 3675TIP3    H110989   0.631   4.781   2.297  2.9257 -0.5697  2.0835
 3675TIP3    H210990   0.647   4.635   2.259  0.1953 -0.3063 -0.3729
 3676TIP3   OH210991   2.510   2.028   4.754  0.4138  0.1354 -0.0524
 3676TIP3    H110992   2.423   1.993   4.733  0.8496 -1.1123  0.1284
 3676TIP3    H210993   2.519   2.013   4.848  0.6266  0.7173  0.0195
 3677TIP3   OH210994   6.466   2.597   4.595  0.3533  0.2533 -0.0229
 3677TIP3    H110995   6.539   2.656   4.576  0.1507  0.7211  0.6197
 3677TIP3    H210996   6.497   2.542   4.667  0.2275  0.1634 -0.0377
 3678TIP3   OH210997   0.983   5.925   1.434  0.1951 -0.0876  0.2111
 3678TIP3    H110998   1.022   6.003   1.472 -1.8867  1.2502 -0.2555
 3678TIP3    H210999   1.056   5.881   1.390  1.8641  0.3681  2.3357
 3679TIP3   OH211000   3.738   0.087   2.668  0.2155 -0.3846 -0.3615
 3679TIP3    H111001   3.723   0.138   2.589  1.8692  0.1550 -0.3647
 3679TIP3    H211002   3.824   0.047   2.655  0.4526 -0.3964  1.1061
 3680TIP3   OH211003   4.462   6.469   2.681  0.2996 -0.2824 -0.0467
 3680TIP3    H111004   4.541   6.443   2.633  0.4196  1.1849 -0.7106
 3680TIP3    H211005   4.496   6.512   2.760  0.2325  1.2504 -0.8133
 3681TIP3   OH211006   3.287   0.841   2.416  0.0115 -0.3008 -0.5826
 3681TIP3    H111007   3.324   0.854   2.503 -0.6312 -0.1390 -0.3315
 3681TIP3    H211008   3.258   0.750   2.415  2.2795 -1.1002 -1.5034
 3682TIP3   OH211009   2.888   1.312   2.719 -0.6097  0.0576  0.5416
 3682TIP3    H111010   2.939   1.232   2.707 -0.9640 -0.2120  0.8097
 3682TIP3    H211011   2.799   1.281   2.738 -0.9469  0.5223 -0.2275
 3683TIP3   OH211012   7.094   2.129   3.357 -0.3013  0.0211  0.1563
 3683TIP3    H111013   7.158   2.128   3.286  0.5683  1.7154  0.8754
 3683TIP3    H211014   7.059   2.218   3.357 -0.1038  0.1347  1.9887
 3684TIP3   OH211015   0.844   6.663   0.413  0.2478  0.0438  0.6910
 3684TIP3    H111016   0.934   6.694   0.414  0.5289 -0.7337  1.6298
 3684TIP3    H211017   0.793   6.738   0.383  1.1266  0.7198  0.8396
 3685TIP3   OH211018   4.082   6.530   1.593 -0.4308 -0.1793 -0.0606
 3685TIP3    H111019   4.041   6.608   1.556  0.2354  0.1587 -0.0948
 3685TIP3    H211020   4.065   6.536   1.687 -0.5528 -0.1030 -0.0871
 3686TIP3   OH211021   4.020   6.339   0.795  0.6451 -0.2426 -0.4610
 3686TIP3    H111022   4.063   6.311   0.876 -0.4687  0.5504  0.4322
 3686TIP3    H211023   3.995   6.430   0.811  0.5865 -0.0093 -1.7760
 3687TIP3   OH211024   5.621   0.841   5.335  0.5622 -0.1610 -0.0177
 3687TIP3    H111025   5.571   0.843   5.253  1.5162  1.8913 -0.6194
 3687TIP3    H211026   5.700   0.793   5.315  1.7712  2.0838 -0.9942
 3688TIP3   OH211027   6.766   1.281   3.438  0.3536  0.3239  0.1098
 3688TIP3    H111028   6.786   1.318   3.524  0.1417  1.9892 -0.5274
 3688TIP3    H211029   6.768   1.356   3.378 -3.2045 -0.0618 -0.7386
 3689TIP3   OH211030   2.899   4.962   4.747  0.4375 -0.4145 -0.0674
 3689TIP3    H111031   2.986   4.925   4.732  0.8570  0.9210 -1.1898
 3689TIP3    H211032   2.894   5.036   4.686 -2.3420 -1.7627 -1.6477
 3690TIP3   OH211033   0.996   4.602   0.084  0.3479 -0.0762  0.6782
 3690TIP3    H111034   0.965   4.620   0.173  0.9141  0.5618  0.7613
 3690TIP3    H211035   0.965   4.677   0.033  0.8811  0.0652  0.5568
 3691TIP3   OH211036   5.632   5.253   0.751 -0.0570 -0.7609  1.1653
 3691TIP3    H111037   5.556   5.309   0.763  0.9157  0.6959  0.7887
 3691TIP3    H211038   5.631   5.230   0.658 -0.0980 -0.8501  1.1872
 3692TIP3   OH211039   2.879   5.947   2.369  0.0629 -0.8342 -0.2706
 3692TIP3    H111040   2.938   5.987   2.433 -1.3511  0.6397  0.1800
 3692TIP3    H211041   2.807   5.913   2.421 -0.7102 -0.3503 -1.0081
 3693TIP3   OH211042   1.403   2.774   5.257 -0.3964  0.2775 -0.1725
 3693TIP3    H111043   1.473   2.719   5.221 -0.3488 -0.7842  1.4380
 3693TIP3    H211044   1.346   2.792   5.182 -0.2564 -1.7203 -0.8197
 3694TIP3   OH211045   0.190   1.760   2.841 -0.5998 -0.0786 -0.4597
 3694TIP3    H111046   0.102   1.795   2.850 -1.0131 -1.3844  1.0610
 3694TIP3    H211047   0.240   1.800   2.912 -0.1466  0.1079 -0.8766
 3695TIP3   OH211048   6.897   0.621   3.516  0.0418  0.2144  0.6704
 3695TIP3    H111049   6.924   0.710   3.493  0.8804  0.1054  1.1877
 3695TIP3    H211050   6.890   0.575   3.432 -0.9672  0.9094  0.3501
 3696TIP3   OH211051   0.842   3.667   1.261 -0.3911 -0.0957 -0.3016
 3696TIP3    H111052   0.887   3.622   1.190  1.0789 -0.1088  0.5956
 3696TIP3    H211053   0.759   3.620   1.271  0.6899 -2.0198 -0.0250
 3697TIP3   OH211054   0.885   6.759   4.078  0.0076 -0.0820  0.3975
 3697TIP3    H111055   0.893   6.849   4.046  1.8424  0.2076  1.5279
 3697TIP3    H211056   0.953   6.751   4.145 -1.0048 -1.9071  1.2950
 3698TIP3   OH211057   6.703   6.595   5.353 -0.4063  0.0616  0.1648
 3698TIP3    H111058   6.742   6.634   5.275 -3.3145  0.4133 -1.2873
 3698TIP3    H211059   6.677   6.507   5.326 -1.0797  0.0314  0.8538
 3699TIP3   OH211060   1.238   2.301   0.038  0.3316 -0.2637 -0.0986
 3699TIP3    H111061   1.331   2.299   0.017  0.4521 -0.5362  0.4489
 3699TIP3    H211062   1.206   2.215   0.010  0.2603 -0.1992 -0.2148
 3700TIP3   OH211063   6.630   0.530   3.426  0.3136  0.2264  0.0808
 3700TIP3    H111064   6.589   0.602   3.378  0.0334  0.6146  0.8836
 3700TIP3    H211065   6.695   0.573   3.481  1.1591 -0.2943 -0.4953
 3701TIP3   OH211066   5.885   1.310   4.917 -0.4056  0.2158  0.1718
 3701TIP3    H111067   5.857   1.389   4.869  1.8263  1.9115  1.4522
 3701TIP3    H211068   5.819   1.299   4.985 -0.9880  0.7064 -0.2986
 3702TIP3   OH211069   7.181   4.468   0.818  0.0217 -0.2369  0.2672
 3702TIP3    H111070   7.135   4.505   0.893 -2.3757 -0.7364 -0.8695
 3702TIP3    H211071   7.176   4.373   0.831  2.4127 -0.3144  1.0286
 3703TIP3   OH211072   1.820   0.090   3.350  0.3196 -0.3229  0.1433
 3703TIP3    H111073   1.817   0.091   3.254 -0.5145  1.5863  0.1497
 3703TIP3    H211074   1.901   0.137   3.371  0.2532 -0.3142  0.3774
 3704TIP3   OH211075   1.181   5.090   2.322  0.3544 -0.6746  0.1014
 3704TIP3    H111076   1.275   5.074   2.312  1.1637  3.3280 -0.1484
 3704TIP3    H211077   1.168   5.100   2.416  0.8302  1.5297 -0.0166
 3705TIP3   OH211078   5.929   3.007   0.030  0.1208  0.0934 -0.5194
 3705TIP3    H111079   6.015   3.015  -0.011  0.0968  0.4353 -0.5030
 3705TIP3    H211080   5.894   2.924  -0.004  0.2567  0.1886 -0.8931
 3706TIP3   OH211081   2.869   4.173   1.619  0.6621  0.5017  0.5764
 3706TIP3    H111082   2.814   4.243   1.584  1.9393  0.0753 -2.7115
 3706TIP3    H211083   2.825   4.092   1.590  0.8948  0.0423  1.4780
 3707TIP3   OH211084   4.262   6.435   1.390  0.0075  0.2337 -0.1123
 3707TIP3    H111085   4.292   6.520   1.361 -0.2919  0.2626 -0.3357
 3707TIP3    H211086   4.179   6.452   1.435 -0.0342  0.0673 -0.1226
 3708TIP3   OH211087   3.785   0.080   4.072 -0.4403  0.1903 -0.0122
 3708TIP3    H111088   3.822   0.013   4.129 -0.0476 -0.2571 -0.7706
 3708TIP3    H211089   3.806   0.050   3.983  1.0900  2.0889 -0.3608
 3709TIP3   OH211090   3.631   1.124   5.287  0.0594 -0.2660  0.1491
 3709TIP3    H111091   3.613   1.210   5.250  0.5810  0.3574  1.3147
 3709TIP3    H211092   3.694   1.084   5.226  1.7452  1.1686  0.8679
 3710TIP3   OH211093   2.779   4.265   5.460  0.0532  0.1502  0.5390
 3710TIP3    H111094   2.775   4.201   5.531 -0.7968 -0.7570 -0.2947
 3710TIP3    H211095   2.797   4.213   5.382 -0.3692  0.9650 -0.1194
 3711TIP3   OH211096   2.737   4.071   5.662  0.9212 -0.1308 -0.4083
 3711TIP3    H111097   2.647   4.050   5.639  1.2831 -1.0220 -1.0829
 3711TIP3    H211098   2.730   4.133   5.735 -0.2298  0.2166 -0.7926
 3712TIP3   OH211099   5.199   6.650   4.371  0.6608 -0.2029  0.0866
 3712TIP3    H111100   5.259   6.583   4.337 -0.5764 -1.0942 -0.4341
 3712TIP3    H211101   5.112   6.618   4.347 -0.2009 -0.0417  2.6522
 3713TIP3   OH211102   1.658   3.594   1.369  0.0526 -0.2654 -0.0131
 3713TIP3    H111103   1.595   3.632   1.431  0.0952  0.0307 -0.1487
 3713TIP3    H211104   1.734   3.651   1.376  0.7104 -1.2287  0.9225
 3714TIP3   OH211105   0.564   0.647   3.901  0.0209  0.3614 -0.2906
 3714TIP3    H111106   0.471   0.624   3.890  0.1985  0.0250 -1.1406
 3714TIP3    H211107   0.605   0.566   3.932  0.0313  0.5124  0.0934
 3715TIP3   OH211108   3.363   5.335   2.799  0.3775  0.3871  0.2105
 3715TIP3    H111109   3.432   5.285   2.843  1.6338  1.9594  0.0946
 3715TIP3    H211110   3.373   5.424   2.832 -0.8033  0.9018 -0.7564
 3716TIP3   OH211111   1.524   3.947   3.639 -0.2060 -0.1116 -0.8349
 3716TIP3    H111112   1.536   3.856   3.666  1.0980  0.7861  2.0997
 3716TIP3    H211113   1.612   3.975   3.613  0.1997  1.1223  1.5537
 3717TIP3   OH211114   4.547   5.349   4.639  0.2781  0.2225  0.0919
 3717TIP3    H111115   4.580   5.322   4.725  0.0600  0.7943  0.3573
 3717TIP3    H211116   4.546   5.268   4.588  1.7456  0.1223  0.1809
 3718TIP3   OH211117   4.981   2.677   1.210 -0.0320 -0.3511  0.0236
 3718TIP3    H111118   4.898   2.649   1.173  1.6147 -0.8163 -3.7668
 3718TIP3    H211119   5.040   2.602   1.199  1.7563  1.0609 -0.6511
 3719TIP3   OH211120   6.111   3.253   5.643  0.4591  0.5714 -0.3924
 3719TIP3    H111121   6.078   3.194   5.575 -0.3721  0.5701  0.0084
 3719TIP3    H211122   6.033   3.283   5.690  0.8958  1.7069 -0.3500
 3720TIP3   OH211123   6.879   2.106   5.069 -0.2515  0.4443 -0.2177
 3720TIP3    H111124   6.832   2.027   5.041 -0.8991  0.8046 -0.1675
 3720TIP3    H211125   6.813   2.158   5.116  1.0849 -0.8031  3.3765
 3721TIP3   OH211126   1.541   3.610   5.516  0.1330  0.0082  0.0914
 3721TIP3    H111127   1.548   3.652   5.430 -0.9225 -0.4010 -0.2153
 3721TIP3    H211128   1.569   3.520   5.501 -0.4393 -0.1724  0.0719
 3722TIP3   OH211129   1.722   1.432   4.847 -0.1532 -0.6154  0.5802
 3722TIP3    H111130   1.729   1.339   4.822  0.0315  0.0264 -2.0260
 3722TIP3    H211131   1.808   1.452   4.885  0.5929 -1.0530 -0.7737
 3723TIP3   OH211132   6.180   4.517   3.302  0.3335  0.0673  0.5358
 3723TIP3    H111133   6.149   4.501   3.391 -0.3585 -1.5273  0.0557
 3723TIP3    H211134   6.238   4.443   3.283  3.3783  2.1821  0.8548
 3724TIP3   OH211135   3.004   0.316   3.063 -0.1393 -0.2169 -0.3273
 3724TIP3    H111136   2.932   0.269   3.021  1.0249 -0.0325 -2.6539
 3724TIP3    H211137   3.083   0.277   3.026  0.9185  1.2581  0.2957
 3725TIP3   OH211138   0.970   4.498   2.873 -0.5482 -1.2040  0.4121
 3725TIP3    H111139   0.921   4.426   2.834  0.6203 -2.1862  0.6821
 3725TIP3    H211140   1.008   4.461   2.953  0.5554 -0.4779  0.2542
 3726TIP3   OH211141   6.106   4.809   5.701  0.5188  0.1083  0.4767
 3726TIP3    H111142   6.019   4.839   5.675  0.5079  0.5311  0.9853
 3726TIP3    H211143   6.091   4.725   5.744  0.6346 -1.0919 -1.7127
 3727TIP3   OH211144   3.047   1.254   0.853 -0.0767 -0.0740  0.4102
 3727TIP3    H111145   3.015   1.323   0.912  3.1564  1.2019  0.8471
 3727TIP3    H211146   3.134   1.283   0.826  0.8392 -3.2994 -0.5942
 3728TIP3   OH211147   0.182   4.176   1.428  0.3859 -0.0416 -0.0012
 3728TIP3    H111148   0.263   4.125   1.436  1.3255  0.7048 -3.2608
 3728TIP3    H211149   0.125   4.122   1.374 -0.2213  0.6142 -0.0292
 3729TIP3   OH211150   5.144   6.228   3.817 -0.1721  0.1502 -0.5980
 3729TIP3    H111151   5.213   6.228   3.884 -1.9784 -0.2860  1.3583
 3729TIP3    H211152   5.191   6.209   3.736  2.0983  0.4832  0.5332
 3730TIP3   OH211153   2.765   0.305   0.563  0.1877  0.4027  0.3429
 3730TIP3    H111154   2.835   0.353   0.608  0.7523  0.7411 -0.8649
 3730TIP3    H211155   2.782   0.213   0.585  0.2149  0.5843  1.1270
 3731TIP3   OH211156   4.083   2.428   3.840 -0.2516 -0.4829 -0.1484
 3731TIP3    H111157   4.018   2.424   3.910  1.3629 -1.9173  1.3496
 3731TIP3    H211158   4.047   2.373   3.771 -2.9377  2.6867 -1.5637
 3732TIP3   OH211159   5.724   6.510   3.684  0.3516 -0.2443  0.2083
 3732TIP3    H111160   5.815   6.482   3.693  0.4359  0.1798  0.8218
 3732TIP3    H211161   5.690   6.460   3.611  1.2694  0.0697 -0.4610
 3733TIP3   OH211162   5.627   3.807   2.319  0.0484  0.1867  0.2416
 3733TIP3    H111163   5.707   3.802   2.267  0.7393  0.3224  1.2466
 3733TIP3    H211164   5.607   3.717   2.342 -0.0366  0.1620  0.0740
 3734TIP3   OH211165   0.103   3.814   0.109  0.1240 -0.2742 -0.0035
 3734TIP3    H111166   0.149   3.770   0.180  1.7135  0.8808 -0.2445
 3734TIP3    H211167   0.173   3.849   0.054 -1.0671  0.5750 -1.0330
 3735TIP3   OH211168   0.601   4.127   2.155  0.3866  0.1618 -0.7044
 3735TIP3    H111169   0.669   4.111   2.089  2.8605  0.1990  1.6677
 3735TIP3    H211170   0.552   4.045   2.159  3.8512 -2.0579  1.2744
 3736TIP3   OH211171   5.830   6.524   4.349  0.1542  0.4848 -0.3610
 3736TIP3    H111172   5.879   6.515   4.268  1.0859 -0.6399  0.2978
 3736TIP3    H211173   5.887   6.575   4.407 -0.0464  0.3573 -0.0448
 3737TIP3   OH211174   3.807   3.095   2.450 -0.1563  0.0927 -0.3277
 3737TIP3    H111175   3.778   3.132   2.366 -0.0062  0.4686 -0.2182
 3737TIP3    H211176   3.900   3.118   2.455  0.2993 -1.5013 -0.8926
 3738TIP3   OH211177   3.100   4.223   5.437 -0.2587 -0.3741  0.2133
 3738TIP3    H111178   3.141   4.290   5.492  1.7429 -0.4809 -1.0415
 3738TIP3    H211179   3.073   4.155   5.498  0.5688  0.1674  1.2256
 3739TIP3   OH211180   3.569   5.222   3.753 -0.0027  0.0411  0.4453
 3739TIP3    H111181   3.615   5.294   3.709  1.0089 -0.1519  1.1826
 3739TIP3    H211182   3.638   5.162   3.781 -0.6967 -0.2676  1.5429
 3740TIP3   OH211183   5.649   1.444   5.314  0.0376 -0.2277 -0.4936
 3740TIP3    H111184   5.565   1.407   5.342  1.0718 -2.2572  0.0379
 3740TIP3    H211185   5.690   1.375   5.263  1.8281  0.3470  0.1095
 3741TIP3   OH211186   3.221   3.514   5.473  0.6017 -0.0215 -0.2923
 3741TIP3    H111187   3.131   3.504   5.506  0.5518  0.8201 -0.1677
 3741TIP3    H211188   3.275   3.469   5.538  0.3569  0.2592  0.1076
 3742TIP3   OH211189   5.821   0.882   2.618 -0.2025  0.4278 -0.5497
 3742TIP3    H111190   5.858   0.826   2.686  1.1975  0.2565 -1.4112
 3742TIP3    H211191   5.844   0.971   2.645 -1.2524  0.5102  0.1238
 3743TIP3   OH211192   5.833   5.997   3.478  0.2452  0.4488  0.1200
 3743TIP3    H111193   5.773   5.928   3.448  0.7330  0.2599 -0.4560
 3743TIP3    H211194   5.784   6.078   3.466 -0.1923  0.2355  0.4327
 3744TIP3   OH211195   2.446   2.196   1.337 -0.2141 -0.1453  0.1432
 3744TIP3    H111196   2.529   2.172   1.297  1.5832  4.3984  0.4999
 3744TIP3    H211197   2.393   2.230   1.265 -1.2270 -1.5768  0.1694
 3745TIP3   OH211198   4.073   4.443   3.295  0.2040  0.7372  0.1489
 3745TIP3    H111199   3.994   4.451   3.349  1.4368 -0.4240  2.2547
 3745TIP3    H211200   4.139   4.496   3.341  0.8800  1.0455 -1.1280
 3746TIP3   OH211201   3.706   5.523   5.491  0.2349  0.2939  0.4233
 3746TIP3    H111202   3.653   5.558   5.563 -0.3225 -1.6176  1.0068
 3746TIP3    H211203   3.788   5.497   5.532  0.3293  0.1916  0.1703
 3747TIP3   OH211204   7.043   1.848   2.472  0.0744  0.2881 -0.0422
 3747TIP3    H111205   7.062   1.907   2.399  0.0997 -2.7147 -2.7038
 3747TIP3    H211206   7.110   1.867   2.537  2.1107  0.9935 -2.2126
 3748TIP3   OH211207   5.506   3.719   3.081 -0.0617  0.1575  0.2980
 3748TIP3    H111208   5.473   3.695   3.168  0.7023 -0.7815  0.3528
 3748TIP3    H211209   5.475   3.649   3.024  2.2384 -1.1008  0.4601
 3749TIP3   OH211210   0.773   1.613   4.467  0.3761  0.1998  0.1085
 3749TIP3    H111211   0.761   1.618   4.562  0.8266  0.4340  0.1528
 3749TIP3    H211212   0.855   1.566   4.455  0.2681  0.0776 -0.1709
 3750TIP3   OH211213   5.378   2.590   1.255 -0.8954 -0.2708 -0.0558
 3750TIP3    H111214   5.301   2.569   1.307 -0.7053 -0.4213  0.1642
 3750TIP3    H211215   5.362   2.679   1.223 -0.2178  0.5265  1.6998
 3751TIP3   OH211216   4.046   6.702   0.076  0.1524 -0.1202 -0.3631
 3751TIP3    H111217   3.996   6.683  -0.003 -0.1082 -0.1200 -0.2006
 3751TIP3    H211218   3.992   6.666   0.147 -0.0618  0.7001 -0.0981
 3752TIP3   OH211219   0.455   1.710   5.215 -0.0963 -0.1326  0.5170
 3752TIP3    H111220   0.483   1.652   5.285 -1.6494 -2.1640 -0.4626
 3752TIP3    H211221   0.365   1.734   5.238 -0.4198 -0.3578 -0.4784
 3753TIP3   OH211222   4.217   0.041   4.021 -0.7706 -0.3975  0.2404
 3753TIP3    H111223   4.145   0.094   4.054  0.4274  0.2276  2.0079
 3753TIP3    H211224   4.295   0.095   4.033  0.5013 -2.4415  2.0948
 3754TIP3   OH211225   3.624   3.105   5.627 -0.1329  0.1722 -0.0745
 3754TIP3    H111226   3.573   3.060   5.695 -1.2959  1.0112 -0.3642
 3754TIP3    H211227   3.627   3.043   5.554 -2.1795  0.7167 -0.6731
 3755TIP3   OH211228   7.018   2.869   1.583  0.6050  0.2107  0.6637
 3755TIP3    H111229   6.972   2.838   1.661 -3.1384  0.8400 -1.0593
 3755TIP3    H211230   7.039   2.790   1.534  2.5251 -0.1561  1.9797
 3756TIP3   OH211231   1.960   5.512   3.611  0.2566 -0.3058  0.4831
 3756TIP3    H111232   1.998   5.441   3.559 -1.2524 -0.4075 -0.5690
 3756TIP3    H211233   1.876   5.477   3.641 -0.1261  0.7391  0.6637
 3757TIP3   OH211234   1.499   1.192   5.491  0.1519  0.0983 -0.2567
 3757TIP3    H111235   1.473   1.229   5.406 -0.2789  0.0484 -0.1516
 3757TIP3    H211236   1.530   1.268   5.542  2.2269 -0.1251 -1.0925
 3758TIP3   OH211237   4.289   5.577   3.984 -0.4337 -0.0153  0.0474
 3758TIP3    H111238   4.379   5.573   4.014 -0.9161  1.2242  1.8269
 3758TIP3    H211239   4.273   5.492   3.943  0.5872 -1.5512  2.5974
 3759TIP3   OH211240   2.842   5.990   5.807 -0.3749  0.1414 -0.0570
 3759TIP3    H111241   2.908   5.927   5.836 -0.9568 -0.8952 -0.9022
 3759TIP3    H211242   2.758   5.946   5.822 -0.7268 -0.2542 -2.7554
 3760TIP3   OH211243   5.165   6.291   0.814  0.1233 -0.1305 -0.1020
 3760TIP3    H111244   5.128   6.203   0.812 -0.0046 -0.1642  1.6277
 3760TIP3    H211245   5.227   6.289   0.888  0.9863  0.9046 -0.7613
 3761TIP3   OH211246   6.404   0.636   4.965 -0.3109  0.1674  0.2342
 3761TIP3    H111247   6.358   0.557   4.936 -2.7354  1.3168  0.6368
 3761TIP3    H211248   6.436   0.676   4.885  0.6628 -1.0082 -0.0030
 3762TIP3   OH211249   3.557   0.804   0.914 -0.3260  0.6854 -0.4139
 3762TIP3    H111250   3.600   0.872   0.966  0.0103  1.5519 -1.7563
 3762TIP3    H211251   3.601   0.723   0.939  0.6939  1.2673 -0.2647
 3763TIP3   OH211252   0.130   0.851   4.660 -0.1717  0.9483 -0.1253
 3763TIP3    H111253   0.072   0.780   4.688 -1.6344  1.9739 -0.4378
 3763TIP3    H211254   0.072   0.913   4.615  1.1700  2.0384 -0.4175
 3764TIP3   OH211255   2.548   5.915   0.594 -0.2740 -0.6464 -0.1511
 3764TIP3    H111256   2.575   5.975   0.664  0.1657  0.2625 -1.0829
 3764TIP3    H211257   2.464   5.879   0.625 -0.1234 -0.2141  0.8082
 3765TIP3   OH211258   5.401   0.162   0.996  0.7352 -0.5781  0.2691
 3765TIP3    H111259   5.320   0.184   1.043  2.1244  0.5587  2.2772
 3765TIP3    H211260   5.450   0.107   1.056  1.2677 -1.7041 -1.1423
 3766TIP3   OH211261   0.167   3.074   4.037 -0.0762 -0.0828 -0.3595
 3766TIP3    H111262   0.247   3.125   4.022  0.9805 -1.3380  0.6544
 3766TIP3    H211263   0.096   3.134   4.018  1.0249  2.5619  2.8635
 3767TIP3   OH211264   1.475   1.007   0.284  0.3020  0.2233 -0.6709
 3767TIP3    H111265   1.418   1.079   0.257  1.4233  1.1304 -0.6658
 3767TIP3    H211266   1.414   0.934   0.302 -0.7734  0.8644 -1.5817
 3768TIP3   OH211267   4.368   1.322   5.108 -0.3607  0.0589  0.5121
 3768TIP3    H111268   4.274   1.330   5.095 -0.1206  0.9299 -0.7944
 3768TIP3    H211269   4.401   1.412   5.105  0.7732 -0.3783 -1.2980
 3769TIP3   OH211270   3.190   2.951   4.168 -0.7787 -0.3018 -0.0117
 3769TIP3    H111271   3.182   2.970   4.262  1.6064  0.3892  0.1258
 3769TIP3    H211272   3.237   2.868   4.164  1.8721  1.1036 -0.4740
 3770TIP3   OH211273   0.244   0.920   0.826 -0.4995  0.4830  0.2127
 3770TIP3    H111274   0.212   1.009   0.838  1.0634  0.9835  0.9864
 3770TIP3    H211275   0.205   0.871   0.898 -1.9610  0.3473 -0.6462
 3771TIP3   OH211276   5.588   2.865   0.293 -0.1024 -0.2740  0.0953
 3771TIP3    H111277   5.507   2.821   0.266  0.9530 -1.7532 -0.8609
 3771TIP3    H211278   5.571   2.895   0.382 -2.0563  0.4237 -0.4526
 3772TIP3   OH211279   1.083   6.716   1.057 -0.3949 -0.2553 -0.5985
 3772TIP3    H111280   1.039   6.685   1.136 -0.7491 -0.6738 -0.9610
 3772TIP3    H211281   1.081   6.812   1.065  0.6908 -0.2955  0.5139
 3773TIP3   OH211282   0.675   1.886   4.526  0.0349  0.1202  0.0425
 3773TIP3    H111283   0.725   1.846   4.598 -0.6355 -0.6055  0.1132
 3773TIP3    H211284   0.610   1.941   4.570  0.9970  1.3872 -0.0556
 3774TIP3   OH211285   6.317   1.586   3.337 -0.2772  0.0271 -0.0512
 3774TIP3    H111286   6.273   1.653   3.284 -0.4742 -0.2684 -0.2671
 3774TIP3    H211287   6.257   1.511   3.334 -0.3970  0.0829  0.7804
 3775TIP3   OH211288   2.924   1.447   2.970 -0.5045  0.1065 -0.2517
 3775TIP3    H111289   2.958   1.427   2.883  0.9537  0.9589  0.0890
 3775TIP3    H211290   2.994   1.420   3.030 -0.2294  2.2280  0.4636
 3776TIP3   OH211291   3.111   2.604   1.369  0.2718  0.2738 -0.3004
 3776TIP3    H111292   3.134   2.685   1.412  2.2865  0.5517 -1.7513
 3776TIP3    H211293   3.118   2.537   1.437 -0.5455  1.1818  0.6974
 3777TIP3   OH211294   0.441   5.642   3.115 -0.1602 -0.2272  0.2560
 3777TIP3    H111295   0.460   5.709   3.050  2.7723  1.2695  2.4181
 3777TIP3    H211296   0.504   5.572   3.098 -0.3740 -0.5043  0.5797
 3778TIP3   OH211297   3.568   2.903   0.735 -0.2918  0.2912  0.3361
 3778TIP3    H111298   3.659   2.925   0.755 -1.0455  0.7530  3.8187
 3778TIP3    H211299   3.568   2.808   0.726  0.6481  0.3597 -0.6275
 3779TIP3   OH211300   5.577   5.911   1.654 -0.0252 -0.8417 -0.1823
 3779TIP3    H111301   5.670   5.922   1.675 -0.4577  0.1292  1.4470
 3779TIP3    H211302   5.537   5.994   1.680 -0.9689 -0.0651 -3.5450
 3780TIP3   OH211303   5.453   1.666   2.636  0.1745 -0.5932  0.6795
 3780TIP3    H111304   5.383   1.716   2.678  0.0765 -1.4576  1.5859
 3780TIP3    H211305   5.439   1.679   2.542 -0.1659  0.6206  0.8749
 3781TIP3   OH211306   0.323   6.222   3.775 -0.0318  0.0860  0.1752
 3781TIP3    H111307   0.337   6.150   3.838 -1.5618  0.0352  0.4959
 3781TIP3    H211308   0.334   6.181   3.689 -2.0259 -0.8360  0.3243
 3782TIP3   OH211309   2.586   4.996   1.091 -0.0078  0.2783 -0.5347
 3782TIP3    H111310   2.632   4.958   1.166 -1.7965  1.0186  1.0097
 3782TIP3    H211311   2.629   5.079   1.075 -0.1842  0.5246  0.2653
 3783TIP3   OH211312   0.480   2.420   1.780 -0.1897 -0.6604 -0.4267
 3783TIP3    H111313   0.514   2.357   1.843 -1.8573 -0.4445  0.7237
 3783TIP3    H211314   0.424   2.478   1.831 -0.4591  0.3973 -1.8652
 3784TIP3   OH211315   3.898   2.999   0.567 -0.2521  0.2970 -0.2151
 3784TIP3    H111316   3.870   3.079   0.523 -1.1494  0.9480  1.4289
 3784TIP3    H211317   3.985   3.020   0.602 -1.3639  1.4030  2.0818
 3785TIP3   OH211318   6.670   2.724   5.043 -0.3234 -0.2004  0.1063
 3785TIP3    H111319   6.641   2.690   5.127 -2.5260  1.5335  0.1395
 3785TIP3    H211320   6.593   2.720   4.987  0.0183  2.1721 -0.6653
 3786TIP3   OH211321   3.317   1.747   3.569 -0.1642  0.3158  0.2719
 3786TIP3    H111322   3.300   1.840   3.579 -1.4277 -0.0400  2.1197
 3786TIP3    H211323   3.271   1.722   3.489 -0.5814  1.1212  0.2546
 3787TIP3   OH211324   6.631   6.771   2.678 -0.4208 -0.1532 -0.4041
 3787TIP3    H111325   6.598   6.700   2.623 -1.7700  0.2338 -0.1306
 3787TIP3    H211326   6.596   6.752   2.765 -2.4163  1.8103 -0.6869
 3788TIP3   OH211327   3.433   1.579   4.155  0.2736 -0.1711  0.4009
 3788TIP3    H111328   3.416   1.558   4.063 -1.8078  0.4815  0.5875
 3788TIP3    H211329   3.481   1.662   4.152 -1.1653  0.6792 -0.0966
 3789TIP3   OH211330   3.665   4.383   3.262 -0.6138 -0.1527  0.4784
 3789TIP3    H111331   3.625   4.456   3.214  2.9561  0.8161 -1.3639
 3789TIP3    H211332   3.689   4.420   3.347 -0.4610  0.2895  0.2461
 3790TIP3   OH211333   1.397   5.163   4.137 -0.4813  0.2759 -0.6748
 3790TIP3    H111334   1.412   5.232   4.201 -0.0340 -0.4738  0.0428
 3790TIP3    H211335   1.328   5.198   4.080 -4.2088 -0.6887  2.7901
 3791TIP3   OH211336   2.637   1.089   1.973  0.4563  0.0225  0.4773
 3791TIP3    H111337   2.637   1.028   2.047 -0.7889  0.1404  0.5908
 3791TIP3    H211338   2.721   1.134   1.980 -0.4114  1.4725  3.0491
 3792TIP3   OH211339   7.060   6.266   1.602  0.6094 -0.1459  0.4320
 3792TIP3    H111340   7.116   6.263   1.525 -0.4843  0.5731 -0.4341
 3792TIP3    H211341   7.050   6.174   1.628  0.7028 -0.4371 -0.5179
 3793TIP3   OH211342   5.451   4.117   0.855 -0.2532  0.0462 -0.0626
 3793TIP3    H111343   5.507   4.169   0.798 -1.2983  2.0531  0.6379
 3793TIP3    H211344   5.487   4.129   0.942 -0.3031 -0.7300  0.0750
 3794TIP3   OH211345   4.649   6.575   1.159 -0.0369  0.0865 -0.0813
 3794TIP3    H111346   4.699   6.653   1.136  1.8395 -1.1103 -0.3268
 3794TIP3    H211347   4.645   6.524   1.078 -1.5976  0.0982 -0.0293
 3795TIP3   OH211348   3.519   4.899   2.472  0.4620 -0.3019 -0.3590
 3795TIP3    H111349   3.482   4.815   2.499 -1.1916  1.0232  1.8640
 3795TIP3    H211350   3.609   4.897   2.503  0.2822 -1.0433  0.1361
 3796TIP3   OH211351   2.387   1.318   2.210  0.4701  0.2207  0.0305
 3796TIP3    H111352   2.390   1.307   2.305  0.2530  1.1907  0.1619
 3796TIP3    H211353   2.466   1.368   2.189  0.6928 -0.2817 -0.3459
 3797TIP3   OH211354   3.714   0.180   4.349 -0.0888 -0.4322  0.4550
 3797TIP3    H111355   3.653   0.112   4.320  1.1928 -0.6477 -2.0106
 3797TIP3    H211356   3.784   0.133   4.393 -1.7883 -0.1413  3.8615
 3798TIP3   OH211357   1.319   6.565   4.572  0.6477  0.3126 -0.3567
 3798TIP3    H111358   1.346   6.655   4.553  0.1346  0.8258  1.2400
 3798TIP3    H211359   1.382   6.534   4.637 -0.3132  0.2083  0.5543
 3799TIP3   OH211360   6.717   6.212   1.758 -0.0691 -0.4711  0.2998
 3799TIP3    H111361   6.787   6.277   1.767 -1.3568  0.7580  2.0336
 3799TIP3    H211362   6.742   6.162   1.680  1.5493  1.3815 -0.4763
 3800TIP3   OH211363   1.137   5.624   2.158 -0.1965 -0.3112 -0.7409
 3800TIP3    H111364   1.181   5.548   2.196 -0.4120  0.5150  1.3059
 3800TIP3    H211365   1.207   5.688   2.144 -0.3932  0.2083  0.4769
 3801TIP3   OH211366   2.385   4.177   5.240 -0.4673 -0.5128  0.3391
 3801TIP3    H111367   2.442   4.253   5.235  0.0439 -0.9505 -0.7693
 3801TIP3    H211368   2.443   4.104   5.263 -1.0884 -0.4582  2.3069
 3802TIP3   OH211369   4.719   6.126   4.489 -0.0775 -0.2715 -0.1405
 3802TIP3    H111370   4.696   6.219   4.481  0.0344 -0.3046 -1.0092
 3802TIP3    H211371   4.646   6.087   4.536  0.8215  0.6119  2.1157
 3803TIP3   OH211372   4.488   1.696   2.216  0.2594  0.0488  0.1533
 3803TIP3    H111373   4.509   1.787   2.196 -0.2952  0.3725  1.0039
 3803TIP3    H211374   4.410   1.677   2.164  0.1144  0.2019  0.3128
 3804TIP3   OH211375   1.589   5.634   0.699  0.1549  0.4226 -0.1602
 3804TIP3    H111376   1.546   5.682   0.628 -1.6485  0.0508  0.5998
 3804TIP3    H211377   1.521   5.627   0.767  1.9545  1.2357  1.8381
 3805TIP3   OH211378   6.987   0.365   4.129  0.3132  0.2897 -0.5780
 3805TIP3    H111379   6.921   0.410   4.076 -0.7112 -0.6829 -0.1584
 3805TIP3    H211380   6.949   0.361   4.217  1.6691  1.2049  0.0950
 3806TIP3   OH211381   3.235   3.300   3.251  0.4271 -0.7242  0.6404
 3806TIP3    H111382   3.231   3.242   3.328 -1.9609 -0.5358  0.7592
 3806TIP3    H211383   3.227   3.241   3.176  2.0690 -0.8463  0.5273
 3807TIP3   OH211384   2.741   5.962   3.370 -0.1683 -0.4836 -0.1205
 3807TIP3    H111385   2.668   6.007   3.328  0.6183  0.5974 -0.4033
 3807TIP3    H211386   2.752   5.881   3.320 -1.5779 -0.9815  0.3472
 3808TIP3   OH211387   0.756   2.033   2.448  0.4488 -0.1704  0.0933
 3808TIP3    H111388   0.781   2.025   2.540  1.5122 -0.9437 -0.2421
 3808TIP3    H211389   0.660   2.032   2.449  0.3962 -3.0018  1.0278
 3809TIP3   OH211390   5.763   2.538   1.128 -0.0055  0.1632  0.3899
 3809TIP3    H111391   5.708   2.485   1.186 -0.9809  1.4619  0.6878
 3809TIP3    H211392   5.850   2.533   1.168 -0.1813 -0.8106  0.6785
 3810TIP3   OH211393   0.863   4.062   2.588 -0.1454  0.7681  0.0363
 3810TIP3    H111394   0.916   4.001   2.536  0.7222 -1.5571  3.3110
 3810TIP3    H211395   0.778   4.063   2.544  0.8874  0.0645 -2.1355
 3811TIP3   OH211396   1.629   6.031   3.244  0.3524 -0.1900  0.0438
 3811TIP3    H111397   1.617   6.113   3.196  0.7863 -0.7373 -1.0481
 3811TIP3    H211398   1.655   5.968   3.177  0.2028 -1.1814  0.8918
 3812TIP3   OH211399   5.000   6.424   3.012 -0.5062  0.1458  0.2589
 3812TIP3    H111400   5.020   6.332   3.029 -0.3530  0.1799  0.2615
 3812TIP3    H211401   4.939   6.423   2.938  0.0419  0.0796 -0.1985
 3813TIP3   OH211402   2.043   4.907   4.673 -0.1163  0.4835 -0.1310
 3813TIP3    H111403   2.105   4.865   4.614  0.2528  1.3740 -0.3788
 3813TIP3    H211404   1.957   4.875   4.644  0.1142  0.3672 -0.6857
 3814TIP3   OH211405   2.456   4.329   3.416 -0.3209 -0.1164 -0.2323
 3814TIP3    H111406   2.489   4.354   3.330 -1.7482  1.1556 -0.4437
 3814TIP3    H211407   2.475   4.404   3.472  1.3511 -1.2540  0.8248
 3815TIP3   OH211408   2.367   0.398   2.347 -0.0280 -0.3413  0.6082
 3815TIP3    H111409   2.457   0.428   2.332 -0.5376  0.2302 -1.7428
 3815TIP3    H211410   2.366   0.307   2.317 -0.6382  0.2558 -1.3552
 3816TIP3   OH211411   1.467   2.202   5.855  0.1105 -0.0326  0.4117
 3816TIP3    H111412   1.485   2.295   5.839  1.2044 -0.1292  0.9608
 3816TIP3    H211413   1.521   2.157   5.790 -1.7388 -0.2791 -1.0220
 3817TIP3   OH211414   0.176   1.901   3.217 -0.2622 -0.0120 -0.1388
 3817TIP3    H111415   0.237   1.907   3.144  0.1781  0.9333  0.2999
 3817TIP3    H211416   0.129   1.819   3.202  0.5580 -0.3516 -0.9084
 3818TIP3   OH211417   2.689   1.466   5.570  0.1669  0.6168  0.2060
 3818TIP3    H111418   2.601   1.430   5.562  1.3439 -2.0949 -2.6572
 3818TIP3    H211419   2.708   1.460   5.664 -1.3668 -2.4355  0.4683
 3819TIP3   OH211420   5.580   1.188   1.252  0.3007 -0.4968 -0.1888
 3819TIP3    H111421   5.586   1.100   1.215 -0.4760  0.4107 -2.6482
 3819TIP3    H211422   5.487   1.210   1.248  0.5067  0.5238  0.2097
 3820TIP3   OH211423   2.592   0.635   2.854 -0.0131  0.7392 -0.2041
 3820TIP3    H111424   2.515   0.685   2.826 -1.2154 -0.3126  1.0398
 3820TIP3    H211425   2.565   0.543   2.845  0.0097  0.3390  2.8877
 3821TIP3   OH211426   1.937   0.719   3.553 -0.6492 -0.1110 -0.5867
 3821TIP3    H111427   1.965   0.704   3.643  0.3542  2.5998 -0.3649
 3821TIP3    H211428   1.993   0.789   3.521  0.4459 -2.3114 -4.0767
 3822TIP3   OH211429   0.917   4.920   4.276 -0.1971  0.2164 -0.4992
 3822TIP3    H111430   0.968   4.844   4.248 -0.1362  1.0204 -2.7574
 3822TIP3    H211431   0.981   4.986   4.298 -0.2489  0.2738 -0.5193
 3823TIP3   OH211432   5.644   1.771   4.853 -0.0038 -0.8624  0.1855
 3823TIP3    H111433   5.568   1.771   4.794 -0.1148  0.0611  0.3047
 3823TIP3    H211434   5.607   1.753   4.939 -0.4400  1.5734  0.5972
 3824TIP3   OH211435   3.577   2.025   0.034  0.1520  0.7424  0.0254
 3824TIP3    H111436   3.576   1.950   0.094 -0.4421  2.2990  2.0790
 3824TIP3    H211437   3.670   2.046   0.023  0.2816  0.2651  0.1991
 3825TIP3   OH211438   3.252   3.477   2.632 -0.2466  0.3097  0.2218
 3825TIP3    H111439   3.236   3.451   2.723  0.5675  0.7969  0.5134
 3825TIP3    H211440   3.275   3.570   2.638  0.9873  0.0562 -0.3504
 3826TIP3   OH211441   1.792   4.567   1.272  0.3239  0.3126  0.1907
 3826TIP3    H111442   1.711   4.604   1.307  0.3618  2.1766 -1.5321
 3826TIP3    H211443   1.826   4.513   1.344 -0.3101  2.7974  2.5400
 3827TIP3   OH211444   4.079   1.375   0.140  0.0797 -0.1672  0.1625
 3827TIP3    H111445   4.031   1.304   0.097  0.4545  0.2020 -0.8879
 3827TIP3    H211446   4.014   1.416   0.197 -0.3875 -0.7573  0.0705
 3828TIP3   OH211447   4.823   4.248   1.349  0.3238  0.2403 -0.1273
 3828TIP3    H111448   4.861   4.303   1.418  0.4146  0.2918 -0.2185
 3828TIP3    H211449   4.799   4.310   1.280 -0.0293  0.2216 -0.0251
 3829TIP3   OH211450   0.289   4.282   4.768  0.0580  0.4421 -0.5276
 3829TIP3    H111451   0.268   4.211   4.707  0.4704 -0.1346 -0.0266
 3829TIP3    H211452   0.335   4.237   4.840 -0.3778  1.1082  0.1775
 3830TIP3   OH211453   3.935   4.010   5.527  0.3765 -0.2489 -0.6918
 3830TIP3    H111454   4.001   3.996   5.594  0.0114  0.4999 -0.1653
 3830TIP3    H211455   3.852   3.986   5.569  0.0720  0.7939 -0.6696
 3831TIP3   OH211456   1.098   5.806   0.607 -0.2479  0.1282  0.2918
 3831TIP3    H111457   1.009   5.812   0.572 -0.4025  0.9968  0.8218
 3831TIP3    H211458   1.114   5.712   0.616 -0.0281 -0.2054 -2.5543
 3832TIP3   OH211459   4.332   2.374   0.468  0.3924 -0.6641 -0.4012
 3832TIP3    H111460   4.406   2.357   0.410 -0.4781 -0.4322 -1.6282
 3832TIP3    H211461   4.283   2.291   0.469  0.6022 -0.7885  0.3249
 3833TIP3   OH211462   1.602   5.642   5.750  0.3121  0.2933 -0.5351
 3833TIP3    H111463   1.537   5.588   5.705 -0.7111  0.8659  0.2209
 3833TIP3    H211464   1.679   5.639   5.693  0.5579 -2.4951 -0.1996
 3834TIP3   OH211465   0.026   0.457   0.898 -0.3941  0.2291  0.4133
 3834TIP3    H111466   0.094   0.419   0.842 -1.6011  0.2469 -1.1361
 3834TIP3    H211467   0.041   0.418   0.984  1.2931 -0.1014  0.0085
 3835TIP3   OH211468   0.557   1.204   3.341 -0.2862  0.3377  0.1097
 3835TIP3    H111469   0.580   1.292   3.371  0.0485  1.0374 -2.0218
 3835TIP3    H211470   0.484   1.178   3.397  0.4724  1.4080  1.6596
 3836TIP3   OH211471   5.169   1.778   4.739  0.4442  0.1161  0.1525
 3836TIP3    H111472   5.151   1.861   4.783  1.7839 -0.7530  2.5759
 3836TIP3    H211473   5.261   1.784   4.713  0.8100 -0.8728  1.1274
 3837TIP3   OH211474   4.357   0.117   1.214  0.4805 -0.2343 -0.1778
 3837TIP3    H111475   4.429   0.176   1.193  0.9851 -1.0170 -0.6983
 3837TIP3    H211476   4.370   0.096   1.306  0.8456 -0.2699 -0.2345
 3838TIP3   OH211477   0.245   2.764   3.237 -0.8486 -0.0657  0.0719
 3838TIP3    H111478   0.252   2.848   3.192  0.3029 -1.0993 -1.7809
 3838TIP3    H211479   0.193   2.710   3.177  0.5289 -1.4104  0.0512
 3839TIP3   OH211480   6.685   2.139   1.564 -0.6044  0.3469 -0.4098
 3839TIP3    H111481   6.748   2.086   1.612 -2.3022 -0.6571  0.8068
 3839TIP3    H211482   6.685   2.224   1.610  1.3015  1.1151 -1.6879
 3840TIP3   OH211483   0.949   5.705   3.446  0.4656  0.6248  0.1163
 3840TIP3    H111484   0.864   5.713   3.402  1.3662 -0.9191 -2.0854
 3840TIP3    H211485   0.927   5.679   3.535 -1.3894 -0.8980 -0.7118
 3841TIP3   OH211486   6.689   4.085   5.649 -0.0655 -0.4137 -0.0129
 3841TIP3    H111487   6.634   4.158   5.677 -0.3981 -0.2405 -1.0802
 3841TIP3    H211488   6.632   4.009   5.649 -0.6014 -0.0646 -2.0357
 3842TIP3   OH211489   0.447   5.352   4.947  0.4459  0.4449 -0.2733
 3842TIP3    H111490   0.401   5.432   4.921 -1.4733 -0.1422  1.0364
 3842TIP3    H211491   0.480   5.370   5.035 -1.0838 -0.5403  0.5572
 3843TIP3   OH211492   4.935   3.751   1.749  0.4209 -0.2854 -0.4407
 3843TIP3    H111493   4.914   3.739   1.657  0.8042 -1.0166 -0.4379
 3843TIP3    H211494   4.875   3.694   1.797 -1.4404  1.8453 -0.0356
 3844TIP3   OH211495   6.808   1.020   4.442 -0.0778 -0.3099  0.0705
 3844TIP3    H111496   6.835   1.091   4.500  0.9413 -0.9337  0.3902
 3844TIP3    H211497   6.812   1.058   4.354  1.3439 -0.2103  0.1538
 3845TIP3   OH211498   2.557   0.881   4.415 -0.0633 -0.0406 -0.5725
 3845TIP3    H111499   2.535   0.973   4.429  0.0444 -0.2201  0.9108
 3845TIP3    H211500   2.499   0.852   4.345 -0.1117  1.1480 -1.0385
 3846TIP3   OH211501   6.354   3.977   0.867 -0.1588 -0.5808 -0.5812
 3846TIP3    H111502   6.309   4.045   0.817 -2.7585 -2.6065 -1.2093
 3846TIP3    H211503   6.386   4.022   0.945  0.0135  1.7203 -1.8716
 3847TIP3   OH211504   3.720   6.200   1.067  0.0628  0.1106  0.2616
 3847TIP3    H111505   3.685   6.188   1.155  0.0479  0.0016  0.2419
 3847TIP3    H211506   3.663   6.265   1.026 -1.7208 -1.8752 -0.6359
 3848TIP3   OH211507   5.860   2.787   0.320 -0.0173 -0.1512 -0.1485
 3848TIP3    H111508   5.797   2.781   0.391  0.6532  0.9435  0.5687
 3848TIP3    H211509   5.828   2.859   0.265  0.4807  0.2821  0.1139
 3849TIP3   OH211510   3.504   4.871   0.126  0.0418 -0.1909 -0.2914
 3849TIP3    H111511   3.420   4.887   0.084 -0.7364 -2.0489  0.4523
 3849TIP3    H211512   3.503   4.926   0.205 -0.6587 -0.5136 -0.0711
 3850TIP3   OH211513   0.015   4.343   5.461 -0.5228  0.1460 -0.1822
 3850TIP3    H111514   0.019   4.351   5.557  0.0957  0.1025 -0.1997
 3850TIP3    H211515  -0.000   4.432   5.430  2.0521  0.6638 -0.1676
 3851TIP3   OH211516   0.831   1.361   1.493  0.1814  0.1514 -0.1368
 3851TIP3    H111517   0.786   1.323   1.568  2.3819  1.3411  1.9481
 3851TIP3    H211518   0.784   1.328   1.417 -1.5589 -1.9386  1.7133
 3852TIP3   OH211519   2.790   6.216   2.012 -0.3764  0.1334  0.2412
 3852TIP3    H111520   2.756   6.250   1.930  0.0366 -1.4770 -0.6417
 3852TIP3    H211521   2.724   6.153   2.041 -0.5877  0.7893  1.2444
 3853TIP3   OH211522   1.383   5.886   3.633 -0.0115 -0.3222  0.0203
 3853TIP3    H111523   1.299   5.866   3.674 -0.8395 -0.7011 -1.7491
 3853TIP3    H211524   1.446   5.885   3.705 -1.4228 -0.5754  1.3100
 3854TIP3   OH211525   5.423   1.559   5.100 -0.2240 -0.6772  0.4276
 3854TIP3    H111526   5.388   1.481   5.057 -0.4506 -0.7084  0.6676
 3854TIP3    H211527   5.496   1.526   5.153  0.0086 -0.6495  0.1271
 3855TIP3   OH211528   4.713   5.746   5.128 -0.0426  0.6277  0.2481
 3855TIP3    H111529   4.689   5.809   5.060 -0.4269  0.2008 -0.0203
 3855TIP3    H211530   4.657   5.767   5.202 -1.4667 -0.5086 -0.4539
 3856TIP3   OH211531   0.711   1.303   4.123  0.0269  0.0877  0.3535
 3856TIP3    H111532   0.716   1.258   4.039  0.6534 -0.6099  0.7540
 3856TIP3    H211533   0.801   1.331   4.141  0.5805 -2.4995  2.2371
 3857TIP3   OH211534   3.657   0.997   1.548  0.6701 -0.3839  0.1182
 3857TIP3    H111535   3.613   0.990   1.464 -0.4097 -1.4339  0.7388
 3857TIP3    H211536   3.742   1.035   1.528  0.5910 -0.9977 -1.5021
 3858TIP3   OH211537   2.037   0.897   4.666 -0.2495  0.1224  0.5834
 3858TIP3    H111538   2.124   0.926   4.695  0.1956 -2.0757  1.6157
 3858TIP3    H211539   2.054   0.846   4.586 -0.3639 -1.5184  1.5649
 3859TIP3   OH211540   5.610   3.363   5.091  0.5629  0.4079  0.1879
 3859TIP3    H111541   5.638   3.303   5.022  1.8250  1.0567  0.1088
 3859TIP3    H211542   5.597   3.447   5.046  1.2259  0.7898  0.7027
 3860TIP3   OH211543   2.276   5.577   5.386 -0.4745 -0.1069  0.1652
 3860TIP3    H111544   2.314   5.662   5.407 -0.3448  0.1095 -0.9021
 3860TIP3    H211545   2.209   5.596   5.321  0.4212 -0.9498 -1.0458
 3861TIP3   OH211546   6.432   2.867   5.350 -0.1073 -0.0992  0.0494
 3861TIP3    H111547   6.495   2.926   5.391  0.4255  0.9311 -2.1149
 3861TIP3    H211548   6.390   2.821   5.423  1.0049  1.3811  1.6759
 3862TIP3   OH211549   6.042   2.522   5.483 -0.1235 -0.6382  0.4184
 3862TIP3    H111550   5.969   2.499   5.426  0.6541  0.9688 -1.3207
 3862TIP3    H211551   6.051   2.446   5.541 -2.2719 -1.4561 -0.2003
 3863TIP3   OH211552   1.077   5.434   5.683 -0.1187 -0.5178 -0.4823
 3863TIP3    H111553   1.068   5.510   5.626 -1.8318 -0.6974 -0.5055
 3863TIP3    H211554   1.032   5.363   5.636 -0.8371 -0.8748  0.6972
 3864TIP3   OH211555   1.973   4.680   1.026 -0.4859 -0.4037 -0.6083
 3864TIP3    H111556   2.056   4.721   1.050  0.3799 -1.1220 -2.2100
 3864TIP3    H211557   1.908   4.749   1.036  0.1483 -0.0370  1.4257
 3865TIP3   OH211558   1.110   3.040   3.756  0.1121 -0.1095  0.1472
 3865TIP3    H111559   1.167   3.100   3.707 -0.6095  0.1341 -0.4090
 3865TIP3    H211560   1.165   2.963   3.772  0.9026  0.5087  0.4618
 3866TIP3   OH211561   1.021   3.385   3.660  0.2601  0.4625 -0.2500
 3866TIP3    H111562   1.047   3.390   3.568  0.6993 -1.4072 -0.2659
 3866TIP3    H211563   1.070   3.311   3.696 -0.5921  0.5708  1.2596
 3867TIP3   OH211564   2.433   0.915   0.985 -0.0401  0.0466 -0.3266
 3867TIP3    H111565   2.419   0.821   0.973  0.7736  0.0094 -1.0895
 3867TIP3    H211566   2.390   0.955   0.909 -1.6549  0.4338  0.7196
 3868TIP3   OH211567   6.315   3.087   1.584  0.3813 -0.0780 -0.4470
 3868TIP3    H111568   6.373   3.015   1.608 -0.3833 -1.1876 -1.8010
 3868TIP3    H211569   6.235   3.070   1.633  0.8050  0.8703  0.6102
 3869TIP3   OH211570   6.481   0.067   0.824 -0.2263 -0.9420 -0.3134
 3869TIP3    H111571   6.510   0.128   0.756  3.0009 -0.9650  0.9029
 3869TIP3    H211572   6.478   0.119   0.904  1.2229 -1.9951  0.4802
 3870TIP3   OH211573   0.842   6.721   5.021  0.3558 -0.5001  0.2439
 3870TIP3    H111574   0.928   6.717   4.980  1.0855 -0.8661  1.7451
 3870TIP3    H211575   0.835   6.639   5.070 -1.1205 -0.7645 -0.3548
 3871TIP3   OH211576   2.950   4.741   5.190 -0.0170  0.6910  0.0107
 3871TIP3    H111577   3.040   4.710   5.185 -0.1113  0.4372 -0.1251
 3871TIP3    H211578   2.948   4.818   5.134  0.4261  1.4537  1.0100
 3872TIP3   OH211579   4.615   1.894   3.320 -0.4126  0.1741  0.2357
 3872TIP3    H111580   4.555   1.826   3.351  0.6573 -0.8452  0.1560
 3872TIP3    H211581   4.633   1.947   3.398 -0.9523  0.1344  0.3932
 3873TIP3   OH211582   6.704   3.565   0.743 -0.3910 -0.1621 -0.2488
 3873TIP3    H111583   6.624   3.617   0.744 -1.0241 -1.0925  0.9076
 3873TIP3    H211584   6.674   3.476   0.762  0.8491 -0.6468 -0.4817
 3874TIP3   OH211585   5.927   2.928   3.505  0.0878 -0.1413 -0.4057
 3874TIP3    H111586   5.862   2.953   3.439 -0.2306  1.3497  0.4229
 3874TIP3    H211587   5.992   2.998   3.503  0.9450 -0.9156 -0.2586
 3875TIP3   OH211588   3.135   6.231   1.870 -0.1644  0.2686  0.9303
 3875TIP3    H111589   3.183   6.149   1.883 -0.0347 -0.0087 -1.0883
 3875TIP3    H211590   3.154   6.281   1.950  1.4131 -0.8433  1.3210
 3876TIP3   OH211591   4.671   4.331   5.202  0.3797 -0.5852 -0.1554
 3876TIP3    H111592   4.612   4.257   5.220 -1.5432  0.2678 -2.4619
 3876TIP3    H211593   4.664   4.386   5.280  0.1543 -1.7444  0.6800
 3877TIP3   OH211594   5.766   3.694   1.030  0.1763  0.3501 -0.2377
 3877TIP3    H111595   5.787   3.601   1.037 -0.9351  0.1464  0.5599
 3877TIP3    H211596   5.840   3.738   1.072  0.4704 -0.1914 -0.1762
 3878TIP3   OH211597   5.746   1.628   5.570  0.0964  0.5970 -0.2788
 3878TIP3    H111598   5.715   1.555   5.516 -2.0799  0.2951  1.2406
 3878TIP3    H211599   5.760   1.589   5.657 -0.9253  1.9152  0.5174
 3879TIP3   OH211600   0.193   6.013   0.919  0.0723 -0.3878  0.8329
 3879TIP3    H111601   0.111   5.987   0.876 -0.4985  0.2742  1.4994
 3879TIP3    H211602   0.260   5.958   0.877 -0.1726  1.3330 -2.1307
 3880TIP3   OH211603   3.550   4.661   0.329 -0.0294  0.1299 -0.3088
 3880TIP3    H111604   3.599   4.725   0.276 -0.5137  0.5167 -0.2948
 3880TIP3    H211605   3.586   4.577   0.304 -0.2712  0.3084 -1.2835
 3881TIP3   OH211606   6.163   2.650   3.709  0.2739  0.4501 -0.0179
 3881TIP3    H111607   6.197   2.586   3.645  0.5433 -0.8040  1.3261
 3881TIP3    H211608   6.072   2.662   3.683  0.8991  1.5944 -1.8881
 3882TIP3   OH211609   1.614   4.692   0.253  0.8989 -0.9842 -0.0929
 3882TIP3    H111610   1.603   4.654   0.340 -0.2103 -0.3223  0.0740
 3882TIP3    H211611   1.602   4.786   0.266 -1.9358 -1.0842 -1.3356
 3883TIP3   OH211612   4.451   5.464   2.780  0.0796 -0.6677  0.0945
 3883TIP3    H111613   4.413   5.425   2.701  0.1736 -0.5233 -0.0243
 3883TIP3    H211614   4.545   5.467   2.762 -0.1603  2.9600 -1.4716
 3884TIP3   OH211615   1.275   3.472   3.955  0.1509  0.0432  1.0051
 3884TIP3    H111616   1.279   3.507   4.045 -0.7678 -0.4722  1.2588
 3884TIP3    H211617   1.230   3.389   3.964  1.1987 -0.6396  0.2281
 3885TIP3   OH211618   6.627   3.257   0.873  0.0519  0.3072 -0.4266
 3885TIP3    H111619   6.633   3.162   0.859  1.3318  0.4060 -0.7518
 3885TIP3    H211620   6.539   3.280   0.845 -0.0626 -0.6975 -0.9498
 3886TIP3   OH211621   7.100   3.833   5.524 -0.0771  0.2175  0.4718
 3886TIP3    H111622   7.035   3.870   5.583  1.5122  0.0395  2.4235
 3886TIP3    H211623   7.052   3.766   5.475 -1.3921  0.1586  1.7600
 3887TIP3   OH211624   3.350   2.085   3.261 -0.3753 -0.2711 -0.0107
 3887TIP3    H111625   3.320   2.041   3.182  1.3818 -0.8997 -0.3578
 3887TIP3    H211626   3.417   2.147   3.231 -0.2185  0.0158  0.8979
 3888TIP3   OH211627   0.495   5.120   0.823 -0.8053  0.3814  0.4857
 3888TIP3    H111628   0.576   5.112   0.873 -1.2925  0.2170  1.2666
 3888TIP3    H211629   0.524   5.140   0.733  0.0616  1.5596  0.9925
 3889TIP3   OH211630   7.042   1.522   2.989 -0.1837  0.1779  0.1105
 3889TIP3    H111631   7.077   1.435   2.969  1.4530  1.1996 -1.8607
 3889TIP3    H211632   6.995   1.548   2.910 -1.7241  0.6287  1.1320
 3890TIP3   OH211633   6.200   3.805   3.871  0.2484  0.1240  0.3733
 3890TIP3    H111634   6.182   3.868   3.802 -1.0771  0.8925  1.3718
 3890TIP3    H211635   6.135   3.824   3.939 -1.4531 -3.4646 -0.0212
 3891TIP3   OH211636   0.451   2.968   1.804  0.1204 -0.4109 -0.2687
 3891TIP3    H111637   0.420   2.942   1.890  0.9818 -0.6784 -0.0320
 3891TIP3    H211638   0.392   3.039   1.778 -1.0709 -1.3141 -0.1162
 3892TIP3   OH211639   6.809   3.612   1.765  0.2231 -0.0093  0.0714
 3892TIP3    H111640   6.841   3.542   1.823 -1.1660 -1.2267 -0.5587
 3892TIP3    H211641   6.744   3.659   1.818  1.1050  0.7850  0.4708
 3893TIP3   OH211642   4.359   2.540   4.964  0.2107  0.3419 -0.1223
 3893TIP3    H111643   4.385   2.631   4.956  1.0757  0.1025 -0.2035
 3893TIP3    H211644   4.334   2.514   4.876  0.0119  0.4887 -0.1083
 3894TIP3   OH211645   6.435   2.314   2.591 -0.1697 -0.1139  0.1594
 3894TIP3    H111646   6.399   2.225   2.591 -0.5710  0.0253 -1.4659
 3894TIP3    H211647   6.523   2.304   2.627 -0.1193 -1.2053 -0.2245
 3895TIP3   OH211648   2.991   1.037   0.718  0.4959  0.2272 -0.4000
 3895TIP3    H111649   2.945   0.981   0.781  3.5204 -1.7614  0.2252
 3895TIP3    H211650   3.017   1.114   0.770 -1.1452  0.9206 -0.5294
 3896TIP3   OH211651   7.020   4.547   1.020 -0.4324  0.4146  0.1769
 3896TIP3    H111652   6.927   4.538   1.041 -0.5692  0.6858 -0.3044
 3896TIP3    H211653   7.065   4.523   1.101 -0.9316  0.6912  0.5431
 3897TIP3   OH211654   5.053   5.629   4.287  0.5111  0.0572  0.0311
 3897TIP3    H111655   5.131   5.583   4.255  0.1531  0.1641 -1.0270
 3897TIP3    H211656   5.001   5.646   4.209 -0.0278  1.0368  0.5841
 3898TIP3   OH211657   5.325   4.748   3.205  0.4494  0.3162  0.4053
 3898TIP3    H111658   5.303   4.658   3.227  2.2612  0.1599  1.6901
 3898TIP3    H211659   5.330   4.748   3.109 -1.7108 -0.3771  0.2224
 3899TIP3   OH211660   4.237   4.749   2.474  0.2661 -0.3611  0.3856
 3899TIP3    H111661   4.319   4.781   2.436 -1.6177  0.8258 -3.1120
 3899TIP3    H211662   4.235   4.656   2.452  0.1093 -0.1034 -0.7613
 3900TIP3   OH211663   4.863   4.184   2.905  0.2364 -0.0070  0.4335
 3900TIP3    H111664   4.954   4.189   2.876  0.3453 -1.3604  0.5176
 3900TIP3    H211665   4.839   4.093   2.893 -0.5788 -0.0239  2.0296
 3901TIP3   OH211666   6.839   6.596   5.083  0.6089 -0.6720 -0.1783
 3901TIP3    H111667   6.920   6.645   5.102 -0.0443  0.6448 -0.6933
 3901TIP3    H211668   6.840   6.584   4.988  0.6707 -1.5190 -0.0750
 3902TIP3   OH211669   5.498   6.148   1.733  0.0887  0.0816  0.6005
 3902TIP3    H111670   5.521   6.229   1.779 -2.8425  0.5032  1.4721
 3902TIP3    H211671   5.405   6.134   1.751  0.7477 -4.3671  1.7869
 3903TIP3   OH211672   2.586   3.392   4.671 -0.4548  0.0435  0.0047
 3903TIP3    H111673   2.554   3.478   4.644 -0.0479 -0.0266 -0.7597
 3903TIP3    H211674   2.575   3.390   4.766  2.3544  2.1691  0.5244
 3904TIP3   OH211675   1.705   4.556   4.219  0.0677 -0.3404 -0.3342
 3904TIP3    H111676   1.653   4.480   4.192 -2.4627  1.0027  0.4273
 3904TIP3    H211677   1.666   4.583   4.302 -0.4055  2.8379 -1.4455
 3905TIP3   OH211678   6.924   5.947   0.256  0.4190 -0.1140  0.1371
 3905TIP3    H111679   6.842   5.905   0.281  0.4441 -0.2129  0.0558
 3905TIP3    H211680   6.947   5.906   0.172 -0.3965  1.2105 -0.7864
 3906TIP3   OH211681   5.262   1.442   0.627 -0.2630 -0.2140  0.5345
 3906TIP3    H111682   5.334   1.379   0.618 -0.7423 -0.4179 -3.0564
 3906TIP3    H211683   5.298   1.524   0.594 -1.2982 -0.0123 -0.1241
 3907TIP3   OH211684   2.608   3.928   3.681  0.0511 -0.0739  0.5483
 3907TIP3    H111685   2.532   3.968   3.725 -2.0306 -0.3134 -2.5172
 3907TIP3    H211686   2.604   3.836   3.708  0.2766  0.2304  1.6820
 3908TIP3   OH211687   2.230   3.060   3.067 -0.7101 -0.1250 -0.2476
 3908TIP3    H111688   2.293   3.128   3.044  1.9728 -0.9273  3.7775
 3908TIP3    H211689   2.187   3.092   3.146 -0.2420 -2.4867  1.0694
 3909TIP3   OH211690   1.594   6.747   5.234 -0.2515 -0.1403  0.0100
 3909TIP3    H111691   1.560   6.720   5.320 -0.2179 -0.3064 -0.0280
 3909TIP3    H211692   1.674   6.696   5.224  0.2903  0.6260  0.3282
 3910TIP3   OH211693   0.930   5.800   4.310  0.2971  0.4468 -0.3176
 3910TIP3    H111694   0.895   5.712   4.319 -1.1362  0.9884 -0.4291
 3910TIP3    H211695   0.986   5.812   4.387 -1.6303  0.3947  1.1571
 3911TIP3   OH211696   6.275   1.863   2.284  0.4785 -0.5744 -0.6828
 3911TIP3    H111697   6.281   1.768   2.294 -0.5773 -0.4412  2.2402
 3911TIP3    H211698   6.184   1.883   2.303  1.0144  1.1372  0.3067
 3912TIP3   OH211699   4.459   1.492   3.786  0.7766  0.1934 -0.1249
 3912TIP3    H111700   4.527   1.425   3.791  0.3762 -0.1902  0.2764
 3912TIP3    H211701   4.495   1.566   3.836  1.0778  0.1566 -0.2825
 3913TIP3   OH211702   2.910   0.485   0.741  0.3253  0.2229  0.2883
 3913TIP3    H111703   2.836   0.442   0.785 -0.0263 -0.3192 -0.8008
 3913TIP3    H211704   2.921   0.567   0.788 -0.1911 -0.2278  1.2382
 3914TIP3   OH211705   2.336   0.724   3.505  0.3917  0.4276 -0.0329
 3914TIP3    H111706   2.299   0.636   3.514  1.4946  0.0032  0.4996
 3914TIP3    H211707   2.346   0.755   3.596 -0.6732  1.4144 -0.2201
 3915TIP3   OH211708   2.098   3.431   4.385  0.1634  0.1916 -0.4375
 3915TIP3    H111709   2.037   3.503   4.402 -0.6405 -0.5818  0.0179
 3915TIP3    H211710   2.137   3.452   4.300  1.3863  2.1587  0.5504
 3916TIP3   OH211711   3.014   1.196   4.120  0.7700 -0.1894  0.0609
 3916TIP3    H111712   2.941   1.135   4.107 -0.7017  1.4033  0.4839
 3916TIP3    H211713   3.053   1.169   4.203  0.6683 -1.0562 -0.1605
 3917TIP3   OH211714   3.603   1.850   1.519 -0.1658  0.6282 -0.1329
 3917TIP3    H111715   3.694   1.880   1.525  0.5290 -1.1810 -0.9726
 3917TIP3    H211716   3.609   1.760   1.486 -2.1951 -0.0703  1.2097
 3918TIP3   OH211717   6.747   0.639   5.719 -0.3852 -0.1326 -0.1848
 3918TIP3    H111718   6.719   0.548   5.715  0.3427 -0.4377  1.2444
 3918TIP3    H211719   6.798   0.646   5.800 -1.1510  1.7443  0.1927
 3919TIP3   OH211720   7.111   0.677   0.538  0.3198 -0.4713 -0.3729
 3919TIP3    H111721   7.105   0.707   0.448  1.0681  1.8592  0.2819
 3919TIP3    H211722   7.202   0.696   0.564 -0.2054  0.0526  1.2161
 3920TIP3   OH211723   3.253   5.946   2.310 -0.0304 -0.4539 -0.7069
 3920TIP3    H111724   3.240   5.892   2.388  0.3011 -0.3028 -0.5454
 3920TIP3    H211725   3.196   6.021   2.323  1.6525  0.6878  0.4541
 3921TIP3   OH211726   6.008   2.419   4.185 -0.0048 -0.0191  0.2279
 3921TIP3    H111727   6.018   2.489   4.121 -0.2729  0.2870  0.5176
 3921TIP3    H211728   5.998   2.464   4.269  4.1982 -0.4090  1.1420
 3922TIP3   OH211729   5.306   5.245   5.831 -0.0312 -0.6125  0.8556
 3922TIP3    H111730   5.381   5.294   5.798 -0.2024 -1.5554 -1.0551
 3922TIP3    H211731   5.284   5.288   5.913  0.5546  1.7520 -0.1390
 3923TIP3   OH211732   0.228   0.590   2.020 -0.1237 -0.0157 -0.6622
 3923TIP3    H111733   0.318   0.616   2.000  0.1851  0.1945  0.8805
 3923TIP3    H211734   0.197   0.548   1.940  2.0059 -1.8650 -0.6007
 3924TIP3   OH211735   1.257   2.605   3.065 -0.0877  0.3602 -0.0955
 3924TIP3    H111736   1.336   2.560   3.095 -0.2872  0.7763  1.1389
 3924TIP3    H211737   1.211   2.628   3.146 -1.9289 -0.6464 -0.7874
 3925TIP3   OH211738   6.585   3.553   5.108 -0.3523  0.0892 -0.4800
 3925TIP3    H111739   6.593   3.590   5.197 -0.1176  0.3230 -0.5951
 3925TIP3    H211740   6.676   3.548   5.077 -0.5179  1.1788 -1.1802
 3926TIP3   OH211741   1.016   4.675   1.191  0.1052 -0.3753  0.4213
 3926TIP3    H111742   1.069   4.605   1.153  1.2480  0.8275 -0.2398
 3926TIP3    H211743   1.067   4.705   1.267  0.1177  0.4283  0.0982
 3927TIP3   OH211744   3.355   3.411   0.904 -0.3699  0.5347 -0.5522
 3927TIP3    H111745   3.395   3.324   0.898 -3.0192 -1.0865  2.0093
 3927TIP3    H211746   3.278   3.406   0.848  0.0791  1.7142 -1.3152
 3928TIP3   OH211747   0.113   2.654   0.531 -0.1767 -1.3282  0.5427
 3928TIP3    H111748   0.081   2.591   0.596 -0.3693 -1.3753  0.4041
 3928TIP3    H211749   0.067   2.735   0.551 -3.0377 -2.2222 -1.7238
 3929TIP3   OH211750   4.924   0.294   4.929 -0.8509 -0.6331 -0.3958
 3929TIP3    H111751   4.917   0.203   4.958  0.2801 -0.2372  1.2975
 3929TIP3    H211752   5.010   0.298   4.887 -0.4693 -0.1553  0.4069
 3930TIP3   OH211753   2.081   4.821   2.639 -0.0954  0.6089  0.0635
 3930TIP3    H111754   1.999   4.870   2.645 -0.1453  0.5021  0.2682
 3930TIP3    H211755   2.055   4.730   2.655  0.1663  0.6671  0.8414
 3931TIP3   OH211756   4.250   2.640   5.203 -0.1291  0.4033 -0.1223
 3931TIP3    H111757   4.251   2.565   5.263  0.0445 -0.4648 -1.1687
 3931TIP3    H211758   4.296   2.609   5.125  0.4321  1.7983 -0.3727
 3932TIP3   OH211759   2.614   4.898   1.531  0.0989 -0.2657 -0.4105
 3932TIP3    H111760   2.540   4.924   1.476 -0.9938 -0.0142  1.1125
 3932TIP3    H211761   2.684   4.959   1.507 -0.9582  1.0808 -0.1999
 3933TIP3   OH211762   6.459   4.482   4.435 -0.4197 -0.7077 -0.4457
 3933TIP3    H111763   6.440   4.416   4.500 -1.4416 -0.0681 -0.0823
 3933TIP3    H211764   6.449   4.566   4.481 -1.3676 -0.2414 -1.4633
 3934TIP3   OH211765   1.471   5.400   3.154  0.4838 -0.1468  0.1278
 3934TIP3    H111766   1.386   5.411   3.197  1.3514 -2.0702  2.5525
 3934TIP3    H211767   1.471   5.466   3.085 -2.2103  1.1680  1.2259
 3935TIP3   OH211768   2.171   3.492   4.110  0.4701  0.4105 -0.6809
 3935TIP3    H111769   2.148   3.421   4.050 -0.3321  0.2831 -0.2414
 3935TIP3    H211770   2.241   3.539   4.066 -0.1398  0.3600 -1.7518
 3936TIP3   OH211771   4.572   6.416   3.870  0.1422 -0.0016  0.5059
 3936TIP3    H111772   4.609   6.496   3.907  0.2157 -0.5285  1.6444
 3936TIP3    H211773   4.627   6.346   3.906  1.4971 -0.4637 -2.2128
 3937TIP3   OH211774   1.526   4.696   0.510 -0.2138 -0.3340 -0.0622
 3937TIP3    H111775   1.524   4.617   0.563 -0.3246 -0.8024 -0.7541
 3937TIP3    H211776   1.488   4.764   0.567 -0.0458 -0.7523  0.5593
 3938TIP3   OH211777   1.655   2.561   4.799  0.4608 -0.4957  0.2430
 3938TIP3    H111778   1.596   2.605   4.738  1.5444 -0.3404 -0.7440
 3938TIP3    H211779   1.676   2.478   4.757  0.5123 -0.7879  0.8345
 3939TIP3   OH211780   3.616   6.203   1.318  0.0395 -0.9407  0.5416
 3939TIP3    H111781   3.574   6.159   1.391 -2.4912  0.8469  0.2796
 3939TIP3    H211782   3.596   6.296   1.330  0.2430 -0.4811 -1.9593
 3940TIP3   OH211783   6.395   0.574   1.304  0.3903  0.4672  0.1784
 3940TIP3    H111784   6.481   0.616   1.311  0.5270 -0.0591  2.2369
 3940TIP3    H211785   6.410   0.483   1.329 -0.4407 -0.1260 -1.3516
 3941TIP3   OH211786   1.714   5.295   0.105  0.1485 -0.1150 -0.4716
 3941TIP3    H111787   1.770   5.372   0.118  1.0924 -0.9878  0.9323
 3941TIP3    H211788   1.724   5.274   0.012 -1.5322  2.4466 -1.3448
 3942TIP3   OH211789   1.305   0.258   4.619 -0.2003 -0.9041 -0.1394
 3942TIP3    H111790   1.256   0.284   4.697  0.2460  0.5264 -0.2980
 3942TIP3    H211791   1.315   0.340   4.569  1.3181 -1.3940 -0.6839
 3943TIP3   OH211792   6.342   6.376   4.929  0.1209  0.2230  0.0379
 3943TIP3    H111793   6.390   6.437   4.986  1.4987  0.5550 -1.4037
 3943TIP3    H211794   6.251   6.388   4.954  0.5143  1.6745  0.9493
 3944TIP3   OH211795   4.080   1.396   1.828 -0.6079 -0.0978  0.2723
 3944TIP3    H111796   4.057   1.351   1.910  0.5552 -1.4779 -0.1157
 3944TIP3    H211797   4.044   1.340   1.760 -0.7466  0.5506 -0.1900
 3945TIP3   OH211798   6.813   6.172   2.327 -0.0766  0.0574  0.0171
 3945TIP3    H111799   6.838   6.139   2.413 -0.7322  1.0301  0.5905
 3945TIP3    H211800   6.895   6.175   2.278  0.2489 -0.8378  0.4784
 3946TIP3   OH211801   3.481   3.730   3.783 -0.0646 -0.1857  0.0164
 3946TIP3    H111802   3.460   3.728   3.689 -1.1840 -0.1939  0.2460
 3946TIP3    H211803   3.566   3.687   3.790 -0.5311 -1.2938 -0.8607
 3947TIP3   OH211804   3.661   6.376   3.132  0.6120  0.2286  0.1426
 3947TIP3    H111805   3.589   6.388   3.070  0.4257  0.5522  0.4132
 3947TIP3    H211806   3.695   6.289   3.113 -0.0691 -0.0682  0.2289
 3948TIP3   OH211807   5.113   0.450   1.790 -0.2437 -0.1629 -0.6312
 3948TIP3    H111808   5.054   0.518   1.823  1.4077  0.5695  1.0152
 3948TIP3    H211809   5.101   0.377   1.851  0.4831 -0.0324 -0.3287
 3949TIP3   OH211810   1.646   0.153   4.415  0.1021 -0.7123  0.3816
 3949TIP3    H111811   1.689   0.096   4.479  2.8561 -0.5661 -1.1990
 3949TIP3    H211812   1.692   0.136   4.333 -0.2932  2.3443 -0.5828
 3950TIP3   OH211813   6.817   4.683   4.326 -0.0881  0.0762  0.1892
 3950TIP3    H111814   6.867   4.702   4.246  0.3302  2.0377  0.8524
 3950TIP3    H211815   6.755   4.614   4.300  2.4014 -1.9341 -0.8673
 3951TIP3   OH211816   1.244   6.368   1.859  0.0590 -0.0360 -0.3139
 3951TIP3    H111817   1.160   6.323   1.870  0.1718 -0.3029 -0.5347
 3951TIP3    H211818   1.297   6.307   1.808  0.5127 -0.0233  0.1343
 3952TIP3   OH211819   7.091   3.865   4.936  0.3657 -0.1325 -0.7950
 3952TIP3    H111820   7.005   3.856   4.894  0.3161  0.2954 -0.7967
 3952TIP3    H211821   7.071   3.881   5.028  0.4551 -0.4185 -0.7264
 3953TIP3   OH211822   4.789   3.276   2.109 -0.1494  0.3605  0.4004
 3953TIP3    H111823   4.774   3.284   2.204 -0.0867  1.5554  0.3246
 3953TIP3    H211824   4.702   3.262   2.073  0.0336 -2.3873  0.7960
 3954TIP3   OH211825   4.695   4.519   1.934  0.1521  0.4731  0.8612
 3954TIP3    H111826   4.745   4.444   1.901 -0.0396  0.1571  1.2779
 3954TIP3    H211827   4.607   4.506   1.899 -0.3874 -0.5464  2.4799
 3955TIP3   OH211828   3.028   0.314   3.569  0.0584  0.2014 -0.3480
 3955TIP3    H111829   2.999   0.333   3.480 -2.6328 -2.1161 -0.1222
 3955TIP3    H211830   3.083   0.236   3.560  1.2373  0.9815 -0.1064
 3956TIP3   OH211831   1.258   1.655   0.585  0.2454 -0.1993 -0.9207
 3956TIP3    H111832   1.224   1.613   0.506 -0.7178 -0.4695 -0.3703
 3956TIP3    H211833   1.334   1.602   0.609 -1.0958 -1.8174 -0.0914
 3957TIP3   OH211834   4.091   2.965   3.368  0.4935 -0.2243 -0.5373
 3957TIP3    H111835   4.029   3.022   3.323  0.0760 -0.2921 -0.0545
 3957TIP3    H211836   4.072   2.977   3.461 -1.0264 -2.7089 -0.4313
 3958TIP3   OH211837   6.329   5.680   4.341  0.1564 -0.2549  0.4958
 3958TIP3    H111838   6.280   5.758   4.316  0.1705 -0.0555  1.0917
 3958TIP3    H211839   6.346   5.690   4.434 -0.9402 -1.5619  0.8734
 3959TIP3   OH211840   4.987   5.152   0.318  0.7278  0.4724 -0.6329
 3959TIP3    H111841   5.015   5.132   0.408  1.2612  1.2497 -0.6172
 3959TIP3    H211842   4.893   5.166   0.324  0.7894  0.6866 -0.1636
 3960TIP3   OH211843   7.028   1.556   4.909  0.5942  0.4525 -0.3665
 3960TIP3    H111844   6.996   1.645   4.921  0.5166  0.2915  0.6818
 3960TIP3    H211845   6.985   1.505   4.978  1.5070 -0.1685 -0.2366
 3961TIP3   OH211846   1.412   3.101   2.098  0.4017 -0.9374  0.2954
 3961TIP3    H111847   1.418   3.172   2.033 -0.4437 -0.5166  0.6619
 3961TIP3    H211848   1.364   3.139   2.171  0.0047 -1.8747  0.5339
 3962TIP3   OH211849   6.150   1.947   0.754  0.4896 -0.0311  0.2186
 3962TIP3    H111850   6.244   1.930   0.760  0.9166  1.6683 -0.8293
 3962TIP3    H211851   6.140   2.035   0.790 -0.5418  0.2002 -0.5778
 3963TIP3   OH211852   6.369   6.244   5.475 -0.2473 -0.0180  0.3527
 3963TIP3    H111853   6.309   6.194   5.531 -0.2786 -0.2306  0.1334
 3963TIP3    H211854   6.316   6.267   5.398 -0.0648 -0.1491  0.1882
 3964TIP3   OH211855   4.704   5.156   1.641  0.4337 -0.0666 -0.0954
 3964TIP3    H111856   4.739   5.223   1.583 -0.0242  0.1601 -0.1180
 3964TIP3    H211857   4.648   5.204   1.702 -1.2230 -0.5813 -1.1330
 3965TIP3   OH211858   3.296   5.394   5.464  0.0237  0.2904 -0.0469
 3965TIP3    H111859   3.376   5.429   5.424  0.8937 -0.6779  0.7688
 3965TIP3    H211860   3.226   5.416   5.403  1.0826  0.1784 -1.3342
 3966TIP3   OH211861   1.207   6.422   4.867 -0.3515 -0.0252  0.2466
 3966TIP3    H111862   1.193   6.328   4.856 -0.2291 -0.1516  1.0970
 3966TIP3    H211863   1.294   6.438   4.830  0.1505 -0.4745  1.2038
 3967TIP3   OH211864   0.116   1.527   3.188  0.4287  0.0687  0.0103
 3967TIP3    H111865   0.167   1.536   3.268  0.4623 -0.9199  0.1145
 3967TIP3    H211866   0.060   1.604   3.187  0.3252  0.0288  1.0631
 3968TIP3   OH211867   3.875   0.280   1.025 -0.0524 -0.1015 -0.0968
 3968TIP3    H111868   3.814   0.300   0.955  0.2184  0.6987 -0.1168
 3968TIP3    H211869   3.918   0.363   1.044  0.3680 -0.4542  0.5480
 3969TIP3   OH211870   5.963   3.684   0.724  1.2360 -0.3567  0.2173
 3969TIP3    H111871   5.977   3.664   0.632  0.1731  0.6520 -0.1851
 3969TIP3    H211872   5.925   3.604   0.761  2.1100 -0.9262 -0.0923
 3970TIP3   OH211873   4.534   6.529   3.571  0.1866 -0.5027 -0.1023
 3970TIP3    H111874   4.463   6.468   3.591  0.8749 -1.2880  0.0406
 3970TIP3    H211875   4.596   6.518   3.644  0.0173  0.8659  0.2674
 3971TIP3   OH211876   0.368   5.305   1.216  0.3904  0.0335 -0.0304
 3971TIP3    H111877   0.357   5.327   1.124  0.8733  2.2951  0.3832
 3971TIP3    H211878   0.434   5.235   1.217 -1.1141 -1.5041 -1.4486
 3972TIP3   OH211879   2.509   6.250   1.199 -0.2690 -0.6945  0.0994
 3972TIP3    H111880   2.558   6.315   1.148  1.1906 -1.7584  0.1051
 3972TIP3    H211881   2.556   6.244   1.282 -0.4668 -1.6514  0.1523
 3973TIP3   OH211882   4.624   3.507   3.870 -0.3949 -0.2809  0.1444
 3973TIP3    H111883   4.704   3.486   3.918 -0.0146  2.5707  0.9563
 3973TIP3    H211884   4.565   3.543   3.937 -1.6625 -0.5983 -0.7623
 3974TIP3   OH211885   3.245   3.005   3.337  0.2255  0.4977  0.5231
 3974TIP3    H111886   3.209   3.026   3.251  0.8776  0.4206  0.2226
 3974TIP3    H211887   3.331   2.966   3.318  0.3080  0.3365  1.2008
 3975TIP3   OH211888   2.029   2.333   1.245 -0.2746 -0.2334 -0.0814
 3975TIP3    H111889   2.052   2.274   1.317 -1.6787 -0.2818  0.3582
 3975TIP3    H211890   2.063   2.418   1.271  1.0054 -0.6376 -0.3234
 3976TIP3   OH211891   0.237   4.774   4.668  0.1088  0.7582  0.3584
 3976TIP3    H111892   0.291   4.700   4.693 -1.0258 -1.2068 -2.4545
 3976TIP3    H211893   0.299   4.846   4.654  1.8015 -0.8517 -0.8313
 3977TIP3   OH211894   1.747   6.532   4.604 -0.4403 -0.2217 -0.2535
 3977TIP3    H111895   1.735   6.627   4.600  2.5872  0.4067  2.0080
 3977TIP3    H211896   1.820   6.515   4.544 -0.1873 -0.9211  0.2397
 3978TIP3   OH211897   0.059   5.657   4.492  0.3208 -0.2630  0.0211
 3978TIP3    H111898   0.138   5.617   4.529  0.7530  0.7858  0.2499
 3978TIP3    H211899  -0.008   5.589   4.500  0.6252 -0.3987  1.9111
 3979TIP3   OH211900   4.379   6.642   5.680 -0.3686  0.1475  0.2064
 3979TIP3    H111901   4.316   6.703   5.641  1.6228  1.8597 -0.5319
 3979TIP3    H211902   4.418   6.598   5.604  0.0545 -0.1506  0.5967
 3980TIP3   OH211903   6.522   6.496   0.130  0.5314 -0.3207 -0.3495
 3980TIP3    H111904   6.610   6.459   0.141  0.7988  0.3970 -0.0367
 3980TIP3    H211905   6.536   6.577   0.080  0.5347  1.8239  2.8576
 3981TIP3   OH211906   0.184   4.125   3.857 -0.2520 -0.3469  0.0429
 3981TIP3    H111907   0.249   4.193   3.838 -1.2128  1.5049  2.6601
 3981TIP3    H211908   0.104   4.156   3.814 -0.4414 -0.3333  0.4004
 3982TIP3   OH211909   6.894   0.392   1.017 -0.4467  0.1414  0.6072
 3982TIP3    H111910   6.894   0.488   1.023 -1.0587  0.3293 -1.5572
 3982TIP3    H211911   6.937   0.373   0.934 -0.4027 -1.4860  0.9690
 3983TIP3   OH211912   2.466   0.976   0.507  0.1338 -0.3906 -0.2578
 3983TIP3    H111913   2.511   1.059   0.494  1.3310 -1.1385 -1.0524
 3983TIP3    H211914   2.536   0.911   0.517 -0.7622 -1.1495  1.6425
 3984TIP3   OH211915   3.803   1.796   2.733 -0.0692  0.2232  0.1419
 3984TIP3    H111916   3.748   1.793   2.654  0.4820  0.8270 -0.2764
 3984TIP3    H211917   3.752   1.751   2.800 -0.0394 -1.3948 -0.8757
 3985TIP3   OH211918   1.716   5.793   5.522 -0.2984 -0.0580 -0.3580
 3985TIP3    H111919   1.740   5.876   5.563  0.7438 -0.3045 -0.4551
 3985TIP3    H211920   1.624   5.804   5.499 -1.1453 -0.0763  2.5289
 3986TIP3   OH211921   2.694   2.508   0.947 -0.4936  0.0125  0.2554
 3986TIP3    H111922   2.762   2.443   0.932 -2.1747 -1.5973 -0.8535
 3986TIP3    H211923   2.723   2.585   0.899  0.8761 -0.3852  0.4166
 3987TIP3   OH211924   3.616   0.185   4.718 -0.0528 -0.3615 -0.7077
 3987TIP3    H111925   3.696   0.238   4.710  1.0777 -1.9367 -0.4825
 3987TIP3    H211926   3.619   0.151   4.807 -0.1965 -1.5839 -1.1430
 3988TIP3   OH211927   6.753   4.029   3.576 -0.5190  0.0913 -0.3234
 3988TIP3    H111928   6.692   3.982   3.633 -1.6342 -0.6380 -2.0226
 3988TIP3    H211929   6.709   4.030   3.490  1.1429  1.0151 -1.2118
 3989TIP3   OH211930   3.058   5.128   3.809  0.6317  0.5473  0.1392
 3989TIP3    H111931   3.053   5.138   3.904  1.5589  0.1594  0.2442
 3989TIP3    H211932   3.142   5.168   3.786 -0.2643  1.9734 -0.7131
 3990TIP3   OH211933   6.353   5.136   5.226 -0.0022 -0.6029  0.2407
 3990TIP3    H111934   6.294   5.180   5.165  0.2487 -0.6042 -0.0052
 3990TIP3    H211935   6.297   5.111   5.300 -0.4845 -1.3369 -0.3626
 3991TIP3   OH211936   0.356   3.415   4.961 -0.0439  0.1065  0.3532
 3991TIP3    H111937   0.344   3.488   5.021  2.6341  1.0317 -0.1397
 3991TIP3    H211938   0.344   3.453   4.874  1.2864 -0.0337  0.0975
 3992TIP3   OH211939   7.043   3.842   0.764 -0.1356  0.5536  0.0523
 3992TIP3    H111940   6.966   3.869   0.713 -0.1804  0.4395  0.0591
 3992TIP3    H211941   7.008   3.782   0.829  0.0608 -0.0126 -0.3618
 3993TIP3   OH211942   3.428   0.448   1.123  0.5160  0.0631 -0.2561
 3993TIP3    H111943   3.439   0.455   1.218 -0.7789 -0.9701  0.0009
 3993TIP3    H211944   3.511   0.479   1.087  0.7419  1.2173  1.1752
 3994TIP3   OH211945   6.525   4.200   2.868  0.2386 -0.3071 -0.1542
 3994TIP3    H111946   6.605   4.247   2.889 -0.8545  2.5298 -1.7668
 3994TIP3    H211947   6.455   4.254   2.903 -1.0805 -1.4679 -0.8588
 3995TIP3   OH211948   4.887   4.549   5.279 -0.0828  0.5119 -0.7057
 3995TIP3    H111949   4.959   4.488   5.297  0.3715  0.5046 -2.4203
 3995TIP3    H211950   4.812   4.492   5.260  0.9109  0.2887 -4.7299
 3996TIP3   OH211951   2.250   1.094   3.302  0.2750  0.1566 -0.2690
 3996TIP3    H111952   2.344   1.109   3.315  0.4032 -0.6362 -0.2534
 3996TIP3    H211953   2.214   1.182   3.288  0.7053  0.7199  1.7275
 3997TIP3   OH211954   6.609   1.788   1.117  0.4051 -0.5571  0.1897
 3997TIP3    H111955   6.529   1.841   1.121  0.2374 -0.7742 -0.2732
 3997TIP3    H211956   6.601   1.727   1.191  0.4891 -0.1003  0.5846
 3998TIP3   OH211957   4.113   6.300   2.238 -0.5691 -0.4088 -0.3390
 3998TIP3    H111958   4.040   6.353   2.272 -0.1514  0.1883 -0.3589
 3998TIP3    H211959   4.073   6.215   2.218 -0.8487 -0.7950  1.5969
 3999TIP3   OH211960   0.537   1.590   1.314 -0.2032 -0.1268 -0.3121
 3999TIP3    H111961   0.570   1.598   1.225 -1.2822  1.0828 -0.6387
 3999TIP3    H211962   0.442   1.596   1.305 -0.3188  0.2892  0.9388
 4000TIP3   OH211963   0.903   6.087   1.709  0.4611 -0.0850 -0.4648
 4000TIP3    H111964   0.825   6.141   1.720  1.4620  1.5072 -0.7243
 4000TIP3    H211965   0.877   5.999   1.736 -1.1916  0.5733  0.1672
 4001TIP3   OH211966   3.153   5.976   0.184 -0.0664 -0.0058  0.6838
 4001TIP3    H111967   3.246   5.999   0.187 -0.2731  0.9599  0.1560
 4001TIP3    H211968   3.124   6.004   0.097 -0.3978 -2.1984  0.0319
 4002TIP3   OH211969   0.290   5.985   2.787 -0.4422 -0.0607  0.6941
 4002TIP3    H111970   0.367   5.995   2.842  0.2942 -1.0921 -0.1050
 4002TIP3    H211971   0.309   6.038   2.709 -0.2801 -0.7694  0.2434
 4003TIP3   OH211972   5.142   3.528   2.854  0.3360  0.3696  0.2510
 4003TIP3    H111973   5.191   3.447   2.844  1.8656  0.9580  2.2883
 4003TIP3    H211974   5.076   3.525   2.786  1.5007 -1.7383 -0.8716
 4004TIP3   OH211975   6.840   5.825   3.022 -0.0785 -0.0333  0.4817
 4004TIP3    H111976   6.879   5.738   3.016 -1.0747 -0.5052  0.5356
 4004TIP3    H211977   6.833   5.842   3.116  0.1037  0.0935  0.4716
 4005TIP3   OH211978   3.886   1.698   1.538 -0.6346  0.4777 -0.4915
 4005TIP3    H111979   3.943   1.679   1.612 -0.3869 -0.1032 -0.8220
 4005TIP3    H211980   3.888   1.793   1.530  1.3711  0.4293 -1.3154
 4006TIP3   OH211981   5.399   3.153   4.459 -0.2790  0.1564 -0.0345
 4006TIP3    H111982   5.458   3.128   4.531 -1.3980 -0.0723  0.8206
 4006TIP3    H211983   5.322   3.188   4.502  0.3866  3.3148 -1.1797
 4007TIP3   OH211984   0.906   6.043   0.963 -0.1951 -0.0590 -0.3474
 4007TIP3    H111985   0.991   6.086   0.967  1.1184 -2.5725  0.8814
 4007TIP3    H211986   0.883   6.043   0.870  1.3561  0.2617 -0.7532
 4008TIP3   OH211987   4.234   2.312   5.047 -0.0628 -0.0325 -0.3544
 4008TIP3    H111988   4.297   2.380   5.024  0.1167 -0.3746 -0.9008
 4008TIP3    H211989   4.281   2.254   5.106  0.0625 -0.1503 -0.5667
 4009TIP3   OH211990   6.111   0.774   4.888 -0.0882  0.2094  0.4004
 4009TIP3    H111991   6.092   0.752   4.796 -0.0829  1.3574  0.1050
 4009TIP3    H211992   6.205   0.762   4.897 -0.2537 -1.0714  0.6010
 4010TIP3   OH211993   5.690   2.757   1.347  0.4884 -0.3334 -0.0797
 4010TIP3    H111994   5.709   2.687   1.285 -0.2587 -0.0473 -0.6421
 4010TIP3    H211995   5.718   2.837   1.302  1.0486 -0.2253  0.4371
 4011TIP3   OH211996   1.470   1.802   0.818  0.2594 -0.7183  1.1063
 4011TIP3    H111997   1.454   1.791   0.912  1.3128 -0.4467  1.3274
 4011TIP3    H211998   1.492   1.714   0.787 -0.3712 -0.8614  1.0478
 4012TIP3   OH211999   0.476   0.684   3.007 -0.1069 -0.0341  0.0833
 4012TIP3    H112000   0.497   0.594   3.034  1.5126  0.1866 -0.3260
 4012TIP3    H212001   0.416   0.673   2.933 -0.7075 -0.7457  0.6593
 4013TIP3   OH212002   2.979   3.531   5.592 -0.3550 -0.1586 -0.2846
 4013TIP3    H112003   2.919   3.508   5.521 -1.8091  2.0473  0.1125
 4013TIP3    H212004   2.941   3.490   5.669 -0.1274 -0.5731 -0.3940
 4014TIP3   OH212005   6.161   6.262   5.250  0.4342 -0.6821  0.0249
 4014TIP3    H112006   6.160   6.253   5.155 -0.7027  0.7409 -0.1440
 4014TIP3    H212007   6.132   6.177   5.283  1.3200 -1.3486 -0.8738
 4015TIP3   OH212008   4.563   1.963   2.163 -0.3622  0.2819  0.3468
 4015TIP3    H112009   4.506   2.040   2.156 -0.9894 -0.2904 -1.2162
 4015TIP3    H212010   4.616   1.964   2.083 -0.3571 -0.8766  0.3126
 4016TIP3   OH212011   1.442   2.714   3.353  0.9496  0.0187  0.1852
 4016TIP3    H112012   1.441   2.642   3.290 -0.6885 -0.1867  0.3997
 4016TIP3    H212013   1.428   2.793   3.301  0.6768 -0.0381  0.1717
 4017TIP3   OH212014   1.693   2.466   0.500  0.3521  0.0806  0.3757
 4017TIP3    H112015   1.620   2.425   0.453  2.3936 -1.9766 -1.2173
 4017TIP3    H212016   1.665   2.467   0.591 -1.0397 -2.2265  0.0690
 4018TIP3   OH212017   1.541   1.923   5.350 -0.1948  0.0780 -0.2531
 4018TIP3    H112018   1.569   1.962   5.267 -1.9945  0.3272 -0.7985
 4018TIP3    H212019   1.521   1.832   5.327  0.1527 -0.0925  0.1152
 4019TIP3   OH212020   2.372   2.783   2.086 -0.2337  0.0218  0.0015
 4019TIP3    H112021   2.361   2.689   2.072  0.8164 -0.1808  0.4043
 4019TIP3    H212022   2.366   2.793   2.181  1.0740  0.1366  0.0941
 4020TIP3   OH212023   2.490   6.683   0.828 -0.5058 -0.2509 -0.2827
 4020TIP3    H112024   2.557   6.616   0.816  0.5092  0.8521 -1.0441
 4020TIP3    H212025   2.537   6.766   0.819 -1.6104  0.5872  1.2878
 4021TIP3   OH212026   5.218   3.424   5.470 -0.2786 -0.8213 -0.7665
 4021TIP3    H112027   5.153   3.358   5.495  0.0224 -0.3499  1.4655
 4021TIP3    H212028   5.184   3.506   5.506  0.6431 -0.2346 -1.1992
 4022TIP3   OH212029   0.813   5.959   1.188 -0.7836 -0.0024  0.1938
 4022TIP3    H112030   0.834   6.033   1.130  0.1463  0.0461  0.5766
 4022TIP3    H212031   0.858   5.980   1.270  0.1555 -1.3567  0.0652
 4023TIP3   OH212032   6.867   6.316   5.505  0.0048 -0.1630 -0.5131
 4023TIP3    H112033   6.880   6.224   5.483  0.2255  0.1039 -1.6064
 4023TIP3    H212034   6.944   6.360   5.468 -0.1183  0.4609 -0.0368
 4024TIP3   OH212035   0.191   6.651   3.450 -0.2320 -0.4731 -0.2551
 4024TIP3    H112036   0.188   6.734   3.498  2.0006 -0.2470 -0.3852
 4024TIP3    H212037   0.104   6.614   3.460 -0.8869  1.2661  0.9306
 4025TIP3   OH212038   6.678   0.275   3.385  0.8123  0.1306  0.4061
 4025TIP3    H112039   6.641   0.259   3.298  2.8784  0.6347 -0.6345
 4025TIP3    H212040   6.646   0.361   3.409  0.7475  0.2699 -0.1535
 4026TIP3   OH212041   3.575   4.722   4.265  0.3283 -0.2037 -0.2348
 4026TIP3    H112042   3.516   4.647   4.262 -1.8236  1.4377 -0.7135
 4026TIP3    H212043   3.560   4.762   4.350  0.2781  0.5897 -0.6046
 4027TIP3   OH212044   6.111   0.598   1.324 -0.3841 -0.4400 -0.1287
 4027TIP3    H112045   6.064   0.530   1.372 -0.4530  0.0062  0.4531
 4027TIP3    H212046   6.199   0.562   1.311 -0.3014 -0.4839  0.5274
 4028TIP3   OH212047   4.748   1.296   0.971  0.1812  0.6931 -0.0512
 4028TIP3    H112048   4.778   1.221   0.920 -1.1051  0.0055  0.1770
 4028TIP3    H212049   4.709   1.258   1.050 -1.7414  1.4928 -0.5686
 4029TIP3   OH212050   3.085   0.242   4.809  0.2344 -0.1458 -0.4120
 4029TIP3    H112051   3.054   0.155   4.832  0.2313 -0.8585 -2.7932
 4029TIP3    H212052   3.167   0.252   4.856  1.1968 -2.2478 -1.5119
 4030TIP3   OH212053   7.185   5.343   4.849 -0.1663 -0.1259 -0.0743
 4030TIP3    H112054   7.112   5.391   4.809 -0.1864 -0.2391 -0.1731
 4030TIP3    H212055   7.244   5.412   4.881 -0.6645 -0.0259  0.6627
 4031TIP3   OH212056   2.258   1.329   0.084 -0.5314 -0.3267 -0.1317
 4031TIP3    H112057   2.168   1.299   0.072 -0.4887  0.0369 -1.5114
 4031TIP3    H212058   2.285   1.360  -0.002  0.9058 -0.3815  0.2672
 4032TIP3   OH212059   2.257   5.239   5.289 -0.2440  0.5493 -0.2847
 4032TIP3    H112060   2.162   5.249   5.287 -0.2751  0.1757 -1.1139
 4032TIP3    H212061   2.271   5.145   5.297  0.0434  0.4815 -1.3924
 4033TIP3   OH212062   6.476   1.206   4.504  0.2082  0.0677  0.5089
 4033TIP3    H112063   6.541   1.276   4.503 -0.1320  0.3854  0.5837
 4033TIP3    H212064   6.507   1.145   4.571  1.0726 -0.3992 -0.2995
 4034TIP3   OH212065   2.285   3.843   0.902 -0.0018  0.7516  0.2121
 4034TIP3    H112066   2.198   3.805   0.892  0.1986  0.3515 -0.0640
 4034TIP3    H212067   2.325   3.835   0.815 -0.5762  3.1964 -0.3486
 4035TIP3   OH212068   1.048   2.265   5.809 -0.2466 -0.1024 -0.2098
 4035TIP3    H112069   1.086   2.244   5.724  0.4930 -0.3652  0.1729
 4035TIP3    H212070   1.065   2.358   5.820 -0.3813 -0.0585 -0.3644
 4036TIP3   OH212071   6.888   3.711   1.280 -0.0483  0.2027  0.1390
 4036TIP3    H112072   6.883   3.635   1.222  0.8895 -1.1767  1.7349
 4036TIP3    H212073   6.799   3.746   1.282 -0.7175 -1.3987  0.0187
 4037TIP3   OH212074   1.766   5.018   3.193  0.1688  0.3044 -0.1536
 4037TIP3    H112075   1.797   5.068   3.268 -0.9949  1.3693 -0.3467
 4037TIP3    H212076   1.710   5.078   3.145 -1.5545 -1.2725 -0.2419
 4038TIP3   OH212077   5.481   5.251   5.132 -0.1026 -0.0915  0.2741
 4038TIP3    H112078   5.544   5.182   5.112 -1.4617 -0.7176 -2.3204
 4038TIP3    H212079   5.416   5.209   5.188  0.3395 -0.2056  0.7083
 4039TIP3   OH212080   7.073   2.955   4.626 -0.5277  0.4769 -0.3687
 4039TIP3    H112081   7.057   3.027   4.565  2.1571  0.9844 -0.5903
 4039TIP3    H212082   7.014   2.885   4.596 -2.1256  2.0477 -1.0458
 4040TIP3   OH212083   2.746   4.317   2.736  0.0855 -0.2424 -0.4176
 4040TIP3    H112084   2.725   4.333   2.644  0.6522 -0.3116 -0.5616
 4040TIP3    H212085   2.780   4.400   2.768 -2.0994  0.4395  0.3259
 4041TIP3   OH212086   2.413   2.593   1.384 -0.1294  0.3490  0.1534
 4041TIP3    H112087   2.457   2.585   1.299  0.1600 -0.5904  0.3929
 4041TIP3    H212088   2.481   2.579   1.449 -0.6020 -0.2400  0.5333
 4042TIP3   OH212089   3.397   3.120   4.363 -0.1024  0.0472 -0.4794
 4042TIP3    H112090   3.308   3.088   4.353 -0.1022  0.6250 -2.7226
 4042TIP3    H212091   3.452   3.052   4.324  0.4755 -0.2397  0.7528
 4043TIP3   OH212092   2.879   4.590   0.159 -0.4166  0.1719  0.4728
 4043TIP3    H112093   2.804   4.589   0.218  0.3951  0.7806  1.5598
 4043TIP3    H212094   2.844   4.619   0.075 -1.2714  1.2320  1.1684
 4044TIP3   OH212095   4.743   3.684   4.978  0.1582 -0.3381  0.0997
 4044TIP3    H112096   4.828   3.667   4.939  0.2504  1.1153 -0.3897
 4044TIP3    H212097   4.679   3.657   4.912  0.2358 -1.0113  0.2924
 4045TIP3   OH212098   3.975   5.927   3.976 -0.6259  0.7605 -0.0946
 4045TIP3    H112099   4.017   6.009   4.000 -0.5062  0.8422 -0.5793
 4045TIP3    H212100   4.010   5.906   3.890  0.6847 -0.6868  0.7129
 4046TIP3   OH212101   4.550   6.044   2.123 -0.0031  0.2062 -0.0691
 4046TIP3    H112102   4.518   6.122   2.078  2.9654  0.7468 -1.4630
 4046TIP3    H212103   4.563   5.979   2.053  0.2124 -0.5971  0.6919
 4047TIP3   OH212104   0.810   1.947   2.724  0.1388  0.0960  0.4962
 4047TIP3    H112105   0.806   1.853   2.736 -0.3144  0.0440 -0.0293
 4047TIP3    H212106   0.723   1.979   2.750  0.1937  0.3318  0.4014
 4048TIP3   OH212107   5.957   0.022   4.812  0.5196 -0.0900 -0.0998
 4048TIP3    H112108   5.930   0.098   4.760 -0.6097 -0.3212  0.1077
 4048TIP3    H212109   5.953  -0.051   4.751  0.3016 -0.1826  0.0227
 4049TIP3   OH212110   4.710   0.875   5.529  0.1912  0.4044  0.5767
 4049TIP3    H112111   4.716   0.964   5.495 -0.3185 -0.1142 -0.9315
 4049TIP3    H212112   4.725   0.819   5.453 -1.0920 -0.7957  1.1744
 4050TIP3   OH212113   3.569   3.970   1.443 -0.4284 -0.2854 -0.2861
 4050TIP3    H112114   3.569   3.899   1.508 -2.2713 -1.1269 -1.1285
 4050TIP3    H212115   3.587   4.049   1.494 -0.4423 -1.0900  1.0124
 4051TIP3   OH212116   2.221   1.193   0.436  0.0414 -0.2811 -0.1366
 4051TIP3    H112117   2.127   1.188   0.415 -0.1692  1.0696  0.3124
 4051TIP3    H212118   2.252   1.103   0.433 -0.7695 -0.5508 -2.4863
 4052TIP3   OH212119   4.614   4.869   3.364  0.1876 -0.0056  0.0863
 4052TIP3    H112120   4.591   4.777   3.350 -1.7551  0.3266  0.7844
 4052TIP3    H212121   4.681   4.887   3.299  0.8331 -1.9890  0.1337
 4053TIP3   OH212122   4.961   3.213   4.239 -0.0110 -0.0375  0.2751
 4053TIP3    H112123   5.054   3.203   4.257  0.4907  2.0146 -0.7988
 4053TIP3    H212124   4.919   3.216   4.325  1.0225 -0.1011  0.7893
 4054TIP3   OH212125   0.871   1.571   3.930  0.5241  0.0900  0.0391
 4054TIP3    H112126   0.786   1.527   3.920  0.1694  0.9760 -0.9904
 4054TIP3    H212127   0.866   1.611   4.018 -0.0231 -0.0948  0.0991
 4055TIP3   OH212128   6.639   3.394   5.778 -0.1310  0.0272  0.5994
 4055TIP3    H112129   6.618   3.331   5.846 -0.0989  0.7634  1.3103
 4055TIP3    H212130   6.733   3.411   5.789  0.5137 -1.8122 -1.3314
 4056TIP3   OH212131   5.017   6.575   3.422 -0.1363 -0.1821  0.3297
 4056TIP3    H112132   5.053   6.561   3.334 -0.9332  1.1536 -0.2400
 4056TIP3    H212133   4.995   6.668   3.424 -1.5634 -0.5131  1.4109
 4057TIP3   OH212134   0.899   2.720   3.453  0.0180 -0.0761 -0.2534
 4057TIP3    H112135   0.817   2.734   3.406 -0.6147  0.2948  0.8953
 4057TIP3    H212136   0.929   2.808   3.476 -0.3000 -0.2599  0.9829
 4058TIP3   OH212137   2.316   5.626   3.581  0.0495  0.4748 -0.0373
 4058TIP3    H112138   2.256   5.694   3.613 -1.4526 -1.1702  0.8269
 4058TIP3    H212139   2.279   5.600   3.497 -0.1836 -0.2052  0.2690
 4059TIP3   OH212140   6.121   0.086   2.078  0.4881  0.4871  0.3495
 4059TIP3    H112141   6.179   0.117   2.008  1.6334  1.6900  1.7608
 4059TIP3    H212142   6.106   0.163   2.133 -0.1222 -0.4756  1.5976
 4060TIP3   OH212143   3.081   3.322   4.428 -0.9553 -0.4243 -0.0425
 4060TIP3    H112144   2.989   3.316   4.453 -1.0922 -0.7775 -0.6115
 4060TIP3    H212145   3.080   3.316   4.332 -0.4628  1.1955 -0.1734
 4061TIP3   OH212146   3.021   2.828   0.780 -0.2268  0.6302  0.1176
 4061TIP3    H112147   3.105   2.783   0.775 -0.0689  0.9273  0.0786
 4061TIP3    H212148   3.022   2.871   0.866 -0.0203  1.2596 -0.1984
 4062TIP3   OH212149   1.165   5.841   2.366 -0.8795 -0.7226 -0.3212
 4062TIP3    H112150   1.084   5.790   2.357 -1.4090  0.1189 -0.4484
 4062TIP3    H212151   1.214   5.822   2.286 -0.4361 -2.1081  0.2596
 4063TIP3   OH212152   5.987   1.378   0.327 -0.4803  0.1341  0.3984
 4063TIP3    H112153   5.892   1.384   0.330 -0.4358  0.8089  0.6246
 4063TIP3    H212154   6.015   1.456   0.279  0.0645  0.9900  2.0644
 4064TIP3   OH212155   0.668   0.781   4.806 -0.2358  0.0651 -0.0852
 4064TIP3    H112156   0.650   0.767   4.898  0.3292  0.7466  0.1406
 4064TIP3    H212157   0.747   0.836   4.805 -1.0452  1.2525 -0.9442
 4065TIP3   OH212158   1.391   1.698   5.218  0.5565 -0.3780  0.0819
 4065TIP3    H112159   1.335   1.774   5.204 -1.1354 -1.2842  1.5543
 4065TIP3    H212160   1.423   1.675   5.131  0.2011  1.3152 -0.5369
 4066TIP3   OH212161   2.234   2.024   1.076  0.4182 -0.2278  0.0348
 4066TIP3    H112162   2.330   2.028   1.071  0.5235 -1.9034 -0.0813
 4066TIP3    H212163   2.204   2.036   0.986  0.5312  0.1558  0.0492
 4067TIP3   OH212164   4.153   0.895   0.979 -0.1916  0.4938  0.0342
 4067TIP3    H112165   4.203   0.931   0.906  2.2916 -0.3883  1.1578
 4067TIP3    H212166   4.145   0.802   0.959  0.4387  0.2594  0.7899
 4068TIP3   OH212167   5.913   0.899   4.642  0.1794  0.4014  0.3887
 4068TIP3    H112168   5.990   0.867   4.595 -0.4176  3.1738 -2.8325
 4068TIP3    H212169   5.940   0.983   4.678 -0.6766  0.2833  1.3664
 4069TIP3   OH212170   3.202   3.385   1.879  0.2705  0.3435 -0.6503
 4069TIP3    H112171   3.208   3.331   1.799  0.4633  0.9336 -1.0420
 4069TIP3    H212172   3.111   3.378   1.906  0.1668  0.2547 -1.0131
 4070TIP3   OH212173   0.970   1.384   2.161  0.5293 -0.7262 -0.9170
 4070TIP3    H112174   1.001   1.450   2.223 -0.8976 -2.1186  1.4550
 4070TIP3    H212175   0.995   1.301   2.201 -3.8278 -1.8703 -0.0419
 4071TIP3   OH212176   0.470   3.737   3.104  0.1222 -0.3969 -0.3231
 4071TIP3    H112177   0.463   3.653   3.059  0.4244 -1.2443  1.1473
 4071TIP3    H212178   0.487   3.714   3.196 -1.8819  1.1940  0.5423
 4072TIP3   OH212179   3.605   0.611   4.489  0.3477  0.0690  0.4141
 4072TIP3    H112180   3.681   0.590   4.435 -0.3883 -0.1580 -0.5628
 4072TIP3    H212181   3.557   0.528   4.496 -0.7473  0.5972 -0.5108
 4073TIP3   OH212182   1.374   4.845   5.305  0.2664 -0.0217  0.1242
 4073TIP3    H112183   1.420   4.775   5.257  1.7851  0.8794  0.1953
 4073TIP3    H212184   1.346   4.906   5.236  1.8202  0.9096  0.2593
 4074TIP3   OH212185   5.331   5.854   3.738  0.2057  0.0869 -0.7634
 4074TIP3    H112186   5.345   5.846   3.643 -0.6253  0.5260 -0.9233
 4074TIP3    H212187   5.406   5.905   3.769  1.3413 -1.4016 -0.9271
 4075TIP3   OH212188   5.793   6.735   5.812  0.0450 -0.1081  0.2215
 4075TIP3    H112189   5.807   6.656   5.760  0.8140 -0.2362  0.6041
 4075TIP3    H212190   5.701   6.757   5.798  0.0397 -0.5885 -0.5546
 4076TIP3   OH212191   1.625   3.899   1.146  0.0224  0.2824 -0.0730
 4076TIP3    H112192   1.657   3.809   1.142 -0.7389 -0.1278  2.0801
 4076TIP3    H212193   1.613   3.923   1.054 -1.5734 -2.4853 -0.7222
 4077TIP3   OH212194   4.756   2.508   0.389 -0.4522 -0.1630  0.5404
 4077TIP3    H112195   4.741   2.485   0.297  0.4025  0.2850  0.2793
 4077TIP3    H212196   4.749   2.603   0.392 -2.1633 -0.2678  1.2782
 4078TIP3   OH212197   1.514   5.782   0.450  0.1964  0.1669  0.7198
 4078TIP3    H112198   1.497   5.871   0.419  0.4146  0.2455  0.8215
 4078TIP3    H212199   1.456   5.726   0.397  2.5634 -0.0142 -1.9076
 4079TIP3   OH212200   4.409   6.276   4.724  0.0908 -0.5227  0.1208
 4079TIP3    H112201   4.317   6.291   4.702  0.2083 -0.5784 -0.4026
 4079TIP3    H212202   4.422   6.326   4.805 -0.9362 -2.1517  1.3468
 4080TIP3   OH212203   5.273   1.951   0.924  0.2350 -0.6697 -0.4867
 4080TIP3    H112204   5.344   1.998   0.880  0.9016  0.9583  2.0931
 4080TIP3    H212205   5.194   1.974   0.876  1.0644 -0.0858 -1.6123
 4081TIP3   OH212206   3.105   3.562   2.286 -0.0326 -0.5013  0.2943
 4081TIP3    H112207   3.200   3.575   2.290  0.5310 -3.8657  0.8462
 4081TIP3    H212208   3.073   3.595   2.370  0.7532 -0.1222  0.4601
 4082TIP3   OH212209   1.272   4.436   0.125 -0.7700  0.2719  0.2926
 4082TIP3    H112210   1.201   4.424   0.188  0.1316 -2.2720  0.9252
 4082TIP3    H212211   1.230   4.430   0.040 -1.4513 -0.3899  0.6617
 4083TIP3   OH212212   4.971   1.475   3.318 -0.4394 -0.1828 -0.0981
 4083TIP3    H112213   4.899   1.450   3.377  0.8404  0.8701  2.0440
 4083TIP3    H212214   4.981   1.569   3.333  2.0903 -0.4928  0.5170
 4084TIP3   OH212215   4.094   1.939   1.347 -0.0977  0.0438  0.1485
 4084TIP3    H112216   4.092   1.846   1.370  0.4351  0.1622  0.7211
 4084TIP3    H212217   4.092   1.940   1.252  2.0263 -0.6546  0.0248
 4085TIP3   OH212218   5.451   5.619   0.473  0.0685  0.1876  0.5259
 4085TIP3    H112219   5.491   5.534   0.488 -1.7900 -0.8961 -0.3843
 4085TIP3    H212220   5.402   5.638   0.553 -1.0837 -0.5318  0.0101
 4086TIP3   OH212221   4.725   4.953   2.029  0.0218 -0.4407  0.2586
 4086TIP3    H112222   4.720   5.024   2.094 -2.4252  0.0117 -0.3398
 4086TIP3    H212223   4.791   4.983   1.966 -0.9962  1.3885 -0.0099
 4087TIP3   OH212224   3.683   2.605   0.160  0.7985 -0.2028  0.7117
 4087TIP3    H112225   3.723   2.568   0.239 -0.4848 -1.2224  0.9190
 4087TIP3    H212226   3.589   2.586   0.169  0.2181  2.1167  0.2629
 4088TIP3   OH212227   3.995   6.601   0.878  0.0705 -0.6273  0.6576
 4088TIP3    H112228   4.018   6.687   0.845  0.1509 -0.5873  0.8187
 4088TIP3    H212229   3.933   6.617   0.949 -2.4647 -0.8171 -1.3724
 4089TIP3   OH212230   1.428   4.876   4.903  0.1079 -0.0702 -0.5474
 4089TIP3    H112231   1.383   4.829   4.972 -0.2370  0.1700 -0.6077
 4089TIP3    H212232   1.407   4.827   4.823  0.0181 -0.0029 -0.5649
 4090TIP3   OH212233   2.089   2.920   1.294  0.6484 -0.8291  0.3052
 4090TIP3    H112234   2.048   2.842   1.332 -1.2919 -0.3990 -0.7462
 4090TIP3    H212235   2.183   2.905   1.302  0.3142 -2.3796  1.8810
 4091TIP3   OH212236   4.952   0.679   3.331 -0.1859 -0.5059 -0.0271
 4091TIP3    H112237   5.046   0.662   3.343  0.1427  1.5477  0.8895
 4091TIP3    H212238   4.947   0.726   3.248 -0.2971 -0.0010  0.2612
 4092TIP3   OH212239   3.875   1.211   0.601  0.6514 -0.5924  0.2991
 4092TIP3    H112240   3.929   1.132   0.611  0.0974 -0.7428  2.5941
 4092TIP3    H212241   3.879   1.253   0.687  0.3645  1.5372 -0.6793
 4093TIP3   OH212242   5.718   2.271   3.431  0.1856  0.4082  0.3612
 4093TIP3    H112243   5.789   2.240   3.375  1.2100  2.1099  0.6548
 4093TIP3    H212244   5.720   2.366   3.422 -0.9608  0.5927  1.7124
 4094TIP3   OH212245   2.746   3.216   0.188  0.3760  0.1615 -0.2190
 4094TIP3    H112246   2.695   3.284   0.233  0.9557  1.7266 -1.7877
 4094TIP3    H212247   2.831   3.256   0.172  0.4217 -0.5468 -2.0441
 4095TIP3   OH212248   3.093   0.223   2.102 -0.2405 -0.1155  0.0660
 4095TIP3    H112249   3.103   0.265   2.016  1.3845  1.0777  0.7799
 4095TIP3    H212250   3.007   0.181   2.098 -0.4445  0.3631 -1.9428
 4096TIP3   OH212251   4.986   4.495   3.461  0.2220 -0.0198 -0.5164
 4096TIP3    H112252   4.981   4.588   3.481 -0.0370 -0.6431  2.9115
 4096TIP3    H212253   4.921   4.482   3.392 -1.7976  1.9168  0.8837
 4097TIP3   OH212254   0.843   3.954   3.839  0.4259  0.5185 -0.4981
 4097TIP3    H112255   0.791   3.880   3.809  1.5071 -1.3963  1.9391
 4097TIP3    H212256   0.933   3.932   3.815  0.7361  1.1717  0.0248
 4098TIP3   OH212257   4.641   5.321   3.474  0.4391  0.1133  0.1697
 4098TIP3    H112258   4.590   5.388   3.520 -1.1689  1.1587 -2.8337
 4098TIP3    H212259   4.602   5.238   3.500  0.0398  0.5978  1.1741
 4099TIP3   OH212260   6.337   5.907   2.223 -0.6380  0.6040 -0.0154
 4099TIP3    H112261   6.339   5.812   2.221 -0.4131  0.6007  0.3091
 4099TIP3    H212262   6.345   5.930   2.316  0.1068  0.9515 -0.1602
 4100TIP3   OH212263   6.309   2.427   4.238 -0.0667 -0.1869 -0.0075
 4100TIP3    H112264   6.297   2.522   4.246 -1.2589 -0.4782  2.7436
 4100TIP3    H212265   6.284   2.408   4.147  2.6618  2.3737 -1.4871
 4101TIP3   OH212266   5.553   6.126   0.306  0.4988  0.2136  0.1831
 4101TIP3    H112267   5.586   6.192   0.367  2.1304 -0.2588 -0.1506
 4101TIP3    H212268   5.602   6.047   0.327 -1.4441 -0.9583  0.6065
 4102TIP3   OH212269   4.476   5.477   5.403  0.3228 -0.3421 -0.6116
 4102TIP3    H112270   4.425   5.434   5.472 -1.5746 -0.0348 -1.7447
 4102TIP3    H212271   4.522   5.405   5.360  0.4561 -0.7068  0.1301
 4103TIP3   OH212272   6.161   2.176   3.497  0.2297 -0.5590  0.1493
 4103TIP3    H112273   6.175   2.114   3.569  1.5085  0.2543  0.6287
 4103TIP3    H212274   6.080   2.222   3.520 -0.2985 -1.4882  0.1830
 4104TIP3   OH212275   3.188   1.482   2.195 -0.1516 -0.2608  0.2451
 4104TIP3    H112276   3.133   1.512   2.122 -0.6225  0.5414  0.9178
 4104TIP3    H212277   3.275   1.516   2.174 -0.0617 -0.8762 -0.4321
 4105TIP3   OH212278   0.590   4.600   4.842  0.3143  0.0735 -0.1190
 4105TIP3    H112279   0.577   4.540   4.915  2.8549 -0.6539 -0.1714
 4105TIP3    H212280   0.509   4.595   4.791 -1.1808 -0.0288  2.1631
 4106TIP3   OH212281   6.887   2.929   3.856 -0.6599 -0.1244  0.1269
 4106TIP3    H112282   6.963   2.877   3.830 -0.6060 -1.6510  2.9537
 4106TIP3    H212283   6.816   2.866   3.865 -2.2971  1.2259 -2.1160
 4107TIP3   OH212284   0.238   1.847   3.967 -0.5243 -0.2855 -0.4009
 4107TIP3    H112285   0.243   1.795   4.047  1.9953 -0.0360 -0.3101
 4107TIP3    H212286   0.163   1.905   3.981 -1.6707 -1.9447  0.6616
 4108TIP3   OH212287   3.731   2.759   4.909 -0.1392 -0.0686 -0.0155
 4108TIP3    H112288   3.789   2.813   4.964  1.8501 -0.8396 -1.2556
 4108TIP3    H212289   3.736   2.672   4.947 -1.3671  0.0578  0.4845
 4109TIP3   OH212290   5.952   2.490   3.091 -0.1416 -0.1748  0.0577
 4109TIP3    H112291   6.047   2.478   3.090 -0.1783 -0.4912 -0.8104
 4109TIP3    H212292   5.938   2.568   3.037 -0.3866 -0.2032  0.0797
 4110TIP3   OH212293   2.354   5.991   0.306  0.4026 -0.4761 -0.2850
 4110TIP3    H112294   2.447   5.981   0.286  0.4272 -0.7834 -0.0324
 4110TIP3    H212295   2.310   5.924   0.254  0.2916 -0.1346 -0.6318
 4111TIP3   OH212296   6.452   0.879   3.330 -0.7077  0.2624  0.1412
 4111TIP3    H112297   6.370   0.919   3.356 -1.9927 -1.6823 -0.6687
 4111TIP3    H212298   6.504   0.951   3.294 -2.5854  1.3445 -0.5598
 4112TIP3   OH212299   5.947   3.558   1.714 -0.1994  0.4597 -0.1113
 4112TIP3    H112300   5.912   3.614   1.783 -0.4746 -1.0434  1.0346
 4112TIP3    H212301   5.894   3.577   1.637 -2.2432 -0.2946  1.0366
 4113TIP3   OH212302   0.090   4.201   3.095 -0.1538 -0.1159 -0.1673
 4113TIP3    H112303   0.032   4.128   3.117 -1.3487  0.4251 -1.3626
 4113TIP3    H212304   0.147   4.166   3.027 -0.6195 -0.0059 -0.6248
 4114TIP3   OH212305   3.812   1.363   4.274  0.5976  0.1155 -0.2310
 4114TIP3    H112306   3.848   1.409   4.198  0.7287 -1.2017 -0.9949
 4114TIP3    H212307   3.885   1.312   4.308  0.1431 -0.4792 -0.1429
 4115TIP3   OH212308   6.627   6.046   2.192 -0.0207 -0.5800 -0.3692
 4115TIP3    H112309   6.560   6.065   2.257 -0.3989  0.3770 -1.0171
 4115TIP3    H212310   6.705   6.092   2.223  0.4279 -1.8617  0.4927
 4116TIP3   OH212311   7.154   0.670   4.749  0.2677  0.2539  0.1743
 4116TIP3    H112312   7.065   0.666   4.712  0.8931  0.2312 -1.3961
 4116TIP3    H212313   7.144   0.634   4.838 -1.2337 -0.0278 -0.0721
 4117TIP3   OH212314   5.111   3.735   2.520 -0.3503  0.1950 -0.2787
 4117TIP3    H112315   5.029   3.711   2.564  0.1527  2.0412  1.8548
 4117TIP3    H212316   5.097   3.824   2.489  0.5099  0.1461 -0.8399
 4118TIP3   OH212317   2.070   1.346   2.401  0.4077 -0.0197  0.2576
 4118TIP3    H112318   2.091   1.379   2.313  1.3645  1.9134  1.1696
 4118TIP3    H212319   2.126   1.269   2.411 -0.3681 -0.8201 -1.1233
 4119TIP3   OH212320   2.522   6.441   5.460  0.3245 -0.3678  0.2442
 4119TIP3    H112321   2.610   6.404   5.465  0.6189  0.2989  0.1444
 4119TIP3    H212322   2.463   6.366   5.466  0.9186 -0.9465 -1.0164
 4120TIP3   OH212323   4.480   5.855   4.789 -0.3727 -0.3689 -0.2310
 4120TIP3    H112324   4.565   5.839   4.829  0.4448  1.4867 -1.0728
 4120TIP3    H212325   4.444   5.930   4.837 -0.5959  0.1459 -1.1652
 4121TIP3   OH212326   7.178   1.060   0.057 -0.5731  0.3315  0.2661
 4121TIP3    H112327   7.270   1.084   0.050 -0.2563 -0.8697  0.0496
 4121TIP3    H212328   7.136   1.104  -0.017  0.3471 -1.3135 -1.3383
 4122TIP3   OH212329   6.462   3.879   4.037 -0.1038 -0.2990 -0.0759
 4122TIP3    H112330   6.489   3.970   4.049  2.4414 -1.2159  2.0316
 4122TIP3    H212331   6.460   3.867   3.942 -3.0660  2.5560 -0.5381
 4123TIP3   OH212332   7.198   6.747   3.242 -0.3559  0.1106 -0.1313
 4123TIP3    H112333   7.182   6.669   3.296  0.8765  0.1882  0.3884
 4123TIP3    H212334   7.113   6.768   3.204 -0.3543 -2.7705 -2.0240
 4124TIP3   OH212335   4.583   2.705   0.583 -0.1102  0.1074 -0.6897
 4124TIP3    H112336   4.524   2.755   0.525 -1.0350 -1.0597 -0.8000
 4124TIP3    H212337   4.527   2.638   0.621  0.9444 -0.3803  0.0369
 4125TIP3   OH212338   6.834   3.205   3.533  0.2957  0.2006  0.3041
 4125TIP3    H112339   6.885   3.132   3.567  2.2131  0.2391 -2.1762
 4125TIP3    H212340   6.837   3.194   3.438 -4.3572  0.2938 -0.0923
 4126TIP3   OH212341   4.824   4.839   0.803  0.0890 -0.3467  0.2889
 4126TIP3    H112342   4.744   4.789   0.788 -0.3608  0.8007 -1.4466
 4126TIP3    H212343   4.802   4.928   0.776  1.9677 -0.0264 -0.3210
 4127TIP3   OH212344   3.805   4.841   1.582  1.0058 -0.3536  0.7222
 4127TIP3    H112345   3.854   4.782   1.639  0.2108 -2.2626 -0.4711
 4127TIP3    H212346   3.782   4.915   1.638 -0.5973 -2.5502  3.2160
 4128TIP3   OH212347   2.322   1.037   0.738  0.0973  0.3847 -0.0930
 4128TIP3    H112348   2.229   1.021   0.720  0.0709  1.7338 -1.2722
 4128TIP3    H212349   2.367   1.014   0.657  0.6761  0.7239  0.1226
 4129TIP3   OH212350   5.503   2.035   2.535 -0.1827  0.2400  0.5333
 4129TIP3    H112351   5.469   2.124   2.540 -2.5488 -0.3788 -1.9803
 4129TIP3    H212352   5.481   2.006   2.446  1.6832 -2.4173  0.8177
 4130TIP3   OH212353   0.770   4.579   5.519 -0.0546 -0.3667 -0.5258
 4130TIP3    H112354   0.810   4.661   5.549  1.0753 -1.0033 -0.2296
 4130TIP3    H212355   0.720   4.604   5.442  0.9895  0.4595 -0.9584
 4131TIP3   OH212356   2.362   6.427   4.203 -0.2765  0.0368 -0.0044
 4131TIP3    H112357   2.429   6.389   4.145 -0.0143 -1.7148  1.3681
 4131TIP3    H212358   2.286   6.441   4.146 -0.1525 -1.9884 -0.7401
 4132TIP3   OH212359   5.311   6.063   0.576 -0.4600 -0.1543  0.2146
 4132TIP3    H112360   5.400   6.099   0.577 -1.0942  1.5147 -0.0059
 4132TIP3    H212361   5.324   5.969   0.567  1.2757  0.1877 -1.7729
 4133TIP3   OH212362   6.812   1.405   1.003 -0.5027 -0.1225  0.1017
 4133TIP3    H112363   6.726   1.391   0.964 -0.7893  0.9656  0.3097
 4133TIP3    H212364   6.830   1.324   1.050 -0.4814 -1.1823 -1.6300
 4134TIP3   OH212365   2.313   2.471   1.751 -0.0317 -0.4743  0.6317
 4134TIP3    H112366   2.375   2.439   1.686  1.7519  0.7345  1.6356
 4134TIP3    H212367   2.306   2.400   1.815 -1.1502 -1.3364 -0.4130
 4135TIP3   OH212368   2.645   0.512   2.042  0.3544  0.5375  0.1674
 4135TIP3    H112369   2.721   0.467   2.006  0.4778  0.2474  0.7950
 4135TIP3    H212370   2.670   0.605   2.043  0.8504  0.4021  0.7430
 4136TIP3   OH212371   6.939   0.860   1.581  0.2053 -0.1250  0.2881
 4136TIP3    H112372   6.968   0.921   1.513 -0.4700  1.5275  1.4209
 4136TIP3    H212373   7.019   0.834   1.625  0.8647 -2.4486 -2.0132
 4137TIP3   OH212374   3.134   6.220   5.683  0.2677 -0.4172  0.4555
 4137TIP3    H112375   3.090   6.296   5.720 -2.5222 -2.1661  1.0652
 4137TIP3    H212376   3.119   6.150   5.746  2.5822 -1.5632 -0.1565
 4138TIP3   OH212377   4.937   4.567   5.749 -0.1510 -0.1427 -0.2672
 4138TIP3    H112378   4.921   4.528   5.834  0.7503  0.3069  0.1231
 4138TIP3    H212379   4.937   4.494   5.687  0.9481 -0.7085  0.3706
 4139TIP3   OH212380   0.389   6.029   0.488 -0.2444  0.4522 -0.0700
 4139TIP3    H112381   0.480   6.010   0.464  0.8240  1.3278  2.8776
 4139TIP3    H212382   0.379   6.123   0.473  0.3274  0.9415  2.2385
 4140TIP3   OH212383   3.899   3.693   5.747 -0.1493 -0.1290 -0.3722
 4140TIP3    H112384   3.924   3.630   5.815  1.4446 -0.3929 -1.1432
 4140TIP3    H212385   3.827   3.651   5.700 -0.0970 -0.7259  0.0674
 4141TIP3   OH212386   5.198   4.942   2.039  0.1212 -0.0338 -0.9765
 4141TIP3    H112387   5.288   4.922   2.065 -0.0396  0.3612 -0.0821
 4141TIP3    H212388   5.149   4.863   2.062 -0.3153  0.8757  1.5356
 4142TIP3   OH212389   6.568   4.058   0.063  0.1757 -0.2307 -0.9595
 4142TIP3    H112390   6.548   4.136   0.012  0.3344 -0.7067 -1.7639
 4142TIP3    H212391   6.484   4.012   0.071  0.2341 -0.3792 -1.1816
 4143TIP3   OH212392   3.663   0.262   1.349  0.3490 -0.5229  0.0720
 4143TIP3    H112393   3.737   0.317   1.374 -0.5993  0.5212  0.7407
 4143TIP3    H212394   3.587   0.309   1.384 -0.5448 -2.0388  0.2355
 4144TIP3   OH212395   3.574   4.236   1.570  0.0631  0.3471 -0.0291
 4144TIP3    H112396   3.586   4.191   1.654  1.0151  1.3789  0.4172
 4144TIP3    H212397   3.510   4.305   1.589 -0.6484 -0.1728 -0.4704
 4145TIP3   OH212398   5.071   4.229   5.007  0.2840  0.6136  0.0672
 4145TIP3    H112399   5.067   4.223   5.102  0.7436 -1.4154  0.0010
 4145TIP3    H212400   5.103   4.318   4.990 -0.6509  1.3201  1.7487
 4146TIP3   OH212401   2.707   6.527   5.195  0.3524  0.3888 -0.2804
 4146TIP3    H112402   2.665   6.468   5.133 -3.3344  1.2121  1.1793
 4146TIP3    H212403   2.758   6.469   5.253  0.1332 -0.8593 -1.3013
 4147TIP3   OH212404   1.830   6.406   3.687 -0.1210 -0.0837 -0.3724
 4147TIP3    H112405   1.840   6.355   3.606 -1.7269  0.1199 -0.7270
 4147TIP3    H212406   1.907   6.464   3.688  1.5031 -2.1416 -0.1777
 4148TIP3   OH212407   6.975   4.876   3.375 -0.1128  0.4969 -0.2682
 4148TIP3    H112408   6.909   4.813   3.405  0.9866 -0.1215  0.9507
 4148TIP3    H212409   6.943   4.905   3.290 -1.8785  0.1096  0.2175
 4149TIP3   OH212410   6.766   5.621   5.491  0.2643  0.3671 -0.6401
 4149TIP3    H112411   6.710   5.585   5.422 -0.8547 -0.1267  0.4969
 4149TIP3    H212412   6.840   5.560   5.495  0.9733  1.0617 -2.1969
 4150TIP3   OH212413   6.857   2.683   4.102 -0.3967  0.1211  0.6917
 4150TIP3    H112414   6.792   2.724   4.045  0.3643  1.3818  0.7018
 4150TIP3    H212415   6.859   2.592   4.074  1.4784  1.0712 -2.8385
 4151TIP3   OH212416   5.188   1.220   3.587  0.4184  0.3825  0.1115
 4151TIP3    H112417   5.237   1.201   3.507 -2.1468  0.8415 -1.7257
 4151TIP3    H212418   5.135   1.297   3.565 -1.9978 -0.7736  1.4320
 4152TIP3   OH212419   4.197   1.059   4.744 -0.3039 -0.5296  0.2134
 4152TIP3    H112420   4.177   0.969   4.717 -0.1338 -0.3359 -0.6107
 4152TIP3    H212421   4.247   1.050   4.825  1.1895 -1.2808 -0.7292
 4153TIP3   OH212422   3.392   2.766   5.524 -1.0715  1.0630 -0.1455
 4153TIP3    H112423   3.358   2.680   5.548  1.9767 -0.5919 -1.1438
 4153TIP3    H212424   3.444   2.794   5.600  2.2434 -0.5937 -1.5759
 4154TIP3   OH212425   1.786   5.473   0.558  0.0512 -0.5405  0.7052
 4154TIP3    H112426   1.829   5.453   0.641 -1.0682  0.0718  1.4691
 4154TIP3    H212427   1.703   5.426   0.562  0.0294 -0.5869 -0.1233
 4155TIP3   OH212428   2.877   3.916   2.601  0.5842  0.3899 -0.1655
 4155TIP3    H112429   2.897   3.972   2.676  2.0949 -0.3221 -0.0160
 4155TIP3    H212430   2.825   3.972   2.543 -0.7137  0.9183  1.4385
 4156TIP3   OH212431   6.533   4.208   4.936 -0.4225  0.5798 -0.2201
 4156TIP3    H112432   6.471   4.244   5.000 -1.2393  1.3276 -1.3974
 4156TIP3    H212433   6.592   4.280   4.916  1.3472 -0.3359  1.4385
 4157TIP3   OH212434   3.832   2.987   3.012 -0.5268  0.2363 -0.7864
 4157TIP3    H112435   3.867   3.076   3.005 -1.9021  0.9839  1.0628
 4157TIP3    H212436   3.759   2.994   3.074  0.1545 -2.4075  0.5004
 4158TIP3   OH212437   5.648   4.298   1.743 -0.4577  0.0203  0.2549
 4158TIP3    H112438   5.667   4.303   1.649  1.3855 -0.5818  0.5611
 4158TIP3    H212439   5.577   4.362   1.756 -0.6387  0.2400 -1.4993
 4159TIP3   OH212440   7.087   3.840   1.486  0.3785 -0.5817 -0.2754
 4159TIP3    H112441   7.011   3.807   1.438 -0.5495 -0.7462  1.2111
 4159TIP3    H212442   7.061   3.833   1.578  2.1636 -0.5301  0.2730
 4160TIP3   OH212443   6.307   5.466   4.572  0.6474  0.2263 -0.3197
 4160TIP3    H112444   6.345   5.540   4.619 -0.3077  1.8178 -1.9142
 4160TIP3    H212445   6.266   5.413   4.640  2.4805  0.4081  1.0068
 4161TIP3   OH212446   2.421   4.929   3.222  0.5802 -0.1030  0.2261
 4161TIP3    H112447   2.469   4.960   3.146  0.9838 -0.6043  0.2690
 4161TIP3    H212448   2.426   4.833   3.216 -1.5278 -0.2402 -0.4896
 4162TIP3   OH212449   2.764   6.660   3.653 -0.4808  0.8562 -0.4119
 4162TIP3    H112450   2.799   6.729   3.709 -1.2590  0.2343  0.8835
 4162TIP3    H212451   2.681   6.635   3.693 -0.6368 -0.2426 -1.3412
 4163TIP3   OH212452   0.653   0.676   5.078  0.3308 -0.0546 -0.2821
 4163TIP3    H112453   0.747   0.666   5.094  0.1747  0.2866  0.9856
 4163TIP3    H212454   0.637   0.770   5.082 -0.4839 -0.2116  2.4698
 4164TIP3   OH212455   0.300   6.500   0.748  0.7111  0.1586 -0.0262
 4164TIP3    H112456   0.274   6.571   0.690  0.7598 -1.5466 -2.2389
 4164TIP3    H212457   0.366   6.540   0.806 -0.3411  2.2533 -0.1829
 4165TIP3   OH212458   3.368   6.120   5.257 -0.9987  0.6143 -0.6744
 4165TIP3    H112459   3.330   6.162   5.334 -0.9840 -0.1696 -0.2259
 4165TIP3    H212460   3.349   6.027   5.269 -0.7191  0.4463 -1.4653
 4166TIP3   OH212461   0.051   1.522   2.706  0.0270  0.5278  0.1595
 4166TIP3    H112462   0.075   1.511   2.797 -0.4456 -0.7198  0.1553
 4166TIP3    H212463   0.104   1.596   2.675 -0.4179  1.5016  1.6458
 4167TIP3   OH212464   2.537   4.543   3.589 -0.0227  0.4619 -0.0615
 4167TIP3    H112465   2.520   4.635   3.568 -1.9909  0.2702  0.4999
 4167TIP3    H212466   2.520   4.536   3.683 -0.0894 -0.5252 -0.1318
 4168TIP3   OH212467   6.587   3.155   0.182 -0.0623  0.5124 -0.2934
 4168TIP3    H112468   6.513   3.107   0.220 -0.3621  0.6702 -0.6707
 4168TIP3    H212469   6.589   3.238   0.230 -1.4102  1.3769 -1.6131
 4169TIP3   OH212470   1.257   4.491   4.083  0.3266  0.0585  0.3249
 4169TIP3    H112471   1.188   4.453   4.029  1.0660 -0.9119  0.0279
 4169TIP3    H212472   1.285   4.569   4.035 -0.2361  0.1903  0.2090
 4170TIP3   OH212473   3.078   4.358   0.760  0.5174  0.3345  0.7825
 4170TIP3    H112474   3.065   4.358   0.855  1.9839  0.3835  1.0178
 4170TIP3    H212475   3.160   4.309   0.747  0.6036  0.7549 -0.4139
 4171TIP3   OH212476   5.764   5.712   1.868 -0.2127  0.0144  0.5582
 4171TIP3    H112477   5.800   5.639   1.918 -0.3828 -1.0186 -0.7583
 4171TIP3    H212478   5.840   5.759   1.835 -0.1031  0.0520  0.8579
 4172TIP3   OH212479   2.028   3.257   4.759  0.0266 -0.1475  0.0190
 4172TIP3    H112480   1.953   3.316   4.748  0.7633  1.2510  2.0526
 4172TIP3    H212481   1.998   3.191   4.821 -0.0515 -0.6000 -0.4917
 4173TIP3   OH212482   1.305   1.082   2.048 -0.0949  0.2298 -0.6829
 4173TIP3    H112483   1.233   1.022   2.069  0.2341 -0.3666 -1.2256
 4173TIP3    H212484   1.261   1.160   2.013 -0.5779  0.7330  0.9738
 4174TIP3   OH212485   2.749   5.419   3.327 -0.4303 -0.3938 -0.6666
 4174TIP3    H112486   2.784   5.484   3.267  0.3690  0.5834  0.8290
 4174TIP3    H212487   2.717   5.469   3.402 -1.6507 -1.5650 -0.3603
 4175TIP3   OH212488   6.556   0.359   1.362 -0.4211 -1.0156 -0.3970
 4175TIP3    H112489   6.622   0.302   1.322  1.2381 -0.5393  1.4847
 4175TIP3    H212490   6.548   0.326   1.452 -2.5274 -0.8205 -0.4563
 4176TIP3   OH212491   7.046   6.108   4.609 -1.0670 -0.0123  0.3135
 4176TIP3    H112492   6.985   6.161   4.558 -0.2925  1.6525  1.0390
 4176TIP3    H212493   7.023   6.127   4.700 -0.3897 -0.4611  0.5851
 4177TIP3   OH212494   2.195   0.660   4.840 -0.3574 -0.5634  0.4052
 4177TIP3    H112495   2.262   0.673   4.774 -0.3227 -1.3873  0.2684
 4177TIP3    H212496   2.241   0.666   4.923  0.1887 -2.5661  0.2976
 4178TIP3   OH212497   1.351   4.106   2.276  0.6330 -0.4383 -0.3681
 4178TIP3    H112498   1.295   4.094   2.353 -0.5736 -3.2823 -1.5486
 4178TIP3    H212499   1.352   4.201   2.262 -4.6843 -0.1283 -0.7350
 4179TIP3   OH212500   1.474   2.610   2.578 -0.4736 -0.1003  0.0471
 4179TIP3    H112501   1.514   2.679   2.631 -0.6960 -0.7241  1.0488
 4179TIP3    H212502   1.403   2.576   2.632 -0.8287 -0.6298 -0.7343
 4180TIP3   OH212503   1.825   5.728   0.820 -0.4949 -0.1154  0.6379
 4180TIP3    H112504   1.745   5.700   0.775 -0.3530 -0.1529  0.4061
 4180TIP3    H212505   1.795   5.757   0.906 -0.8816  0.7771  0.2133
 4181TIP3   OH212506   5.010   1.801   3.822  0.2166  0.6893 -0.1901
 4181TIP3    H112507   4.934   1.781   3.768  1.1123  0.0064 -1.2270
 4181TIP3    H212508   4.974   1.841   3.901 -1.2136  0.3371 -0.6507
 4182TIP3   OH212509   5.716   4.808   3.261 -0.5009  0.2477  0.1587
 4182TIP3    H112510   5.644   4.872   3.263  0.2350  1.1901 -1.4849
 4182TIP3    H212511   5.672   4.723   3.266 -1.6183  0.8413  0.7917
 4183TIP3   OH212512   0.186   2.725   1.717 -0.4235  0.4874  0.3090
 4183TIP3    H112513   0.163   2.817   1.735  0.4299  0.8280 -0.3034
 4183TIP3    H212514   0.232   2.696   1.796  1.1826  1.2507 -0.3003
 4184TIP3   OH212515   3.711   4.871   5.153 -0.1546  0.2057 -0.2557
 4184TIP3    H112516   3.691   4.788   5.196 -2.0913  1.0940  0.6487
 4184TIP3    H212517   3.677   4.860   5.064  0.7320 -0.3945 -0.5330
 4185TIP3   OH212518   6.815   2.598   3.105  0.0789  0.0530  0.3077
 4185TIP3    H112519   6.792   2.560   3.020 -2.1429  0.1511  0.8093
 4185TIP3    H212520   6.901   2.561   3.125 -1.1817 -3.4065 -0.0392
 4186TIP3   OH212521   4.565   3.418   5.603  0.2967  0.4790 -0.4863
 4186TIP3    H112522   4.605   3.354   5.544 -0.0313  0.4472 -0.6771
 4186TIP3    H212523   4.607   3.403   5.688 -0.9497 -1.1189 -0.1100
 4187TIP3   OH212524   1.489   3.349   2.460 -0.5204  0.4493 -0.3225
 4187TIP3    H112525   1.519   3.432   2.495 -0.5945  0.6649 -0.7644
 4187TIP3    H212526   1.407   3.331   2.507 -0.3261  0.4535  0.0191
 4188TIP3   OH212527   0.307   0.139   4.189  0.6719 -0.5935 -0.5750
 4188TIP3    H112528   0.385   0.102   4.229  0.9802  1.8679  1.3493
 4188TIP3    H212529   0.336   0.173   4.105  1.2240 -1.2974 -0.6755
 4189TIP3   OH212530   3.733   3.408   1.046 -0.5449 -0.1704 -0.1776
 4189TIP3    H112531   3.786   3.349   0.993 -1.8980 -0.5872 -1.1267
 4189TIP3    H212532   3.764   3.495   1.024 -0.5401 -0.3854 -1.0579
 4190TIP3   OH212533   3.650   5.315   0.787  0.2946 -0.8417  0.5199
 4190TIP3    H112534   3.561   5.345   0.805  0.5677  0.4179 -0.1064
 4190TIP3    H212535   3.651   5.299   0.692 -0.2924 -4.5162  0.9782
 4191TIP3   OH212536   5.316   2.964   0.182 -0.1559 -0.0407  0.4675
 4191TIP3    H112537   5.371   2.959   0.104  1.3725 -2.4742  1.5840
 4191TIP3    H212538   5.355   3.032   0.236  0.4838 -0.2993  0.3315
 4192TIP3   OH212539   2.990   2.804   2.649 -0.0275 -0.3582  0.3688
 4192TIP3    H112540   3.060   2.741   2.634  0.3978 -0.1086  1.2554
 4192TIP3    H212541   2.927   2.758   2.705 -0.5711 -0.5655 -0.3846
 4193TIP3   OH212542   2.671   4.942   0.070  0.0621  0.0454  0.0076
 4193TIP3    H112543   2.679   5.034   0.044  1.1670  0.4799  1.7171
 4193TIP3    H212544   2.596   4.940   0.130  1.1015  0.1993  1.3531
 4194TIP3   OH212545   5.532   1.978   3.099  0.0576 -0.0030 -0.0633
 4194TIP3    H112546   5.526   2.021   3.185  1.3257 -0.0663  0.0858
 4194TIP3    H212547   5.467   2.022   3.045  0.7137  1.5449  0.3352
 4195TIP3   OH212548   4.523   4.053   2.279 -0.2884 -0.1221  0.4729
 4195TIP3    H112549   4.490   4.069   2.368 -2.1957 -2.1771  0.2423
 4195TIP3    H212550   4.463   4.101   2.222 -0.0934 -0.1540  0.2380
 4196TIP3   OH212551   3.227   0.687   2.161  0.2467  0.0611 -0.3027
 4196TIP3    H112552   3.266   0.620   2.216  0.0086 -0.9655 -1.3438
 4196TIP3    H212553   3.205   0.759   2.221 -0.6715 -1.2981  1.0621
 4197TIP3   OH212554   5.749   4.499   3.935 -0.2600  0.5381  0.0387
 4197TIP3    H112555   5.655   4.505   3.953 -0.3282  0.4312 -0.2755
 4197TIP3    H212556   5.791   4.510   4.021 -0.5620  0.4843  0.1929
 4198TIP3   OH212557   0.694   0.672   3.263  0.1838  0.1999 -0.8298
 4198TIP3    H112558   0.627   0.740   3.271  0.5498  0.5970 -1.1099
 4198TIP3    H212559   0.766   0.714   3.217  1.2200  0.2283  0.7168
 4199TIP3   OH212560   2.815   0.305   2.369 -0.0370 -0.0033  0.3707
 4199TIP3    H112561   2.740   0.253   2.340 -0.5462  1.2878 -0.7387
 4199TIP3    H212562   2.857   0.252   2.437 -2.0733 -0.6773  1.1709
 4200TIP3   OH212563   5.353   0.674   0.951 -0.1046  0.7319 -0.3406
 4200TIP3    H112564   5.324   0.655   1.040 -0.7174  1.3724 -0.3920
 4200TIP3    H212565   5.447   0.691   0.958  0.4043 -1.7735 -0.2211
 4201TIP3   OH212566   3.388   5.526   0.816 -0.0111  0.0171 -0.0109
 4201TIP3    H112567   3.429   5.607   0.846 -0.3511  1.0497 -2.1992
 4201TIP3    H212568   3.298   5.530   0.850  0.7564 -0.9298  2.3945
 4202TIP3   OH212569   2.162   1.399   3.393 -0.0144  0.5360  0.0395
 4202TIP3    H112570   2.201   1.413   3.307  0.6409 -2.6043 -0.2945
 4202TIP3    H212571   2.214   1.453   3.453  3.4469 -1.6527 -0.7477
 4203TIP3   OH212572   2.850   2.947   5.067 -0.0001  0.5800  0.2165
 4203TIP3    H112573   2.842   3.040   5.046 -1.2144  0.1670 -1.3293
 4203TIP3    H212574   2.786   2.904   5.011  2.6069 -1.5388 -1.3616
 4204TIP3   OH212575   4.266  -0.008   5.575  0.9771 -0.3389  0.0415
 4204TIP3    H112576   4.280   0.018   5.666  0.2404  0.9626 -0.1961
 4204TIP3    H212577   4.286   0.071   5.524  0.8925 -0.9029 -0.8872
 4205TIP3   OH212578   1.768   0.367   1.282 -0.1248 -0.0624  0.1397
 4205TIP3    H112579   1.710   0.398   1.212  1.6455  1.8774 -0.5799
 4205TIP3    H212580   1.853   0.404   1.260  0.9399 -1.0934  2.2693
 4206TIP3   OH212581   2.520   0.342   3.257 -0.2935 -0.3169 -0.2400
 4206TIP3    H112582   2.451   0.328   3.192 -1.5830 -0.9764  1.1846
 4206TIP3    H212583   2.552   0.430   3.240 -2.1006  0.3497 -0.4379
 4207TIP3   OH212584   6.466   2.460   5.557 -0.0381  0.4933  0.0329
 4207TIP3    H112585   6.409   2.532   5.583  0.1990  0.8826 -0.5259
 4207TIP3    H212586   6.426   2.425   5.478 -0.0078  0.1722  0.1565
 4208TIP3   OH212587   6.332   3.659   1.297  1.1759  0.7895  0.0825
 4208TIP3    H112588   6.338   3.638   1.204 -0.3114 -1.0120  0.3414
 4208TIP3    H212589   6.392   3.597   1.340  2.5077  2.1631  0.3194
 4209TIP3   OH212590   6.144   6.432   1.613  0.5297  0.1051  0.1485
 4209TIP3    H112591   6.190   6.380   1.679  2.8783  0.7361 -0.8837
 4209TIP3    H212592   6.205   6.436   1.539 -1.4772  0.5142 -1.5668
 4210TIP3   OH212593   2.572   6.041   4.065 -0.6336  0.6432  0.1243
 4210TIP3    H112594   2.559   6.034   4.160 -0.4383  0.9117  0.1701
 4210TIP3    H212595   2.493   6.084   4.033 -0.4832  0.9984  0.2270
 4211TIP3   OH212596   1.409   3.307   5.529  0.0586 -0.6752 -0.0388
 4211TIP3    H112597   1.374   3.394   5.506  1.6742 -0.0615 -0.2681
 4211TIP3    H212598   1.504   3.317   5.525  0.2829 -2.3979  0.2126
 4212TIP3   OH212599   4.574   0.370   4.989 -0.2820 -0.6849 -0.1895
 4212TIP3    H112600   4.498   0.428   4.982  0.2393 -0.0818 -1.0823
 4212TIP3    H212601   4.548   0.291   4.941  0.4960  0.4675 -2.6370
 4213TIP3   OH212602   6.390   0.839   0.123  0.2559  0.1124  0.4132
 4213TIP3    H112603   6.344   0.853   0.040  1.6633 -0.9005 -0.5757
 4213TIP3    H212604   6.345   0.764   0.163 -0.3579  0.5408  0.5567
 4214TIP3   OH212605   1.887   3.899   0.930 -0.0752 -0.1965  0.2463
 4214TIP3    H112606   1.883   3.988   0.965  1.3460  0.8953 -2.1251
 4214TIP3    H212607   1.810   3.891   0.875 -0.6270 -0.7732  1.0683
 4215TIP3   OH212608   2.709   5.134   2.632 -0.3243  0.0056 -0.1027
 4215TIP3    H112609   2.647   5.162   2.565 -1.3875  1.0307  1.2583
 4215TIP3    H212610   2.778   5.200   2.630  0.2844 -0.6357 -0.9922
 4216TIP3   OH212611   2.078   1.269   3.145  0.3410 -0.1762  0.0569
 4216TIP3    H112612   1.987   1.271   3.116 -0.6849 -1.3935  2.8524
 4216TIP3    H212613   2.115   1.191   3.103  0.1688  0.3562 -1.1384
 4217TIP3   OH212614   4.251   1.707   0.050 -0.4323  0.1487  0.3683
 4217TIP3    H112615   4.206   1.700  -0.034  1.2428  1.3529 -0.6896
 4217TIP3    H212616   4.342   1.729   0.027 -0.1122  1.3136  2.4976
 4218TIP3   OH212617   5.380   1.405   2.902 -0.2769 -0.4520  0.0315
 4218TIP3    H112618   5.293   1.443   2.917  0.2534  0.4893  0.8650
 4218TIP3    H212619   5.441   1.471   2.937  0.7256 -1.5508  0.4108
 4219TIP3   OH212620   2.844   4.807   3.277  0.1521 -0.1576  0.2189
 4219TIP3    H112621   2.791   4.727   3.285 -1.0483  0.5703 -0.2649
 4219TIP3    H212622   2.908   4.800   3.348 -0.4614 -1.1576  0.6969
 4220TIP3   OH212623   1.534   5.798   3.121  0.0703  0.0547 -0.0350
 4220TIP3    H112624   1.481   5.850   3.062 -0.0282 -1.0023 -0.9214
 4220TIP3    H212625   1.559   5.721   3.069  0.4724 -0.6215  1.1129
 4221TIP3   OH212626   6.636   2.946   4.138  0.0183 -0.1722 -0.0333
 4221TIP3    H112627   6.570   3.014   4.125 -1.0530  0.1385  4.8626
 4221TIP3    H212628   6.719   2.993   4.142 -0.3006  0.3929  0.0048
 4222TIP3   OH212629   1.696   5.695   3.320  0.6347 -0.8722  0.1342
 4222TIP3    H112630   1.642   5.728   3.247  1.3603  1.9875  0.7749
 4222TIP3    H212631   1.770   5.652   3.277  0.4368 -0.3001 -0.8268
 4223TIP3   OH212632   5.813   1.933   5.069 -0.1138  0.0772 -0.0591
 4223TIP3    H112633   5.766   1.926   4.986 -1.1359 -0.8858  0.5888
 4223TIP3    H212634   5.834   1.843   5.093  0.7520  0.3932  0.4108
 4224TIP3   OH212635   6.371   4.459   3.023  0.0913  0.0886 -0.1258
 4224TIP3    H112636   6.310   4.494   2.958  0.3924 -0.8318 -0.9278
 4224TIP3    H212637   6.448   4.514   3.016 -0.5381  1.1378  0.7564
 4225TIP3   OH212638   1.394   1.278   0.630  0.1641 -0.7362  0.4624
 4225TIP3    H112639   1.434   1.193   0.613 -0.9300 -1.3505  0.8642
 4225TIP3    H212640   1.446   1.315   0.702  1.6991 -0.2895 -0.8098
 4226TIP3   OH212641   2.466   0.997   2.992  0.3826 -0.0164  0.4023
 4226TIP3    H112642   2.547   0.973   2.947  0.4494  0.1045  0.4567
 4226TIP3    H212643   2.474   1.091   3.007  0.5864 -0.1420  1.1196
 4227TIP3   OH212644   4.742   0.320   0.472  0.0121 -0.1761  0.3614
 4227TIP3    H112645   4.690   0.299   0.550 -1.4764 -0.2873 -0.6085
 4227TIP3    H212646   4.737   0.415   0.464  1.2083 -0.0440  1.0797
 4228TIP3   OH212647   4.150   2.399   2.379  0.2701  0.0934 -0.3624
 4228TIP3    H112648   4.091   2.331   2.410 -0.3065  0.4607 -0.6483
 4228TIP3    H212649   4.224   2.396   2.441 -0.7494  0.6551  0.9287
 4229TIP3   OH212650   3.000   2.617   1.103  0.3154 -0.2207 -0.6594
 4229TIP3    H112651   2.940   2.690   1.089  1.1118  0.3861 -0.9771
 4229TIP3    H212652   3.012   2.613   1.198 -1.7240 -1.5958 -0.3894
 4230TIP3   OH212653   0.253   6.289   4.045  0.1293 -0.0450  0.4797
 4230TIP3    H112654   0.261   6.320   4.135 -0.0408  0.1749  0.4167
 4230TIP3    H212655   0.162   6.259   4.038  0.0741  0.1670  0.3060
 4231TIP3   OH212656   0.430   4.960   4.576 -0.0611  0.0126  0.3053
 4231TIP3    H112657   0.436   5.054   4.593  0.7615 -0.0802  0.5596
 4231TIP3    H212658   0.514   4.938   4.536  1.1897 -1.2377  3.3145
 4232TIP3   OH212659   0.292   0.153   4.814 -0.0269  0.2169 -0.4668
 4232TIP3    H112660   0.376   0.182   4.779 -0.3597  0.4037 -1.1270
 4232TIP3    H212661   0.233   0.227   4.800 -0.0645  0.4829  0.9294
 4233TIP3   OH212662   1.392   0.035   5.241 -0.3619 -0.5215  0.3705
 4233TIP3    H112663   1.475   0.048   5.196  0.1608 -1.6468  0.9864
 4233TIP3    H212664   1.365   0.123   5.267  1.2241 -0.2388  1.1786
 4234TIP3   OH212665   0.711   3.501   5.618  0.0078  0.3701 -0.2956
 4234TIP3    H112666   0.745   3.412   5.620  2.2943  1.1592  2.2009
 4234TIP3    H212667   0.629   3.497   5.667  0.0461 -0.3507 -0.2799
 4235TIP3   OH212668   3.686   6.108   3.036  0.2793  0.0538  0.4222
 4235TIP3    H112669   3.658   6.151   2.955  1.2831 -0.3208 -0.1463
 4235TIP3    H212670   3.624   6.036   3.048  0.4468 -0.2314 -0.3389
 4236TIP3   OH212671   7.102   0.573   5.003 -0.0266 -0.5659  0.0030
 4236TIP3    H112672   7.144   0.548   5.085 -0.0468  2.5412  1.0887
 4236TIP3    H212673   7.011   0.545   5.013 -0.2556  0.5936  1.5065
 4237TIP3   OH212674   7.016   6.620   2.876  0.1345  0.1814  0.6466
 4237TIP3    H112675   7.098   6.576   2.896 -0.2390 -0.0938  1.6037
 4237TIP3    H212676   7.042   6.708   2.850  0.7417  0.0480  0.7873
 4238TIP3   OH212677   1.156   2.279   0.316  0.1384 -0.4710  0.5172
 4238TIP3    H112678   1.185   2.370   0.321 -0.9170 -0.0913  0.1110
 4238TIP3    H212679   1.198   2.245   0.237 -1.9741  0.6652 -1.2112
 4239TIP3   OH212680   2.646   0.775   0.495 -0.5530 -0.0205 -0.3349
 4239TIP3    H112681   2.631   0.734   0.410  0.7785 -0.5350 -0.3567
 4239TIP3    H212682   2.738   0.802   0.493 -0.0067 -1.4938  1.4965
 4240TIP3   OH212683   4.638   6.008   0.295  0.3195  0.0775 -0.3682
 4240TIP3    H112684   4.620   6.102   0.304 -0.6682  0.0596 -1.7336
 4240TIP3    H212685   4.573   5.966   0.351  0.2610  0.1940 -0.3483
 4241TIP3   OH212686   0.400   1.215   5.352  0.6364  0.1390 -0.2604
 4241TIP3    H112687   0.368   1.140   5.301 -0.9664  1.3165 -1.0793
 4241TIP3    H212688   0.491   1.225   5.325  0.8440 -1.3938 -0.2483
 4242TIP3   OH212689   2.202   5.972   3.187 -0.2405 -0.2343 -0.5717
 4242TIP3    H112690   2.190   6.067   3.185  0.8254 -0.0804 -0.4304
 4242TIP3    H212691   2.287   5.957   3.145 -0.2776 -1.1035 -0.3658
 4243TIP3   OH212692   0.644   0.442   0.087  0.2654 -0.1566  0.0664
 4243TIP3    H112693   0.583   0.516   0.094  1.0496  0.5515 -0.3832
 4243TIP3    H212694   0.659   0.432  -0.007  0.1034 -0.9428  0.1210
 4244TIP3   OH212695   1.814   0.080   0.954 -0.5083  1.1163 -0.1650
 4244TIP3    H112696   1.801   0.174   0.940 -1.4675  1.2526  1.3733
 4244TIP3    H212697   1.840   0.073   1.046 -0.7879 -0.1479 -0.1685
 4245TIP3   OH212698   3.901   3.969   3.286 -0.1126 -0.0854 -0.7340
 4245TIP3    H112699   3.832   3.951   3.222  0.5160  0.8361 -1.6899
 4245TIP3    H212700   3.983   3.951   3.240  0.4159  2.1191 -0.7555
 4246TIP3   OH212701   5.535   3.114   2.834 -0.0250 -0.2908  0.0635
 4246TIP3    H112702   5.575   3.034   2.800  2.6921  1.7036 -1.9087
 4246TIP3    H212703   5.561   3.116   2.926  3.5074  0.1619 -0.7931
 4247TIP3   OH212704   6.214   4.319   0.993 -0.1496  0.3031 -0.2409
 4247TIP3    H112705   6.216   4.316   1.089  0.7462 -0.0184 -0.2675
 4247TIP3    H212706   6.127   4.286   0.970 -1.1440  2.1799  0.5215
 4248TIP3   OH212707   2.804   3.249   3.068  0.4756 -0.1280 -0.1198
 4248TIP3    H112708   2.735   3.281   3.127 -1.0348 -2.0320 -0.7551
 4248TIP3    H212709   2.871   3.214   3.127 -0.2453 -0.4815  0.5093
 4249TIP3   OH212710   6.579   1.332   0.882  0.2244 -0.5014  0.3855
 4249TIP3    H112711   6.608   1.405   0.826  1.1788  1.2565  2.9497
 4249TIP3    H212712   6.505   1.367   0.931  0.7311 -1.2278  1.7167
 4250TIP3   OH212713   1.918   4.442   3.163  0.0675  0.3908  0.0187
 4250TIP3    H112714   1.850   4.479   3.106 -0.6671  0.2668  0.8006
 4250TIP3    H212715   1.902   4.348   3.162  0.0596  0.3859  0.4134
 4251TIP3   OH212716   2.979   5.034   0.469 -0.3347 -0.1659 -0.4912
 4251TIP3    H112717   2.976   5.005   0.378 -0.2717  0.2747 -0.6369
 4251TIP3    H212718   3.051   5.097   0.471  2.4496 -3.1282  0.7293
 4252TIP3   OH212719   3.506   5.328   5.158 -0.2464  0.1069 -0.1331
 4252TIP3    H112720   3.526   5.287   5.074 -2.0484 -1.1151 -0.0230
 4252TIP3    H212721   3.467   5.257   5.210 -1.4551  1.4428  0.8511
 4253TIP3   OH212722   0.476   1.994   1.994  0.2370 -0.2016  0.3502
 4253TIP3    H112723   0.557   1.960   2.032  1.8924  1.1279 -1.8056
 4253TIP3    H212724   0.503   2.066   1.938 -2.4336  0.1697 -0.6337
 4254TIP3   OH212725   1.620   6.628   4.126 -0.2504 -0.3084  0.2958
 4254TIP3    H112726   1.714   6.639   4.140 -0.1994 -0.3141 -0.0321
 4254TIP3    H212727   1.601   6.680   4.048 -0.4903 -0.4301  0.2703
 4255TIP3   OH212728   6.946   5.509   0.688 -0.1853 -0.5913 -0.5542
 4255TIP3    H112729   6.909   5.553   0.612  0.4788  0.0728 -0.5009
 4255TIP3    H212730   7.033   5.480   0.660  0.7839  1.1897  0.4494
 4256TIP3   OH212731   1.887   0.512   3.008 -0.0267  0.2948  0.1495
 4256TIP3    H112732   1.855   0.431   3.048 -0.3417  0.6771  0.6954
 4256TIP3    H212733   1.879   0.577   3.078 -1.9050  1.3026 -0.9206
 4257TIP3   OH212734   1.236   5.834   1.277 -0.1938 -0.2852  0.1510
 4257TIP3    H112735   1.275   5.752   1.309 -0.2032 -1.3398 -2.2807
 4257TIP3    H212736   1.194   5.809   1.194  0.5196  2.3259 -1.0974
 4258TIP3   OH212737   7.040   5.529   0.033  0.2904  0.1730 -0.1521
 4258TIP3    H112738   6.953   5.564   0.055  0.2215 -0.8319  1.3531
 4258TIP3    H212739   7.095   5.556   0.106  0.9062 -0.4184 -0.3930
 4259TIP3   OH212740   0.753   1.918   5.523  0.1202  0.1766 -0.4333
 4259TIP3    H112741   0.821   1.954   5.580  0.7011  1.3227 -1.7976
 4259TIP3    H212742   0.672   1.959   5.552 -0.0402 -1.1845  1.1971
 4260TIP3   OH212743   3.240   2.050   4.415 -0.1078  0.8218  0.0331
 4260TIP3    H112744   3.304   2.078   4.350  0.2023  0.9651  0.3925
 4260TIP3    H212745   3.160   2.100   4.394 -0.7357 -0.8002 -1.6231
 4261TIP3   OH212746   3.579   3.620   4.985  0.0379  0.2619  0.3391
 4261TIP3    H112747   3.660   3.570   4.984 -0.5429 -0.7615  1.2768
 4261TIP3    H212748   3.534   3.591   5.065 -0.1007  2.6709  1.2260
 4262TIP3   OH212749   6.854   5.238   2.251  0.2375  0.1074  0.4340
 4262TIP3    H112750   6.828   5.169   2.189  2.2542  0.2453 -0.6569
 4262TIP3    H212751   6.828   5.320   2.208  0.2207  0.1430  0.5123
 4263TIP3   OH212752   5.726   0.137   4.158 -0.6167 -0.2649  0.5693
 4263TIP3    H112753   5.700   0.185   4.237  2.8097  0.3130  1.5038
 4263TIP3    H212754   5.786   0.069   4.190 -0.2563 -0.9359 -1.3990
 4264TIP3   OH212755   1.891   6.103   1.131 -0.5821  0.0046 -0.2460
 4264TIP3    H112756   1.900   6.087   1.037  1.2470  1.0360 -0.2937
 4264TIP3    H212757   1.916   6.195   1.143 -0.5816 -0.1608  1.2559
 4265TIP3   OH212758   6.391   3.057   2.013  0.4695 -0.2055 -0.0925
 4265TIP3    H112759   6.322   3.123   2.002 -0.6174 -0.9425  1.8650
 4265TIP3    H212760   6.344   2.977   2.036  1.9139 -1.0341  0.0746
 4266TIP3   OH212761   4.277   4.132   3.118 -0.0421  0.1753 -0.0524
 4266TIP3    H112762   4.305   4.206   3.172 -0.2553  0.0984  0.1636
 4266TIP3    H212763   4.341   4.063   3.138  0.2353  0.3404 -0.3531
 4267TIP3   OH212764   6.863   1.738   4.302 -0.3475  0.1928  0.3782
 4267TIP3    H112765   6.918   1.661   4.293 -1.8119 -0.8204 -0.2526
 4267TIP3    H212766   6.893   1.798   4.233  0.3212 -0.1010  0.4120
 4268TIP3   OH212767   0.756   1.212   0.650  0.4648 -0.1612  0.1504
 4268TIP3    H112768   0.837   1.248   0.686  0.2432  0.5779 -0.0757
 4268TIP3    H212769   0.776   1.197   0.558 -0.1608  1.6721 -0.3353
 4269TIP3   OH212770   4.296   1.193   2.515  0.0078  0.2964 -0.0296
 4269TIP3    H112771   4.275   1.140   2.438  0.9145  0.7753 -0.6247
 4269TIP3    H212772   4.391   1.188   2.523  0.1618  2.0954 -0.3321
 4270TIP3   OH212773   3.234   0.163   0.117  0.3283  0.3994  0.3047
 4270TIP3    H112774   3.145   0.172   0.151  0.4583  1.4617  0.4175
 4270TIP3    H212775   3.228   0.192   0.026  0.7577  1.5891  0.6382
 4271TIP3   OH212776   2.848   5.506   4.528 -0.3714  0.5199  0.2633
 4271TIP3    H112777   2.822   5.598   4.538 -1.7718  0.3304 -1.0626
 4271TIP3    H212778   2.904   5.505   4.450  1.5335  0.5258  1.5652
 4272TIP3   OH212779   2.455   6.669   0.373  0.5560  0.2297  0.2481
 4272TIP3    H112780   2.377   6.705   0.416  0.7864  0.4225  0.5093
 4272TIP3    H212781   2.493   6.612   0.440 -0.4168 -1.4075 -0.5215
 4273TIP3   OH212782   7.172   6.198   3.030 -0.0797  0.1470  0.0635
 4273TIP3    H112783   7.230   6.122   3.035  0.9155  0.9177  0.7865
 4273TIP3    H212784   7.119   6.183   2.952  1.5441 -0.2863 -1.0090
 4274TIP3   OH212785   1.482   0.158   1.056  0.0973 -0.3325 -0.2938
 4274TIP3    H112786   1.456   0.088   1.115 -0.4574 -0.7230 -0.9859
 4274TIP3    H212787   1.575   0.140   1.038  0.7895  0.7976  1.8065
 4275TIP3   OH212788   4.626   2.252   0.557 -0.2715  0.1227 -0.7386
 4275TIP3    H112789   4.624   2.322   0.492  0.1325 -0.6555 -1.6248
 4275TIP3    H212790   4.567   2.185   0.522 -0.7385  0.0564  0.1469
 4276TIP3   OH212791   6.300   4.974   3.112  0.2096 -0.6674 -0.3277
 4276TIP3    H112792   6.248   4.895   3.099 -0.7705  0.0255 -0.7757
 4276TIP3    H212793   6.243   5.045   3.082  1.2465  0.1647 -0.3794
 4277TIP3   OH212794   3.735   3.932   5.727  0.5854 -0.1437  0.3302
 4277TIP3    H112795   3.777   3.850   5.752 -0.2256 -1.1740 -1.5095
 4277TIP3    H212796   3.642   3.911   5.720  0.2540  1.1419  0.5915
 4278TIP3   OH212797   1.062   1.662   3.118 -0.3857  0.4351 -0.2564
 4278TIP3    H112798   1.013   1.674   3.037 -0.8698 -0.2491 -0.0725
 4278TIP3    H212799   1.133   1.725   3.112 -0.8776  0.9504 -0.8513
 4279TIP3   OH212800   5.169   0.143   5.415  0.4327 -0.1387 -0.1085
 4279TIP3    H112801   5.100   0.189   5.367  1.8116  1.6341 -0.5396
 4279TIP3    H212802   5.130   0.060   5.441 -1.0364 -0.3118 -2.5450
 4280TIP3   OH212803   6.031   2.363   1.698  0.1209  0.4163  0.1133
 4280TIP3    H112804   6.062   2.295   1.638 -0.7348  1.2917 -1.3774
 4280TIP3    H212805   5.942   2.383   1.668 -0.2422  1.0638  1.5405
 4281TIP3   OH212806   6.953   6.321   1.211  0.2664  0.1422 -0.1975
 4281TIP3    H112807   6.983   6.263   1.281 -0.7296  0.8657  0.8656
 4281TIP3    H212808   6.903   6.264   1.153 -0.1140 -0.2139  0.4629
 4282TIP3   OH212809   0.133   3.085   3.244 -0.0388  0.5933  0.1309
 4282TIP3    H112810   0.065   3.027   3.211  0.8290  0.0770 -0.8231
 4282TIP3    H212811   0.093   3.171   3.247 -0.2431  0.6225 -2.0906
 4283TIP3   OH212812   4.771   5.535   1.326  0.1916 -0.2310  1.0775
 4283TIP3    H112813   4.813   5.459   1.285  0.6927 -0.0594  1.2699
 4283TIP3    H212814   4.696   5.498   1.373 -1.4831 -0.2417 -1.4088
 4284TIP3   OH212815   2.657   0.346   2.902  0.4186 -0.1655 -0.4101
 4284TIP3    H112816   2.699   0.272   2.946 -1.4237 -1.3059 -0.4277
 4284TIP3    H212817   2.568   0.315   2.885 -0.2977  1.9553 -0.7524
 4285TIP3   OH212818   4.208   2.110   0.469 -0.7841 -0.2001 -0.1939
 4285TIP3    H112819   4.266   2.052   0.517  1.0611  1.4731 -0.2933
 4285TIP3    H212820   4.120   2.079   0.490  0.0909 -2.6900  0.1256
 4286TIP3   OH212821   6.844   1.007   4.840  0.1899 -0.0025  0.3537
 4286TIP3    H112822   6.849   0.912   4.833  0.2665 -0.1225  1.7456
 4286TIP3    H212823   6.897   1.029   4.917  0.2094  1.1721  0.0367
 4287TIP3   OH212824   2.958   1.948   4.210  0.0472  0.3515  0.2676
 4287TIP3    H112825   2.984   2.003   4.284  0.0993 -0.2105  0.6779
 4287TIP3    H212826   2.873   1.982   4.183 -1.6712 -1.5471  2.8056
 4288TIP3   OH212827   1.450   4.611   2.761 -0.0442 -0.0868 -0.1917
 4288TIP3    H112828   1.366   4.600   2.807 -0.3655  2.1007 -0.1594
 4288TIP3    H212829   1.426   4.648   2.676  0.9448  3.4569  0.8966
 4289TIP3   OH212830   7.168   4.490   2.389  0.4492  0.1607 -0.0310
 4289TIP3    H112831   7.088   4.512   2.341  3.2315  0.5397 -5.3670
 4289TIP3    H212832   7.164   4.395   2.400 -0.7648  0.1904 -0.0351
 4290TIP3   OH212833   4.470   6.803   1.130 -0.0477  0.4971 -0.4108
 4290TIP3    H112834   4.562   6.800   1.103  0.5762 -2.6599  1.4981
 4290TIP3    H212835   4.425   6.743   1.071 -0.3962  0.2702  0.0711
 4291TIP3   OH212836   0.538   2.463   4.133  0.5043 -0.4715 -0.0113
 4291TIP3    H112837   0.486   2.383   4.127 -0.3308  0.1385 -1.5184
 4291TIP3    H212838   0.602   2.456   4.061  1.0605 -0.2117  0.4460
 4292TIP3   OH212839   3.441   6.581   4.083 -0.3844  0.1966 -0.2525
 4292TIP3    H112840   3.366   6.615   4.034 -0.8902  0.1268  0.4534
 4292TIP3    H212841   3.501   6.547   4.016 -0.9089  0.3973 -0.8316
 4293TIP3   OH212842   5.792   3.272   1.963 -0.8368 -0.3759 -0.2689
 4293TIP3    H112843   5.842   3.340   2.008 -0.6796  1.3533 -2.8228
 4293TIP3    H212844   5.704   3.278   1.999 -0.3105 -0.3402  1.0642
 4294TIP3   OH212845   5.252   0.122   3.009 -0.1407  0.0248 -0.1598
 4294TIP3    H112846   5.208   0.058   2.953 -0.4316  1.2971 -1.4482
 4294TIP3    H212847   5.198   0.126   3.087  1.1573 -3.0098  1.0752
 4295TIP3   OH212848   3.815   4.526   0.036 -0.0833  0.0467  0.2040
 4295TIP3    H112849   3.802   4.618   0.058  0.6331  0.0295  0.7279
 4295TIP3    H212850   3.750   4.479   0.087 -2.1001  0.4079 -1.8367
 4296TIP3   OH212851   3.990   5.209   1.533  0.1186  0.5239 -0.9070
 4296TIP3    H112852   4.065   5.155   1.509  0.5039  0.5690  0.1319
 4296TIP3    H212853   4.027   5.281   1.584 -0.4724  1.3593 -1.6337
 4297TIP3   OH212854   6.370   2.220   4.401  0.0653 -0.3584 -0.9276
 4297TIP3    H112855   6.325   2.281   4.459  2.6180  0.1249  0.6915
 4297TIP3    H212856   6.399   2.274   4.327 -1.6968 -0.6254 -1.8560
 4298TIP3   OH212857   4.602   5.458   1.558  0.6765  0.0577 -0.0814
 4298TIP3    H112858   4.574   5.397   1.626 -1.1895 -0.7104 -1.4649
 4298TIP3    H212859   4.630   5.536   1.606 -1.9944  0.1203  1.5541
 4299TIP3   OH212860   0.199   5.533   3.042  0.2745  0.2001 -0.1915
 4299TIP3    H112861   0.260   5.588   3.092 -1.1004  0.6183  1.0908
 4299TIP3    H212862   0.252   5.458   3.015  1.9862  1.7288 -1.2953
 4300TIP3   OH212863   1.522   5.584   4.619 -0.1714 -0.0398  0.7131
 4300TIP3    H112864   1.555   5.506   4.665 -1.1484 -0.5074  0.6335
 4300TIP3    H212865   1.569   5.584   4.535 -0.9201 -1.1436  0.2705
 4301TIP3   OH212866   0.814   2.233   4.791 -0.4846  0.3682  0.1876
 4301TIP3    H112867   0.781   2.145   4.769 -2.2948  1.1996 -0.6871
 4301TIP3    H212868   0.897   2.240   4.744 -1.7986  0.1915 -2.3385
 4302TIP3   OH212869   3.944   5.580   0.762  0.1448 -0.1866 -0.4326
 4302TIP3    H112870   3.894   5.565   0.842  1.3755  1.0345  0.6215
 4302TIP3    H212871   3.969   5.672   0.766  1.4442 -0.4562 -1.5029
 4303TIP3   OH212872   0.201   1.596   3.447  0.0841 -0.0166  0.3867
 4303TIP3    H112873   0.208   1.638   3.533 -3.3042  1.0153  0.2733
 4303TIP3    H212874   0.130   1.532   3.456  0.8679 -1.2127 -1.2148
 4304TIP3   OH212875   4.273   2.851   4.047  0.2729 -0.0426 -0.6444
 4304TIP3    H112876   4.261   2.876   3.956 -0.3876 -0.7271 -0.7627
 4304TIP3    H212877   4.299   2.931   4.092 -0.7451  0.6094 -1.1851
 4305TIP3   OH212878   4.323   5.213   0.188  0.5145  0.4290 -0.8071
 4305TIP3    H112879   4.266   5.186   0.260  0.6381 -0.6837 -1.1184
 4305TIP3    H212880   4.263   5.257   0.127  0.2679  0.6556 -0.4105
 4306TIP3   OH212881   0.405   6.034   1.289  0.6910 -0.0541  0.3914
 4306TIP3    H112882   0.476   6.070   1.341  0.1495  1.7087 -0.0110
 4306TIP3    H212883   0.447   5.997   1.212  1.2913 -0.5214  0.9367
 4307TIP3   OH212884   4.849   0.567   5.171 -0.1253  0.1699 -0.0875
 4307TIP3    H112885   4.775   0.556   5.231 -0.4290 -0.4779 -0.5638
 4307TIP3    H212886   4.862   0.480   5.133  0.9340  0.2537  0.0436
 4308TIP3   OH212887   0.543   6.579   0.171  0.6311  0.0138 -0.0420
 4308TIP3    H112888   0.638   6.587   0.159  1.0095 -0.1518  2.3587
 4308TIP3    H212889   0.532   6.566   0.265 -1.7929  0.0145 -0.2712
 4309TIP3   OH212890   1.601   4.184   2.755 -0.7463  0.2053  0.3458
 4309TIP3    H112891   1.620   4.104   2.805 -2.7143 -0.7636 -0.3387
 4309TIP3    H212892   1.619   4.159   2.664  0.8957  1.3268  0.3235
 4310TIP3   OH212893   3.573   2.910   5.167 -0.1111 -0.5595 -0.0453
 4310TIP3    H112894   3.593   2.943   5.079  0.2436 -1.2286 -0.2268
 4310TIP3    H212895   3.509   2.971   5.202 -1.2864 -1.0219 -1.3010
 4311TIP3   OH212896   0.088  -0.018   4.105  0.1206  0.2044  0.1420
 4311TIP3    H112897   0.156   0.026   4.156  0.6090  0.6584 -0.8834
 4311TIP3    H212898   0.015   0.044   4.103 -0.2313 -0.1573  0.9762
 4312TIP3   OH212899   4.444   6.553   4.199  0.3081 -0.1781 -0.3196
 4312TIP3    H112900   4.390   6.512   4.267  1.5382 -0.2839  0.6195
 4312TIP3    H212901   4.431   6.497   4.122 -1.9962  0.5852 -0.5617
 4313TIP3   OH212902   0.164   0.755   1.147 -0.0494 -0.1435  0.2119
 4313TIP3    H112903   0.135   0.836   1.188  0.0128 -0.1487  0.2675
 4313TIP3    H212904   0.096   0.734   1.083  0.6744  0.7629 -0.8853
 4314TIP3   OH212905   1.270   4.986   1.406 -0.2145 -0.4996  0.7933
 4314TIP3    H112906   1.229   4.965   1.490  0.0412 -1.2760  0.7356
 4314TIP3    H212907   1.200   4.975   1.341 -0.8174  1.5563  1.0306
 4315TIP3   OH212908   6.281   4.773   0.343 -0.0833 -0.0408 -0.0219
 4315TIP3    H112909   6.193   4.801   0.369  0.8178  3.0459  0.0642
 4315TIP3    H212910   6.326   4.757   0.425 -0.3653 -1.0744 -0.0544
 4316TIP3   OH212911   0.133   0.076   5.027  0.2184  0.4490  0.2664
 4316TIP3    H112912   0.180   0.067   4.944 -0.0058 -2.2305  0.3392
 4316TIP3    H212913   0.186   0.137   5.079  1.7556  0.1670 -0.9022
 4317TIP3   OH212914   3.585   4.921   1.277 -0.3818  0.3858 -0.0763
 4317TIP3    H112915   3.625   4.834   1.280 -0.7529  0.1083 -2.0859
 4317TIP3    H212916   3.649   4.978   1.320  1.3880 -0.3553 -1.5736
 4318TIP3   OH212917   2.129   4.685   0.723 -0.5986 -0.1058 -0.2619
 4318TIP3    H112918   2.175   4.601   0.723  0.4566  0.4530 -1.4794
 4318TIP3    H212919   2.141   4.719   0.635 -2.4490  0.5722 -0.2889
 4319TIP3   OH212920   6.953   5.462   5.630  0.5201 -0.0527  0.3269
 4319TIP3    H112921   7.025   5.401   5.645  1.2416  0.8786  0.8115
 4319TIP3    H212922   6.893   5.446   5.703  0.7455 -0.1314  0.4966
 4320TIP3   OH212923   2.331   3.400   5.671 -0.2593 -0.5183 -0.7258
 4320TIP3    H112924   2.421   3.368   5.669  0.6858  1.8943 -1.0663
 4320TIP3    H212925   2.277   3.322   5.661  1.7853 -2.0273 -0.6531
 4321TIP3   OH212926   6.337   2.733   0.945 -0.3229 -0.4263 -0.0201
 4321TIP3    H112927   6.405   2.795   0.917  0.9524 -0.2420  3.0760
 4321TIP3    H212928   6.255   2.777   0.925  0.5348  2.4748  2.2142
 4322TIP3   OH212929   2.965   4.328   0.289  0.0371 -0.1714  0.0477
 4322TIP3    H112930   3.020   4.328   0.367 -0.4083  2.4643  0.4336
 4322TIP3    H212931   3.024   4.354   0.218  0.1286 -1.1999 -0.2669
 4323TIP3   OH212932   1.593   6.734   2.237  0.3460 -0.0886  0.1701
 4323TIP3    H112933   1.671   6.723   2.183 -0.4122  0.4144 -1.0581
 4323TIP3    H212934   1.627   6.762   2.322  1.5767 -1.1821  0.0734
 4324TIP3   OH212935   0.772   5.202   4.363 -0.1859  0.0999  0.5188
 4324TIP3    H112936   0.693   5.255   4.355 -0.9945 -0.7926  2.0920
 4324TIP3    H212937   0.741   5.116   4.392  1.4150 -0.0368  1.9982
 4325TIP3   OH212938   4.171   1.188   3.827 -0.1757 -0.5954 -0.6247
 4325TIP3    H112939   4.231   1.113   3.826  1.0773  0.3218 -2.9775
 4325TIP3    H212940   4.166   1.215   3.735 -1.2811  1.6646  0.0344
 4326TIP3   OH212941   4.376   5.235   1.693  0.0103 -0.2046 -0.2934
 4326TIP3    H112942   4.402   5.176   1.764 -0.0903 -0.2279 -0.2768
 4326TIP3    H212943   4.341   5.312   1.738  1.0987  0.3118 -0.2898
 4327TIP3   OH212944   2.131   5.755   3.999  0.2783 -0.3706  0.2751
 4327TIP3    H112945   2.071   5.778   4.070  0.3279  0.8606 -0.0571
 4327TIP3    H212946   2.088   5.786   3.919  1.8705  1.7498  0.1404
 4328TIP3   OH212947   0.863   6.814   0.791 -0.4597  0.0625  0.1631
 4328TIP3    H112948   0.855   6.719   0.788  1.8602 -0.1717 -0.5582
 4328TIP3    H212949   0.831   6.837   0.879  0.6579 -1.6057  1.0734
 4329TIP3   OH212950   5.292   0.454   0.473  0.6440  0.1011 -0.0503
 4329TIP3    H112951   5.210   0.497   0.495  1.4188  2.3031 -1.1810
 4329TIP3    H212952   5.357   0.496   0.528  1.6832  1.6930 -2.3339
 4330TIP3   OH212953   5.240   2.653   2.094 -0.5081  0.2805 -0.4533
 4330TIP3    H112954   5.239   2.592   2.167  1.1404  1.7807  0.9295
 4330TIP3    H212955   5.333   2.671   2.079 -0.8508  0.7821 -2.2768
 4331TIP3   OH212956   6.413   2.570   3.205 -0.5325 -0.0020 -0.8782
 4331TIP3    H112957   6.482   2.634   3.186 -0.7593  0.9659  1.3247
 4331TIP3    H212958   6.422   2.505   3.135  0.8881  1.4617 -2.1549
 4332TIP3   OH212959   5.147   3.748   5.274 -0.0535 -0.0381  0.1282
 4332TIP3    H112960   5.143   3.740   5.369 -0.8614  1.7397  0.2685
 4332TIP3    H212961   5.110   3.666   5.242 -2.7131  0.5805  1.3851
 4333TIP3   OH212962   6.370   5.742   2.805 -0.0906 -0.1388  0.0386
 4333TIP3    H112963   6.346   5.694   2.885  0.2642  1.6608  1.2626
 4333TIP3    H212964   6.463   5.758   2.813 -0.2664  1.0535 -0.1811
 4334TIP3   OH212965   0.347   5.106   4.878 -0.1796  0.2489  0.9789
 4334TIP3    H112966   0.273   5.137   4.827 -2.0333 -1.6286  2.3789
 4334TIP3    H212967   0.388   5.186   4.912 -1.5965  1.3266  0.2499
 4335TIP3   OH212968   6.334   6.430   1.411 -0.3786  0.5669 -0.2892
 4335TIP3    H112969   6.384   6.504   1.446 -1.0710  1.2904 -0.7902
 4335TIP3    H212970   6.387   6.397   1.338 -0.0548  0.5442 -0.0458
 4336TIP3   OH212971   1.475   1.524   0.944  0.6474  0.6985  0.2229
 4336TIP3    H112972   1.428   1.593   0.990 -0.5513 -0.9664  1.6579
 4336TIP3    H212973   1.456   1.445   0.994  1.6987 -0.7425 -1.5122
 4337TIP3   OH212974   5.736   4.736   5.185  0.2415 -0.5991 -0.1280
 4337TIP3    H112975   5.803   4.669   5.176 -0.5348 -1.1631 -2.4610
 4337TIP3    H212976   5.674   4.718   5.114 -1.2745  1.1417  0.6598
 4338TIP3   OH212977   1.079   5.031   3.394  0.2681 -0.2917  0.0652
 4338TIP3    H112978   1.166   5.000   3.420 -0.8006 -1.6475  2.3743
 4338TIP3    H212979   1.036   4.953   3.360 -0.6809 -0.1145  0.8250
 4339TIP3   OH212980   6.534   5.196   1.379 -0.1384 -0.0774 -0.6350
 4339TIP3    H112981   6.588   5.124   1.347 -0.3841 -0.2111 -0.7453
 4339TIP3    H212982   6.570   5.273   1.334  0.6950  0.0101  0.1479
 4340TIP3   OH212983   1.907   3.389   0.212  0.2618  0.4185  0.1108
 4340TIP3    H112984   1.978   3.343   0.166 -0.8759 -0.1995 -1.1087
 4340TIP3    H212985   1.855   3.318   0.250  0.1897  0.8660  0.8601
 4341TIP3   OH212986   2.209   0.800   3.277 -0.2614 -0.0711 -0.7890
 4341TIP3    H112987   2.204   0.894   3.293  0.2796 -0.0039 -0.9867
 4341TIP3    H212988   2.244   0.763   3.358 -1.2403 -0.2064 -0.4149
 4342TIP3   OH212989   5.770   5.447   1.208 -0.2789 -0.0008  0.6307
 4342TIP3    H112990   5.735   5.359   1.222 -3.1605  1.0248  0.7057
 4342TIP3    H212991   5.861   5.434   1.183 -0.5988 -2.9751  0.7091
 4343TIP3   OH212992   5.431   3.887   0.713 -0.0706  0.1458 -0.5186
 4343TIP3    H112993   5.469   3.840   0.788 -2.0417  0.8635  1.0151
 4343TIP3    H212994   5.414   3.975   0.746 -1.8962  0.1977 -1.4977
 4344TIP3   OH212995   3.201   6.675   3.986 -0.0207  0.2756  0.6529
 4344TIP3    H112996   3.173   6.587   3.960 -1.0609  0.6931  0.3018
 4344TIP3    H212997   3.138   6.702   4.053 -0.9413  1.5016 -0.6351
 4345TIP3   OH212998   1.185   6.164   4.778 -0.5331 -0.0446  0.1819
 4345TIP3    H112999   1.221   6.098   4.719 -0.0778 -0.1175  0.5348
 4345TIP3    H213000   1.094   6.175   4.749 -0.5805 -0.7340  0.0458
 4346TIP3   OH213001   6.812   5.871   3.292  0.2221 -0.6054 -0.0972
 4346TIP3    H113002   6.813   5.823   3.374  0.3524 -0.7544 -0.1862
 4346TIP3    H213003   6.792   5.961   3.317 -0.6461 -0.8241  0.0022
 4347TIP3   OH213004   5.422   6.614   3.323  0.5103 -0.0195 -0.1002
 4347TIP3    H113005   5.354   6.614   3.255 -0.9707  1.1781  1.3179
 4347TIP3    H213006   5.504   6.611   3.274 -0.4770 -2.5868 -1.8852
 4348TIP3   OH213007   5.995   6.550   0.557  0.6583 -0.4549 -0.5994
 4348TIP3    H113008   5.914   6.600   0.555  1.5635  1.0274 -1.0758
 4348TIP3    H213009   6.047   6.585   0.485  1.4271 -1.9211 -0.7950
 4349TIP3   OH213010   6.056   5.877   2.964 -0.3999 -0.4832 -0.0131
 4349TIP3    H113011   5.992   5.927   3.014  0.0854 -0.2808  0.4216
 4349TIP3    H213012   6.138   5.887   3.013  0.0712 -0.3383 -0.8070
 4350TIP3   OH213013   1.390   0.539   3.563  0.3109 -0.1361 -0.4007
 4350TIP3    H113014   1.485   0.539   3.553  0.2593 -1.5985 -1.1299
 4350TIP3    H213015   1.363   0.624   3.529  1.4669  0.9791  1.2971
 4351TIP3   OH213016   5.792   5.965   0.742  0.4180 -0.3411 -0.1252
 4351TIP3    H113017   5.773   5.945   0.834 -0.9279  1.0034 -0.0816
 4351TIP3    H213018   5.731   5.910   0.692  0.4806 -0.3557 -0.1859
 4352TIP3   OH213019   7.004   6.354   3.195 -0.3567 -0.1455  0.0554
 4352TIP3    H113020   6.942   6.372   3.124  0.1996  0.5786 -0.2700
 4352TIP3    H213021   7.062   6.287   3.159  0.9403  1.3788 -0.8431
 4353TIP3   OH213022   4.305   3.024   2.866 -0.1648 -0.3578  0.4398
 4353TIP3    H113023   4.323   2.949   2.923  0.0799 -0.0090  0.8287
 4353TIP3    H213024   4.231   3.069   2.907 -1.0447 -0.9989 -0.3965
 4354TIP3   OH213025   5.985   5.969   0.348 -0.0430  0.3501  0.1500
 4354TIP3    H113026   5.998   5.968   0.253  0.5937 -2.6916  0.1642
 4354TIP3    H213027   5.892   5.953   0.360 -0.3369  1.8639  0.0862
 4355TIP3   OH213028   3.728   6.487   4.194  0.1923 -0.5321  0.0684
 4355TIP3    H113029   3.761   6.550   4.131 -0.3324  0.0584  0.3692
 4355TIP3    H213030   3.674   6.427   4.143 -0.1120 -0.1427 -0.0700
 4356TIP3   OH213031   4.404   3.593   4.347 -0.3426  0.3721 -0.0751
 4356TIP3    H113032   4.316   3.558   4.333  0.3418 -0.8409 -1.6202
 4356TIP3    H213033   4.461   3.516   4.343  1.1217  1.4601 -2.4923
 4357TIP3   OH213034   5.521   4.702   2.689  0.2836  0.0090 -0.0957
 4357TIP3    H113035   5.580   4.637   2.650  2.0877 -0.0836  2.5942
 4357TIP3    H213036   5.550   4.786   2.653 -1.0029 -0.4001 -2.3028
 4358TIP3   OH213037   1.835   2.294   0.344 -0.8810  0.1735  0.1523
 4358TIP3    H113038   1.790   2.352   0.405 -0.7499  1.4638 -0.9387
 4358TIP3    H213039   1.907   2.347   0.310 -0.7071 -0.6640 -0.8121
 4359TIP3   OH213040   6.977   3.987   4.360  0.0996 -0.2097 -0.1274
 4359TIP3    H113041   6.935   4.070   4.381  1.3291  0.7380 -1.2025
 4359TIP3    H213042   6.973   3.937   4.441 -2.7174 -0.0595 -0.0727
 4360TIP3   OH213043   1.432   0.193   3.466 -0.2224  0.0631  0.2234
 4360TIP3    H113044   1.509   0.236   3.429 -0.7653  1.0104  0.1424
 4360TIP3    H213045   1.367   0.264   3.474 -1.0411 -0.6888  0.3911
 4361TIP3   OH213046   2.794   4.877   1.235 -0.0470  0.6687 -0.1153
 4361TIP3    H113047   2.805   4.801   1.291  1.3765  0.2432 -0.9118
 4361TIP3    H213048   2.826   4.849   1.149 -0.0895  1.9656 -0.5884
 4362TIP3   OH213049   4.372   1.765   1.199  0.0156 -0.8789  0.3614
 4362TIP3    H113050   4.329   1.847   1.225 -0.3074 -1.5994  2.2400
 4362TIP3    H213051   4.396   1.723   1.282  0.1266 -2.7183 -0.5497
 4363TIP3   OH213052   5.879   4.311   5.771  0.7694  0.0283 -0.4304
 4363TIP3    H113053   5.972   4.296   5.753  0.7577 -2.1717  0.9265
 4363TIP3    H213054   5.871   4.299   5.866 -0.9905 -0.4655 -0.6152
 4364TIP3   OH213055   4.859   1.564   3.634  0.3535 -0.0821 -0.2669
 4364TIP3    H113056   4.791   1.506   3.670 -1.2357  0.5248 -2.1222
 4364TIP3    H213057   4.826   1.652   3.652  0.3365  0.2222 -1.6869
 4365TIP3   OH213058   6.912   0.771   2.619  0.2329  0.1929  0.5000
 4365TIP3    H113059   6.953   0.806   2.698 -1.2614 -0.6809  1.7155
 4365TIP3    H213060   6.883   0.848   2.571  2.1223  0.7797  0.2188
 4366TIP3   OH213061   1.141   4.101   2.458  0.2851  0.0826  0.2260
 4366TIP3    H113062   1.121   4.012   2.487 -3.4966  1.1187  1.2994
 4366TIP3    H213063   1.156   4.150   2.538 -0.7392  1.0218 -0.1398
 4367TIP3   OH213064   6.171   4.894   4.723  0.3170  0.0241 -0.0402
 4367TIP3    H113065   6.200   4.979   4.754 -0.0805  0.1138  0.0918
 4367TIP3    H213066   6.208   4.886   4.635  3.2819 -1.1514  1.2123
 4368TIP3   OH213067   0.944   3.301   0.404  0.1105  0.1910  0.4083
 4368TIP3    H113068   0.862   3.267   0.369  0.8085 -0.3928 -0.7234
 4368TIP3    H213069   0.989   3.225   0.440  0.6076  0.3173  0.0721
 4369TIP3   OH213070   5.092   5.888   3.871  0.1676 -0.0815 -0.2184
 4369TIP3    H113071   5.181   5.872   3.840  0.2788 -1.4553  0.7042
 4369TIP3    H213072   5.104   5.930   3.957 -0.0723 -0.2547 -0.0992
 4370TIP3   OH213073   6.895   0.675   3.795 -1.0265  0.0767  0.1157
 4370TIP3    H113074   6.896   0.644   3.705  0.4451  0.8842 -0.1777
 4370TIP3    H213075   6.960   0.746   3.797  0.1056 -0.9175  2.1490
 4371TIP3   OH213076   4.146   1.247   4.301  0.7360 -0.0055 -0.4491
 4371TIP3    H113077   4.204   1.281   4.233 -0.5884  0.8316 -1.1894
 4371TIP3    H213078   4.136   1.154   4.279  3.0196 -0.5945  0.6193
 4372TIP3   OH213079   7.081   2.331   2.126  0.0964 -0.1382 -0.0354
 4372TIP3    H113080   7.008   2.348   2.186  1.5610  0.9132  1.5411
 4372TIP3    H213081   7.070   2.239   2.101 -1.2363 -0.2644  0.8988
 4373TIP3   OH213082   5.407   3.707   5.722  0.5226  0.7238 -0.0123
 4373TIP3    H113083   5.369   3.723   5.635  0.1439 -0.8476 -0.1776
 4373TIP3    H213084   5.492   3.749   5.719  0.8904 -0.0418 -1.4898
 4374TIP3   OH213085   3.967   0.717   1.976 -0.3263 -0.3199 -0.9150
 4374TIP3    H113086   3.893   0.668   2.014 -0.7876 -0.2928 -1.7411
 4374TIP3    H213087   3.973   0.683   1.887  0.2367  0.1631 -1.0600
 4375TIP3   OH213088   2.536   0.785   3.141 -0.5067 -0.3268  0.1766
 4375TIP3    H113089   2.552   0.738   3.060 -0.6393  0.7841 -0.5163
 4375TIP3    H213090   2.484   0.860   3.115 -0.2644  0.2303  1.2401
 4376TIP3   OH213091   3.596   0.642   0.081  0.0277  0.0912 -0.0998
 4376TIP3    H113092   3.559   0.730   0.068 -0.4875 -0.1895 -0.5863
 4376TIP3    H213093   3.519   0.585   0.086  0.3702 -0.3706 -0.1006
 4377TIP3   OH213094   0.875   6.547   0.828  0.0507 -0.9598 -0.3940
 4377TIP3    H113095   0.930   6.470   0.843 -1.1141 -1.8094 -0.3060
 4377TIP3    H213096   0.809   6.543   0.898 -0.5393 -0.3754 -0.9050
 4378TIP3   OH213097   5.821   6.622   4.650  0.0430 -0.2753 -0.2083
 4378TIP3    H113098   5.820   6.596   4.743  0.5862  0.7933  0.1132
 4378TIP3    H213099   5.893   6.572   4.612 -0.0774 -0.5982 -0.0168
 4379TIP3   OH213100   1.089   4.884   0.987 -0.0092  0.1151 -0.1392
 4379TIP3    H113101   1.009   4.855   1.031  0.3465  0.5226  0.8085
 4379TIP3    H213102   1.113   4.810   0.930  0.9255 -1.5629  2.2706
 4380TIP3   OH213103   3.667   0.535   4.911  0.3306 -0.2674 -0.2047
 4380TIP3    H113104   3.698   0.626   4.916 -1.6128  0.4022  0.8152
 4380TIP3    H213105   3.744   0.485   4.884  1.7147  1.5458  0.1582
 4381TIP3   OH213106   5.159   2.804   3.911  0.0186  0.4736  0.1147
 4381TIP3    H113107   5.201   2.889   3.924  1.6638  0.0042 -1.6202
 4381TIP3    H213108   5.181   2.753   3.989  1.7290  0.6413 -0.2229
 4382TIP3   OH213109   4.622   3.479   3.383  0.0881 -0.0859  0.5681
 4382TIP3    H113110   4.576   3.477   3.467  0.3302 -1.7643  0.6964
 4382TIP3    H213111   4.664   3.393   3.377  0.3205  0.1232 -1.1336
 4383TIP3   OH213112   6.551   3.746   0.104  0.0618 -0.1248  0.3446
 4383TIP3    H113113   6.572   3.655   0.082 -1.9408 -0.3394 -0.9803
 4383TIP3    H213114   6.628   3.796   0.076 -0.2241 -1.0404 -2.3631
 4384TIP3   OH213115   5.118   5.573   0.085  0.1143  0.1168  0.1534
 4384TIP3    H113116   5.054   5.504   0.105  0.4736 -0.2365  0.1023
 4384TIP3    H213117   5.103   5.639   0.152 -0.5133  0.1811 -0.0419
 4385TIP3   OH213118   5.148   4.937   5.575  0.8893 -0.2372 -0.4178
 4385TIP3    H113119   5.118   4.871   5.638  0.0816 -0.7355 -1.2985
 4385TIP3    H213120   5.111   4.909   5.491 -1.1555  2.3596 -0.5102
 4386TIP3   OH213121   6.101   5.632   1.982 -0.0572  0.3820 -0.3309
 4386TIP3    H113122   6.027   5.630   2.041  1.2688  0.3059  1.4147
 4386TIP3    H213123   6.177   5.614   2.038  1.1972 -0.4542 -2.1810
 4387TIP3   OH213124   2.870   3.599   1.859 -0.1413 -0.8916  0.2920
 4387TIP3    H113125   2.953   3.598   1.907  1.8580  0.1876 -2.8352
 4387TIP3    H213126   2.831   3.684   1.880  0.9042 -0.2581 -0.2849
 4388TIP3   OH213127   1.646   4.969   0.317  0.0692 -0.1638 -0.4279
 4388TIP3    H113128   1.701   4.928   0.384 -0.6139  0.0040  0.2537
 4388TIP3    H213129   1.655   5.063   0.333 -0.0652 -0.1214 -0.5955
 4389TIP3   OH213130   4.276   3.313   3.471 -0.0273  0.1726  1.0948
 4389TIP3    H113131   4.342   3.243   3.475 -0.8474 -0.5819  2.2768
 4389TIP3    H213132   4.280   3.344   3.381  1.0463 -0.7257  0.7973
 4390TIP3   OH213133   3.194   6.007   3.308 -0.0317 -0.7820  0.8972
 4390TIP3    H113134   3.253   5.956   3.363 -0.0105 -2.4943 -0.6236
 4390TIP3    H213135   3.129   6.042   3.369  1.6653 -0.0590  2.4107
 4391TIP3   OH213136   4.583   0.047   5.076  0.7788  0.0148 -0.0565
 4391TIP3    H113137   4.491   0.067   5.094  1.1697  1.5466  0.3859
 4391TIP3    H213138   4.580  -0.014   5.002 -0.6425 -1.6269  1.2794
 4392TIP3   OH213139   3.232   1.739   2.391  0.6662 -0.3461  0.2891
 4392TIP3    H113140   3.185   1.719   2.472  0.2127 -1.1278 -0.1461
 4392TIP3    H213141   3.238   1.654   2.346 -0.3318  0.3153 -1.1444
 4393TIP3   OH213142   0.647   3.310   1.365 -0.1168  0.1392 -0.1068
 4393TIP3    H113143   0.621   3.397   1.333  1.2332  0.5103 -0.2588
 4393TIP3    H213144   0.608   3.249   1.302  0.1766  0.7229 -0.8689
 4394TIP3   OH213145   4.156   4.860   5.105  0.3050  0.7926 -0.1552
 4394TIP3    H113146   4.175   4.869   5.012 -0.9441 -0.6815 -0.5973
 4394TIP3    H213147   4.125   4.947   5.131 -1.1900  0.7426 -1.6118
 4395TIP3   OH213148   6.510   1.504   3.102  0.6828  0.2869 -0.2037
 4395TIP3    H113149   6.509   1.423   3.050 -0.7948  0.1108  0.0525
 4395TIP3    H213150   6.527   1.474   3.191 -0.8106  0.1320  0.0468
 4396TIP3   OH213151   2.192   4.983   2.179  0.6584 -0.1471  0.0686
 4396TIP3    H113152   2.132   5.000   2.107 -0.8322  0.3309  1.3599
 4396TIP3    H213153   2.232   5.069   2.197  0.4268 -0.0890  0.3150
 4397TIP3   OH213154   2.178   4.138   2.720 -0.2890 -0.0278 -0.0665
 4397TIP3    H113155   2.149   4.149   2.630 -1.1757  1.1923  0.3429
 4397TIP3    H213156   2.111   4.083   2.760 -1.3872  1.6600  0.5210
 4398TIP3   OH213157   5.629   6.166   3.175  0.1263 -0.4522  0.0297
 4398TIP3    H113158   5.705   6.210   3.212  0.3035 -1.4107  0.8220
 4398TIP3    H213159   5.625   6.198   3.084  0.4429  0.9170  0.4733
 4399TIP3   OH213160   0.971   6.637   2.256  0.1991  0.4608 -0.0060
 4399TIP3    H113161   0.904   6.681   2.204  0.7290  1.6032  0.2433
 4399TIP3    H213162   0.995   6.560   2.205  0.5826  1.4565 -1.3656
 4400TIP3   OH213163   1.477   2.566   4.490 -1.2323 -0.2188 -0.1710
 4400TIP3    H113164   1.536   2.583   4.417  0.6161 -0.1746  1.2550
 4400TIP3    H213165   1.505   2.481   4.524 -0.8313  0.5585  1.5546
 4401TIP3   OH213166   2.779   3.942   4.774  0.0828  0.2882  0.1056
 4401TIP3    H113167   2.828   3.986   4.844  0.6420 -0.4699  0.1933
 4401TIP3    H213168   2.802   3.991   4.695 -1.4503  1.8911  0.5762
 4402TIP3   OH213169   2.245   6.459   1.743 -0.0655 -0.0089  0.0397
 4402TIP3    H113170   2.233   6.552   1.762 -0.7872 -0.1946  0.5215
 4402TIP3    H213171   2.157   6.422   1.746  0.1442 -0.6038 -0.7529
 4403TIP3   OH213172   6.445   3.266   3.804 -0.2765  0.5691 -0.2115
 4403TIP3    H113173   6.437   3.303   3.716 -0.5583 -0.3111 -0.5694
 4403TIP3    H213174   6.420   3.174   3.793 -0.4569  0.4896  0.8202
 4404TIP3   OH213175   6.186   3.479   1.801 -0.2735  0.0157 -0.2300
 4404TIP3    H113176   6.100   3.502   1.767 -1.5602 -0.4980  2.4738
 4404TIP3    H213177   6.192   3.525   1.884  0.7905 -2.3029  1.0642
 4405TIP3   OH213178   2.705   5.575   2.548  0.6011 -0.3480  0.6267
 4405TIP3    H113179   2.664   5.532   2.623  0.5287 -1.0269  0.2154
 4405TIP3    H213180   2.772   5.513   2.519  0.3007 -0.3185 -0.1546
 4406TIP3   OH213181   1.034   2.941   2.196 -0.0247 -0.5112 -0.6288
 4406TIP3    H113182   0.994   3.011   2.248 -0.7407 -2.5732  1.8091
 4406TIP3    H213183   0.966   2.914   2.135  0.0382  0.4634 -1.1449
 4407TIP3   OH213184   0.884   1.832   3.333 -0.0909  0.1902  0.6271
 4407TIP3    H113185   0.863   1.750   3.377  0.1953  0.4353  1.2471
 4407TIP3    H213186   0.977   1.827   3.315 -0.3087 -0.1318 -0.4564
 4408TIP3   OH213187   4.214   1.486   5.652  0.0007 -0.5867  0.0393
 4408TIP3    H113188   4.151   1.525   5.714  1.1208  1.7675 -0.1798
 4408TIP3    H213189   4.210   1.392   5.670 -2.3815 -0.3584  1.1308
 4409TIP3   OH213190   1.171   0.147   1.175  0.5934  0.7179  0.5366
 4409TIP3    H113191   1.100   0.102   1.221 -0.0597  1.4290  0.2405
 4409TIP3    H213192   1.161   0.121   1.083  0.2904  1.3518  0.3844
 4410TIP3   OH213193   4.950   4.887   2.297 -0.2676  0.1632 -0.1894
 4410TIP3    H113194   4.915   4.874   2.385  2.3934  0.0426  0.9333
 4410TIP3    H213195   5.019   4.952   2.308 -0.4629  0.8235 -2.3835
 4411TIP3   OH213196   2.513   5.894   4.606  0.1076  0.6120  0.3440
 4411TIP3    H113197   2.526   5.808   4.647  0.7521  0.0158 -1.0601
 4411TIP3    H213198   2.418   5.903   4.599  0.0406 -0.2406  0.0118
 4412TIP3   OH213199   5.214   4.282   1.164 -0.3065  0.0055 -0.2043
 4412TIP3    H113200   5.241   4.279   1.255  1.0659 -2.5823 -0.6112
 4412TIP3    H213201   5.259   4.358   1.127  0.0017  0.4141  0.9908
 4413TIP3   OH213202   4.148   3.796   4.941  0.2677  0.1390  0.0801
 4413TIP3    H113203   4.227   3.790   4.887  0.2798 -0.9109  0.1860
 4413TIP3    H213204   4.121   3.705   4.953 -0.5299  0.4459  0.6822
 4414TIP3   OH213205   2.206   0.388   4.293 -0.1264  0.1545  0.2537
 4414TIP3    H113206   2.245   0.301   4.284 -0.9140 -0.0971 -1.1477
 4414TIP3    H213207   2.183   0.413   4.203  1.6354  2.5688  0.3807
 4415TIP3   OH213208   5.945   4.442   4.579 -0.4106 -0.0245 -0.6632
 4415TIP3    H113209   5.952   4.349   4.554  0.9187 -0.2789  0.5034
 4415TIP3    H213210   6.004   4.450   4.654 -2.3546  1.2298  0.8175
 4416TIP3   OH213211   5.910   4.071   2.201 -0.4191  0.0175 -0.5397
 4416TIP3    H113212   6.005   4.067   2.189 -0.2637 -1.6038  0.9206
 4416TIP3    H213213   5.898   4.133   2.273 -0.5056  0.4118 -0.8874
 4417TIP3   OH213214   0.998   2.023   5.400 -0.0537 -0.8026  0.0704
 4417TIP3    H113215   1.079   1.982   5.432 -0.6579 -2.7494 -0.7682
 4417TIP3    H213216   0.931   1.956   5.412 -1.3418  0.3647 -0.3394
 4418TIP3   OH213217   2.151   6.266   1.511 -0.2093  0.4733 -0.0048
 4418TIP3    H113218   2.129   6.357   1.494 -0.9513  0.0187 -1.6388
 4418TIP3    H213219   2.084   6.237   1.573 -0.9958  0.5907 -0.7855
 4419TIP3   OH213220   5.040   6.007   0.087  0.5365  0.2027 -0.4653
 4419TIP3    H113221   4.946   5.990   0.086  0.6124 -0.3792  0.4860
 4419TIP3    H213222   5.047   6.098   0.114  0.2450  0.2297 -0.4727
 4420TIP3   OH213223   2.653   2.229   2.358  0.1925  0.0357  0.0414
 4420TIP3    H113224   2.620   2.151   2.402 -0.7305 -0.1215 -0.8974
 4420TIP3    H213225   2.604   2.233   2.276 -1.1953  2.6611  0.8928
 4421TIP3   OH213226   5.669   5.030   5.806 -0.0646  0.7526  0.8850
 4421TIP3    H113227   5.716   5.019   5.889  1.9281  0.6354 -0.2027
 4421TIP3    H213228   5.681   5.122   5.784  1.5622  0.2588 -0.4522
 4422TIP3   OH213229   1.807   3.195   1.784 -0.6827  0.2994  0.1976
 4422TIP3    H113230   1.715   3.208   1.764 -1.2311 -1.3550  1.4926
 4422TIP3    H213231   1.809   3.166   1.876  1.1955  1.1739  0.4961
 4423TIP3   OH213232   1.901   1.391   1.353 -0.3224  0.5264  0.6914
 4423TIP3    H113233   1.855   1.386   1.269  1.1270 -0.9329 -0.0565
 4423TIP3    H213234   1.952   1.310   1.358 -0.3400  0.5981  2.9793
 4424TIP3   OH213235   3.548   3.037   4.622 -0.2255  0.2637 -0.4776
 4424TIP3    H113236   3.505   3.079   4.548 -2.5665 -0.4075  0.4181
 4424TIP3    H213237   3.499   2.956   4.636  0.1498  0.3646  1.7974
 4425TIP3   OH213238   4.817   0.314   1.598 -0.0115  0.1185  0.2907
 4425TIP3    H113239   4.832   0.309   1.693 -2.2543  0.3617  0.7283
 4425TIP3    H213240   4.850   0.400   1.572 -0.3156  0.4811  1.0704
 4426TIP3   OH213241   4.349   0.509   5.014  0.1921 -0.2431  0.1950
 4426TIP3    H113242   4.287   0.437   5.025 -3.0595  1.9030 -2.2000
 4426TIP3    H213243   4.318   0.556   4.936  4.2639  1.7131 -0.5415
 4427TIP3   OH213244   2.205   5.672   1.890 -0.0415  0.0491 -0.6646
 4427TIP3    H113245   2.136   5.662   1.824 -0.5941  1.0131 -0.2601
 4427TIP3    H213246   2.159   5.705   1.967  0.4879 -1.6286  0.4230
 4428TIP3   OH213247   3.293   6.129   3.078  0.0179  0.1976  0.0226
 4428TIP3    H113248   3.257   6.119   3.166 -0.9459  0.8723 -0.2739
 4428TIP3    H213249   3.352   6.055   3.067  0.6172  0.4354  1.4589
 4429TIP3   OH213250   2.292   0.819   1.690 -0.0468  0.0279 -0.5031
 4429TIP3    H113251   2.315   0.756   1.758 -1.4887  0.2277  0.1975
 4429TIP3    H213252   2.342   0.898   1.712  0.4596 -0.3150 -0.4128
 4430TIP3   OH213253   6.637   5.680   1.590  0.1527  0.5699  0.2153
 4430TIP3    H113254   6.585   5.629   1.528  0.1870  0.0195  0.6339
 4430TIP3    H213255   6.573   5.712   1.654  0.0940  1.2715 -0.1887
 4431TIP3   OH213256   3.505   4.000   3.787  0.1209  0.3329 -0.7021
 4431TIP3    H113257   3.491   3.905   3.781  1.2125  0.0134  1.1532
 4431TIP3    H213258   3.540   4.024   3.701  0.2863 -1.0339 -1.0423
 4432TIP3   OH213259   1.929   2.948   5.696 -0.7902 -0.1584 -0.2804
 4432TIP3    H113260   1.979   3.025   5.725  0.7911 -0.6081 -1.6359
 4432TIP3    H213261   1.896   2.910   5.777  3.5611 -1.4690  1.1659
 4433TIP3   OH213262   1.122   2.026   0.125  0.3328  0.4865  0.1875
 4433TIP3    H113263   1.107   2.020   0.219 -1.3797 -0.1480 -0.0874
 4433TIP3    H213264   1.176   1.949   0.105  1.8394  1.3427  0.8156
 4434TIP3   OH213265   2.903   6.250   0.752 -0.0928 -0.1000  0.1597
 4434TIP3    H113266   2.866   6.201   0.679 -1.1963 -0.2052  0.7677
 4434TIP3    H213267   2.995   6.224   0.755 -0.7773 -2.7294  0.9113
 4435TIP3   OH213268   7.148   4.538   1.266 -0.1091  1.0435 -0.1355
 4435TIP3    H113269   7.080   4.490   1.313  0.1213  0.6274 -0.2267
 4435TIP3    H213270   7.229   4.517   1.312 -0.1775  2.4825  0.7188
 4436TIP3   OH213271   6.769   2.799   0.977  0.0525 -0.1719  0.6784
 4436TIP3    H113272   6.774   2.706   0.954  0.5889 -0.0348  0.2192
 4436TIP3    H213273   6.788   2.801   1.071  3.1636 -0.2662  0.1580
 4437TIP3   OH213274   1.970   1.760   0.544 -0.3153 -0.6140 -0.0063
 4437TIP3    H113275   2.058   1.731   0.569  0.6681  1.6091 -0.7076
 4437TIP3    H213276   1.984   1.832   0.483 -2.6553 -0.9739 -1.1001
 4438TIP3   OH213277   2.482   0.382   5.178 -0.7852 -0.0218 -0.0075
 4438TIP3    H113278   2.412   0.327   5.212  0.1093 -0.3012  1.4209
 4438TIP3    H213279   2.558   0.361   5.231  0.8567 -0.8949 -2.5407
 4439TIP3   OH213280   5.772   4.747   2.089  0.1423  0.0113  0.2510
 4439TIP3    H113281   5.730   4.739   2.175  1.2127 -0.2779  0.7770
 4439TIP3    H213282   5.866   4.745   2.109  0.4056 -0.2389 -0.9522
 4440TIP3   OH213283   0.408   4.364   0.160 -0.3602  0.5381 -1.0396
 4440TIP3    H113284   0.344   4.330   0.222  0.8004  0.7937  0.3595
 4440TIP3    H213285   0.482   4.303   0.165  0.5965  1.6856 -0.5866
 4441TIP3   OH213286   0.057   3.521   0.440 -0.5796  0.0295 -0.7683
 4441TIP3    H113287   0.087   3.441   0.398 -0.0604 -1.6110  2.4113
 4441TIP3    H213288   0.136   3.570   0.460 -0.8527  1.0540 -2.0608
 4442TIP3   OH213289   4.015   4.219   1.004 -0.1640 -0.0467  0.6303
 4442TIP3    H113290   3.988   4.224   1.095  0.1066  0.0278  0.7071
 4442TIP3    H213291   3.941   4.256   0.955 -0.8740 -1.2964  0.7094
 4443TIP3   OH213292   3.796   1.172   4.925  0.4834 -0.3635 -0.2439
 4443TIP3    H113293   3.715   1.147   4.881  0.3624  2.0692 -1.5257
 4443TIP3    H213294   3.807   1.265   4.907  2.0758  0.0689  2.3306
 4444TIP3   OH213295   5.520   4.549   5.264  0.3341  0.8221  0.4953
 4444TIP3    H113296   5.486   4.526   5.177  1.8074 -0.1759  0.1591
 4444TIP3    H213297   5.470   4.493   5.324  2.5733 -2.0951 -0.1602
 4445TIP3   OH213298   1.098   0.642   5.275 -0.4262  0.0694 -0.1004
 4445TIP3    H113299   1.193   0.648   5.277 -0.3224 -1.4301  1.3955
 4445TIP3    H213300   1.070   0.675   5.361 -1.2643  0.4186 -0.4948
 4446TIP3   OH213301   1.919   2.319   3.170 -0.5038 -0.2765 -0.3426
 4446TIP3    H113302   1.824   2.319   3.152 -0.7322  1.2873  0.6721
 4446TIP3    H213303   1.941   2.411   3.179  1.0475 -0.6530 -0.1244
 4447TIP3   OH213304   0.201   1.631   4.135  0.5467  0.0650  0.5723
 4447TIP3    H113305   0.275   1.570   4.139  0.8611  0.3588 -0.3550
 4447TIP3    H213306   0.130   1.578   4.098  0.1514 -0.3367  1.8758
 4448TIP3   OH213307   1.413   2.222   1.685 -0.0864 -0.3713 -0.2448
 4448TIP3    H113308   1.468   2.253   1.758 -0.3742  0.6507 -0.4407
 4448TIP3    H213309   1.432   2.129   1.679 -0.3252 -0.5571  1.3765
 4449TIP3   OH213310   3.425   3.110   4.986  0.5344  0.6105  0.5628
 4449TIP3    H113311   3.334   3.138   4.991 -0.0734 -0.1889 -3.2768
 4449TIP3    H213312   3.422   3.015   4.997  0.8486  0.5389  0.0644
 4450TIP3   OH213313   7.180   6.074   1.771  0.5873  0.4136  0.5402
 4450TIP3    H113314   7.129   6.006   1.816 -0.7996  0.6208 -0.6577
 4450TIP3    H213315   7.168   6.152   1.826  0.1214  0.2978  0.6135
 4451TIP3   OH213316   1.803   1.133   3.725 -0.7268 -0.0155  0.2994
 4451TIP3    H113317   1.886   1.138   3.678 -0.2118 -0.6976  1.1015
 4451TIP3    H213318   1.827   1.102   3.813 -1.5054  2.1546  1.3631
 4452TIP3   OH213319   4.042   0.393   5.579  0.1857  0.0052 -0.1140
 4452TIP3    H113320   4.134   0.379   5.602  0.6327  2.0773 -0.4662
 4452TIP3    H213321   4.045   0.439   5.496 -1.1806  0.1525 -0.0942
 4453TIP3   OH213322   2.078   0.392   0.840 -0.3020 -0.4526 -0.4853
 4453TIP3    H113323   2.051   0.301   0.853 -1.6943 -0.1218 -0.8125
 4453TIP3    H213324   2.118   0.394   0.754  0.7542 -0.9567 -0.0182
 4454TIP3   OH213325   3.244   2.845   5.132  0.2639  0.3876 -0.3672
 4454TIP3    H113326   3.266   2.753   5.116  3.2558  1.1127 -1.0187
 4454TIP3    H213327   3.175   2.865   5.069 -0.4087 -1.3554 -0.2361
 4455TIP3   OH213328   3.467   4.537   5.852 -0.1484  0.4154  0.2201
 4455TIP3    H113329   3.513   4.602   5.800  0.6208 -0.7334 -0.5822
 4455TIP3    H213330   3.526   4.462   5.855 -0.9781 -0.2280  1.1766
 4456TIP3   OH213331   6.093   4.986   2.349 -0.5894  0.0309 -0.3479
 4456TIP3    H113332   6.170   4.971   2.404  0.8187  1.5366 -1.7861
 4456TIP3    H213333   6.101   4.922   2.278 -2.7540 -2.3595  1.3854
 4457TIP3   OH213334   0.736   2.305   5.542 -0.4196 -0.1286  0.0435
 4457TIP3    H113335   0.800   2.371   5.570 -0.3715 -0.5283  0.8941
 4457TIP3    H213336   0.709   2.335   5.455  2.2028 -0.8642 -1.1391
 4458TIP3   OH213337   6.023   5.044   1.504  0.5308 -0.2788  0.0349
 4458TIP3    H113338   5.935   5.061   1.537  0.4251 -1.9844  0.7877
 4458TIP3    H213339   6.010   5.014   1.414  0.0445 -2.6174  0.7940
 4459TIP3   OH213340   1.210   1.595   2.080 -0.4018 -0.6792 -0.3732
 4459TIP3    H113341   1.205   1.631   2.168 -2.7244 -1.5454 -0.0812
 4459TIP3    H213342   1.258   1.513   2.090 -0.5962 -0.7410  0.0793
 4460TIP3   OH213343   2.327   0.640   0.883 -0.3235 -0.4556  0.1264
 4460TIP3    H113344   2.293   0.558   0.918  0.5184 -0.9474 -0.1869
 4460TIP3    H213345   2.279   0.653   0.801 -1.8682  0.3904  1.1236
 4461TIP3   OH213346   7.175   2.891   1.213  0.5559 -0.1860 -0.0122
 4461TIP3    H113347   7.253   2.942   1.190 -0.4587  0.6895 -1.7842
 4461TIP3    H213348   7.171   2.822   1.147 -0.2270 -0.1388 -0.0278
 4462TIP3   OH213349   2.996   6.022   5.048 -0.1507  0.6093  0.0462
 4462TIP3    H113350   3.006   5.961   4.975  0.0567  0.6292  0.0578
 4462TIP3    H213351   3.082   6.063   5.058 -0.2181  0.7157  0.2054
 4463TIP3   OH213352   0.272   3.693   0.459  0.5861  0.7808  0.1454
 4463TIP3    H113353   0.305   3.780   0.438 -0.1233  1.3984  1.4767
 4463TIP3    H213354   0.282   3.685   0.554  0.9096 -0.7182  0.0100
 4464TIP3   OH213355   3.922   3.974   1.554  0.3973 -0.0766 -0.4528
 4464TIP3    H113356   4.013   3.947   1.538  0.4460  0.2785 -0.7923
 4464TIP3    H213357   3.926   4.069   1.561 -0.1719  0.1167 -2.1763
 4465TIP3   OH213358   3.953   6.333   5.124 -0.3782 -0.0646 -0.1361
 4465TIP3    H113359   3.909   6.418   5.124  0.1875  0.2471 -0.8455
 4465TIP3    H213360   3.883   6.269   5.132 -0.9363  0.4277 -0.9970
 4466TIP3   OH213361   5.997   5.167   0.759 -0.1066 -0.1016 -0.2499
 4466TIP3    H113362   6.060   5.124   0.817 -0.7194 -2.3036 -1.1152
 4466TIP3    H213363   5.923   5.190   0.815  0.2680 -0.0943  0.2448
 4467TIP3   OH213364   3.551   2.277   5.488 -0.2370 -0.2701  0.5786
 4467TIP3    H113365   3.609   2.290   5.563 -0.8045  0.6747  0.8665
 4467TIP3    H213366   3.610   2.256   5.416  0.4467  0.4564  0.9144
 4468TIP3   OH213367   5.362   5.378   4.882  0.9911  0.1500  0.3530
 4468TIP3    H113368   5.280   5.416   4.851  0.4385  0.9173  2.5734
 4468TIP3    H213369   5.392   5.439   4.950  1.2414 -2.1910  2.4679
 4469TIP3   OH213370   4.505   0.835   5.725  0.3964 -0.3642 -0.4851
 4469TIP3    H113371   4.583   0.857   5.674 -0.2348 -0.5508 -1.5781
 4469TIP3    H213372   4.446   0.909   5.710  0.0287 -0.6369 -0.3863
 4470TIP3   OH213373   4.983   3.509   5.281 -0.5176 -0.7841  0.1244
 4470TIP3    H113374   4.972   3.449   5.355 -0.9952 -0.8177  0.0354
 4470TIP3    H213375   4.988   3.451   5.204 -0.6717 -0.7236  0.0688
 4471TIP3   OH213376   5.592   1.467   3.875  0.6524  0.4099  0.1027
 4471TIP3    H113377   5.589   1.372   3.876  0.8287  0.4051  0.2324
 4471TIP3    H213378   5.513   1.493   3.827 -0.2794  0.2437  1.4889
 4472TIP3   OH213379   2.564   6.147   5.625  0.2015 -0.0662 -0.0274
 4472TIP3    H113380   2.514   6.179   5.550 -0.1304 -0.8916 -0.1685
 4472TIP3    H213381   2.501   6.147   5.697  0.4386  0.4285  0.1893
 4473TIP3   OH213382   1.343   5.962   1.830 -0.4010 -0.3443  0.0674
 4473TIP3    H113383   1.327   6.039   1.776 -0.0651  0.2985  0.8721
 4473TIP3    H213384   1.257   5.920   1.837 -0.8820  0.7064  0.7461
 4474TIP3   OH213385   6.406   1.677   4.460 -0.6399 -0.0894 -0.3754
 4474TIP3    H113386   6.346   1.651   4.529 -0.8156 -0.4514 -0.6636
 4474TIP3    H213387   6.423   1.597   4.411  0.1313 -0.0047 -0.2596
 4475TIP3   OH213388   0.453   1.259   0.167  0.1464  0.5588  0.4989
 4475TIP3    H113389   0.456   1.324   0.096  2.5003  0.1860  0.1793
 4475TIP3    H213390   0.452   1.311   0.247 -0.8718  0.9819  0.2189
 4476TIP3   OH213391   2.920   6.737   0.200  0.0086 -0.2498 -0.1471
 4476TIP3    H113392   2.909   6.752   0.106 -1.9336  0.8878  0.2047
 4476TIP3    H213393   2.836   6.763   0.238  1.5485  1.7941  2.1817
 4477TIP3   OH213394   0.890   2.280   0.223  0.7218 -0.2996 -0.2655
 4477TIP3    H113395   0.973   2.261   0.268  1.2452 -0.0896 -1.1239
 4477TIP3    H213396   0.889   2.220   0.148  0.0971 -0.2964 -0.2605
 4478TIP3   OH213397   2.936   2.576   3.428  0.1712  0.2796 -0.0594
 4478TIP3    H113398   2.951   2.527   3.509 -1.2509  1.4594  0.9696
 4478TIP3    H213399   2.960   2.666   3.450  0.9022  0.4165 -1.3327
 4479TIP3   OH213400   7.178   6.543   4.738 -0.5056 -0.0900 -0.0892
 4479TIP3    H113401   7.207   6.467   4.687  1.0788 -0.7797  1.7087
 4479TIP3    H213402   7.153   6.507   4.823  0.7713  1.4085  0.9908
 4480TIP3   OH213403   4.782   2.964   5.883 -0.0971  0.1427 -0.3187
 4480TIP3    H113404   4.829   2.968   5.799 -1.0845  2.0519 -0.8342
 4480TIP3    H213405   4.850   2.941   5.946  1.4946  2.2736 -1.1165
 4481TIP3   OH213406   6.001   5.404   1.857  0.3610 -0.4830  0.4242
 4481TIP3    H113407   6.002   5.496   1.882  1.6039  0.2593 -1.9578
 4481TIP3    H213408   6.079   5.367   1.898 -0.2342 -0.5408  1.5278
 4482TIP3   OH213409   1.866   4.613   5.375 -0.0243  0.2729 -0.4937
 4482TIP3    H113410   1.836   4.696   5.338 -0.2693  0.6414  0.4897
 4482TIP3    H213411   1.901   4.564   5.300 -0.2612  1.0897 -1.1528
 4483TIP3   OH213412   4.618   2.883   3.056 -0.0832 -0.1486  0.7321
 4483TIP3    H113413   4.536   2.837   3.040  0.1285  0.1363 -1.4359
 4483TIP3    H213414   4.686   2.819   3.034  0.2124  0.9598 -1.8927
 4484TIP3   OH213415   0.657   2.964   5.696 -0.7259 -0.3649  0.4480
 4484TIP3    H113416   0.567   2.933   5.690 -0.9132  0.4942 -3.7522
 4484TIP3    H213417   0.704   2.917   5.628  1.2959  1.3164  0.5668
 4485TIP3   OH213418   2.953   2.898   5.872  0.3659 -0.6091 -0.1211
 4485TIP3    H113419   2.916   2.984   5.854  3.4344  1.3985  2.3037
 4485TIP3    H213420   3.011   2.881   5.799  1.4264  0.4787  0.4369
 4486TIP3   OH213421   0.650   4.346   3.805 -0.1926 -0.4657 -0.2920
 4486TIP3    H113422   0.642   4.384   3.893 -0.2109  0.5721 -0.7366
 4486TIP3    H213423   0.679   4.418   3.750 -0.6616 -0.9902 -1.2414
 4487TIP3   OH213424   4.955   1.813   1.156 -0.1112  0.0315 -0.3377
 4487TIP3    H113425   4.938   1.770   1.072  0.0231 -0.4812 -0.1083
 4487TIP3    H213426   4.869   1.821   1.197 -0.1590  0.1460 -0.4616
 4488TIP3   OH213427   3.118   4.101   3.849 -0.2363 -0.0182  0.2099
 4488TIP3    H113428   3.170   4.060   3.917  0.2638  0.7734  0.3195
 4488TIP3    H213429   3.062   4.164   3.895  0.7326  1.1667 -0.1512
 4489TIP3   OH213430   5.990   4.189   1.543  0.0507 -0.1996  0.5739
 4489TIP3    H113431   5.904   4.179   1.502 -0.2928 -0.4173  1.3214
 4489TIP3    H213432   6.052   4.173   1.472 -0.5193 -0.0008  0.0133
 4490TIP3   OH213433   1.108   3.008   1.898  0.1667 -0.3111 -0.0181
 4490TIP3    H113434   1.128   3.042   1.985  1.6338 -0.6330 -0.2061
 4490TIP3    H213435   1.189   2.968   1.869 -0.4503 -0.6488 -1.3443
 4491TIP3   OH213436   5.299   0.623   4.619  0.0288 -0.0080 -0.4331
 4491TIP3    H113437   5.386   0.598   4.651 -0.0013  1.1119  0.5926
 4491TIP3    H213438   5.315   0.700   4.565 -0.2275 -0.3912 -1.0682
 4492TIP3   OH213439   1.954   3.465   5.084 -0.0884 -0.2512  0.1674
 4492TIP3    H113440   1.905   3.547   5.093 -2.7983 -1.7264  0.0165
 4492TIP3    H213441   2.026   3.486   5.024 -1.8890  1.5828 -1.5179
 4493TIP3   OH213442   6.442   2.256   5.768 -0.4208  0.2939  0.2406
 4493TIP3    H113443   6.424   2.261   5.674  0.6522  2.9107  0.0965
 4493TIP3    H213444   6.536   2.241   5.774  0.4285  4.5030  0.7079
 4494TIP3   OH213445   2.142   4.060   0.037 -0.1002  0.5610  0.0720
 4494TIP3    H113446   2.211   4.005  -0.001  0.1727  1.2653 -0.4725
 4494TIP3    H213447   2.123   4.019   0.121  0.3541 -0.1599 -0.1637
 4495TIP3   OH213448   5.908   0.978   3.340  0.2461  0.4028 -0.1257
 4495TIP3    H113449   5.898   1.051   3.278 -1.1773 -0.4348 -0.9488
 4495TIP3    H213450   5.994   0.941   3.319  0.0816  0.5577 -1.1524
 4496TIP3   OH213451   4.443   2.619   2.396 -0.2574  0.3788 -0.1020
 4496TIP3    H113452   4.385   2.679   2.348  0.5288 -0.7382 -2.6283
 4496TIP3    H213453   4.429   2.641   2.488 -2.3618  2.2398 -0.7641
 4497TIP3   OH213454   5.430   0.246   5.634  0.2210 -0.1100 -0.3837
 4497TIP3    H113455   5.435   0.177   5.567  0.1977 -0.3474 -0.1435
 4497TIP3    H213456   5.521   0.264   5.657  0.1915 -1.7405  1.2532
 4498TIP3   OH213457   4.795   1.560   5.591 -0.2824 -0.3564  0.3956
 4498TIP3    H113458   4.706   1.536   5.617  0.2886 -1.3277  1.5589
 4498TIP3    H213459   4.851   1.513   5.653  1.0020  1.7072  0.8866
 4499TIP3   OH213460   3.789   1.466   3.213  0.1070  0.1204 -0.2885
 4499TIP3    H113461   3.728   1.529   3.175  0.6933 -0.2859 -2.0150
 4499TIP3    H213462   3.868   1.517   3.230 -0.6874  0.6659  2.0305
 4500TIP3   OH213463   1.507   1.578   0.656  0.4386  0.4419 -0.5219
 4500TIP3    H113464   1.531   1.501   0.708  0.2906 -0.1780 -1.3408
 4500TIP3    H213465   1.586   1.598   0.606  0.4576  0.7893 -0.3510
 4501TIP3   OH213466   3.967   4.745   1.781 -0.0542 -0.0266  0.3025
 4501TIP3    H113467   3.983   4.660   1.822 -0.0402 -0.1694  0.0038
 4501TIP3    H213468   3.965   4.807   1.854 -1.9073 -0.5382  0.7428
 4502TIP3   OH213469   5.735   6.066   2.274  0.0067 -0.0385 -0.3790
 4502TIP3    H113470   5.668   5.998   2.267 -0.1749  0.0489  0.3640
 4502TIP3    H213471   5.791   6.037   2.346 -0.2497  0.7324  0.1454
 4503TIP3   OH213472   0.211   2.208   4.773  0.0514  0.3775 -0.3471
 4503TIP3    H113473   0.157   2.261   4.714 -1.5493 -0.0887  0.6413
 4503TIP3    H213474   0.242   2.270   4.839 -0.1597  0.4618 -0.3243
 4504TIP3   OH213475   6.905   6.598   0.977 -0.5623 -0.0097 -0.0267
 4504TIP3    H113476   6.936   6.638   0.896  0.1630 -0.1789  0.1534
 4504TIP3    H213477   6.978   6.543   1.006  0.4627  2.3231  2.3002
 4505TIP3   OH213478   5.010   2.404   5.674 -0.4120 -0.7346 -0.1891
 4505TIP3    H113479   5.066   2.330   5.652 -0.8319 -1.4492  1.0603
 4505TIP3    H213480   5.019   2.415   5.768 -0.6059  0.6139 -0.3054
 4506TIP3   OH213481   4.017   2.409   1.138 -0.6841 -0.2192 -0.3752
 4506TIP3    H113482   3.954   2.468   1.179 -1.2800  0.8856 -2.6873
 4506TIP3    H213483   3.967   2.329   1.122 -0.9307 -0.0674 -0.3849
 4507TIP3   OH213484   6.143   0.735   2.516 -0.3272  0.2075  0.4655
 4507TIP3    H113485   6.188   0.803   2.566 -1.4669  0.6683  0.9055
 4507TIP3    H213486   6.127   0.665   2.580 -1.1836  0.5094  0.5943
 4508TIP3   OH213487   5.544   0.878   3.208 -0.2042  0.0413  0.2931
 4508TIP3    H113488   5.507   0.933   3.139  2.1272  0.1986 -0.9396
 4508TIP3    H213489   5.566   0.939   3.279  0.3445  0.3632 -0.1550
 4509TIP3   OH213490   7.149   1.549   0.062 -0.5733 -1.1936 -0.1143
 4509TIP3    H113491   7.107   1.630   0.033  1.1592 -0.1156  0.2643
 4509TIP3    H213492   7.134   1.547   0.156 -0.8712 -1.4792 -0.1661
 4510TIP3   OH213493   5.563   1.540   4.491  0.2525 -0.0227 -0.1427
 4510TIP3    H113494   5.534   1.450   4.506  1.8889 -0.2603  2.1776
 4510TIP3    H213495   5.641   1.532   4.437  1.3880 -0.1859  1.4685
 4511TIP3   OH213496   6.031   0.487   2.640 -0.7266  0.0556 -0.6947
 4511TIP3    H113497   5.946   0.530   2.643  0.1246  1.8492 -0.4589
 4511TIP3    H213498   6.082   0.530   2.709  0.7924  0.0630 -1.7675
 4512TIP3   OH213499   5.336   3.318   5.192 -0.1014 -0.7382  0.2695
 4512TIP3    H113500   5.337   3.383   5.263 -1.2215  0.9080 -1.1416
 4512TIP3    H213501   5.414   3.338   5.140 -1.8589  1.4801 -1.7602
 4513TIP3   OH213502   2.549   4.484   2.270  0.0402 -0.4586  0.0694
 4513TIP3    H113503   2.573   4.563   2.220  0.0325 -0.1729  0.5085
 4513TIP3    H213504   2.531   4.517   2.359  0.3654 -1.0016  0.3394
 4514TIP3   OH213505   3.116   0.703   4.940 -0.3642 -0.6920 -1.2522
 4514TIP3    H113506   3.106   0.654   5.022 -0.1716  0.0694 -0.7698
 4514TIP3    H213507   3.167   0.645   4.884 -1.4127 -1.6820 -1.2295
 4515TIP3   OH213508   7.219   0.457   3.940  0.1880 -0.9549  0.5303
 4515TIP3    H113509   7.134   0.441   3.982  0.4052 -1.0016  0.9591
 4515TIP3    H213510   7.277   0.479   4.013 -0.0658  1.8136  0.0138
 4516TIP3   OH213511   0.977   3.594   2.505 -0.1843 -0.6105 -0.6517
 4516TIP3    H113512   1.000   3.505   2.531 -4.5346 -1.0329  3.0559
 4516TIP3    H213513   0.889   3.587   2.469 -0.3368  2.0736 -1.0169
 4517TIP3   OH213514   0.501   4.520   1.894 -0.0396  0.0461  0.1617
 4517TIP3    H113515   0.417   4.550   1.930  0.5032  1.0399  0.6189
 4517TIP3    H213516   0.487   4.426   1.879 -0.9463  0.0111  1.0740
 4518TIP3   OH213517   2.757   0.687   4.127  0.1186 -0.2003 -0.2490
 4518TIP3    H113518   2.814   0.611   4.113  4.1763  2.7375 -1.5945
 4518TIP3    H213519   2.776   0.715   4.217 -0.6641 -0.2048 -0.0745
 4519TIP3   OH213520   6.277   2.554   1.174  0.6147 -0.1064 -0.1911
 4519TIP3    H113521   6.327   2.620   1.222  0.1639 -0.7061  1.1658
 4519TIP3    H213522   6.280   2.583   1.083 -1.8658  3.3167  0.6073
 4520TIP3   OH213523   5.630   3.239   4.279  0.5520  0.2176  0.1174
 4520TIP3    H113524   5.579   3.190   4.344 -0.2282  0.1234 -0.5524
 4520TIP3    H213525   5.647   3.176   4.209 -0.3239  0.8297 -0.6781
 4521TIP3   OH213526   3.134   4.489   4.095  0.6678  0.1647 -0.1639
 4521TIP3    H113527   3.070   4.447   4.037 -0.1559  0.7546  0.2979
 4521TIP3    H213528   3.203   4.424   4.105 -0.1752 -0.7582 -0.1474
 4522TIP3   OH213529   3.686   1.350   1.643  0.3540  0.4177 -0.0651
 4522TIP3    H113530   3.636   1.357   1.562  0.2456  0.1886 -0.0201
 4522TIP3    H213531   3.771   1.317   1.617  0.2947  0.2729 -0.0791
 4523TIP3   OH213532   3.183   0.420   3.871  0.3749  0.0861 -0.0153
 4523TIP3    H113533   3.195   0.511   3.898  0.1599 -0.1622  0.9318
 4523TIP3    H213534   3.091   0.415   3.845  0.6746  0.4212 -1.2319
 4524TIP3   OH213535   1.300   2.043   4.848 -0.7857  0.6363  0.2432
 4524TIP3    H113536   1.315   2.090   4.766  2.1236 -2.9708 -1.6313
 4524TIP3    H213537   1.217   1.997   4.834 -1.6873  2.1142  0.5325
 4525TIP3   OH213538   5.930   5.969   4.701  0.5726 -0.3413 -0.3642
 4525TIP3    H113539   5.959   5.964   4.610 -0.1967  2.5087 -0.8430
 4525TIP3    H213540   5.887   5.884   4.716  1.5734 -1.2766 -2.2994
 4526TIP3   OH213541   4.382   1.131   3.024 -0.5931  0.2395  0.4325
 4526TIP3    H113542   4.314   1.148   2.959 -0.5176  2.4959  0.8561
 4526TIP3    H213543   4.455   1.096   2.973 -1.1373  0.3085 -0.4218
 4527TIP3   OH213544   1.364   0.491   0.117 -0.2060  0.3107 -0.0355
 4527TIP3    H113545   1.347   0.522   0.028  2.5607  0.1337 -0.7167
 4527TIP3    H213546   1.413   0.562   0.158  4.9598 -2.1737 -1.1460
 4528TIP3   OH213547   6.874   4.803   5.635 -0.3117 -0.2401 -0.3288
 4528TIP3    H113548   6.897   4.896   5.635  2.0536 -0.7550  1.1033
 4528TIP3    H213549   6.789   4.799   5.679 -0.9955  1.2941 -1.4109
 4529TIP3   OH213550   4.605   4.352   1.605 -0.1169  0.3030  0.7037
 4529TIP3    H113551   4.685   4.384   1.564 -0.7295  1.5359  0.4077
 4529TIP3    H213552   4.574   4.284   1.546  0.7976 -0.3083  0.9125
 4530TIP3   OH213553   4.733   2.608   2.000  0.4309  0.4405  0.1469
 4530TIP3    H113554   4.755   2.697   2.028  0.4781  0.0720  1.3374
 4530TIP3    H213555   4.665   2.580   2.061  0.2795 -0.2728 -0.3443
 4531TIP3   OH213556   2.675   1.272   4.269  0.3787 -0.6399  0.2112
 4531TIP3    H113557   2.630   1.191   4.246 -2.3852  0.7663  0.2741
 4531TIP3    H213558   2.650   1.289   4.360  3.3606 -1.1576  1.2474
 4532TIP3   OH213559   4.300   2.195   3.053  0.1696  0.2332  0.2161
 4532TIP3    H113560   4.379   2.229   3.095  0.5622 -0.4536  0.0522
 4532TIP3    H213561   4.298   2.237   2.967  1.4274 -1.1766 -0.5552
 4533TIP3   OH213562   5.060   5.271   2.706  0.3881 -0.2444 -0.4143
 4533TIP3    H113563   5.110   5.218   2.769 -0.2128 -2.4594 -1.7105
 4533TIP3    H213564   5.125   5.330   2.668  0.6485  1.7979  2.7526
 4534TIP3   OH213565   1.982   4.240   1.593 -0.2883  0.2994  0.0344
 4534TIP3    H113566   1.950   4.252   1.503  0.0891  0.6042 -0.0629
 4534TIP3    H213567   2.022   4.153   1.593  1.2253  0.9581 -0.5633
 4535TIP3   OH213568   2.235   6.502   0.663  0.1804  0.1763  0.2662
 4535TIP3    H113569   2.154   6.553   0.654  0.7718  1.0920 -0.0283
 4535TIP3    H213570   2.245   6.489   0.758  0.8327  2.0226  0.5079
 4536TIP3   OH213571   1.287   4.514   3.040  0.1728  0.1816 -0.0127
 4536TIP3    H113572   1.204   4.466   3.049 -0.2578  0.0128 -3.5493
 4536TIP3    H213573   1.350   4.448   3.010  0.8852  0.8312  0.0146
 4537TIP3   OH213574   2.848   5.513   5.787  0.7493 -0.0096  1.0023
 4537TIP3    H113575   2.850   5.487   5.879  2.7912 -1.5124  0.6011
 4537TIP3    H213576   2.928   5.476   5.749 -0.1825  0.2672 -1.4624
 4538TIP3   OH213577   1.316   1.573   3.407  0.0378 -0.8243  0.0186
 4538TIP3    H113578   1.268   1.531   3.336 -0.7444  1.4414 -0.8902
 4538TIP3    H213579   1.405   1.581   3.373 -0.1015 -0.6340 -0.3085
 4539TIP3   OH213580   0.687   6.261   1.783 -0.2307 -0.1388  0.4020
 4539TIP3    H113581   0.655   6.313   1.709 -0.3159 -1.0023 -0.1910
 4539TIP3    H213582   0.617   6.198   1.799 -0.1811  0.0005  1.1844
 4540TIP3   OH213583   2.532   4.822   3.633  0.1112  0.5665  0.6934
 4540TIP3    H113584   2.514   4.902   3.583  1.4038  1.0588  0.9786
 4540TIP3    H213585   2.620   4.836   3.669  0.0300 -0.6568  1.3977
 4541TIP3   OH213586   6.695   4.520   1.830 -0.1253  0.0642 -0.4733
 4541TIP3    H113587   6.652   4.490   1.909 -2.0901 -2.0379 -2.2014
 4541TIP3    H213588   6.773   4.465   1.822  0.5259  0.8307  0.3450
 4542TIP3   OH213589   4.561   6.629   4.568  0.0804  0.0588 -0.2673
 4542TIP3    H113590   4.595   6.688   4.500  0.3376  0.7856  0.4772
 4542TIP3    H213591   4.466   6.635   4.560  0.0431  2.0387  0.9833
 4543TIP3   OH213592   2.279   1.713   1.349  0.1457  0.2885  0.5155
 4543TIP3    H113593   2.304   1.651   1.418  0.9188 -0.3606 -0.3181
 4543TIP3    H213594   2.187   1.695   1.333 -0.1757  0.7693  1.6823
 4544TIP3   OH213595   2.196   5.034   4.301  0.3780  0.2502 -0.3502
 4544TIP3    H113596   2.107   5.056   4.274  1.1502  1.2168 -2.2946
 4544TIP3    H213597   2.220   4.959   4.245  0.2679 -1.0466  1.2690
 4545TIP3   OH213598   2.143   1.522   0.366  0.4946 -0.2800  0.4468
 4545TIP3    H113599   2.215   1.465   0.341  1.1674  0.4595  0.6737
 4545TIP3    H213600   2.181   1.584   0.429  0.7322  2.6294 -2.2778
 4546TIP3   OH213601   0.095   2.392   0.938  0.3192 -0.3153  0.0249
 4546TIP3    H113602   0.001   2.389   0.919  0.4470 -1.4090 -0.5101
 4546TIP3    H213603   0.100   2.424   1.028 -0.5538 -0.0689 -0.0006
 4547TIP3   OH213604   6.904   3.954   5.129  0.3182  0.3877 -0.0609
 4547TIP3    H113605   6.890   4.045   5.103 -0.8885  0.1216 -0.3997
 4547TIP3    H213606   6.874   3.950   5.219 -0.2674  0.1864 -0.2593
 4548TIP3   OH213607   3.686   0.601   1.579  0.2443  0.1617 -0.4078
 4548TIP3    H113608   3.731   0.640   1.505  0.0828 -0.6080 -0.9253
 4548TIP3    H213609   3.661   0.513   1.549 -2.3862  0.8410 -0.4728
 4549TIP3   OH213610   2.318   3.047   0.113  0.4295 -0.0545  0.5116
 4549TIP3    H113611   2.385   3.093   0.062 -0.4328  0.5789 -0.0815
 4549TIP3    H213612   2.236   3.089   0.088 -0.3748 -1.7658  0.1090
 4550TIP3   OH213613   3.386   0.706   1.347 -0.3243 -0.4128 -0.1500
 4550TIP3    H113614   3.453   0.747   1.292  1.8049 -2.1164  1.0043
 4550TIP3    H213615   3.365   0.773   1.413  1.0024 -0.1660  0.0528
 4551TIP3   OH213616   2.533   4.883   0.289 -0.0419  0.1446  0.4516
 4551TIP3    H113617   2.593   4.931   0.346  0.7399 -1.9805  1.5487
 4551TIP3    H213618   2.446   4.898   0.327  0.2519  0.3043  1.0729
 4552TIP3   OH213619   5.899   6.478   3.043  0.6803 -0.1177 -0.1681
 4552TIP3    H113620   5.860   6.495   3.129 -0.0232 -1.2383 -0.2411
 4552TIP3    H213621   5.855   6.539   2.985  0.9340  0.4336  0.2170
 4553TIP3   OH213622   1.566   0.350   0.352  0.1396 -0.3090 -0.7216
 4553TIP3    H113623   1.552   0.372   0.260 -0.1684 -1.2696 -0.9112
 4553TIP3    H213624   1.652   0.307   0.353 -0.4407 -1.5193 -0.7909
 4554TIP3   OH213625   5.088   5.103   1.005 -0.5268 -0.6319 -0.9509
 4554TIP3    H113626   5.074   5.022   0.956 -1.4397 -1.8032  1.1217
 4554TIP3    H213627   5.048   5.087   1.090  2.9715  0.3753  1.0928
 4555TIP3   OH213628   6.350   1.628   0.368  0.3517  0.0571 -0.2502
 4555TIP3    H113629   6.301   1.710   0.363  1.1071  0.5097 -0.2845
 4555TIP3    H213630   6.413   1.634   0.296 -1.1603 -1.6120 -1.8479
 4556TIP3   OH213631   4.114   4.397   1.587 -0.1193 -0.4084 -0.1381
 4556TIP3    H113632   4.034   4.368   1.630  0.1883 -1.0002  0.0563
 4556TIP3    H213633   4.175   4.324   1.600  0.7845  0.4489  0.6216
 4557TIP3   OH213634   0.891   4.067   4.349  0.1545  0.2441 -0.8076
 4557TIP3    H113635   0.927   4.023   4.426  2.5530  0.0569 -1.9177
 4557TIP3    H213636   0.813   4.017   4.327  0.5490 -0.9516  0.3262
 4558TIP3   OH213637   1.295   6.414   5.441 -0.1711 -0.3466 -0.0625
 4558TIP3    H113638   1.368   6.372   5.486 -0.3048 -1.3898 -0.7973
 4558TIP3    H213639   1.312   6.400   5.348  0.5867  2.5874 -0.4655
 4559TIP3   OH213640   1.606   3.346   2.056  0.1886 -0.6202  0.4350
 4559TIP3    H113641   1.601   3.284   2.129 -0.8648 -0.7416  0.2828
 4559TIP3    H213642   1.564   3.426   2.089  2.6017  0.4701  1.0375
 4560TIP3   OH213643   0.330   1.733   5.536  0.1942  0.4188  0.3291
 4560TIP3    H113644   0.306   1.652   5.492  1.6550 -0.5944  1.3303
 4560TIP3    H213645   0.283   1.730   5.619 -1.2665  1.5496 -0.4154
 4561TIP3   OH213646   3.516   4.831   3.985 -0.4118 -0.0974  0.2888
 4561TIP3    H113647   3.508   4.785   4.068  0.9221  0.3697  0.7038
 4561TIP3    H213648   3.429   4.866   3.968 -0.6164  0.1401  1.6968
 4562TIP3   OH213649   4.875   5.710   0.976 -0.3834  0.5800 -0.1686
 4562TIP3    H113650   4.807   5.690   1.041 -0.1612  1.2690  0.2923
 4562TIP3    H213651   4.827   5.722   0.894 -0.8949  1.6387  0.2693
 4563TIP3   OH213652   2.371   6.090   5.181  0.1826 -0.1824 -0.6417
 4563TIP3    H113653   2.343   6.109   5.092 -1.2340 -0.9061 -0.3702
 4563TIP3    H213654   2.439   6.023   5.171  0.9390  0.6628 -1.2374
 4564TIP3   OH213655   0.382   3.872   5.250  0.6504  0.1355  0.5577
 4564TIP3    H113656   0.313   3.925   5.212  0.3578 -0.4031  0.3298
 4564TIP3    H213657   0.431   3.932   5.306 -1.0748  0.1558  2.1291
 4565TIP3   OH213658   5.375   3.656   2.128 -0.2565 -0.8887  0.5913
 4565TIP3    H113659   5.451   3.703   2.095  1.6054 -4.2136 -0.2059
 4565TIP3    H213660   5.395   3.638   2.219 -0.9050 -0.3323  0.8568
 4566TIP3   OH213661   0.286   4.672   2.011 -0.2945 -0.5419  0.2790
 4566TIP3    H113662   0.306   4.753   1.965 -1.1609 -0.0977  0.6736
 4566TIP3    H213663   0.196   4.651   1.986 -0.2036 -1.1867  0.4643
 4567TIP3   OH213664   3.869   6.579   5.383  0.7333  0.2141 -0.4077
 4567TIP3    H113665   3.846   6.550   5.295  0.5685 -0.4757 -0.1393
 4567TIP3    H213666   3.947   6.632   5.371  0.7934  0.0053 -0.9556
 4568TIP3   OH213667   1.186   5.615   2.598 -0.3036 -0.4579 -0.4198
 4568TIP3    H113668   1.106   5.622   2.546 -0.0135  1.3600 -0.6979
 4568TIP3    H213669   1.238   5.691   2.572 -0.2229  0.6699  2.6474
 4569TIP3   OH213670   5.045   1.365   1.512 -0.1680 -0.4001 -0.1444
 4569TIP3    H113671   4.961   1.379   1.556 -0.9105 -0.0363 -1.6021
 4569TIP3    H213672   5.021   1.325   1.428  1.1374 -0.4288 -0.5266
 4570TIP3   OH213673   1.741   1.374   3.816  0.0663  0.0255 -0.6096
 4570TIP3    H113674   1.820   1.361   3.868  0.4122 -0.6628 -1.2970
 4570TIP3    H213675   1.730   1.293   3.768 -1.8328 -0.4327  0.4875
 4571TIP3   OH213676   2.865   6.613   5.652 -0.0852 -0.3387 -0.0409
 4571TIP3    H113677   2.796   6.547   5.659  0.4120 -1.0127 -1.2546
 4571TIP3    H213678   2.817   6.696   5.645 -0.7419 -0.6907  0.1723
 4572TIP3   OH213679   2.777   3.458   3.417  0.2858 -0.6045 -0.6400
 4572TIP3    H113680   2.796   3.459   3.511 -1.1988 -0.1581 -0.3035
 4572TIP3    H213681   2.781   3.366   3.392 -0.1496 -0.8257  0.0669
 4573TIP3   OH213682   5.646   1.866   2.706  0.2513 -0.1786  0.5301
 4573TIP3    H113683   5.585   1.792   2.695  0.3133 -0.1917  0.2633
 4573TIP3    H213684   5.623   1.926   2.635 -0.0329  0.2240  0.9595
 4574TIP3   OH213685   5.152   0.884   3.520  0.0231 -0.3999 -0.3684
 4574TIP3    H113686   5.149   0.794   3.555  0.4106 -0.8094 -1.3655
 4574TIP3    H213687   5.122   0.938   3.593  0.1200 -1.3038  0.3672
 4575TIP3   OH213688   6.518   0.337   5.163 -0.3410  0.1165 -0.2279
 4575TIP3    H113689   6.528   0.323   5.069 -1.3911  0.4987 -0.4135
 4575TIP3    H213690   6.543   0.429   5.177 -0.9049  0.2769 -0.2578
 4576TIP3   OH213691   5.364   1.747   2.341  0.1551 -0.2072 -0.2429
 4576TIP3    H113692   5.315   1.808   2.285  0.8720  0.6816  0.0710
 4576TIP3    H213693   5.456   1.768   2.324  0.4135 -1.1351 -0.0394
 4577TIP3   OH213694   4.461   1.633   1.904  0.3267 -0.1304  0.2040
 4577TIP3    H113695   4.502   1.652   1.820  2.2716 -1.6267  0.7379
 4577TIP3    H213696   4.533   1.603   1.959 -1.0298  0.0883  2.1878
 4578TIP3   OH213697   5.867   5.353   2.216 -0.5077 -0.0652  0.4732
 4578TIP3    H113698   5.786   5.303   2.225 -0.0582 -1.0629 -0.9247
 4578TIP3    H213699   5.937   5.288   2.222  0.2617  0.8553  2.2858
 4579TIP3   OH213700   4.465   0.823   4.431 -0.1929 -0.0829  0.2314
 4579TIP3    H113701   4.543   0.862   4.392  0.2160 -0.3902  0.7318
 4579TIP3    H213702   4.498   0.753   4.487 -0.8728 -0.6474 -0.0583
 4580TIP3   OH213703   0.830   5.714   4.874  0.1201 -0.0793 -0.2395
 4580TIP3    H113704   0.852   5.628   4.909  0.0073 -0.5724 -1.3400
 4580TIP3    H213705   0.818   5.769   4.952  0.4586 -0.9797  0.4715
 4581TIP3   OH213706   0.919   4.484   1.466  0.3915 -0.2831 -0.4646
 4581TIP3    H113707   0.841   4.434   1.490  0.2569  0.1740  0.0875
 4581TIP3    H213708   0.898   4.523   1.382  0.2950 -0.7184 -0.6459
 4582TIP3   OH213709   5.107   4.202   2.039  0.1959 -0.2824  0.0159
 4582TIP3    H113710   5.025   4.215   2.086 -0.1725 -2.1555 -0.0222
 4582TIP3    H213711   5.167   4.266   2.078 -1.3071  1.2986 -0.1283
 4583TIP3   OH213712   6.478   1.332   0.254  0.5960  0.1128 -0.2269
 4583TIP3    H113713   6.421   1.322   0.178  1.7571  1.4737 -1.3187
 4583TIP3    H213714   6.473   1.247   0.299 -1.6222 -0.0677 -0.7149
 4584TIP3   OH213715   0.952   6.111   0.472  0.0413 -0.2339 -0.3239
 4584TIP3    H113716   0.901   6.192   0.471  0.0258 -0.2383 -0.0217
 4584TIP3    H213717   1.024   6.128   0.411  1.6937  1.1010  1.8696
 4585TIP3   OH213718   5.623   3.091   5.281  0.4196 -0.1238 -0.3567
 4585TIP3    H113719   5.566   3.153   5.235 -0.5536 -0.2819  0.5835
 4585TIP3    H213720   5.583   3.005   5.264  1.2517 -0.4075 -0.9219
 4586TIP3   OH213721   5.391   2.641   2.637 -0.0467 -0.6147 -0.3191
 4586TIP3    H113722   5.299   2.660   2.658 -0.3222  0.1478 -1.9702
 4586TIP3    H213723   5.386   2.597   2.552  1.0692 -1.5027  0.0662
 4587TIP3   OH213724   0.173   2.924   5.676 -0.1057  0.2247 -0.4706
 4587TIP3    H113725   0.261   2.892   5.657 -0.2677  0.2777 -1.3568
 4587TIP3    H213726   0.165   2.917   5.771  1.4601  1.7869 -0.1584
 4588TIP3   OH213727   1.659   4.646   2.123 -0.1808  0.1043 -0.2605
 4588TIP3    H113728   1.606   4.641   2.043  0.1872  2.3771 -0.7220
 4588TIP3    H213729   1.695   4.558   2.133 -0.7744 -0.4294 -2.2277
 4589TIP3   OH213730   6.185   6.636   0.916  0.4575  0.1802 -0.2490
 4589TIP3    H113731   6.110   6.576   0.925 -0.2226  0.8747 -1.1070
 4589TIP3    H213732   6.193   6.677   1.002  1.4267 -1.6613  0.6164
 4590TIP3   OH213733   7.009   1.465   4.623  0.1424 -0.3427 -0.0015
 4590TIP3    H113734   7.056   1.483   4.705  0.4363  1.6554 -0.5617
 4590TIP3    H213735   6.953   1.541   4.610  0.6122 -0.2891 -2.0225
 4591TIP3   OH213736   2.677   0.854   1.718  0.1172  0.2643  0.4512
 4591TIP3    H113737   2.606   0.796   1.692 -0.7816  1.5879 -0.1366
 4591TIP3    H213738   2.695   0.831   1.809 -1.2299  0.0658  0.6809
 4592TIP3   OH213739   0.953   4.536   3.826 -0.1198 -0.2465 -0.0913
 4592TIP3    H113740   0.955   4.443   3.807 -1.3900 -0.8397  2.2667
 4592TIP3    H213741   1.044   4.565   3.821  0.3630 -1.7438 -0.2490
 4593TIP3   OH213742   2.953   1.184   5.858 -0.0421  0.3753 -0.2111
 4593TIP3    H113743   2.882   1.139   5.904  0.7586  0.4515  1.1296
 4593TIP3    H213744   3.002   1.114   5.814 -0.2593  0.2087 -0.1900
 4594TIP3   OH213745   1.236   1.071   5.608  0.1806 -0.4848 -0.2506
 4594TIP3    H113746   1.192   1.120   5.677 -0.7893 -0.5865 -0.7781
 4594TIP3    H213747   1.310   1.125   5.582 -0.6294  0.5123 -0.5327
 4595TIP3   OH213748   4.545   5.742   5.366 -0.1463 -0.2112  0.4274
 4595TIP3    H113749   4.552   5.648   5.383 -0.4191 -0.2084  0.5594
 4595TIP3    H213750   4.484   5.774   5.431  0.5962  0.2113  0.9310
 4596TIP3   OH213751   0.992   0.801   2.392 -0.4097 -0.0581 -0.6830
 4596TIP3    H113752   0.946   0.753   2.461 -0.4684 -0.6301 -1.1201
 4596TIP3    H213753   1.048   0.736   2.349 -0.5181  0.2508 -1.3074
 4597TIP3   OH213754   4.317   3.173   5.423 -0.4861  0.0121 -0.1356
 4597TIP3    H113755   4.315   3.255   5.374 -1.4970 -0.8786 -1.6588
 4597TIP3    H213756   4.236   3.174   5.475 -0.1866  0.2364  0.3427
 4598TIP3   OH213757   0.192   3.044   1.152 -0.6026 -0.2806  0.0700
 4598TIP3    H113758   0.260   2.978   1.162 -0.7261 -0.7076 -1.6970
 4598TIP3    H213759   0.232   3.124   1.189  1.3759 -0.2047 -2.0029
 4599TIP3   OH213760   6.426   3.372   4.698  0.5221 -0.3432  0.2435
 4599TIP3    H113761   6.343   3.401   4.735  0.8972  0.9974  0.0670
 4599TIP3    H213762   6.402   3.334   4.613  0.3544  3.1601 -1.4476
 4600TIP3   OH213763   6.372   5.628   3.383 -0.5245  0.0707  0.0004
 4600TIP3    H113764   6.422   5.673   3.452  0.7074  0.2654 -0.9806
 4600TIP3    H213765   6.309   5.692   3.353  0.9401  1.0499 -1.0969
 4601TIP3   OH213766   3.347   1.199   4.706  0.5818  0.2603 -0.2940
 4601TIP3    H113767   3.348   1.235   4.617  0.5284 -0.3339 -0.5419
 4601TIP3    H213768   3.378   1.271   4.762  1.4135  0.3773 -0.8891
 4602TIP3   OH213769   0.432   0.878   5.209 -0.0156 -0.2737 -0.1500
 4602TIP3    H113770   0.418   0.805   5.149 -0.1839 -1.1367  0.9126
 4602TIP3    H213771   0.360   0.938   5.191 -0.0264 -0.4844 -0.8471
 4603TIP3   OH213772   1.861   4.907   2.950 -0.4457 -0.6760  0.8550
 4603TIP3    H113773   1.793   4.952   2.901  0.6186 -1.3762 -1.3834
 4603TIP3    H213774   1.855   4.944   3.038 -1.3193  1.8756 -0.1824
 4604TIP3   OH213775   3.576   6.046   5.540  0.1192  0.5728 -0.3128
 4604TIP3    H113776   3.626   6.071   5.463 -2.1622  1.7178 -1.5221
 4604TIP3    H213777   3.578   6.124   5.596  0.8598  0.1240  0.2947
 4605TIP3   OH213778   2.152   2.812   2.921 -0.5442 -0.0772  0.0012
 4605TIP3    H113779   2.170   2.888   2.977 -0.4709  1.4898 -2.0319
 4605TIP3    H213780   2.119   2.849   2.840  0.3671 -2.1743 -1.4250
 4606TIP3   OH213781   3.054   5.761   5.851 -0.0535  0.2832  0.1450
 4606TIP3    H113782   3.075   5.704   5.925  0.6400  0.8861  0.4313
 4606TIP3    H213783   3.105   5.726   5.778  0.6908  0.7547  0.4216
 4607TIP3   OH213784   4.777   6.348   3.203 -0.1398 -0.2529  0.0496
 4607TIP3    H113785   4.848   6.308   3.254  0.8614 -0.3752 -1.3656
 4607TIP3    H213786   4.816   6.426   3.165 -0.9084 -0.0850 -0.4155
 4608TIP3   OH213787   0.184   0.699   0.619  0.4307  0.0584  0.1608
 4608TIP3    H113788   0.203   0.764   0.687 -0.9706 -1.4062  2.0655
 4608TIP3    H213789   0.245   0.628   0.636  0.4232 -0.1030 -0.4632
 4609TIP3   OH213790   5.664   4.939   2.649  0.7299 -0.4996  0.1863
 4609TIP3    H113791   5.603   5.012   2.659  1.8599  0.4089  0.6468
 4609TIP3    H213792   5.703   4.951   2.563  1.5880 -0.0085  0.6273
 4610TIP3   OH213793   0.848   0.185   1.888  0.3817  0.2456  0.7139
 4610TIP3    H113794   0.918   0.210   1.828 -1.1965  0.6249 -1.0644
 4610TIP3    H213795   0.770   0.229   1.854 -1.5420 -3.0893  0.3389
 4611TIP3   OH213796   5.965   3.047   4.848  0.3553  0.1332 -0.1061
 4611TIP3    H113797   5.967   2.966   4.798 -0.5254  0.4059 -0.6097
 4611TIP3    H213798   6.053   3.085   4.836 -0.1637  0.7604 -2.4450
 4612TIP3   OH213799   5.605   2.983   1.643 -0.4211  0.2333 -0.0571
 4612TIP3    H113800   5.647   2.916   1.589 -0.7884  0.4733 -0.6550
 4612TIP3    H213801   5.636   2.966   1.731 -0.3618 -0.6088 -0.2320
 4613TIP3   OH213802   3.543   5.609   5.043  0.1777  0.0960  0.0240
 4613TIP3    H113803   3.526   5.526   5.087 -1.5774 -0.1428 -0.9923
 4613TIP3    H213804   3.541   5.588   4.950  5.5750  0.2379 -0.4297
 4614TIP3   OH213805   5.860   4.393   1.878 -0.3570 -0.4032  0.2455
 4614TIP3    H113806   5.847   4.299   1.863 -1.4038 -0.1887 -0.2290
 4614TIP3    H213807   5.788   4.435   1.833  0.5595  0.6954 -0.2411
 4615TIP3   OH213808   1.240   1.715   4.621  0.1916 -0.0543 -0.3353
 4615TIP3    H113809   1.230   1.654   4.694 -2.2857  1.8164  1.0458
 4615TIP3    H213810   1.332   1.740   4.623  0.3387 -0.5902  1.7328
 4616TIP3   OH213811   4.944   2.036   0.340 -0.5280  0.2106  0.4290
 4616TIP3    H113812   5.039   2.037   0.350 -0.1839 -2.6730 -1.3977
 4616TIP3    H213813   4.925   2.113   0.286  1.2782 -0.8064 -1.8694
 4617TIP3   OH213814   7.057   6.435   0.339  0.7144 -0.1015 -0.1810
 4617TIP3    H113815   7.058   6.347   0.302  0.7540  0.0771 -0.6064
 4617TIP3    H213816   7.124   6.432   0.408 -1.0504 -1.1428  1.5799
 4618TIP3   OH213817   1.563   4.497   0.689 -0.3270  0.2456  0.0845
 4618TIP3    H113818   1.643   4.530   0.729 -1.1102 -0.1440  2.0617
 4618TIP3    H213819   1.492   4.535   0.742 -1.3657 -1.5485  0.0491
 4619TIP3   OH213820   0.934   5.921   4.734  0.1617 -0.7452 -0.2215
 4619TIP3    H113821   0.898   5.849   4.785  1.2591 -1.1912 -0.0526
 4619TIP3    H213822   0.857   5.968   4.702 -0.5609 -0.3201  1.9924
 4620TIP3   OH213823   0.991   0.282   3.080  0.3908 -0.5531  0.4412
 4620TIP3    H113824   0.967   0.335   3.156 -0.0408 -0.3164  0.1429
 4620TIP3    H213825   0.916   0.223   3.068 -0.5296  0.8501 -1.0982
 4621TIP3   OH213826   4.444   3.868   5.496 -0.6577 -0.6501  0.0254
 4621TIP3    H113827   4.499   3.915   5.559 -0.1709 -0.6517 -0.3961
 4621TIP3    H213828   4.386   3.935   5.460 -0.5728 -0.5462  0.0830
 4622TIP3   OH213829   1.114   3.217   3.991 -0.1303 -0.0408 -0.3454
 4622TIP3    H113830   1.206   3.210   4.016 -0.6196 -1.1599  1.3272
 4622TIP3    H213831   1.109   3.173   3.906  0.9220  0.2576 -0.5722
 4623TIP3   OH213832   3.747   5.543   3.217 -0.1250  0.5266  0.0496
 4623TIP3    H113833   3.821   5.483   3.212 -0.3022  0.2970  0.1697
 4623TIP3    H213834   3.675   5.489   3.250 -0.9337  0.1682 -2.1324
 4624TIP3   OH213835   2.912   5.266   5.249 -0.8857  0.8594 -1.0504
 4624TIP3    H113836   2.852   5.225   5.312  1.4365 -0.1343  0.6676
 4624TIP3    H213837   2.950   5.340   5.297  3.4313 -1.8188  0.2594
 4625TIP3   OH213838   6.731   5.980   4.750  0.0605 -0.3457 -0.4559
 4625TIP3    H113839   6.659   5.962   4.810  0.8012 -0.3741  0.4479
 4625TIP3    H213840   6.801   6.012   4.806  0.2092  1.2826 -1.5137
 4626TIP3   OH213841   5.287   1.507   3.253 -0.2011  0.7368  0.5521
 4626TIP3    H113842   5.261   1.419   3.227 -1.3191  0.5873  2.0320
 4626TIP3    H213843   5.382   1.502   3.265 -0.4659 -0.8873  2.6702
 4627TIP3   OH213844   3.922   1.156   5.213  0.3882  0.7355  0.1871
 4627TIP3    H113845   3.888   1.157   5.124 -0.3852  0.2686  0.4639
 4627TIP3    H213846   4.014   1.133   5.204  0.0974 -0.2219 -0.4359
 4628TIP3   OH213847   2.372   3.223   3.841 -0.2237 -0.3686  0.2593
 4628TIP3    H113848   2.307   3.206   3.910 -0.4141  0.4215  0.2830
 4628TIP3    H213849   2.353   3.158   3.774 -1.3967  0.1855  0.0234
 4629TIP3   OH213850   7.190   3.856   3.743  0.4509 -0.3548 -0.2538
 4629TIP3    H113851   7.232   3.893   3.666  1.2498  0.4947  0.5673
 4629TIP3    H213852   7.191   3.926   3.808  1.9659 -1.7262  1.3309
 4630TIP3   OH213853   4.430   4.776   4.020  0.1211  0.0159  0.4976
 4630TIP3    H113854   4.495   4.712   3.992  0.9834  1.2001 -0.3420
 4630TIP3    H213855   4.446   4.787   4.114  0.5603 -0.3586  0.4687
 4631TIP3   OH213856   0.516   0.649   4.606  0.5238 -0.5491 -0.3982
 4631TIP3    H113857   0.527   0.733   4.562 -3.6095  0.7132  0.5564
 4631TIP3    H213858   0.564   0.658   4.688  1.4468  0.2425 -1.0067
 4632TIP3   OH213859   6.352   1.979   5.596 -0.1104 -0.5374 -0.3540
 4632TIP3    H113860   6.267   1.948   5.626  0.0171  0.3389  1.0233
 4632TIP3    H213861   6.335   2.069   5.566  0.0029 -0.9820 -1.8565
 4633TIP3   OH213862   5.366   5.457   1.883 -0.4036 -0.2633 -0.0264
 4633TIP3    H113863   5.393   5.428   1.971  2.1114 -1.4823 -1.1144
 4633TIP3    H213864   5.354   5.376   1.834 -0.8014  0.4317 -1.1137
 4634TIP3   OH213865   2.471   4.802   5.478  0.2738  0.0114  0.1820
 4634TIP3    H113866   2.560   4.770   5.467 -0.1137 -1.1020  0.1917
 4634TIP3    H213867   2.473   4.853   5.559  0.6154 -1.1284  0.9221
 4635TIP3   OH213868   6.020   1.802   1.303 -0.1777 -0.4226  0.3347
 4635TIP3    H113869   5.976   1.887   1.303  1.6402  0.5692  0.6742
 4635TIP3    H213870   6.113   1.823   1.303  0.3498 -2.4007  2.0604
 4636TIP3   OH213871   3.143   0.623   2.464  0.0176  0.3501  0.1483
 4636TIP3    H113872   3.159   0.597   2.555 -1.0121 -0.6779  0.0587
 4636TIP3    H213873   3.124   0.541   2.419  0.6615  0.8360 -1.0334
 4637TIP3   OH213874   2.588   3.982   5.310  0.5072 -0.2570  0.8715
 4637TIP3    H113875   2.627   3.903   5.272 -1.2189  0.2258 -2.1795
 4637TIP3    H213876   2.576   3.960   5.403  0.1268 -3.5740  0.1468
 4638TIP3   OH213877   4.439   1.098   0.342 -0.1098 -0.1732  0.0164
 4638TIP3    H113878   4.383   1.045   0.285  0.2409 -1.3776  0.7516
 4638TIP3    H213879   4.385   1.173   0.366 -0.6732 -0.2511 -0.9399
 4639TIP3   OH213880   6.036   0.384   4.226  0.2953 -0.1180  0.0140
 4639TIP3    H113881   6.081   0.439   4.161  1.3236 -0.3696  0.4941
 4639TIP3    H213882   6.017   0.303   4.180  0.0578  0.1032 -0.2820
 4640TIP3   OH213883   2.988   2.367   4.692 -0.0206 -0.1462 -0.7680
 4640TIP3    H113884   3.060   2.322   4.736 -0.3472  0.1658  0.0876
 4640TIP3    H213885   2.928   2.392   4.762 -0.8322 -0.1591 -1.4504
 4641TIP3   OH213886   0.208   3.771   5.477 -0.2085 -0.2402 -0.2305
 4641TIP3    H113887   0.240   3.815   5.399 -2.2618 -0.0034 -0.9959
 4641TIP3    H213888   0.115   3.795   5.483 -0.2556 -0.6909  1.9741
 4642TIP3   OH213889   3.998   6.657   1.971 -0.4169  0.2639 -0.5884
 4642TIP3    H113890   3.903   6.665   1.974 -0.3851  0.5541 -0.1829
 4642TIP3    H213891   4.014   6.572   1.931 -0.9158 -1.6902  2.9270
 4643TIP3   OH213892   6.259   1.585   3.032 -0.1727  0.4141 -0.0477
 4643TIP3    H113893   6.348   1.573   3.064 -1.0513 -1.4404  1.9553
 4643TIP3    H213894   6.204   1.547   3.100 -2.4983  1.3148 -1.3237
 4644TIP3   OH213895   4.588   3.941   3.231  0.2263  0.6541 -0.3400
 4644TIP3    H113896   4.652   3.874   3.204 -0.9206 -1.1189  1.0970
 4644TIP3    H213897   4.609   3.958   3.322 -3.0075 -2.1979  1.1592
 4645TIP3   OH213898   6.394   1.305   1.321  0.0883  0.4823 -0.3053
 4645TIP3    H113899   6.359   1.225   1.283  0.8156 -0.1271  0.2903
 4645TIP3    H213900   6.454   1.276   1.389  0.3249  1.5339 -0.0390
 4646TIP3   OH213901   2.681   0.564   3.291 -0.1006  0.1850 -0.1080
 4646TIP3    H113902   2.644   0.639   3.244 -1.2489 -0.7033 -0.6707
 4646TIP3    H213903   2.688   0.594   3.382 -0.9783  0.8161 -0.2393
 4647TIP3   OH213904   2.091   1.950   5.647 -0.5456 -0.0528  0.0860
 4647TIP3    H113905   2.090   1.919   5.556 -1.7860  0.9134 -0.2615
 4647TIP3    H213906   2.162   1.901   5.688 -0.5350 -1.1566 -1.1747
 4648TIP3   OH213907   7.101   4.242   3.316  0.0982  0.3460 -0.3930
 4648TIP3    H113908   7.170   4.203   3.370  0.2813 -0.1081 -0.9361
 4648TIP3    H213909   7.032   4.176   3.315  0.9822 -0.6505 -2.4733
 4649TIP3   OH213910   2.939   3.051   4.168  0.0750 -0.9111  0.1740
 4649TIP3    H113911   3.032   3.031   4.155  0.0762 -0.3661 -0.6818
 4649TIP3    H213912   2.924   3.131   4.119 -0.6966 -0.6032  0.8855
 4650TIP3   OH213913   0.086   5.844   4.667  0.1196 -0.1493 -0.1702
 4650TIP3    H113914   0.089   5.792   4.586 -0.2743  0.7175 -0.7487
 4650TIP3    H213915   0.093   5.935   4.638 -2.0691  0.3283  0.5728
 4651TIP3   OH213916   1.786   1.620   0.122 -0.3267  0.1670  0.3328
 4651TIP3    H113917   1.709   1.671   0.096 -1.1624 -0.8156  0.8132
 4651TIP3    H213918   1.861   1.674   0.095 -1.1663  0.7624 -0.8916
 4652TIP3   OH213919   0.147   4.008   2.162  0.3761  0.6209  0.5196
 4652TIP3    H113920   0.224   3.957   2.186 -0.6992 -1.0644  0.5668
 4652TIP3    H213921   0.182   4.089   2.125  2.2245 -0.9061 -1.2943
 4653TIP3   OH213922   4.438   3.773   0.387  0.1804  0.2125  0.4187
 4653TIP3    H113923   4.468   3.684   0.366  0.0459  0.0304  0.9750
 4653TIP3    H213924   4.384   3.798   0.312  0.9193  0.1675 -0.1467
 4654TIP3   OH213925   5.186   0.882   5.019 -0.0738 -0.1358 -0.1099
 4654TIP3    H113926   5.117   0.935   5.058 -0.3258 -1.0112  0.6726
 4654TIP3    H213927   5.167   0.792   5.048  0.8453 -0.5260 -0.6623
 4655TIP3   OH213928   4.825   5.497   5.176  0.4474 -0.0149  0.1225
 4655TIP3    H113929   4.916   5.525   5.187  0.5721 -0.0428 -0.7887
 4655TIP3    H213930   4.775   5.578   5.170  0.1656  0.0344  2.2999
 4656TIP3   OH213931   3.963   1.854   5.540 -0.1443 -0.0573  0.0569
 4656TIP3    H113932   4.049   1.818   5.518  0.9322  1.8059  0.9652
 4656TIP3    H213933   3.947   1.920   5.472 -0.7571 -0.2197  0.0365
 4657TIP3   OH213934   4.141   5.010   1.407  0.4671 -0.1809  0.4283
 4657TIP3    H113935   4.153   4.919   1.436  0.3968 -1.5937 -3.4084
 4657TIP3    H213936   4.092   5.002   1.326  0.1955  3.3892  0.1084
 4658TIP3   OH213937   1.727   1.151   4.889 -0.3130  0.5101  0.2300
 4658TIP3    H113938   1.808   1.128   4.934 -1.9775 -1.2622  2.5735
 4658TIP3    H213939   1.703   1.071   4.841 -2.6772 -0.5690  2.9309
 4659TIP3   OH213940   1.166   5.541   0.635  0.0360  0.3092  0.0870
 4659TIP3    H113941   1.243   5.529   0.579 -0.3131 -0.6798 -0.2079
 4659TIP3    H213942   1.195   5.513   0.722  0.7222  2.3102  0.5387
 4660TIP3   OH213943   3.347   6.263   4.008 -0.7772 -0.2552  0.1358
 4660TIP3    H113944   3.271   6.321   4.019  0.8889  2.3452 -1.0449
 4660TIP3    H213945   3.380   6.250   4.096  0.0416  2.5310  0.3510
 4661TIP3   OH213946   5.559   6.612   0.842  0.3799 -0.2461 -0.0527
 4661TIP3    H113947   5.621   6.633   0.773  0.0891  1.0773  0.0582
 4661TIP3    H213948   5.552   6.517   0.840 -1.2124 -0.1796 -3.2462
 4662TIP3   OH213949   1.092   4.902   1.629  0.0698 -0.2931 -0.3551
 4662TIP3    H113950   1.154   4.938   1.692 -0.5336  0.6508 -0.2826
 4662TIP3    H213951   1.007   4.906   1.674 -0.6398  1.8413 -1.7432
 4663TIP3   OH213952   6.021   0.591   0.034 -0.4686 -0.2122 -0.1187
 4663TIP3    H113953   6.003   0.634   0.117  0.0649  1.0379 -0.6253
 4663TIP3    H213954   5.946   0.613  -0.022 -0.4928 -0.4660 -0.1903
 4664TIP3   OH213955   2.307   3.450   5.077  0.3949 -0.4550 -0.2605
 4664TIP3    H113956   2.296   3.499   5.158  1.0736 -1.0659  0.2098
 4664TIP3    H213957   2.271   3.363   5.097  1.6855 -0.9951 -0.2043
 4665TIP3   OH213958   4.304   3.082   0.662  0.2196 -0.0110 -0.2386
 4665TIP3    H113959   4.395   3.069   0.634  0.1108 -0.2623 -0.4833
 4665TIP3    H213960   4.271   2.993   0.675 -0.9676 -0.1246 -3.2767
 4666TIP3   OH213961   4.209   1.715   2.397 -0.1496 -0.3589  0.1740
 4666TIP3    H113962   4.235   1.650   2.332  1.1967 -0.5785  0.8889
 4666TIP3    H213963   4.192   1.664   2.477  0.3862  0.0948  0.5911
 4667TIP3   OH213964   4.916   6.782   4.502  0.2657  0.1165 -0.4957
 4667TIP3    H113965   4.992   6.725   4.515 -0.0639 -0.5498 -1.3614
 4667TIP3    H213966   4.859   6.732   4.444  0.4583  1.7907 -2.2334
 4668TIP3   OH213967   3.261   1.827   5.233 -0.0355  0.5206  0.1580
 4668TIP3    H113968   3.250   1.824   5.138  0.7503  1.4864  0.0231
 4668TIP3    H213969   3.292   1.740   5.257  0.1792  0.4020 -0.5358
 4669TIP3   OH213970   2.797   0.825   4.894 -0.2194  0.2788  0.0096
 4669TIP3    H113971   2.790   0.887   4.822 -0.0674 -0.3299 -0.5438
 4669TIP3    H213972   2.890   0.803   4.898  0.1436  1.7947  1.6998
 4670TIP3   OH213973   4.643   2.492   1.534 -0.1840 -0.1587  0.4050
 4670TIP3    H113974   4.729   2.472   1.496 -0.4655 -0.3016 -0.1644
 4670TIP3    H213975   4.648   2.585   1.557  0.0369 -0.1022  0.1347
 4671TIP3   OH213976   2.115   4.049   3.274  0.1695 -0.1606  0.1388
 4671TIP3    H113977   2.163   4.069   3.194  0.5014 -1.1185  0.0855
 4671TIP3    H213978   2.164   4.094   3.343  1.8775 -2.0494  0.2511
 4672TIP3   OH213979   6.401   1.646   5.722  0.5797 -0.3221 -0.5865
 4672TIP3    H113980   6.444   1.731   5.737  1.1675 -0.9617  1.8925
 4672TIP3    H213981   6.472   1.582   5.727 -0.0698 -1.0745 -0.8691
 4673TIP3   OH213982   4.116   4.151   3.494 -0.4594  0.1333 -0.0082
 4673TIP3    H113983   4.059   4.135   3.418 -1.7520 -1.8312  1.2974
 4673TIP3    H213984   4.059   4.195   3.557  0.3506  0.8818  0.2236
 4674TIP3   OH213985   0.749   0.437   3.991  0.0077  0.1172  0.4544
 4674TIP3    H113986   0.741   0.423   3.896 -0.2668 -0.5930  0.5784
 4674TIP3    H213987   0.822   0.499   4.000  2.4124 -2.4553 -0.0394
 4675TIP3   OH213988   1.529   2.847   0.698  0.1374  0.2282 -0.0893
 4675TIP3    H113989   1.590   2.815   0.632  0.9038  1.4093  0.0231
 4675TIP3    H213990   1.572   2.923   0.737 -0.7456  0.1747  1.0638
 4676TIP3   OH213991   4.017   5.462   3.250  0.0864  0.0415  0.2989
 4676TIP3    H113992   4.015   5.460   3.345 -3.0458  0.2429  0.3259
 4676TIP3    H213993   4.059   5.546   3.228 -0.0622  0.4415  1.4974
 4677TIP3   OH213994   2.840   4.642   4.695  0.2783  0.2266  0.1016
 4677TIP3    H113995   2.890   4.724   4.700 -0.4452  0.6539  0.5286
 4677TIP3    H213996   2.813   4.637   4.603 -0.7419  1.1282  0.3350
 4678TIP3   OH213997   5.125   4.761   5.767  0.1169  0.0834 -0.1360
 4678TIP3    H113998   5.050   4.701   5.766  0.8855 -0.9582  0.9951
 4678TIP3    H213999   5.171   4.740   5.849  0.5659  2.0560  0.1811
 4679TIP3   OH214000   5.363   3.042   3.648  1.2201 -0.2044  0.3505
 4679TIP3    H114001   5.288   3.086   3.686  1.1959 -0.1278  0.2162
 4679TIP3    H214002   5.394   3.102   3.580  1.0026 -0.5237 -0.0354
 4680TIP3   OH214003   0.148   5.058   2.454 -0.2066  0.0769  0.2699
 4680TIP3    H114004   0.148   4.986   2.391 -2.1430  0.4448 -0.2113
 4680TIP3    H214005   0.217   5.035   2.516  0.5351 -1.1980 -0.9587
 4681TIP3   OH214006   1.850   4.708   5.102 -0.4975  0.0996 -0.0991
 4681TIP3    H114007   1.908   4.631   5.099 -0.4033  0.0510  1.7728
 4681TIP3    H214008   1.767   4.676   5.067 -0.7551 -1.1799  1.5414
 4682TIP3   OH214009   0.835   5.293   3.644 -0.1625 -0.4535  0.2275
 4682TIP3    H114010   0.749   5.309   3.607  0.4113  0.2164 -0.8829
 4682TIP3    H214011   0.895   5.297   3.569  0.7751 -1.5129  0.8729
 4683TIP3   OH214012   0.250   6.534   0.337 -0.0298 -0.2894  0.1759
 4683TIP3    H114013   0.242   6.629   0.348  1.9762  0.4025 -2.9969
 4683TIP3    H214014   0.162   6.505   0.312 -0.4105  0.9356  0.0292
 4684TIP3   OH214015   4.380   3.720   1.169 -0.3207 -0.1970  0.1112
 4684TIP3    H114016   4.457   3.695   1.220 -1.4637 -0.0145  2.0081
 4684TIP3    H214017   4.320   3.646   1.177 -0.9931  0.3229  0.0022
 4685TIP3   OH214018   6.683   4.463   0.298  0.1940 -0.1543  0.0783
 4685TIP3    H114019   6.655   4.528   0.234  0.8547 -0.2757 -0.3399
 4685TIP3    H214020   6.767   4.431   0.265  0.6189 -0.1101  1.0689
 4686TIP3   OH214021   2.586   0.205   2.229 -0.3044 -0.4640 -0.1178
 4686TIP3    H114022   2.542   0.234   2.149 -0.7353  1.5158  0.7603
 4686TIP3    H214023   2.520   0.153   2.275  0.0611 -1.9101 -1.1735
 4687TIP3   OH214024   0.327   6.718   4.142  0.0529 -0.1344  0.2260
 4687TIP3    H114025   0.415   6.693   4.168  0.1856 -0.2803 -0.3618
 4687TIP3    H214026   0.299   6.780   4.210  0.4709 -0.3512  0.6003
 4688TIP3   OH214027   6.400   3.378   2.100 -0.4657 -0.0347 -0.2345
 4688TIP3    H114028   6.491   3.407   2.091 -0.1866 -1.0832 -0.9643
 4688TIP3    H214029   6.397   3.335   2.186 -0.6215  1.1407  0.3777
 4689TIP3   OH214030   2.366   2.294   0.117 -0.0831 -0.0371  0.2184
 4689TIP3    H114031   2.390   2.359   0.182 -1.5908  1.0981 -0.3004
 4689TIP3    H214032   2.369   2.210   0.164  3.2372  0.1430  0.5522
 4690TIP3   OH214033   5.298   5.701   1.344  0.4123  0.5098  0.1722
 4690TIP3    H114034   5.357   5.712   1.419 -0.1979  0.0647  0.7307
 4690TIP3    H214035   5.219   5.662   1.381  1.3816 -3.2374 -1.1910
 4691TIP3   OH214036   1.500   1.959   1.696 -0.3788 -0.0241  0.1228
 4691TIP3    H114037   1.595   1.967   1.682 -0.4424  1.8746  0.4053
 4691TIP3    H214038   1.492   1.910   1.778  0.2440 -2.3427 -1.1124
 4692TIP3   OH214039   3.090   5.838   2.112 -0.2933  0.2309 -0.7592
 4692TIP3    H114040   3.145   5.870   2.184  0.5333 -0.7447 -0.9210
 4692TIP3    H214041   3.038   5.767   2.152 -0.5880  0.3788 -0.8810
 4693TIP3   OH214042   1.549   3.360   3.614  0.3271  0.0016  0.2353
 4693TIP3    H114043   1.542   3.308   3.694  1.7344  1.1528  1.1489
 4693TIP3    H214044   1.637   3.342   3.581 -0.2579 -0.5085 -1.1146
 4694TIP3   OH214045   0.457   4.991   4.197 -0.0422 -0.1095  0.0009
 4694TIP3    H114046   0.412   4.906   4.200 -1.1704  0.4805  0.3235
 4694TIP3    H214047   0.544   4.971   4.164  0.3163 -1.6613  1.7141
 4695TIP3   OH214048   3.078   5.281   2.178  0.2322  0.1446  0.5973
 4695TIP3    H114049   3.099   5.188   2.173  1.8401  0.4643  1.0202
 4695TIP3    H214050   2.985   5.283   2.202 -0.6417 -1.3458 -2.2155
 4696TIP3   OH214051   5.581   4.332   0.165 -0.5034  0.1959  0.1520
 4696TIP3    H114052   5.538   4.385   0.232 -0.3656 -0.1104  0.4815
 4696TIP3    H214053   5.634   4.269   0.213  1.1012  1.1809 -0.2558
 4697TIP3   OH214054   6.586   1.045   0.022  0.4206 -0.7777 -0.0369
 4697TIP3    H114055   6.530   0.977   0.058 -0.1131 -0.2451  0.1583
 4697TIP3    H214056   6.553   1.059  -0.067 -2.4545  2.3150  1.3144
 4698TIP3   OH214057   3.506   2.088   0.985  0.8036  0.5547 -0.3101
 4698TIP3    H114058   3.576   2.056   1.042 -1.2018 -0.4916  1.7437
 4698TIP3    H214059   3.476   2.011   0.937  0.2098  0.7166 -0.2055
 4699TIP3   OH214060   0.911   0.397   1.284 -0.4666  0.0648 -0.4109
 4699TIP3    H114061   0.825   0.431   1.259 -1.8284 -1.1879  2.1833
 4699TIP3    H214062   0.923   0.320   1.228 -0.8597  0.4585 -1.0460
 4700TIP3   OH214063   2.259   0.198   1.593 -0.1559  0.2943  0.3129
 4700TIP3    H114064   2.225   0.212   1.681 -1.7123 -0.6302 -0.1093
 4700TIP3    H214065   2.193   0.144   1.550  2.0388 -2.0223 -0.4037
 4701TIP3   OH214066   6.689   3.440   0.219 -0.1771 -1.0731  0.2654
 4701TIP3    H114067   6.719   3.530   0.235 -0.9106 -0.2945 -2.1442
 4701TIP3    H214068   6.763   3.385   0.245 -0.6792 -0.1001  4.4506
 4702TIP3   OH214069   7.199   3.260   2.700 -0.3725  0.1218 -0.0757
 4702TIP3    H114070   7.143   3.247   2.776 -0.5425 -0.2544 -0.2644
 4702TIP3    H214071   7.139   3.290   2.631  0.0036  1.9499  0.3459
 4703TIP3   OH214072   6.472   1.581   1.278  0.6655  0.0397 -0.3133
 4703TIP3    H114073   6.403   1.610   1.338 -0.6269  0.8811 -2.1265
 4703TIP3    H214074   6.475   1.486   1.290  1.6769  0.2991  2.2868
 4704TIP3   OH214075   6.202   3.651   4.826  0.4627  0.1170 -1.3212
 4704TIP3    H114076   6.208   3.725   4.766 -0.7641  0.4632 -1.0552
 4704TIP3    H214077   6.255   3.677   4.902 -1.9491  1.9227 -0.0948
 4705TIP3   OH214078   4.621   4.263   4.925 -0.2734 -0.0963  0.1445
 4705TIP3    H114079   4.651   4.306   5.006 -0.1989 -1.0928  0.6636
 4705TIP3    H214080   4.526   4.272   4.927 -0.3169 -0.5864  0.6287
 4706TIP3   OH214081   1.500   1.636   1.702 -0.0224 -0.2149 -0.3009
 4706TIP3    H114082   1.519   1.692   1.777  0.2856  0.2469 -0.7170
 4706TIP3    H214083   1.545   1.678   1.629  0.1236 -0.9510 -0.6400
 4707TIP3   OH214084   1.753   5.553   2.208  0.3973 -0.4015 -0.0680
 4707TIP3    H114085   1.755   5.648   2.204  1.3194 -0.3044  1.7095
 4707TIP3    H214086   1.845   5.527   2.215  0.2054 -1.4794 -1.3024
 4708TIP3   OH214087   2.117   3.355   2.106 -0.1964 -0.7808  0.0283
 4708TIP3    H114088   2.136   3.317   2.020  1.3464  0.0434 -0.0206
 4708TIP3    H214089   2.189   3.325   2.161 -0.9048 -0.8732  0.9169
 4709TIP3   OH214090   2.573   3.712   5.779  0.1671 -0.5033 -0.1561
 4709TIP3    H114091   2.596   3.622   5.759 -0.4464 -0.9730  1.1291
 4709TIP3    H214092   2.485   3.706   5.818  0.5009  0.5329  0.8085
 4710TIP3   OH214093   5.492   0.217   3.786  0.4592  0.0148  0.3629
 4710TIP3    H114094   5.420   0.275   3.810 -1.2777 -1.2336 -1.4594
 4710TIP3    H214095   5.495   0.152   3.856 -1.1759 -0.7129 -0.1806
 4711TIP3   OH214096   1.322   5.351   2.636  0.2143  0.3053  0.1748
 4711TIP3    H114097   1.337   5.324   2.726 -0.5570 -0.3887  0.1085
 4711TIP3    H214098   1.282   5.438   2.644 -0.1913  0.0924  0.5253
 4712TIP3   OH214099   0.320   6.384   4.734 -0.1135 -0.1941  0.2464
 4712TIP3    H114100   0.291   6.475   4.741 -0.6466 -0.1504 -1.9981
 4712TIP3    H214101   0.359   6.378   4.647  3.2680 -1.2364  1.6536
 4713TIP3   OH214102   0.967   0.027   1.302  0.0229 -0.1943  0.3612
 4713TIP3    H114103   0.922   0.045   1.385 -2.8538  1.7243 -1.4208
 4713TIP3    H214104   0.912  -0.039   1.260  0.4059  0.2064 -0.7778
 4714TIP3   OH214105   3.065   4.284   1.907  0.2912  0.2858  0.3118
 4714TIP3    H114106   3.034   4.283   1.817 -0.2210 -0.8850  0.4774
 4714TIP3    H214107   3.133   4.217   1.909 -0.5084 -0.5267  1.0493
 4715TIP3   OH214108   7.131   0.903   5.666 -0.7439 -0.4691 -0.4862
 4715TIP3    H114109   7.100   0.939   5.749  0.6740 -1.0009  0.2875
 4715TIP3    H214110   7.061   0.843   5.639 -0.3532 -1.8461  1.3530
 4716TIP3   OH214111   5.149   1.269   2.601  0.4550 -0.1389  0.2111
 4716TIP3    H114112   5.223   1.225   2.643 -0.2718  0.2880  2.0182
 4716TIP3    H214113   5.190   1.325   2.535  1.7000 -0.4459  0.6793
 4717TIP3   OH214114   6.945   1.738   1.532 -0.3675  0.3314  0.0070
 4717TIP3    H114115   6.876   1.710   1.473 -0.6061  0.2820  0.3062
 4717TIP3    H214116   7.011   1.669   1.528 -0.6773  0.0179  0.2851
 4718TIP3   OH214117   4.134   5.118   5.677  0.1592  0.1274 -0.3516
 4718TIP3    H114118   4.100   5.038   5.637 -0.4226  0.3601 -0.3387
 4718TIP3    H214119   4.073   5.137   5.748 -1.2732  1.9764 -1.9330
 4719TIP3   OH214120   7.075   2.172   3.986 -0.1625 -0.6709  0.2533
 4719TIP3    H114121   7.074   2.212   4.073  0.8766 -1.3030  0.5726
 4719TIP3    H214122   7.138   2.101   3.993  0.5979 -0.1981 -1.2487
 4720TIP3   OH214123   0.494   5.630   1.471  0.1134 -0.3345  0.2553
 4720TIP3    H114124   0.574   5.663   1.512  1.2820 -2.2351 -0.3683
 4720TIP3    H214125   0.425   5.651   1.533  1.3875 -0.4026  1.7627
 4721TIP3   OH214126   5.621   6.334   5.728 -0.3993  0.0866 -0.3325
 4721TIP3    H114127   5.648   6.296   5.645  0.7097 -0.1787  0.1336
 4721TIP3    H214128   5.686   6.401   5.746 -0.9172  0.4871  0.0856
 4722TIP3   OH214129   3.690   5.017   4.059  0.2208 -0.2119  0.3980
 4722TIP3    H114130   3.623   5.085   4.056  0.9113  0.4509 -0.5001
 4722TIP3    H214131   3.646   4.938   4.027 -0.4990 -0.1268  1.1447
 4723TIP3   OH214132   3.467   6.565   3.768 -0.0856  0.2614 -0.1814
 4723TIP3    H114133   3.455   6.520   3.685 -1.4666  0.0300  0.1207
 4723TIP3    H214134   3.425   6.650   3.756 -1.5363 -0.2919  0.6875
 4724TIP3   OH214135   2.074   6.450   2.236 -0.3353  0.2660 -0.6550
 4724TIP3    H114136   2.022   6.528   2.216 -1.4931 -0.8984 -2.4323
 4724TIP3    H214137   2.119   6.430   2.153  1.3599  0.0477  0.2716
 4725TIP3   OH214138   0.831   3.939   1.308 -0.0586 -0.1732  0.2664
 4725TIP3    H114139   0.737   3.959   1.308 -0.2735 -1.1154  1.1761
 4725TIP3    H214140   0.835   3.844   1.295  0.7965 -0.0595 -0.3638
 4726TIP3   OH214141   7.057   5.925   1.094  0.2214 -0.0825  0.1699
 4726TIP3    H114142   7.078   6.005   1.046 -1.9248  0.1931 -0.3901
 4726TIP3    H214143   7.031   5.863   1.027 -0.6438 -0.4166  0.7965
 4727TIP3   OH214144   6.902   4.814   0.655 -0.1000  0.0363  0.0083
 4727TIP3    H114145   6.917   4.789   0.564  0.8031  0.3578  0.0547
 4727TIP3    H214146   6.928   4.906   0.659  0.3528 -0.1101  0.6936
 4728TIP3   OH214147   0.711   1.164   1.319  0.7196  0.0562  0.6687
 4728TIP3    H114148   0.620   1.137   1.307  0.6484 -0.0353  1.4153
 4728TIP3    H214149   0.762   1.101   1.267  0.3248  0.4403 -0.2016
 4729TIP3   OH214150   6.930   1.832   0.856  0.3643 -0.2112 -0.3171
 4729TIP3    H114151   6.985   1.908   0.877  0.3357 -0.3202  0.1498
 4729TIP3    H214152   6.904   1.846   0.765 -2.6165  2.2464  0.7137
 4730TIP3   OH214153   0.229   1.714   3.734 -0.3849  0.4360  0.3514
 4730TIP3    H114154   0.190   1.631   3.760 -1.6990  0.3829 -1.5923
 4730TIP3    H214155   0.250   1.758   3.816 -1.0057 -1.1883  1.4240
 4731TIP3   OH214156   6.844   2.434   3.971  0.0302 -0.0772 -0.2375
 4731TIP3    H114157   6.827   2.403   3.882 -0.5257  0.5652 -0.3634
 4731TIP3    H214158   6.858   2.355   4.022 -1.4571 -0.5582 -0.5230
 4732TIP3   OH214159   0.145   0.176   2.929 -0.4223  0.2100  0.1020
 4732TIP3    H114160   0.171   0.145   3.016  1.4150  1.4101  0.0323
 4732TIP3    H214161   0.207   0.133   2.869  2.6292  4.0919  0.0430
 4733TIP3   OH214162   0.603   0.390   0.492  0.2347  0.2442 -0.1145
 4733TIP3    H114163   0.666   0.339   0.441 -1.3808  0.5934 -2.6443
 4733TIP3    H214164   0.645   0.475   0.506  1.4266 -0.4713  0.7955
 4734TIP3   OH214165   6.465   3.698   2.337  0.1775 -0.4057 -0.0327
 4734TIP3    H114166   6.543   3.646   2.320  0.2319 -0.2088 -0.3900
 4734TIP3    H214167   6.475   3.776   2.282 -0.8547 -0.9485 -1.0136
 4735TIP3   OH214168   2.434   1.517   5.767 -0.3960  0.1844  0.0186
 4735TIP3    H114169   2.399   1.476   5.846 -0.1905 -0.9362 -0.4634
 4735TIP3    H214170   2.503   1.575   5.800  0.1903 -0.8245  0.6099
 4736TIP3   OH214171   6.265   3.700   2.756  0.2786 -0.1245 -0.3890
 4736TIP3    H114172   6.202   3.768   2.779  0.1910  0.6625 -2.7458
 4736TIP3    H214173   6.350   3.737   2.777  0.1982  0.5323 -1.1941
 4737TIP3   OH214174   6.874   2.874   4.452  0.6356  0.8752 -0.5080
 4737TIP3    H114175   6.851   2.967   4.461  1.4749  1.0163  0.3101
 4737TIP3    H214176   6.906   2.866   4.362 -1.2642  0.9491 -1.2357
 4738TIP3   OH214177   2.315   1.529   4.748  0.5585  0.0793 -0.5909
 4738TIP3    H114178   2.335   1.578   4.669 -0.2284  0.6086 -0.4712
 4738TIP3    H214179   2.247   1.467   4.722  1.4140 -0.8618 -0.6958
 4739TIP3   OH214180   5.720   5.769   3.378  0.1047  0.0825 -0.3434
 4739TIP3    H114181   5.695   5.705   3.311 -1.2873  1.3201 -1.0555
 4739TIP3    H214182   5.812   5.748   3.397 -0.2502 -2.0143 -0.6360
 4740TIP3   OH214183   4.787   0.789   2.455 -1.3380 -0.2958 -0.0875
 4740TIP3    H114184   4.849   0.751   2.518 -0.6908  0.6727 -0.1188
 4740TIP3    H214185   4.701   0.770   2.492 -0.9701  0.4219  1.2000
 4741TIP3   OH214186   6.284   1.034   1.552 -0.0706 -0.0377  0.3845
 4741TIP3    H114187   6.254   1.017   1.463 -1.1219  0.4587  0.6275
 4741TIP3    H214188   6.225   1.102   1.585 -0.3046 -0.8630  1.7854
 4742TIP3   OH214189   0.499   4.127   2.743  0.0533 -0.3225  0.1374
 4742TIP3    H114190   0.547   4.062   2.795  1.5782 -0.0193 -0.8272
 4742TIP3    H214191   0.543   4.125   2.658 -1.2732  0.4412 -0.5796
 4743TIP3   OH214192   0.227   2.139   2.365 -0.5778  0.1426 -0.2655
 4743TIP3    H114193   0.226   2.232   2.385 -0.6664  0.0365  0.2506
 4743TIP3    H214194   0.142   2.122   2.324 -0.9771  0.1004  0.5608
 4744TIP3   OH214195   6.429   2.324   5.041  0.3107  0.3455 -0.3099
 4744TIP3    H114196   6.519   2.331   5.075  0.0553  0.0364  0.4654
 4744TIP3    H214197   6.390   2.409   5.061 -0.4464 -0.4786  2.0624
 4745TIP3   OH214198   1.503   4.820   3.202  0.5268  0.0376 -0.0228
 4745TIP3    H114199   1.514   4.784   3.114 -0.7179 -2.5564  0.7962
 4745TIP3    H214200   1.580   4.790   3.250 -0.4892 -1.6370  0.6478
 4746TIP3   OH214201   4.079   3.430   3.004  0.4837  0.2026  0.0841
 4746TIP3    H114202   4.170   3.410   2.981  0.0878 -0.7630 -0.7385
 4746TIP3    H214203   4.078   3.429   3.099  1.1689 -0.6189  0.1002
 4747TIP3   OH214204   1.943   6.136   2.850  0.1682  0.2793  0.9326
 4747TIP3    H114205   1.974   6.199   2.915  0.1782  0.3426  0.8673
 4747TIP3    H214206   2.002   6.061   2.858 -1.1200 -0.6382  2.4850
 4748TIP3   OH214207   1.937   0.615   4.748  0.0234 -0.6194  0.1043
 4748TIP3    H114208   2.020   0.626   4.794 -1.1622  0.5496  2.0865
 4748TIP3    H214209   1.946   0.669   4.670  0.9567 -0.1239  0.5335
 4749TIP3   OH214210   6.770   6.149   0.137 -0.2394  0.1687 -0.5023
 4749TIP3    H114211   6.785   6.067   0.184 -0.5525  0.8459  0.8099
 4749TIP3    H214212   6.757   6.122   0.046 -0.6826 -1.2699 -0.0385
 4750TIP3   OH214213   6.849   2.113   4.145 -0.4455 -0.7312 -0.0337
 4750TIP3    H114214   6.896   2.108   4.062 -1.7015 -0.2394 -0.8058
 4750TIP3    H214215   6.759   2.137   4.120 -1.0557 -1.4312  1.4009
 4751TIP3   OH214216   1.365   6.209   1.656  0.4220  0.3959 -0.7940
 4751TIP3    H114217   1.443   6.179   1.608  0.8202 -0.1627  0.1674
 4751TIP3    H214218   1.292   6.185   1.600  0.9338  0.8636 -1.6832
 4752TIP3   OH214219   5.158   2.217   2.272  0.2561 -0.2136  0.2037
 4752TIP3    H114220   5.227   2.273   2.305  0.5066 -2.3547  3.9119
 4752TIP3    H214221   5.086   2.227   2.335  0.0257 -3.3010  0.6032
 4753TIP3   OH214222   6.510   3.490   3.649  0.0071  0.4641  0.8593
 4753TIP3    H114223   6.487   3.583   3.653  2.4161  1.1448  0.8901
 4753TIP3    H214224   6.557   3.481   3.566 -1.7150 -1.1713 -0.0165
 4754TIP3   OH214225   6.165   3.382   4.785  0.0217 -0.0435 -0.3197
 4754TIP3    H114226   6.177   3.476   4.800  0.0235  0.3309 -2.4266
 4754TIP3    H214227   6.073   3.374   4.760  0.7653 -0.0913 -3.3203
 4755TIP3   OH214228   6.526   4.836   5.438  0.6181 -0.2873  0.0663
 4755TIP3    H114229   6.592   4.901   5.417  0.6283  0.0536  1.0737
 4755TIP3    H214230   6.452   4.856   5.380 -0.4630  2.3925  2.1594
 4756TIP3   OH214231   6.189   1.641   5.506  0.3825  0.3236  0.1168
 4756TIP3    H114232   6.281   1.641   5.534  0.4119  2.8440  0.2954
 4756TIP3    H214233   6.139   1.649   5.587  0.0227 -0.3618 -0.0299
 4757TIP3   OH214234   1.376   2.914   5.629 -0.3265 -0.4378 -0.1833
 4757TIP3    H114235   1.431   2.912   5.707  0.1789  2.0324 -0.3863
 4757TIP3    H214236   1.437   2.902   5.556 -0.3414  0.2152 -0.3112
 4758TIP3   OH214237   3.832   0.381   3.027 -0.4056 -0.4546 -0.0019
 4758TIP3    H114238   3.865   0.468   3.048 -1.2426 -0.4411  1.3609
 4758TIP3    H214239   3.780   0.393   2.948 -0.0900  0.1746 -0.1174
 4759TIP3   OH214240   0.287   4.776   3.003  0.1526  0.2453 -0.1676
 4759TIP3    H114241   0.307   4.700   3.057  2.7388  1.2157  0.3890
 4759TIP3    H214242   0.212   4.749   2.951 -1.0554 -1.5309  2.2776
 4760TIP3   OH214243   2.412   2.915   4.842 -0.2154 -0.1728 -0.0411
 4760TIP3    H114244   2.340   2.914   4.906  0.1194 -1.1017  0.3408
 4760TIP3    H214245   2.368   2.918   4.757 -0.7063 -0.4096  0.1967
 4761TIP3   OH214246   5.631   3.484   5.437 -0.3620  0.6663  0.0572
 4761TIP3    H114247   5.565   3.528   5.383 -1.4396 -0.0589  0.7403
 4761TIP3    H214248   5.713   3.530   5.418 -1.2808  2.4100  0.1263
 4762TIP3   OH214249   6.192   6.092   5.672  0.0815 -0.2889 -0.4029
 4762TIP3    H114250   6.244   6.011   5.672 -0.2980 -0.5577  0.9168
 4762TIP3    H214251   6.103   6.063   5.649 -0.1401 -0.3308  0.4584
 4763TIP3   OH214252   3.997   2.195   3.063  0.7043 -0.1208  0.2608
 4763TIP3    H114253   4.092   2.183   3.069  0.6985 -1.1813 -1.2865
 4763TIP3    H214254   3.962   2.107   3.052 -0.4945  0.2460  0.9453
 4764TIP3   OH214255   3.054   1.031   1.386  0.1167 -0.2912 -0.3722
 4764TIP3    H114256   3.043   1.081   1.305 -1.5092 -1.1797 -0.7414
 4764TIP3    H214257   3.011   1.085   1.453  1.9876  0.7300  0.0482
 4765TIP3   OH214258   3.821   4.849   4.234 -1.0177  0.2693  0.1963
 4765TIP3    H114259   3.793   4.901   4.159  0.0383 -0.0635 -0.4492
 4765TIP3    H214260   3.749   4.787   4.249 -1.3824  0.5615 -0.3179
 4766TIP3   OH214261   3.094   4.876   1.855  0.2896 -0.2737 -0.3007
 4766TIP3    H114262   3.189   4.869   1.862  0.3118  0.0887 -0.1731
 4766TIP3    H214263   3.075   4.967   1.880 -0.2503 -0.8333  1.4626
 4767TIP3   OH214264   4.057   4.319   3.046 -0.0921 -0.4139  0.1824
 4767TIP3    H114265   4.074   4.371   3.124  0.8233  1.4253 -1.1689
 4767TIP3    H214266   4.105   4.237   3.062  1.9531  0.7921  0.6653
 4768TIP3   OH214267   7.035   3.895   0.128  0.0513  0.2790  0.2902
 4768TIP3    H114268   7.124   3.894   0.094 -0.2915  2.0592 -0.8299
 4768TIP3    H214269   7.045   3.882   0.222  1.4035 -0.4355  0.0697
 4769TIP3   OH214270   3.022   1.546   4.833 -0.3335  0.5096 -0.0400
 4769TIP3    H114271   3.039   1.458   4.867 -2.1794  0.2600  0.3621
 4769TIP3    H214272   3.106   1.591   4.839  0.5666 -1.1163  0.0600
 4770TIP3   OH214273   5.393   4.075   5.732  0.0062 -0.2928  0.3288
 4770TIP3    H114274   5.442   4.139   5.783  0.6534 -0.7918  0.3540
 4770TIP3    H214275   5.439   4.070   5.649 -0.3706 -0.3151  0.1175
 4771TIP3   OH214276   0.520   5.314   2.111  0.4129 -0.2600 -0.8445
 4771TIP3    H114277   0.522   5.283   2.201 -1.3253 -0.2694 -0.7821
 4771TIP3    H214278   0.510   5.409   2.118 -3.5222 -0.4833 -0.8728
 4772TIP3   OH214279   1.160   0.576   2.311 -0.1493 -0.0617 -0.0425
 4772TIP3    H114280   1.158   0.483   2.336 -0.9264  0.1606  0.7420
 4772TIP3    H214281   1.234   0.582   2.250  1.0465 -0.8432  1.2698
 4773TIP3   OH214282   3.822   3.901   2.064 -0.4772  0.0648 -0.0932
 4773TIP3    H114283   3.864   3.892   2.149  2.1883 -1.2772 -1.4010
 4773TIP3    H214284   3.743   3.951   2.081  0.3788  0.5783  3.0071
 4774TIP3   OH214285   4.646   1.674   0.782  0.5282  0.6722  0.2697
 4774TIP3    H114286   4.738   1.674   0.755  0.1188  1.3264 -1.2493
 4774TIP3    H214287   4.629   1.584   0.810  1.9156  0.8089  1.6757
 4775TIP3   OH214288   5.587   0.448   1.100 -0.0851 -0.4884 -0.3099
 4775TIP3    H114289   5.642   0.517   1.139  0.2586 -0.2977 -1.1195
 4775TIP3    H214290   5.559   0.395   1.175  0.8277 -0.3199  0.1656
 4776TIP3   OH214291   6.329   6.571   4.708  0.0374  0.0691  0.1148
 4776TIP3    H114292   6.262   6.526   4.761 -0.8780  1.5512  0.2764
 4776TIP3    H214293   6.383   6.616   4.773  0.1238  0.2829 -0.1075
 4777TIP3   OH214294   1.111   2.791   4.380  0.0870  0.0189 -0.0656
 4777TIP3    H114295   1.067   2.873   4.404 -1.2294 -0.8722  0.6760
 4777TIP3    H214296   1.201   2.802   4.410  0.3724  1.7813 -1.3654
 4778TIP3   OH214297   0.315   3.648   5.116 -0.1845 -0.6634  0.0432
 4778TIP3    H114298   0.354   3.733   5.140 -0.6302 -0.6752  0.8563
 4778TIP3    H214299   0.240   3.639   5.174 -0.4736 -1.3668 -0.4254
 4779TIP3   OH214300   3.986   1.734   0.201 -0.9076  0.2950  0.1527
 4779TIP3    H114301   3.961   1.674   0.132  0.8888 -1.7171  1.1472
 4779TIP3    H214302   4.057   1.787   0.163 -0.7799  0.0603  0.0658
 4780TIP3   OH214303   1.534   5.233   4.507  0.5390 -0.4087  0.3214
 4780TIP3    H114304   1.599   5.200   4.570  0.4628 -0.7334  0.2344
 4780TIP3    H214305   1.463   5.169   4.512 -0.2417  0.5045  1.1824
 4781TIP3   OH214306   0.656   4.951   5.455  0.0414 -0.2936 -0.0010
 4781TIP3    H114307   0.699   4.877   5.413  1.2621 -0.4419  1.4638
 4781TIP3    H214308   0.727   5.009   5.482 -0.8205  0.7305  0.1482
 4782TIP3   OH214309   6.989   4.170   4.022  0.0277 -0.7295  0.3890
 4782TIP3    H114310   7.068   4.223   4.032  1.0067 -1.7821 -1.1980
 4782TIP3    H214311   6.917   4.233   4.024  0.9847  0.3787  0.7790
 4783TIP3   OH214312   4.472   5.075   4.852  0.4531  0.3290 -0.3090
 4783TIP3    H114313   4.491   5.033   4.936 -0.1993 -3.7431 -1.9524
 4783TIP3    H214314   4.558   5.095   4.815  0.7922  0.6387  0.6228
 4784TIP3   OH214315   6.070   6.032   0.096  0.1372  0.4306  0.0439
 4784TIP3    H114316   6.027   6.033   0.010  2.0908  0.8168 -0.9689
 4784TIP3    H214317   6.158   6.064   0.079  0.8912 -0.4696  2.0391
 4785TIP3   OH214318   2.074   2.167   3.335  0.4622  0.0192  0.3667
 4785TIP3    H114319   2.022   2.220   3.274  0.9080 -0.3035 -0.3006
 4785TIP3    H214320   2.097   2.089   3.286 -1.1238 -1.3492  1.6841
 4786TIP3   OH214321   1.437   0.977   1.215 -0.0888  0.1233  0.3812
 4786TIP3    H114322   1.429   1.072   1.221 -1.6269  0.1405 -1.1238
 4786TIP3    H214323   1.383   0.944   1.288  0.4952  0.3793  0.9401
 4787TIP3   OH214324   7.000   2.975   5.592 -0.3269  0.4176  0.4067
 4787TIP3    H114325   6.949   2.925   5.657 -0.3090 -0.1097  0.0265
 4787TIP3    H214326   7.039   2.908   5.536 -1.1390  0.8685 -0.7534
 4788TIP3   OH214327   2.139   2.996   5.424  0.3471 -0.1887 -0.1843
 4788TIP3    H114328   2.044   2.990   5.418  0.4286 -1.2251 -0.6832
 4788TIP3    H214329   2.164   2.923   5.480  0.9046 -0.4246 -0.7247
 4789TIP3   OH214330   5.948   6.497   2.704  0.2010  0.6671 -0.3212
 4789TIP3    H114331   5.986   6.534   2.784 -0.3125 -0.6577  0.5762
 4789TIP3    H214332   6.014   6.437   2.672  1.0973  2.3849 -1.8609
 4790TIP3   OH214333   6.288   5.940   0.954  0.0131 -0.3737 -0.0013
 4790TIP3    H114334   6.206   5.982   0.981 -0.7156 -1.7873  0.0755
 4790TIP3    H214335   6.304   5.874   1.021  1.6391  0.3550  0.3884
 4791TIP3   OH214336   1.265   6.578   2.561 -0.2344  0.0239 -0.3352
 4791TIP3    H114337   1.333   6.549   2.622  0.9758  0.4847 -1.4058
 4791TIP3    H214338   1.188   6.593   2.615  0.7029  0.0801  1.0151
 4792TIP3   OH214339   5.435   3.886   3.501 -0.0713  0.3680  0.8306
 4792TIP3    H114340   5.499   3.915   3.436 -1.2969 -1.1335 -1.1779
 4792TIP3    H214341   5.367   3.953   3.499 -0.7479 -0.3216 -0.4845
 4793TIP3   OH214342   2.153   5.013   3.177 -0.3974 -0.1090  0.1127
 4793TIP3    H114343   2.113   4.994   3.262 -0.1676  2.4286  0.8658
 4793TIP3    H214344   2.240   4.974   3.182 -0.3887  0.0051  1.0648
 4794TIP3   OH214345   0.242   2.295   3.678 -0.2680 -0.2134  0.3955
 4794TIP3    H114346   0.277   2.290   3.767  2.8611 -0.7447 -0.7319
 4794TIP3    H214347   0.293   2.364   3.636 -1.4333 -0.2163 -1.1002
 4795TIP3   OH214348   2.590   2.686   3.684  0.7770 -0.1847  0.7209
 4795TIP3    H114349   2.651   2.641   3.625  0.8124 -0.6361  1.0979
 4795TIP3    H214350   2.552   2.755   3.630  1.0862 -0.3556  0.2740
 4796TIP3   OH214351   4.324   5.617   0.744 -0.1660  0.4249  0.5679
 4796TIP3    H114352   4.361   5.608   0.656  1.2466  0.8162  1.1000
 4796TIP3    H214353   4.259   5.547   0.749  0.6333 -0.4175 -0.3499
 4797TIP3   OH214354   1.166   0.325   2.043  0.1205  0.5475 -0.1376
 4797TIP3    H114355   1.088   0.379   2.035 -0.9267 -0.5556  1.8194
 4797TIP3    H214356   1.218   0.368   2.111 -1.0521 -1.1454  1.9519
 4798TIP3   OH214357   1.642   6.374   1.178 -0.3944 -0.5385 -0.2528
 4798TIP3    H114358   1.655   6.385   1.272  2.0662  0.3638 -0.6338
 4798TIP3    H214359   1.656   6.281   1.162  1.4192 -0.3544  0.0349
 4799TIP3   OH214360   1.981   1.373   5.203  0.3116  0.1250 -0.3950
 4799TIP3    H114361   2.049   1.306   5.209  1.9238  1.4797 -2.2571
 4799TIP3    H214362   1.904   1.326   5.170 -0.1809 -1.6814  2.9133
 4800TIP3   OH214363   6.835   5.302   4.646 -0.1043  0.5765 -0.1130
 4800TIP3    H114364   6.873   5.219   4.675 -0.3037  0.2270 -0.8353
 4800TIP3    H214365   6.897   5.369   4.677  1.3818  0.0004 -1.6556
 4801TIP3   OH214366   4.333   5.661   2.925  0.0118 -0.2588  0.0996
 4801TIP3    H114367   4.385   5.615   2.859 -0.1326 -1.9565  1.0988
 4801TIP3    H214368   4.347   5.754   2.906  1.8502 -0.6730 -0.8617
 4802TIP3   OH214369   4.945   5.865   3.633  0.1484  0.1581  0.2609
 4802TIP3    H114370   5.022   5.874   3.690  1.7891  2.1747 -2.0330
 4802TIP3    H214371   4.922   5.955   3.611 -1.7672 -0.4969 -0.5686
 4803TIP3   OH214372   3.336   5.795   4.339  0.1915  0.3302 -0.2649
 4803TIP3    H114373   3.261   5.768   4.393  1.0727  0.8953  1.3021
 4803TIP3    H214374   3.326   5.745   4.258 -0.9213 -0.9225  0.5941
 4804TIP3   OH214375   4.029   6.326   2.598  0.2276 -0.0637 -0.1567
 4804TIP3    H114376   4.052   6.339   2.690  0.5943 -0.6865 -0.1524
 4804TIP3    H214377   3.942   6.364   2.589 -1.1121 -2.5840  1.1720
 4805TIP3   OH214378   1.881   3.891   4.210 -0.4551 -0.0469  0.1091
 4805TIP3    H114379   1.860   3.835   4.135 -1.3450 -1.3569  1.3090
 4805TIP3    H214380   1.814   3.959   4.209 -1.0791 -0.6561  0.3125
 4806TIP3   OH214381   7.171   2.389   2.683  0.2028 -0.6310 -0.0529
 4806TIP3    H114382   7.160   2.302   2.723 -2.3437  0.0167  0.8096
 4806TIP3    H214383   7.134   2.380   2.596 -0.1506 -0.3873  0.0726
 4807TIP3   OH214384   3.383   4.265   2.169 -0.0223 -0.3103  0.2306
 4807TIP3    H114385   3.421   4.276   2.256 -0.1325  0.3128  0.2101
 4807TIP3    H214386   3.400   4.349   2.125  0.4612 -0.7947 -0.5197
 4808TIP3   OH214387   7.170   4.344   4.342 -0.1555 -0.3591  0.0918
 4808TIP3    H114388   7.174   4.356   4.247  0.3236  0.8168  0.2425
 4808TIP3    H214389   7.249   4.387   4.375  1.4423 -3.5487  0.7875
 4809TIP3   OH214390   2.317   6.168   2.610  0.7086 -0.2275  0.2192
 4809TIP3    H114391   2.278   6.099   2.557  0.2660 -1.2068  1.7329
 4809TIP3    H214392   2.255   6.241   2.605  0.6823 -0.3022 -0.5953
 4810TIP3   OH214393   1.377   6.420   5.792 -0.5834  0.1267 -0.2055
 4810TIP3    H114394   1.411   6.379   5.712 -0.3597 -1.4514  0.6408
 4810TIP3    H214395   1.438   6.492   5.810  0.4524 -0.6538 -0.4722
 4811TIP3   OH214396   0.424   5.447   0.313  1.0690  0.6733  0.1035
 4811TIP3    H114397   0.341   5.456   0.268  1.0213 -0.7395 -0.1403
 4811TIP3    H214398   0.489   5.482   0.251  0.9057 -0.4177 -0.7028
 4812TIP3   OH214399   1.218   4.877   2.951  0.2516  0.2741 -0.4256
 4812TIP3    H114400   1.191   4.961   2.989 -0.3528  0.7358 -1.7806
 4812TIP3    H214401   1.210   4.814   3.023  0.7903  1.3816  0.6381
 4813TIP3   OH214402   5.036   4.835   3.500 -0.2618  0.2127  0.6535
 4813TIP3    H114403   4.978   4.911   3.497  1.3235  1.4666 -1.0642
 4813TIP3    H214404   5.088   4.849   3.579  0.1925  1.1136  0.2221
 4814TIP3   OH214405   6.476   4.737   2.282  0.0308  0.0598  0.2546
 4814TIP3    H114406   6.514   4.652   2.261  0.6066  0.0752  1.1871
 4814TIP3    H214407   6.396   4.718   2.330 -0.3695  0.0410 -0.4130
 4815TIP3   OH214408   5.524   4.891   1.676 -0.3968  0.7411  0.0033
 4815TIP3    H114409   5.541   4.830   1.748 -0.8089 -0.2834 -0.7403
 4815TIP3    H214410   5.607   4.936   1.662  0.1325 -0.1961  0.0705
 4816TIP3   OH214411   7.156   6.267   3.536 -0.6312 -0.1656  0.1734
 4816TIP3    H114412   7.183   6.340   3.592  0.4004 -1.2890  1.2024
 4816TIP3    H214413   7.064   6.252   3.559  0.0123 -1.2156  2.3568
 4817TIP3   OH214414   4.766   2.754   1.570 -0.6070 -0.3482 -0.0056
 4817TIP3    H114415   4.771   2.837   1.522 -0.7581 -0.7513 -0.7445
 4817TIP3    H214416   4.855   2.740   1.603 -0.4008 -0.2485 -0.5046
 4818TIP3   OH214417   5.690   4.263   3.433  0.1869 -0.1039 -0.7136
 4818TIP3    H114418   5.779   4.244   3.404  0.4875 -2.2400  1.3268
 4818TIP3    H214419   5.636   4.243   3.356  1.4130  1.3187 -2.0082
 4819TIP3   OH214420   0.012   2.625   5.257 -0.1413  0.3779 -0.2206
 4819TIP3    H114421   0.021   2.648   5.165  2.4506 -2.1570 -0.7566
 4819TIP3    H214422   0.097   2.648   5.296 -0.0613 -1.3750  0.7725
 4820TIP3   OH214423   4.220   0.742   4.277 -0.1589  0.6291 -0.7067
 4820TIP3    H114424   4.297   0.707   4.322  0.2776  1.5490 -0.7108
 4820TIP3    H214425   4.164   0.666   4.263  0.4071  0.0682 -0.0244
 4821TIP3   OH214426   1.793   1.808   0.816  0.4955 -0.0221  0.1063
 4821TIP3    H114427   1.729   1.873   0.845 -0.4089 -1.6594  1.9949
 4821TIP3    H214428   1.768   1.790   0.725 -1.4171 -0.2308  0.6341
 4822TIP3   OH214429   4.975   1.405   5.791  0.2526  0.3920  0.1389
 4822TIP3    H114430   5.006   1.392   5.881  0.7229  2.9941  0.4285
 4822TIP3    H214431   5.044   1.456   5.749 -0.1258 -0.4898 -1.6351
 4823TIP3   OH214432   0.528   4.695   4.326 -0.3550  0.1145  0.1017
 4823TIP3    H114433   0.436   4.723   4.328 -0.3935 -0.0348  1.2303
 4823TIP3    H214434   0.577   4.771   4.357  0.0413  0.5884 -1.5681
 4824TIP3   OH214435   3.246   0.599   0.629  0.0200 -0.5433  0.5365
 4824TIP3    H114436   3.308   0.625   0.697 -0.1684  1.1391  0.0968
 4824TIP3    H214437   3.207   0.518   0.662 -1.3742  1.1261  3.3247
 4825TIP3   OH214438   2.853   3.900   4.343  0.1333  0.0331  0.0602
 4825TIP3    H114439   2.762   3.871   4.356  0.0903 -1.0855 -2.2196
 4825TIP3    H214440   2.903   3.849   4.406 -0.6505 -0.4933  0.2782
 4826TIP3   OH214441   5.290   2.234   0.641 -0.1315  0.2342 -0.2060
 4826TIP3    H114442   5.302   2.277   0.556 -1.6116  0.1745 -0.4668
 4826TIP3    H214443   5.336   2.291   0.703  1.0393  0.2387 -1.0344
 4827TIP3   OH214444   4.371   0.615   3.685  0.5091 -0.2218 -0.1838
 4827TIP3    H114445   4.329   0.543   3.638 -0.4562  0.0582  0.2099
 4827TIP3    H214446   4.297   0.668   3.717  1.1495 -0.2111  1.3372
 4828TIP3   OH214447   2.291   4.943   5.322  0.0563  0.1982  0.2833
 4828TIP3    H114448   2.203   4.916   5.346  0.1332 -1.1806 -0.8230
 4828TIP3    H214449   2.349   4.892   5.379  0.1519  0.8031  0.7337
 4829TIP3   OH214450   3.470   3.478   1.177  0.2654 -0.0089  0.3642
 4829TIP3    H114451   3.561   3.507   1.175  0.1789  0.4931  2.1742
 4829TIP3    H214452   3.459   3.428   1.096  1.1710  2.6853 -1.5749
 4830TIP3   OH214453   7.082   4.686   3.098  0.8933 -0.0820 -0.1705
 4830TIP3    H114454   7.074   4.591   3.107  0.3196  0.1341  3.0138
 4830TIP3    H214455   6.992   4.715   3.082  0.1429  0.0977  3.4081
 4831TIP3   OH214456   6.521   3.366   2.832  0.0991 -0.0011 -0.2722
 4831TIP3    H114457   6.569   3.325   2.759  0.0650 -0.4466 -0.0478
 4831TIP3    H214458   6.447   3.308   2.848 -1.6455  1.6512 -1.8756
 4832TIP3   OH214459   6.604   5.713   0.460 -0.2832 -0.8405 -0.0335
 4832TIP3    H114460   6.580   5.622   0.441 -0.1826 -0.6647 -1.0672
 4832TIP3    H214461   6.524   5.751   0.497  0.2100 -1.8134  2.2459
 4833TIP3   OH214462   4.844   2.452   5.441  0.2131  0.7426 -0.4279
 4833TIP3    H114463   4.751   2.471   5.454 -0.2356  0.0383 -2.3020
 4833TIP3    H214464   4.873   2.414   5.524 -1.7208 -1.0343 -0.4813
 4834TIP3   OH214465   4.532   2.530   2.154  0.0186 -0.6314  0.3573
 4834TIP3    H114466   4.522   2.567   2.242  0.0568  0.7739 -0.1975
 4834TIP3    H214467   4.450   2.484   2.138 -0.1523 -0.5540  0.9709
 4835TIP3   OH214468   7.153   1.272   2.999  0.6204 -0.4645  0.0738
 4835TIP3    H114469   7.188   1.321   3.073  0.9754 -0.1751 -0.2814
 4835TIP3    H214470   7.145   1.182   3.030 -1.6967  0.0967  1.3343
 4836TIP3   OH214471   1.186   4.074   0.363 -0.0592 -0.3039 -0.0323
 4836TIP3    H114472   1.139   4.010   0.310 -0.6290 -0.2682  0.4278
 4836TIP3    H214473   1.187   4.038   0.451  0.4496 -0.1264  0.0395
 4837TIP3   OH214474   0.124   4.500   4.807 -0.2808  0.5401 -0.4891
 4837TIP3    H114475   0.163   4.416   4.781  0.7838  0.6842  0.5782
 4837TIP3    H214476   0.158   4.516   4.894 -1.9565  1.1987  0.0785
 4838TIP3   OH214477   4.344   0.117   2.355 -0.1534 -0.1682  0.4633
 4838TIP3    H114478   4.289   0.041   2.377  1.1607 -0.9930  0.9980
 4838TIP3    H214479   4.358   0.161   2.438 -3.1101  2.2881 -0.1672
 4839TIP3   OH214480   0.319   2.718   4.556 -0.1424  0.2620  0.3545
 4839TIP3    H114481   0.331   2.668   4.475 -0.2559  0.2765  0.3290
 4839TIP3    H214482   0.343   2.657   4.625 -1.1396 -0.1314  0.3790
 4840TIP3   OH214483   5.002   1.893   5.825 -0.6471  0.1120  0.1553
 4840TIP3    H114484   5.060   1.817   5.832 -0.2931  0.1640 -1.8348
 4840TIP3    H214485   4.914   1.858   5.833 -0.4574 -0.3728  0.1126
 4841TIP3   OH214486   5.144   5.273   1.726 -0.0338  0.1766 -0.5425
 4841TIP3    H114487   5.196   5.235   1.655  1.2079 -0.2124  0.5201
 4841TIP3    H214488   5.124   5.362   1.697  0.3507 -0.0215 -1.4312
 4842TIP3   OH214489   5.483   2.971   3.385 -0.4450  0.0761 -0.0323
 4842TIP3    H114490   5.508   3.037   3.450  1.5316 -1.0245  0.4142
 4842TIP3    H214491   5.403   3.005   3.346  0.4807  2.7266  0.1692
 4843TIP3   OH214492   3.119   2.435   5.702  0.3910  0.4907  0.6086
 4843TIP3    H114493   3.168   2.432   5.785  0.8585 -3.7378  0.3972
 4843TIP3    H214494   3.030   2.411   5.726  0.4272 -0.3178 -0.0354
 4844TIP3   OH214495   4.609   2.031   3.565 -0.2862  0.1321  0.3304
 4844TIP3    H114496   4.539   2.065   3.508 -1.0819 -1.9707 -0.0623
 4844TIP3    H214497   4.563   2.003   3.644  0.1060 -1.1068  0.1432
 4845TIP3   OH214498   2.991   0.009   2.980 -0.1104 -0.1362 -0.1046
 4845TIP3    H114499   3.048  -0.030   2.913 -0.8516 -0.1576 -0.7309
 4845TIP3    H214500   2.915   0.040   2.932  0.9447  3.2077  0.1640
 4846TIP3   OH214501   6.424   1.290   1.795  0.2073 -0.2103  0.0721
 4846TIP3    H114502   6.491   1.343   1.839  0.0197 -1.7850  2.4648
 4846TIP3    H214503   6.347   1.348   1.791  0.1023 -0.0801  2.3426
 4847TIP3   OH214504   4.354   2.300   1.813  0.0935  0.1598 -0.0100
 4847TIP3    H114505   4.263   2.293   1.842 -1.0693  0.9671 -3.0242
 4847TIP3    H214506   4.382   2.387   1.842  0.6211 -0.7672  2.4969
 4848TIP3   OH214507   0.727   6.049   5.632  0.0115  0.2916  0.4408
 4848TIP3    H114508   0.636   6.024   5.648 -0.0153  0.2061  0.1777
 4848TIP3    H214509   0.727   6.079   5.541  0.4259 -0.6354  0.1142
 4849TIP3   OH214510   2.752   0.389   3.611 -0.5841 -0.8108 -0.3447
 4849TIP3    H114511   2.797   0.419   3.690 -1.8619  0.7103 -0.1351
 4849TIP3    H214512   2.822   0.362   3.552  0.4418 -1.0307  0.9313
 4850TIP3   OH214513   0.543   0.599   0.926 -0.5552 -0.1226  0.2024
 4850TIP3    H114514   0.462   0.549   0.932 -0.1080 -0.7522  1.2363
 4850TIP3    H214515   0.542   0.636   0.838 -1.4876 -0.9384 -0.1468
 4851TIP3   OH214516   3.906   6.213   5.703  0.1734 -0.0973 -0.7469
 4851TIP3    H114517   3.827   6.198   5.651 -0.5785 -0.2471  0.4084
 4851TIP3    H214518   3.918   6.308   5.700 -0.6978  0.0508 -0.0287
 4852TIP3   OH214519   3.790   3.510   1.785  0.5052 -0.1431  0.1731
 4852TIP3    H114520   3.723   3.445   1.762  0.4492  0.4592 -1.4693
 4852TIP3    H214521   3.785   3.516   1.880 -1.3543 -0.5713  0.1443
 4853TIP3   OH214522   5.104   3.667   0.227  0.0552 -0.8210  0.5733
 4853TIP3    H114523   5.151   3.750   0.227  1.1998 -1.4530 -0.0522
 4853TIP3    H214524   5.036   3.679   0.294  0.2973  0.5469  0.6136
 4854TIP3   OH214525   7.016   3.397   5.189 -0.2041  0.4447 -0.0469
 4854TIP3    H114526   7.067   3.319   5.167 -1.0347 -0.6533  1.7176
 4854TIP3    H214527   6.940   3.363   5.236 -1.6867  2.1850 -1.0850
 4855TIP3   OH214528   5.506   3.243   1.326 -0.2539 -0.5847 -0.0602
 4855TIP3    H114529   5.595   3.224   1.356  0.0327  0.3823 -0.2650
 4855TIP3    H214530   5.450   3.191   1.384  0.4381 -1.3726 -0.0677
 4856TIP3   OH214531   5.474   6.498   2.202 -0.0622  0.2063  0.1841
 4856TIP3    H114532   5.493   6.416   2.248 -1.3646  0.2949  0.9254
 4856TIP3    H214533   5.560   6.530   2.174  0.5283 -1.0838  0.4354
 4857TIP3   OH214534   3.657   3.629   5.605 -0.3880 -0.0348 -0.0897
 4857TIP3    H114535   3.661   3.549   5.552  0.1330 -0.8023  1.0574
 4857TIP3    H214536   3.699   3.695   5.552  2.2835 -1.3316  0.2290
 4858TIP3   OH214537   5.325   4.411   1.864  0.0312 -0.2130  0.6840
 4858TIP3    H114538   5.336   4.457   1.947 -0.7941  0.9068  0.1944
 4858TIP3    H214539   5.321   4.480   1.798 -0.5233 -1.0226 -0.1562
 4859TIP3   OH214540   5.605   4.621   2.994 -0.3152 -0.2031  0.1934
 4859TIP3    H114541   5.693   4.603   2.959 -0.3744  0.2183 -0.1801
 4859TIP3    H214542   5.576   4.537   3.030  0.8467 -0.0167  1.6854
 4860TIP3   OH214543   5.372   3.344   2.712  0.4016  0.3286 -0.0553
 4860TIP3    H114544   5.401   3.345   2.621  0.1759 -1.3423 -0.1751
 4860TIP3    H214545   5.428   3.280   2.755 -0.2567  0.2517  0.7185
 4861TIP3   OH214546   5.017   0.388   4.410  0.1588 -0.3616 -0.5615
 4861TIP3    H114547   5.031   0.330   4.485 -0.9631 -0.7013 -0.6080
 4861TIP3    H214548   5.103   0.392   4.367  0.4179 -1.4560 -0.1824
 4862TIP3   OH214549   1.797   2.594   5.846  0.2402  0.0181  0.7102
 4862TIP3    H114550   1.777   2.513   5.799  1.7630 -1.1251  1.9289
 4862TIP3    H214551   1.891   2.590   5.861  0.4605  2.3556  0.2335
 4863TIP3   OH214552   4.486   3.987   1.641  0.2011  0.5612 -0.1908
 4863TIP3    H114553   4.499   3.897   1.610 -2.8156  0.0160 -0.1885
 4863TIP3    H214554   4.574   4.023   1.647  1.7311 -2.9214  1.4790
 4864TIP3   OH214555   2.367   3.476   3.295 -0.3040 -0.2518  0.0408
 4864TIP3    H114556   2.375   3.457   3.388 -0.5231 -0.3383  0.0420
 4864TIP3    H214557   2.439   3.537   3.277  0.1343 -0.7286  0.1312
 4865TIP3   OH214558   6.267   1.567   1.700 -0.3337  0.5046  0.1045
 4865TIP3    H114559   6.176   1.560   1.728 -0.5423  0.2597 -0.6051
 4865TIP3    H214560   6.263   1.564   1.604  0.2907  2.0601  0.0032
 4866TIP3   OH214561   2.275   1.114   2.040 -0.7577  0.2004  0.0339
 4866TIP3    H114562   2.317   1.183   2.091 -1.7200  2.1393 -1.6595
 4866TIP3    H214563   2.185   1.145   2.026 -0.9821 -0.9969 -1.4592
 4867TIP3   OH214564   2.817   4.977   4.025  0.2272  0.1376  0.1282
 4867TIP3    H114565   2.808   5.063   3.985  1.2049 -0.1138 -0.6771
 4867TIP3    H214566   2.803   4.915   3.953 -1.9424 -0.4633  0.9716
 4868TIP3   OH214567   0.269   5.186   2.038  0.0769 -0.1127  0.4439
 4868TIP3    H114568   0.360   5.216   2.040  0.1271  0.0064 -1.6275
 4868TIP3    H214569   0.219   5.259   2.076  0.9806 -1.1624  4.0342
 4869TIP3   OH214570   6.098   4.694   0.074  0.0973 -0.8164 -0.3268
 4869TIP3    H114571   6.107   4.743   0.156  1.7977 -1.9026  0.1886
 4869TIP3    H214572   6.029   4.630   0.093 -1.1571  0.4276 -0.5507
 4870TIP3   OH214573   6.540   5.541   0.174  0.2496 -0.3575 -0.2849
 4870TIP3    H114574   6.458   5.519   0.130  0.3646 -2.8480  0.5791
 4870TIP3    H214575   6.523   5.525   0.267  1.5183 -0.2530 -0.0178
 4871TIP3   OH214576   4.588   0.988   2.840 -0.2647 -0.3237 -0.0729
 4871TIP3    H114577   4.636   1.009   2.760  0.1231 -1.6808 -0.2222
 4871TIP3    H214578   4.510   0.942   2.810 -0.0613 -0.9431  0.3324
 4872TIP3   OH214579   2.105   0.169   5.486  0.2964  0.3877  0.4765
 4872TIP3    H114580   2.073   0.149   5.574 -1.6418  0.4838 -0.1555
 4872TIP3    H214581   2.101   0.265   5.480 -0.2123  0.3519  0.0950
 4873TIP3   OH214582   0.032   4.974   3.042 -0.1219  0.0767  0.0958
 4873TIP3    H114583   0.044   4.887   3.004  0.4372  0.3522 -0.3537
 4873TIP3    H214584  -0.022   4.958   3.120 -2.0040 -0.4024 -1.2117
 4874TIP3   OH214585   2.203   5.431   3.395  0.3535 -0.1458  0.1715
 4874TIP3    H114586   2.138   5.404   3.330 -0.4147 -0.1723  0.9284
 4874TIP3    H214587   2.236   5.349   3.431  1.1210 -0.1409 -0.5039
 4875TIP3   OH214588   2.215   4.741   1.117 -0.3130 -0.2770 -0.2603
 4875TIP3    H114589   2.288   4.679   1.115  0.0725  0.1781 -1.6499
 4875TIP3    H214590   2.255   4.826   1.099 -1.0883  0.0931 -0.2759
 4876TIP3   OH214591   6.620   4.576   0.598  0.2547  0.3279 -0.2168
 4876TIP3    H114592   6.613   4.539   0.510 -0.2009  2.7848 -1.2994
 4876TIP3    H214593   6.700   4.538   0.634 -1.3865 -3.5056 -0.2214
 4877TIP3   OH214594   2.957   5.693   2.298  0.6755 -0.5889  0.0948
 4877TIP3    H114595   2.904   5.627   2.341  0.8514 -1.4291 -0.9297
 4877TIP3    H214596   2.925   5.776   2.332 -2.3803 -0.9348 -1.5548
 4878TIP3   OH214597   0.372   4.702   2.323  0.2630 -0.0283  0.0750
 4878TIP3    H114598   0.381   4.739   2.235 -1.5004 -1.8355 -0.9223
 4878TIP3    H214599   0.284   4.726   2.350  0.3143 -0.6307  0.7915
 4879TIP3   OH214600   2.592   1.788   2.598 -1.2447  0.0131  0.2620
 4879TIP3    H114601   2.562   1.803   2.688 -1.9136 -0.4671  0.1276
 4879TIP3    H214602   2.679   1.828   2.595 -1.9535  1.6600  0.6138
 4880TIP3   OH214603   0.922   4.363   5.635  0.7031  0.5406  0.3195
 4880TIP3    H114604   0.888   4.449   5.610 -0.9904 -0.3260 -0.5510
 4880TIP3    H214605   0.844   4.309   5.646  1.7269 -0.9000  0.8412
 4881TIP3   OH214606   1.235   4.012   5.326 -0.1210  0.4704 -0.7037
 4881TIP3    H114607   1.320   4.019   5.370  1.1333 -0.6477 -2.7829
 4881TIP3    H214608   1.183   3.956   5.382  1.2581 -0.5307 -0.3842
 4882TIP3   OH214609   1.511   1.266   3.125 -0.2556  0.2142  0.3586
 4882TIP3    H114610   1.431   1.213   3.130 -1.1818  1.6394  1.1731
 4882TIP3    H214611   1.489   1.338   3.066  0.7802  0.0884 -0.2146
 4883TIP3   OH214612   2.710   4.327   4.004 -0.3695  0.0638 -0.0746
 4883TIP3    H114613   2.615   4.314   4.004 -0.4648  0.5694 -1.1418
 4883TIP3    H214614   2.728   4.362   3.916  0.3289  3.2364  1.2044
 4884TIP3   OH214615   0.218   4.923   2.701  0.4268 -0.3387  0.0577
 4884TIP3    H114616   0.297   4.910   2.752 -0.0302 -0.3938  0.7711
 4884TIP3    H214617   0.181   4.836   2.690 -0.2717 -0.1780  0.9615
 4885TIP3   OH214618   6.981   3.204   4.543  0.4907  0.1554 -0.0459
 4885TIP3    H114619   6.996   3.225   4.451 -1.7283  2.1725 -0.0566
 4885TIP3    H214620   6.925   3.275   4.575 -1.4492 -2.1152  2.0346
 4886TIP3   OH214621   4.455   0.253   2.148 -0.2715 -0.2901 -0.4511
 4886TIP3    H114622   4.387   0.270   2.084  0.0262 -0.4018 -0.7998
 4886TIP3    H214623   4.408   0.217   2.224 -0.5732 -0.5569 -0.7623
 4887TIP3   OH214624   1.910   1.516   5.813 -0.7919  0.2667  0.4139
 4887TIP3    H114625   1.902   1.557   5.900 -1.2045  1.2231 -0.0568
 4887TIP3    H214626   1.970   1.444   5.826  0.3643  1.3242  1.1829
 4888TIP3   OH214627   4.209   4.339   1.900  0.0159 -0.1007  0.2278
 4888TIP3    H114628   4.130   4.292   1.871  0.2077 -0.0890 -0.3251
 4888TIP3    H214629   4.184   4.378   1.983 -1.5093  2.1890 -1.1730
 4889TIP3   OH214630   1.919   0.712   1.202 -0.0649 -0.3181  0.2451
 4889TIP3    H114631   1.935   0.646   1.135 -2.0375  0.6616 -1.2936
 4889TIP3    H214632   1.976   0.785   1.178  0.1674 -0.4407  0.4115
 4890TIP3   OH214633   0.399   4.837   1.678 -0.2094 -0.3602 -0.1126
 4890TIP3    H114634   0.485   4.879   1.678 -0.3183  0.0311  2.4822
 4890TIP3    H214635   0.338   4.908   1.698 -1.1073 -0.7532 -1.3136
 4891TIP3   OH214636   2.631   2.976   2.226  0.2097  0.2127 -0.5038
 4891TIP3    H114637   2.577   2.906   2.263  0.6035  0.1427 -0.0387
 4891TIP3    H214638   2.615   3.051   2.284  0.6060  0.1895 -0.3591
 4892TIP3   OH214639   5.570   5.633   2.951 -0.3797  0.5926 -0.2174
 4892TIP3    H114640   5.541   5.688   3.024 -0.2368  1.3624 -0.7245
 4892TIP3    H214641   5.665   5.640   2.951 -0.3161 -0.2440  0.1583
 4893TIP3   OH214642   4.579   1.557   2.441  0.6263 -0.3147 -0.3666
 4893TIP3    H114643   4.548   1.593   2.358 -0.2254  1.1503  0.5533
 4893TIP3    H214644   4.674   1.552   2.431  0.6850  1.3480 -0.8728
 4894TIP3   OH214645   1.413   0.518   0.604  0.0764 -0.0027  0.2701
 4894TIP3    H114646   1.364   0.469   0.538 -0.0559  0.6794 -0.1493
 4894TIP3    H214647   1.465   0.581   0.554  1.4260 -0.7448  0.7170
 4895TIP3   OH214648   0.836   4.881   0.766 -0.3615  0.3144 -0.2325
 4895TIP3    H114649   0.855   4.965   0.808 -0.2578  0.5441 -0.7248
 4895TIP3    H214650   0.778   4.836   0.827  1.0965 -0.0551  0.9377
 4896TIP3   OH214651   5.211   3.231   2.060  0.1968  0.1297  0.2635
 4896TIP3    H114652   5.157   3.281   2.122  0.8248  0.6838  0.3701
 4896TIP3    H214653   5.223   3.289   1.985 -0.7261 -0.6146 -0.4801
 4897TIP3   OH214654   6.942   4.407   0.246  0.4645  0.1835  0.2162
 4897TIP3    H114655   6.991   4.480   0.206  2.8410 -1.8922 -0.9378
 4897TIP3    H214656   6.975   4.329   0.201 -1.2933 -1.7261  2.0524
 4898TIP3   OH214657   1.770   3.590   3.288  0.2540 -0.0181  0.0827
 4898TIP3    H114658   1.756   3.651   3.360  0.6788 -0.9764  0.9981
 4898TIP3    H214659   1.685   3.582   3.246 -0.1238  0.1385  0.8094
 4899TIP3   OH214660   2.906   2.183   5.110  0.1631 -0.1902 -0.1418
 4899TIP3    H114661   2.857   2.189   5.029 -0.9440 -1.3294  0.4227
 4899TIP3    H214662   2.941   2.094   5.111 -0.8309 -0.5839  1.1776
 4900TIP3   OH214663   4.878   0.844   0.132 -0.4364 -0.1008  0.3373
 4900TIP3    H114664   4.815   0.848   0.061 -0.2383 -0.4470  0.1410
 4900TIP3    H214665   4.870   0.929   0.176 -0.3965  0.1989 -0.2320
 4901TIP3   OH214666   5.463   5.441   5.481  0.0571  0.3664  0.1315
 4901TIP3    H114667   5.449   5.353   5.446  1.7731  0.8412 -1.8805
 4901TIP3    H214668   5.544   5.471   5.441 -0.6563  3.0258  0.4929
 4902TIP3   OH214669   4.323   2.303   2.788 -0.5209  0.5046 -0.0443
 4902TIP3    H114670   4.250   2.250   2.757 -0.3896  0.4539 -0.2757
 4902TIP3    H214671   4.378   2.315   2.710 -1.1288  1.9553 -0.2777
 4903TIP3   OH214672   1.574   0.729   2.333 -0.1025  0.1969 -0.5235
 4903TIP3    H114673   1.536   0.805   2.288  0.5808 -0.2241 -1.8596
 4903TIP3    H214674   1.668   0.745   2.330 -0.0238  0.0937  0.6968
 4904TIP3   OH214675   3.694   3.909   1.209  0.1630 -0.4217  0.0606
 4904TIP3    H114676   3.650   3.936   1.290  1.5435  1.4085  0.2586
 4904TIP3    H214677   3.648   3.958   1.140  0.2426 -0.4870 -0.0390
 4905TIP3   OH214678   1.581   0.513   1.122 -0.0334  1.0064  0.3424
 4905TIP3    H114679   1.614   0.599   1.148  0.2439  0.7483  0.8530
 4905TIP3    H214680   1.542   0.527   1.035  1.4850  1.2985 -0.3203
 4906TIP3   OH214681   2.767   2.685   2.370  0.4189  0.2876 -0.0387
 4906TIP3    H114682   2.787   2.665   2.462  0.6805 -1.4225 -0.4258
 4906TIP3    H214683   2.696   2.749   2.374  0.6717  0.5121  1.3577
 4907TIP3   OH214684   2.743   2.115   4.906 -0.3216 -0.0544 -0.1960
 4907TIP3    H114685   2.652   2.143   4.900 -0.7101 -0.7264  1.8104
 4907TIP3    H214686   2.741   2.021   4.886  0.0477  0.0797 -0.8783
 4908TIP3   OH214687   1.831   3.509   1.947 -0.4087  0.2435 -0.8086
 4908TIP3    H114688   1.736   3.507   1.956 -0.7856  1.4118 -3.5503
 4908TIP3    H214689   1.857   3.417   1.943 -1.5433 -0.0824 -0.9655
 4909TIP3   OH214690   7.102   6.073   2.183 -0.1107  0.1737 -0.1434
 4909TIP3    H114691   7.135   6.099   2.269  2.0135 -1.0440 -0.5307
 4909TIP3    H214692   7.099   5.977   2.187  0.7376  0.0601 -1.6482
 4910TIP3   OH214693   6.674   3.935   4.635  0.6196 -0.2730 -0.5394
 4910TIP3    H114694   6.595   3.925   4.689  0.8239 -2.1725 -0.5217
 4910TIP3    H214695   6.643   3.983   4.558 -0.0172  1.0663  0.4887
 4911TIP3   OH214696   5.829   3.815   1.758  0.2807 -0.3646 -0.3372
 4911TIP3    H114697   5.735   3.822   1.775  0.5924 -0.5803  1.7967
 4911TIP3    H214698   5.856   3.904   1.735 -0.4926 -0.3846 -1.4124
 4912TIP3   OH214699   5.584   0.596   1.768 -0.9181 -0.2769 -0.5103
 4912TIP3    H114700   5.520   0.555   1.827 -1.5916 -0.2958 -1.2333
 4912TIP3    H214701   5.660   0.539   1.770 -0.9013 -0.2337  0.4003
 4913TIP3   OH214702   7.134   5.798   1.310 -0.1157  0.4659  0.2651
 4913TIP3    H114703   7.112   5.849   1.232  1.2288  1.8923  0.7675
 4913TIP3    H214704   7.093   5.846   1.382 -2.0199 -1.2748  0.4106
 4914TIP3   OH214705   3.565   0.879   3.346  0.2434 -0.0315  0.0504
 4914TIP3    H114706   3.519   0.925   3.276 -1.4347  0.1903  1.2429
 4914TIP3    H214707   3.550   0.786   3.327  0.1471  0.0167 -0.1097
 4915TIP3   OH214708   5.555   4.016   5.208 -0.2054 -0.0634  0.0370
 4915TIP3    H114709   5.461   4.002   5.199 -0.4049  1.0909  0.2536
 4915TIP3    H214710   5.566   4.047   5.297  0.2772  0.6491 -0.2649
 4916TIP3   OH214711   6.051   4.608   4.336  0.1982  0.6358  0.1112
 4916TIP3    H114712   6.140   4.584   4.310 -0.5514 -1.6922 -0.5103
 4916TIP3    H214713   6.033   4.557   4.415 -0.6414  1.0010  0.1752
 4917TIP3   OH214714   1.114   6.135   1.551  0.0704  0.2333 -0.2644
 4917TIP3    H114715   1.108   6.231   1.550 -2.7053  0.1504  0.6277
 4917TIP3    H214716   1.041   6.107   1.606  1.1881 -2.4078  0.0200
 4918TIP3   OH214717   6.999   6.080   5.333 -0.5426  0.4373 -0.5347
 4918TIP3    H114718   7.013   5.987   5.348  0.5679  0.6632 -0.0188
 4918TIP3    H214719   6.909   6.087   5.303 -1.2024 -0.6039  1.1197
 4919TIP3   OH214720  -0.004   3.934   3.131 -0.7625 -0.2048  0.2391
 4919TIP3    H114721  -0.011   3.876   3.207  1.1988 -0.8186 -0.0058
 4919TIP3    H214722   0.040   3.882   3.065 -0.5834  0.9991 -0.6173
 4920TIP3   OH214723   2.758   2.986   2.580 -0.0327 -0.2005 -0.3976
 4920TIP3    H114724   2.688   3.047   2.556  0.9898  0.8628 -0.7414
 4920TIP3    H214725   2.730   2.951   2.665 -1.8010 -1.1121 -1.2840
 4921TIP3   OH214726   4.535   2.014   0.464 -0.1357  0.2834  0.5028
 4921TIP3    H114727   4.499   2.005   0.375  0.3965 -0.8137  0.3802
 4921TIP3    H214728   4.466   1.980   0.521 -1.3418  2.9070  0.7292
 4922TIP3   OH214729   3.246   3.719   5.258 -0.4489  0.2704 -0.1130
 4922TIP3    H114730   3.159   3.757   5.273 -0.8507  0.0549 -1.7529
 4922TIP3    H214731   3.241   3.632   5.296 -0.8956  0.3125 -0.0660
 4923TIP3   OH214732   6.246   5.705   5.439 -0.0154 -0.3474  0.0000
 4923TIP3    H114733   6.331   5.738   5.407 -0.4363  0.8831  0.0878
 4923TIP3    H214734   6.268   5.658   5.519  0.5130  0.6456  0.4609
 4924TIP3   OH214735   0.590   1.353   1.874  0.2743 -0.1930 -0.1428
 4924TIP3    H114736   0.642   1.405   1.813  1.1403 -2.5675 -1.5771
 4924TIP3    H214737   0.654   1.316   1.935 -0.4249  1.0029  1.4038
 4925TIP3   OH214738   1.769   4.393   2.145  0.2518  0.0687 -0.3849
 4925TIP3    H114739   1.863   4.378   2.141  0.1221 -1.3903  1.3290
 4925TIP3    H214740   1.734   4.318   2.193 -1.6861  1.0125 -0.2354
 4926TIP3   OH214741   7.007   5.168   3.309 -0.5443 -0.0851 -0.5182
 4926TIP3    H114742   7.006   5.264   3.305  2.4921  0.0258 -1.5510
 4926TIP3    H214743   7.022   5.141   3.218  0.6370 -1.4152  0.0459
 4927TIP3   OH214744   6.361   3.307   0.858 -0.2354 -0.2486  0.5497
 4927TIP3    H114745   6.276   3.342   0.830  0.1960  0.6625  0.3309
 4927TIP3    H214746   6.350   3.212   0.855 -0.5508 -0.2084 -1.7708
 4928TIP3   OH214747   4.804   1.081   2.473  0.4320 -0.1809 -0.0565
 4928TIP3    H114748   4.867   1.068   2.544 -0.6977 -1.6711  0.7496
 4928TIP3    H214749   4.779   0.992   2.447  1.0356  0.3169 -2.5705
 4929TIP3   OH214750   0.562   3.594   0.070  0.2893  0.1535  0.0607
 4929TIP3    H114751   0.603   3.667   0.023 -1.3336  0.7577 -0.4752
 4929TIP3    H214752   0.610   3.517   0.041  1.2241  0.8461 -0.3236
 4930TIP3   OH214753   4.976   6.530   1.713 -0.2632 -0.2725  0.0125
 4930TIP3    H114754   4.987   6.580   1.795  0.4881  0.5694 -0.5768
 4930TIP3    H214755   5.044   6.462   1.717 -0.6263 -0.6158  0.3625
 4931TIP3   OH214756   2.101   5.604   1.396 -0.9871  0.2947 -0.0736
 4931TIP3    H114757   2.166   5.659   1.354 -0.7187 -0.3450 -0.5080
 4931TIP3    H214758   2.019   5.626   1.352 -0.9071  0.4321 -0.1544
 4932TIP3   OH214759   2.744   6.444   3.025 -0.6854 -0.4156 -0.2082
 4932TIP3    H114760   2.678   6.503   3.062  0.8408  1.1858  0.0419
 4932TIP3    H214761   2.707   6.418   2.940 -3.3321 -2.6047  1.4490
 4933TIP3   OH214762   6.950   0.455   1.933 -0.4258 -0.6817 -0.1654
 4933TIP3    H114763   6.891   0.421   1.866 -0.4656 -3.4070  1.0835
 4933TIP3    H214764   7.037   0.451   1.892 -0.5323 -1.6715 -0.3340
 4934TIP3   OH214765   0.387   6.383   4.483  0.6591 -0.5083 -0.0514
 4934TIP3    H114766   0.332   6.319   4.438 -0.5941  0.4830 -0.0006
 4934TIP3    H214767   0.376   6.464   4.432  4.0493 -0.8226 -1.5272
 4935TIP3   OH214768   1.239   5.725   4.896 -0.4930 -0.2900  0.1098
 4935TIP3    H114769   1.241   5.799   4.956 -0.0063 -0.3886  0.2204
 4935TIP3    H214770   1.213   5.762   4.812 -0.7203 -0.0759  0.2737
 4936TIP3   OH214771   4.576   6.612   3.296 -0.1924  0.5587 -0.7792
 4936TIP3    H114772   4.572   6.591   3.389 -2.5116  1.2309 -0.6693
 4936TIP3    H214773   4.498   6.571   3.259 -0.0105  1.4275 -2.1972
 4937TIP3   OH214774   5.596   5.761   4.589  0.4747  0.0771  0.5211
 4937TIP3    H114775   5.606   5.754   4.684  0.6864 -1.5548  0.4062
 4937TIP3    H214776   5.643   5.842   4.565  0.4839  0.4567  1.7787
 4938TIP3   OH214777   4.805   1.941   3.047 -0.3557  0.0928 -0.2348
 4938TIP3    H114778   4.761   1.922   3.130 -2.4342  0.3854 -1.2009
 4938TIP3    H214779   4.773   1.874   2.987  0.5834  0.3038 -0.9929
 4939TIP3   OH214780   6.217   1.317   0.122 -0.6011 -0.0189 -0.1791
 4939TIP3    H114781   6.129   1.298   0.090  0.7745 -2.2320 -3.2445
 4939TIP3    H214782   6.237   1.403   0.087 -1.2837  0.1639 -0.1340
 4940TIP3   OH214783   4.814   1.109   5.406  0.2531 -0.4700 -0.3333
 4940TIP3    H114784   4.826   1.204   5.394  2.5008 -0.1569  2.9233
 4940TIP3    H214785   4.903   1.074   5.402 -0.2974 -2.0942  0.8198
 4941TIP3   OH214786   4.117   6.666   5.818  0.0179 -0.3813 -0.3801
 4941TIP3    H114787   4.113   6.629   5.906 -0.2174 -1.8388 -0.9685
 4941TIP3    H214788   4.210   6.674   5.799  0.0691  0.0738  0.0473
 4942TIP3   OH214789   4.792   0.286   3.476 -0.3697  0.1445  0.0668
 4942TIP3    H114790   4.795   0.373   3.516 -0.9993  0.0455  0.3414
 4942TIP3    H214791   4.797   0.302   3.382 -0.0812  0.4494  0.1326
 4943TIP3   OH214792   6.000   3.904   4.748  0.2227 -0.3046  0.2623
 4943TIP3    H114793   6.089   3.896   4.714  0.6464 -0.6085  1.3832
 4943TIP3    H214794   5.987   3.998   4.760 -0.0534 -0.1661 -0.9934
 4944TIP3   OH214795   6.277   4.540   0.843 -0.2012 -0.4143 -0.0040
 4944TIP3    H114796   6.200   4.586   0.876  0.8766  0.9025  0.7714
 4944TIP3    H214797   6.258   4.447   0.859 -2.3430 -0.3005 -1.4230
 4945TIP3   OH214798   5.285   4.217   3.657 -0.3164 -0.2866 -0.5438
 4945TIP3    H114799   5.268   4.311   3.662 -2.0224 -0.5989  0.2092
 4945TIP3    H214800   5.351   4.201   3.724 -1.2183  0.1386  0.4604
 4946TIP3   OH214801   4.482   1.543   0.575 -0.7858  0.4617 -0.0506
 4946TIP3    H114802   4.389   1.537   0.598 -0.9898  1.3035 -0.6310
 4946TIP3    H214803   4.520   1.599   0.644 -0.7705  0.3926 -0.0023
 4947TIP3   OH214804   5.938   6.278   4.423  0.2046 -0.0271 -0.0602
 4947TIP3    H114805   6.032   6.276   4.406  0.1133  0.6521 -0.6611
 4947TIP3    H214806   5.908   6.358   4.382 -1.0253 -1.3518 -1.9043
 4948TIP3   OH214807   4.604   5.367   1.813 -0.0690 -0.2425 -0.3608
 4948TIP3    H114808   4.580   5.453   1.845  1.6357  0.4599 -0.8844
 4948TIP3    H214809   4.688   5.347   1.855  1.1991 -0.1810 -2.7149
 4949TIP3   OH214810   3.553   6.071   1.980  0.5814 -0.3698 -0.5319
 4949TIP3    H114811   3.613   6.112   1.918  0.5223 -1.7199 -1.5326
 4949TIP3    H214812   3.580   6.103   2.065 -0.2396  2.7025 -1.2962
 4950TIP3   OH214813   1.496   4.062   0.605  0.2123  0.4045 -0.1459
 4950TIP3    H114814   1.549   3.983   0.606  1.2311  1.0582  1.1515
 4950TIP3    H214815   1.490   4.087   0.513  0.3562 -0.8525 -0.5028
 4951TIP3   OH214816   1.712   1.227   2.758  0.8766  0.0396  0.7611
 4951TIP3    H114817   1.780   1.238   2.692  0.0692 -0.6009 -0.2177
 4951TIP3    H214818   1.688   1.134   2.753  0.6152  0.0351  1.7789
 4952TIP3   OH214819   5.836   1.475   2.656 -0.1585 -0.3803  0.4917
 4952TIP3    H114820   5.752   1.442   2.689 -0.8523  1.4873  0.7052
 4952TIP3    H214821   5.826   1.476   2.561  0.0669 -1.2366  0.4496
 4953TIP3   OH214822   3.460   3.856   5.805  0.1173 -0.1189  0.5821
 4953TIP3    H114823   3.389   3.862   5.742  2.2291 -0.2727 -1.9972
 4953TIP3    H214824   3.483   3.763   5.807  0.8861  0.0595  0.5713
 4954TIP3   OH214825   7.048   2.623   2.920  0.1146  0.3279  0.0922
 4954TIP3    H114826   7.058   2.605   3.014  1.0066 -0.3017 -0.1086
 4954TIP3    H214827   7.125   2.674   2.897  0.2571 -0.1159 -0.4361
 4955TIP3   OH214828   0.957   4.036   1.519 -0.5067  0.0366 -0.2288
 4955TIP3    H114829   0.926   4.017   1.430 -0.0018 -0.6252 -0.2719
 4955TIP3    H214830   0.922   4.123   1.539  0.0731  0.5726 -1.4149
 4956TIP3   OH214831   4.898   2.653   3.259  0.1274 -0.4860 -0.0815
 4956TIP3    H114832   4.805   2.660   3.282  0.0971  0.6792 -0.5275
 4956TIP3    H214833   4.944   2.668   3.341 -0.0662 -1.4281  0.2171
 4957TIP3   OH214834   2.984   5.215   0.175  0.4025  0.2216  0.1491
 4957TIP3    H114835   2.988   5.226   0.270  1.4876 -0.2548  0.1703
 4957TIP3    H214836   3.076   5.208   0.148  0.0552 -1.8882 -0.6684
 4958TIP3   OH214837   0.015   2.501   0.329 -0.3280  0.4583 -0.7244
 4958TIP3    H114838  -0.030   2.450   0.397 -1.4838  1.2939 -0.8202
 4958TIP3    H214839   0.055   2.574   0.376 -2.6441  2.0609 -1.0601
 4959TIP3   OH214840   5.389   4.152   1.917 -0.1799  0.2324 -0.5001
 4959TIP3    H114841   5.362   4.244   1.919  0.1348  0.3417 -1.1529
 4959TIP3    H214842   5.361   4.118   2.002  0.1322  1.0532 -0.0522
 4960TIP3   OH214843   0.588   3.580   3.907 -0.0957  0.2621 -0.3187
 4960TIP3    H114844   0.631   3.498   3.882  1.9910  1.0177  0.5189
 4960TIP3    H214845   0.614   3.642   3.839 -1.3394  0.3514 -0.7348
 4961TIP3   OH214846   6.401   3.666   0.664 -0.1599 -0.4250  0.1091
 4961TIP3    H114847   6.343   3.741   0.651 -0.5570 -0.7547 -0.0072
 4961TIP3    H214848   6.350   3.603   0.714  0.1962 -0.5955  0.2649
 4962TIP3   OH214849   4.351   1.410   2.860 -0.3104  0.5285  0.3802
 4962TIP3    H114850   4.317   1.494   2.891 -1.1340  0.3867 -0.1288
 4962TIP3    H214851   4.360   1.421   2.765  0.1906  0.2457  0.3877
 4963TIP3   OH214852   0.269   5.566   3.473  0.0704 -0.2506  0.3240
 4963TIP3    H114853   0.328   5.641   3.472 -2.9962  2.5460  2.9444
 4963TIP3    H214854   0.277   5.530   3.562 -0.4956 -1.2893 -0.0249
 4964TIP3   OH214855   5.289   0.087   2.654  0.8077  0.3657 -0.2284
 4964TIP3    H114856   5.270   0.159   2.714 -0.8586  0.2688 -0.5902
 4964TIP3    H214857   5.337   0.023   2.708 -0.8412  0.1878  1.1050
 4965TIP3   OH214858   1.642   4.308   4.501 -0.2558 -0.2441  0.4367
 4965TIP3    H114859   1.571   4.326   4.440  1.5880 -0.3048 -1.9136
 4965TIP3    H214860   1.609   4.237   4.556 -2.0788 -0.1265 -0.4246
 4966TIP3   OH214861   6.951   5.251   3.035  0.1194  0.2159  0.5812
 4966TIP3    H114862   6.961   5.264   2.941  0.1051  0.5897  0.6280
 4966TIP3    H214863   7.000   5.324   3.074 -0.5775  0.5458  0.8497
 4967TIP3   OH214864   1.134   4.321   3.881 -0.1482 -0.3298  0.1351
 4967TIP3    H114865   1.073   4.247   3.887 -1.2573  0.4906 -0.5664
 4967TIP3    H214866   1.216   4.281   3.853 -0.7882 -1.2791 -0.4769
 4968TIP3   OH214867   1.170   1.595   2.547  0.0675 -0.1611 -0.0968
 4968TIP3    H114868   1.240   1.529   2.555  0.9538  0.4413 -2.2317
 4968TIP3    H214869   1.188   1.639   2.464 -1.4331  1.7245  0.5110
 4969TIP3   OH214870   7.089   6.627   5.724 -0.3445  0.2916 -0.2416
 4969TIP3    H114871   7.008   6.644   5.772 -1.0255  1.0820 -1.6125
 4969TIP3    H214872   7.069   6.650   5.634  0.9308 -1.0426 -0.9193
 4970TIP3   OH214873   4.343   1.460   2.595 -0.3226  0.1298 -0.1345
 4970TIP3    H114874   4.430   1.465   2.556 -0.3525  0.1096 -0.2030
 4970TIP3    H214875   4.302   1.384   2.554 -0.3910  0.1690 -0.1384
 4971TIP3   OH214876   3.224   2.814   1.528  0.1901  0.3227 -0.3194
 4971TIP3    H114877   3.256   2.902   1.507 -0.4152  1.0724  1.6270
 4971TIP3    H214878   3.302   2.759   1.525  0.9733  1.3395  0.3987
 4972TIP3   OH214879   2.042   1.354   4.360 -0.2698 -0.0134 -0.3139
 4972TIP3    H114880   2.131   1.335   4.389  0.9379 -0.0255 -3.5898
 4972TIP3    H214881   1.997   1.269   4.364  0.6372 -0.5448 -0.9104
 4973TIP3   OH214882   5.109   4.134   5.751 -0.1695  0.4552  0.0697
 4973TIP3    H114883   5.205   4.129   5.748  0.0105  2.0476  1.4708
 4973TIP3    H214884   5.084   4.080   5.825 -0.3288  0.4039 -0.0201
 4974TIP3   OH214885   0.635   4.441   4.058 -0.4952 -0.0857 -0.6220
 4974TIP3    H114886   0.597   4.529   4.057  0.5988  0.4184  0.5638
 4974TIP3    H214887   0.577   4.390   4.115 -0.0581  0.3780  0.2442
 4975TIP3   OH214888   2.642   6.795   5.699  0.4901  0.2067 -0.3630
 4975TIP3    H114889   2.571   6.806   5.636 -0.7989 -0.5934  0.9074
 4975TIP3    H214890   2.613   6.725   5.757  2.0280  0.3232  0.6161
 4976TIP3   OH214891   0.316   0.504   1.107 -0.7653 -0.1447  0.1580
 4976TIP3    H114892   0.242   0.443   1.107 -0.9411  0.0515 -0.8106
 4976TIP3    H214893   0.280   0.585   1.145 -1.1576  0.0646 -0.6407
 4977TIP3   OH214894   5.566   2.801   5.430 -0.0230 -0.1928  0.0143
 4977TIP3    H114895   5.656   2.773   5.445 -0.0314 -0.7112 -0.8276
 4977TIP3    H214896   5.512   2.736   5.473 -0.0166 -0.8102 -0.8822
 4978TIP3   OH214897   2.033   1.762   2.112  0.0185 -0.4523  0.3149
 4978TIP3    H114898   2.035   1.756   2.017 -1.4998  0.3011  0.2003
 4978TIP3    H214899   2.093   1.694   2.142  0.8773 -0.3856 -1.1790
 4979TIP3   OH214900   2.372   4.265   2.259  0.0281 -0.5904 -0.1504
 4979TIP3    H114901   2.418   4.347   2.242  2.4466 -1.7095  0.4808
 4979TIP3    H214902   2.430   4.217   2.318 -0.9274 -3.0553 -1.0603
 4980TIP3   OH214903   6.827   6.591   1.248 -0.0713 -0.0170 -0.1952
 4980TIP3    H114904   6.855   6.501   1.260 -1.4275 -0.5391 -0.7811
 4980TIP3    H214905   6.833   6.606   1.153  1.8650  1.1137  0.0585
 4981TIP3   OH214906   5.779   1.552   2.391 -0.5364 -0.0254 -0.3101
 4981TIP3    H114907   5.863   1.554   2.346 -0.9650  1.1548 -1.1171
 4981TIP3    H214908   5.730   1.625   2.354 -1.4365  0.1293  1.1011
 4982TIP3   OH214909   4.515   1.881   3.062  0.5705  0.5325  0.3456
 4982TIP3    H114910   4.559   1.886   3.147  0.9491 -1.2867  0.3043
 4982TIP3    H214911   4.427   1.915   3.079  0.7649  0.5665  1.3673
 4983TIP3   OH214912   0.366   1.864   3.031  0.1839 -0.4210  0.1521
 4983TIP3    H114913   0.417   1.901   2.959 -0.6989  2.1309  0.7069
 4983TIP3    H214914   0.431   1.826   3.090  1.0838 -0.6462 -0.9592
 4984TIP3   OH214915   2.946   6.687   4.851 -0.2810  0.0476 -0.0806
 4984TIP3    H114916   2.908   6.749   4.913 -1.5619 -0.8265  0.0393
 4984TIP3    H214917   2.993   6.624   4.905  1.8524  1.3678 -0.2465
 4985TIP3   OH214918   1.524   6.311   2.199  0.1211  0.0678  0.3854
 4985TIP3    H114919   1.567   6.368   2.136 -1.1536  0.1278 -0.4754
 4985TIP3    H214920   1.479   6.371   2.259 -1.1647  0.0252 -0.4810
 4986TIP3   OH214921   0.880   2.811   0.847 -0.3818 -0.0477  0.0052
 4986TIP3    H114922   0.913   2.722   0.835 -0.7436 -0.0415 -1.1837
 4986TIP3    H214923   0.959   2.864   0.859 -0.0470 -0.3099 -0.9083
 4987TIP3   OH214924   3.769   2.990   3.983 -0.6702  0.6003  0.4677
 4987TIP3    H114925   3.795   3.059   4.044  0.0764 -0.5448  1.5010
 4987TIP3    H214926   3.791   3.025   3.897  2.1484  0.6954  1.1113
 4988TIP3   OH214927   2.622   3.325   1.311 -0.2146 -0.1401  0.5093
 4988TIP3    H114928   2.538   3.368   1.324  1.1507  2.3505  1.7175
 4988TIP3    H214929   2.624   3.257   1.378 -2.0101 -1.6001 -0.8089
 4989TIP3   OH214930   1.692   0.937   2.675 -0.4565 -0.1444  0.0580
 4989TIP3    H114931   1.777   0.966   2.640 -1.4843  1.0602 -1.6190
 4989TIP3    H214932   1.692   0.842   2.663 -0.5234  0.1378 -2.9044
 4990TIP3   OH214933   7.015   0.123   1.332  0.7620 -0.4350 -0.1230
 4990TIP3    H114934   6.979   0.045   1.373 -0.9285 -0.2089 -1.0807
 4990TIP3    H214935   6.992   0.114   1.239  1.3943  0.7277 -0.4129
 4991TIP3   OH214936   2.150   6.557   4.083  0.3528 -0.4339  0.2827
 4991TIP3    H114937   2.058   6.571   4.106 -0.4236 -3.2460 -0.6498
 4991TIP3    H214938   2.157   6.589   3.993  0.6341  0.8367  0.7336
 4992TIP3   OH214939   5.559   6.727   1.967  0.0009  0.0328 -0.4614
 4992TIP3    H114940   5.614   6.649   1.969 -1.8039 -1.3484 -1.1651
 4992TIP3    H214941   5.618   6.798   1.941  1.4819 -1.3126 -0.9372
 4993TIP3   OH214942   1.042   5.089   0.805  0.6951 -0.1964 -0.2457
 4993TIP3    H114943   1.063   5.030   0.878 -1.6685 -0.1585  0.5524
 4993TIP3    H214944   1.065   5.176   0.838 -0.7871 -0.1213  0.7195
 4994TIP3   OH214945   2.335   0.198   5.333  0.2096  0.3226 -0.1022
 4994TIP3    H114946   2.404   0.134   5.317 -2.8379 -3.2396 -0.5344
 4994TIP3    H214947   2.296   0.172   5.417 -0.7184  2.1285  0.0969
 4995TIP3   OH214948   4.264   5.325   3.300 -0.4011  0.0248  0.1360
 4995TIP3    H114949   4.223   5.402   3.340 -0.7728  0.1514 -0.4784
 4995TIP3    H214950   4.262   5.343   3.206 -1.1619 -1.0646 -0.0656
 4996TIP3   OH214951   3.455   4.844   0.924 -0.8624  0.1943 -0.6830
 4996TIP3    H114952   3.393   4.873   0.991 -0.9342 -1.1175 -0.1484
 4996TIP3    H214953   3.427   4.755   0.902  0.1163  0.0212 -1.3005
 4997TIP3   OH214954   2.514   1.149   5.822  0.2925 -0.3615 -0.3473
 4997TIP3    H114955   2.582   1.173   5.759  0.0595 -0.2286 -0.5487
 4997TIP3    H214956   2.432   1.160   5.774 -0.0102  1.4130  0.4892
 4998TIP3   OH214957   3.744   4.045   5.266 -0.3874 -0.2971 -0.2396
 4998TIP3    H114958   3.840   4.046   5.273 -0.4078 -1.0348  0.2775
 4998TIP3    H214959   3.727   3.996   5.186 -0.3181  0.8994 -1.0061
 4999TIP3   OH214960   3.770   0.595   0.323  0.0621  0.0257  0.1700
 4999TIP3    H114961   3.843   0.547   0.284 -0.4368 -1.6815  1.2172
 4999TIP3    H214962   3.693   0.566   0.274  0.0086  1.7245 -0.8470
 5000TIP3   OH214963   3.165   0.115   3.387 -0.6278 -0.4452  0.4839
 5000TIP3    H114964   3.241   0.077   3.432 -1.5184 -3.6291 -0.4240
 5000TIP3    H214965   3.201   0.152   3.307  0.0153 -2.1794 -0.0811
 5001TIP3   OH214966   3.578   2.829   1.686 -0.6070 -0.2450  0.0613
 5001TIP3    H114967   3.645   2.866   1.629 -1.3902  0.8277 -0.1964
 5001TIP3    H214968   3.529   2.770   1.629 -0.9410  0.2794 -0.2044
 5002TIP3   OH214969   2.048   2.506   5.819 -0.2704 -0.8407  0.0617
 5002TIP3    H114970   2.104   2.582   5.837 -1.4969 -0.0427  0.5912
 5002TIP3    H214971   2.103   2.431   5.841  0.5324 -0.0795  0.7541
 5003TIP3   OH214972   3.959   0.276   2.791 -0.0842 -0.1655  0.0887
 5003TIP3    H114973   3.864   0.283   2.784 -0.1075 -0.5039  0.0329
 5003TIP3    H214974   3.984   0.218   2.719  0.1495 -0.1839  0.1836
 5004TIP3   OH214975   0.471   3.237   2.699 -0.2258  0.1310 -0.2617
 5004TIP3    H114976   0.499   3.256   2.609  0.7723  2.1432  0.4081
 5004TIP3    H214977   0.512   3.153   2.719 -0.0305 -0.0980 -1.5116
 5005TIP3   OH214978   2.937   0.767   1.346 -0.1036 -0.3474 -0.5080
 5005TIP3    H114979   2.988   0.847   1.334  0.9470 -1.0183 -0.6811
 5005TIP3    H214980   2.988   0.699   1.302 -2.1472 -0.7243 -2.5141
 5006TIP3   OH214981   4.664   3.992   5.645  0.1238 -0.2182  0.0724
 5006TIP3    H114982   4.739   4.004   5.586  2.4972 -2.2098  2.4646
 5006TIP3    H214983   4.639   4.081   5.669  3.0848  0.5421  0.7415
 5007TIP3   OH214984   5.138   3.399   0.243 -0.1091 -0.1180  0.3148
 5007TIP3    H114985   5.108   3.486   0.217  1.7552  0.4803  0.0646
 5007TIP3    H214986   5.068   3.367   0.301 -2.2178  0.3114 -1.8277
 5008TIP3   OH214987   1.482   1.522   1.258 -0.4231 -0.5101  0.0386
 5008TIP3    H114988   1.571   1.497   1.232  0.8492  1.7379  1.8654
 5008TIP3    H214989   1.467   1.607   1.215  0.2108  1.3670  3.2027
 5009TIP3   OH214990   3.449   3.086   1.787 -0.0412 -0.0132 -0.0166
 5009TIP3    H114991   3.509   3.017   1.759  0.8333  0.7246  0.0154
 5009TIP3    H214992   3.441   3.075   1.882  0.8502  0.5063  0.1288
 5010TIP3   OH214993   3.911   0.512   2.463  0.1500  0.6123 -0.2420
 5010TIP3    H114994   3.820   0.541   2.457 -0.2705 -0.0716  1.9290
 5010TIP3    H214995   3.915   0.433   2.410 -0.9467 -0.2092  0.8448
 5011TIP3   OH214996   4.356   5.945   1.418 -0.3601 -0.4336  0.0577
 5011TIP3    H114997   4.350   6.023   1.364  0.3721 -0.7331 -0.4621
 5011TIP3    H214998   4.289   5.886   1.383 -0.2828 -0.3992 -0.1476
 5012TIP3   OH214999   6.692   2.281   2.653 -0.4535 -0.5941  0.5736
 5012TIP3    H115000   6.757   2.221   2.615  0.7075  0.6928  0.4480
 5012TIP3    H215001   6.744   2.349   2.696 -1.6811  1.0504 -0.4248
 5013TIP3   OH215002   2.484   2.496   2.448 -0.9219 -1.0151  0.0100
 5013TIP3    H115003   2.546   2.430   2.418 -1.6307 -0.9629 -1.6731
 5013TIP3    H215004   2.400   2.451   2.449 -0.9415 -1.0148  2.0299
 5014TIP3   OH215005   5.646   1.175   2.077  0.0964 -0.2857  0.5526
 5014TIP3    H115006   5.580   1.155   2.010 -0.3441 -2.2964  1.5130
 5014TIP3    H215007   5.721   1.207   2.027 -0.2186 -1.7244 -0.9589
 5015TIP3   OH215008   4.145   0.703   0.474  0.1692  0.0037 -0.3380
 5015TIP3    H115009   4.087   0.643   0.522  0.7547  0.7460  1.3756
 5015TIP3    H215010   4.230   0.694   0.519  0.7069  0.8412 -1.1682
 5016TIP3   OH215011   1.961   3.666   4.363 -0.7542 -0.3017 -0.3552
 5016TIP3    H115012   2.052   3.690   4.344 -0.5992 -0.7610 -0.1906
 5016TIP3    H215013   1.910   3.714   4.298 -0.2507 -1.6730 -1.8161
 5017TIP3   OH215014   2.439   1.845   4.252 -0.7039 -0.3978 -0.5815
 5017TIP3    H115015   2.512   1.816   4.307 -2.7032 -2.6441  1.0839
 5017TIP3    H215016   2.473   1.838   4.163  1.2895 -0.7804  0.1405
 5018TIP3   OH215017   6.053   2.499   2.104 -0.4793  0.2793 -0.2317
 5018TIP3    H115018   5.991   2.464   2.168  0.1833 -2.1902 -0.8305
 5018TIP3    H215019   6.137   2.501   2.150 -0.0379 -1.3295 -0.8902
 5019TIP3   OH215020   6.576   5.019   1.026 -0.2084  0.4558 -0.2073
 5019TIP3    H115021   6.591   4.941   0.973  0.2679  0.7700 -0.5345
 5019TIP3    H215022   6.521   5.075   0.972  0.9899  1.1509 -0.7293
 5020TIP3   OH215023   2.741   2.970   1.631 -0.3142 -0.6034 -0.2749
 5020TIP3    H115024   2.685   2.906   1.675 -1.4812  0.7887  0.3470
 5020TIP3    H215025   2.681   3.040   1.606  1.3031  1.5326  1.4869
 5021TIP3   OH215026   2.187   3.163   1.189 -0.0119  0.1779 -0.4259
 5021TIP3    H115027   2.203   3.113   1.109 -2.8733  1.6759 -2.0730
 5021TIP3    H215028   2.142   3.101   1.247  1.3881 -0.6878 -0.2221
 5022TIP3   OH215029   5.710   3.974   3.376  0.2642  0.0987 -0.1355
 5022TIP3    H115030   5.727   3.982   3.470  4.2549 -1.6027 -0.4809
 5022TIP3    H215031   5.767   4.039   3.336 -1.9687  1.3598 -1.4750
 5023TIP3   OH215032   2.067   3.140   3.275  0.3454 -0.0949  0.8332
 5023TIP3    H115033   2.022   3.222   3.294 -0.6794 -0.3820 -0.2454
 5023TIP3    H215034   2.055   3.087   3.354 -0.8042  0.0201  0.7497
 5024TIP3   OH215035   5.892   0.652   4.028  0.6978  0.2782 -0.3689
 5024TIP3    H115036   5.871   0.709   3.954  0.6487  0.1641 -0.4434
 5024TIP3    H215037   5.935   0.576   3.989  1.0917  0.4290 -0.2323
 5025TIP3   OH215038   6.619   2.016   2.889 -0.1619 -0.0898  0.3327
 5025TIP3    H115039   6.653   2.077   2.955  0.3559 -0.5719  0.5110
 5025TIP3    H215040   6.602   1.935   2.937  1.7159 -0.9641 -0.3975
 5026TIP3   OH215041   1.128   4.165   3.530  0.8418  0.2260  0.5927
 5026TIP3    H115042   1.180   4.163   3.449  0.0743  2.1294 -0.0138
 5026TIP3    H215043   1.139   4.254   3.563 -0.7540  0.2023  1.2887
 5027TIP3   OH215044   4.896   6.616   4.851  0.1493 -0.0233  0.1599
 5027TIP3    H115045   4.963   6.664   4.803  1.1999 -0.5202  1.0785
 5027TIP3    H215046   4.943   6.575   4.924 -1.1707 -0.3153  0.8896
 5028TIP3   OH215047   5.949   1.069   2.739  0.3267 -0.2041  0.0971
 5028TIP3    H115048   5.922   1.051   2.829 -1.4511 -0.6163 -0.4848
 5028TIP3    H215049   5.966   1.163   2.737 -2.5513  0.4091  0.1990
 5029TIP3   OH215050   1.112  -0.004   1.935  0.3852 -0.0868  0.6615
 5029TIP3    H115051   1.147   0.085   1.923  0.7322 -0.1104  1.4440
 5029TIP3    H215052   1.133  -0.026   2.025  0.6010 -1.1058  0.3758
 5030TIP3   OH215053   6.310   6.542   0.631  0.6171  0.0377  0.2813
 5030TIP3    H115054   6.364   6.544   0.551 -0.8528  0.6455 -0.7578
 5030TIP3    H215055   6.276   6.453   0.634  3.8481 -1.3153  2.5737
 5031TIP3   OH215056   3.724   2.140   1.794 -0.3401 -0.2193  0.1757
 5031TIP3    H115057   3.689   2.052   1.782 -1.0663  0.2845 -1.7166
 5031TIP3    H215058   3.813   2.135   1.760 -0.3940 -0.2204  0.0335
 5032TIP3   OH215059   1.349   0.856   4.486  0.3518 -0.7108 -0.3951
 5032TIP3    H115060   1.436   0.822   4.504  0.9314  1.2308  0.8344
 5032TIP3    H215061   1.332   0.917   4.558 -3.2177 -3.0305  1.0001
 5033TIP3   OH215062   4.025   5.761   4.821 -1.0188  0.5452  0.1354
 5033TIP3    H115063   4.092   5.778   4.754 -0.7499  1.7636  0.6817
 5033TIP3    H215064   4.055   5.682   4.865  0.2043  1.1881  0.5180
 5034TIP3   OH215065   2.765   3.706   5.402 -0.2450  0.1519 -0.0006
 5034TIP3    H115066   2.828   3.642   5.369 -0.5676 -0.1202 -0.1039
 5034TIP3    H215067   2.684   3.656   5.413 -1.0855  0.9731 -2.0283
 5035TIP3   OH215068   1.514   3.182   3.802 -0.3856  0.2555  0.0543
 5035TIP3    H115069   1.541   3.094   3.776 -0.4666  0.7529 -1.8870
 5035TIP3    H215070   1.437   3.168   3.857 -0.6560 -0.8793 -0.5722
 5036TIP3   OH215071   5.570   1.144   0.382  0.0739  0.0261 -0.3268
 5036TIP3    H115072   5.574   1.066   0.438 -0.4243  0.2600  0.0321
 5036TIP3    H215073   5.488   1.135   0.334  0.7252 -0.4307 -1.4116
 5037TIP3   OH215074   3.511   6.305   2.320  0.1786  0.2040  0.2682
 5037TIP3    H115075   3.456   6.361   2.266 -2.4635 -2.1041  0.3352
 5037TIP3    H215076   3.558   6.250   2.257  1.4147  1.2347  0.2529
 5038TIP3   OH215077   5.623   3.072   2.054 -0.3369 -0.2933  0.2695
 5038TIP3    H115078   5.631   2.977   2.052 -0.7705 -0.3254 -0.1860
 5038TIP3    H215079   5.701   3.103   2.008 -1.3760 -0.5227 -1.7785
 5039TIP3   OH215080   0.206   4.451   1.342 -0.1794 -0.3372  0.2719
 5039TIP3    H115081   0.193   4.373   1.397 -1.2910  0.0606  0.6052
 5039TIP3    H215082   0.298   4.473   1.354 -0.9303  1.5038  4.5128
 5040TIP3   OH215083   0.203   0.968   3.113 -0.8188  0.1044  0.0354
 5040TIP3    H115084   0.186   0.895   3.173 -0.8866 -0.6378 -0.8621
 5040TIP3    H215085   0.121   0.980   3.066 -0.4110 -0.1351 -0.7586
 5041TIP3   OH215086   2.429   6.641   2.014  0.2884 -0.1594  0.5346
 5041TIP3    H115087   2.451   6.721   2.062  2.1595  1.3891 -2.5962
 5041TIP3    H215088   2.336   6.652   1.992  0.4421  1.0710  0.3930
 5042TIP3   OH215089   2.727   0.794   1.998  0.1834  0.3929  0.2391
 5042TIP3    H115090   2.677   0.818   2.076 -0.3686 -0.5827  0.1962
 5042TIP3    H215091   2.817   0.785   2.029 -0.2826 -1.6239  1.1435
 5043TIP3   OH215092   4.939   2.942   3.914 -0.1805  0.3303 -0.8404
 5043TIP3    H115093   5.023   2.896   3.910 -0.2774  0.2059 -1.6764
 5043TIP3    H215094   4.905   2.924   4.002 -0.2031 -1.1705 -1.1326
 5044TIP3   OH215095   2.221   3.153   1.908 -0.3304  0.1313  0.3353
 5044TIP3    H115096   2.303   3.108   1.885 -0.4852  0.4628 -0.9640
 5044TIP3    H215097   2.167   3.086   1.949 -0.2159 -0.6504 -0.7563
 5045TIP3   OH215098   2.390   0.208   3.883 -0.3119 -0.1295  0.9135
 5045TIP3    H115099   2.374   0.144   3.952 -0.5424  0.9317  1.8797
 5045TIP3    H215100   2.485   0.213   3.876 -0.2997 -1.0703  0.3486
 5046TIP3   OH215101   0.128   1.258   2.175  0.1686 -0.1492 -0.3062
 5046TIP3    H115102   0.166   1.306   2.102  0.2415  0.8210  0.3383
 5046TIP3    H215103   0.136   1.166   2.151  0.7985  0.1292 -1.2078
 5047TIP3   OH215104   5.965   5.583   3.585 -0.5285  0.5970 -0.2749
 5047TIP3    H115105   5.963   5.540   3.499 -1.5612 -0.9203  0.4571
 5047TIP3    H215106   6.056   5.576   3.614 -0.7332 -1.6353  0.0297
 5048TIP3   OH215107   6.363   4.643   2.033  0.5103 -0.1570 -0.2447
 5048TIP3    H115108   6.399   4.711   2.090 -0.6186  1.5872 -1.5123
 5048TIP3    H215109   6.268   4.656   2.036  0.2981 -1.3979 -0.8609
 5049TIP3   OH215110   6.847   3.760   2.125 -0.2277 -0.1462 -0.0050
 5049TIP3    H115111   6.884   3.754   2.213 -0.3149 -0.3036  0.0219
 5049TIP3    H215112   6.770   3.703   2.127  0.3637 -0.9867 -0.4850
 5050TIP3   OH215113   7.066   3.451   2.233 -0.6677 -0.0835 -0.5380
 5050TIP3    H115114   6.981   3.438   2.191 -0.3946 -0.8808 -0.8796
 5050TIP3    H215115   7.116   3.372   2.209  0.2192  0.4495 -0.4858
 5051TIP3   OH215116   0.893   4.221   4.660  0.1747  0.0250 -0.2666
 5051TIP3    H115117   0.911   4.289   4.595  0.2247  0.8518  0.5771
 5051TIP3    H215118   0.798   4.213   4.661  0.0461  1.2543  0.7336
 5052TIP3   OH215119   2.495   6.160   0.496 -0.0873 -0.3314  0.4510
 5052TIP3    H115120   2.406   6.151   0.460  0.6323 -1.5119 -1.1291
 5052TIP3    H215121   2.526   6.071   0.507  0.9719  0.0720  0.8573
 5053TIP3   OH215122   2.614   5.405   2.749 -0.2137  0.1280  0.6234
 5053TIP3    H115123   2.632   5.372   2.837 -1.2501 -1.2020  0.3692
 5053TIP3    H215124   2.526   5.442   2.754 -0.1702  0.2986  0.2042
 5054TIP3   OH215125   0.427   5.998   3.056  0.0890  0.0460  0.4999
 5054TIP3    H115126   0.389   6.084   3.036  1.0274  0.5411  0.8085
 5054TIP3    H215127   0.421   5.991   3.152  3.2460  1.3550  0.8941
 5055TIP3   OH215128   4.928   2.899   0.763  0.0846 -0.2001 -0.3768
 5055TIP3    H115129   4.899   2.808   0.753 -1.0775  0.1004  0.1436
 5055TIP3    H215130   4.854   2.944   0.802  1.0935  0.7011  0.5909
 5056TIP3   OH215131   4.230   4.473   2.485  0.4555  0.5621  0.0430
 5056TIP3    H115132   4.252   4.386   2.450 -1.3308  0.0990 -0.0624
 5056TIP3    H215133   4.252   4.467   2.578 -0.1057 -0.2030  0.1424
 5057TIP3   OH215134   5.339   1.009   3.791 -0.4527 -0.5166 -0.6302
 5057TIP3    H115135   5.326   0.926   3.837 -1.3500  0.3270  0.7167
 5057TIP3    H215136   5.254   1.052   3.795  0.6360  1.7052  1.2802
 5058TIP3   OH215137   2.197   2.667   2.301 -0.6285 -0.5363  0.0521
 5058TIP3    H115138   2.228   2.577   2.294  0.5225 -0.2669  1.2806
 5058TIP3    H215139   2.102   2.661   2.291 -0.5126 -1.8202 -0.3458
 5059TIP3   OH215140   5.661   3.772   5.691  0.5967  0.4122  0.2101
 5059TIP3    H115141   5.705   3.701   5.645 -1.2098 -0.3445 -0.4320
 5059TIP3    H215142   5.678   3.850   5.637 -0.2661 -0.1912 -0.9655
 5060TIP3   OH215143   3.630   1.429   5.663 -0.4980  0.2942 -0.1768
 5060TIP3    H115144   3.572   1.485   5.715  0.2123  1.4739 -0.6181
 5060TIP3    H215145   3.680   1.380   5.729  1.0171  2.4108  0.3435
 5061TIP3   OH215146   0.487   2.858   4.828  0.2573 -0.0568 -0.0494
 5061TIP3    H115147   0.407   2.880   4.780  0.1579 -0.7931 -0.2271
 5061TIP3    H215148   0.554   2.917   4.792 -0.0042 -0.0468 -0.5163
 5062TIP3   OH215149   1.990   2.476   3.612  0.1871  0.1623 -0.2015
 5062TIP3    H115150   1.939   2.469   3.532  0.4507  1.7610 -0.5462
 5062TIP3    H215151   2.018   2.387   3.631 -0.8120 -0.3971 -1.2648
 5063TIP3   OH215152   4.628   2.261   0.834 -0.1909  0.1111 -0.1464
 5063TIP3    H115153   4.621   2.356   0.850  0.6316  0.1646 -0.0703
 5063TIP3    H215154   4.615   2.252   0.739  0.5391  0.3902 -0.2769
 5064TIP3   OH215155   0.813   6.157   5.867 -0.2024  0.1173 -0.0405
 5064TIP3    H115156   0.791   6.249   5.882  0.5452  0.0408  1.6683
 5064TIP3    H215157   0.772   6.137   5.782 -2.3930  1.3463  0.6440
 5065TIP3   OH215158   3.290   6.480   0.781 -0.6086 -0.5299 -0.3708
 5065TIP3    H115159   3.321   6.468   0.691  0.2437 -1.9583  0.0740
 5065TIP3    H215160   3.347   6.549   0.816 -1.5011  0.6347 -1.1552
 5066TIP3   OH215161   4.010   5.836   5.269  0.6185 -0.1581  0.0238
 5066TIP3    H115162   3.986   5.762   5.214  0.6377  0.1031 -0.3356
 5066TIP3    H215163   4.084   5.877   5.225  1.1174 -0.3863  0.6299
 5067TIP3   OH215164   3.586   2.506   2.411 -0.0238 -0.1620  0.0115
 5067TIP3    H115165   3.649   2.435   2.416  0.0537 -0.0543  0.7513
 5067TIP3    H215166   3.620   2.572   2.471 -0.2402  0.3824 -0.4581
 5068TIP3   OH215167   7.004   0.194   4.450  0.0321  0.1896  0.3667
 5068TIP3    H115168   6.967   0.117   4.408  0.5196  0.6699 -1.0048
 5068TIP3    H215169   6.929   0.247   4.477 -0.2848 -0.2175  0.2794
 5069TIP3   OH215170   0.797   2.949   2.056  0.0099  0.2151  0.5360
 5069TIP3    H115171   0.726   2.963   2.119 -0.3284  0.5095  0.0972
 5069TIP3    H215172   0.819   3.037   2.025  0.9340  0.1842  1.0546
 5070TIP3   OH215173   5.921   5.160   3.276  0.2221  0.2795  0.2094
 5070TIP3    H115174   5.995   5.177   3.218 -0.6490  0.1247 -1.0084
 5070TIP3    H215175   5.929   5.068   3.300 -0.4154 -0.1936 -1.2399
 5071TIP3   OH215176   5.080   2.758   4.576  0.3689 -0.3949  0.3235
 5071TIP3    H115177   5.151   2.697   4.555  0.4300 -0.2700  0.1683
 5071TIP3    H215178   5.050   2.730   4.662  2.5952  1.3541  1.8036
 5072TIP3   OH215179   0.244   3.011   4.764  1.0508 -0.1569  0.5968
 5072TIP3    H115180   0.169   2.956   4.783  1.0084  0.0011  0.8956
 5072TIP3    H215181   0.265   3.054   4.848 -0.5802  2.3476 -0.1577
 5073TIP3   OH215182   2.572   0.966   2.221 -0.7673 -0.2206  0.9796
 5073TIP3    H115183   2.569   0.910   2.299  1.3412  0.8456  1.9122
 5073TIP3    H215184   2.598   1.052   2.254 -0.6682  0.4831 -0.8107
 5074TIP3   OH215185   1.091   2.797   4.120 -0.2335 -0.1689  0.1974
 5074TIP3    H115186   1.111   2.780   4.212  2.4449  2.5098  0.2635
 5074TIP3    H215187   1.028   2.868   4.122 -0.0856 -0.0313 -0.0231
 5075TIP3   OH215188   2.470   3.223   4.500  0.1552  0.0701  0.4104
 5075TIP3    H115189   2.524   3.144   4.510  2.3619  1.4708  0.2478
 5075TIP3    H215190   2.513   3.288   4.556 -1.1262  1.4072 -0.1001
 5076TIP3   OH215191   2.881   3.453   5.306 -0.1608  0.3520 -0.1982
 5076TIP3    H115192   2.832   3.437   5.225  1.4686  0.7593 -1.3017
 5076TIP3    H215193   2.965   3.409   5.292  0.9232  2.1378  0.4176
 5077TIP3   OH215194   3.490   6.621   5.008 -0.0539  0.1802 -0.1906
 5077TIP3    H115195   3.514   6.692   4.948  0.4270  0.3947  0.2559
 5077TIP3    H215196   3.395   6.630   5.018 -0.2398 -0.2313 -1.3899
 5078TIP3   OH215197   0.494   1.362   0.408  0.4467  0.1874  0.5537
 5078TIP3    H115198   0.532   1.447   0.431  2.2356 -0.6601  0.8896
 5078TIP3    H215199   0.452   1.332   0.489  2.3703 -0.5189  1.3609
 5079TIP3   OH215200   4.664   4.869   2.858  0.0139  0.4660  0.8113
 5079TIP3    H115201   4.707   4.786   2.876  1.8800  1.6769  2.3105
 5079TIP3    H215202   4.574   4.845   2.837  0.7789 -1.9951 -0.0075
 5080TIP3   OH215203   2.610   3.669   3.766 -0.5762  0.4641  0.4435
 5080TIP3    H115204   2.673   3.607   3.803 -0.2489  0.5733  0.0752
 5080TIP3    H215205   2.543   3.613   3.726  0.1763  0.3275 -0.6699
 5081TIP3   OH215206   4.835   3.685   2.922 -0.5742  0.6105  0.1070
 5081TIP3    H115207   4.841   3.623   2.994 -0.0898  1.8022  1.1215
 5081TIP3    H215208   4.827   3.771   2.964  4.0043  1.9148 -1.0399
 5082TIP3   OH215209   4.057   2.509   5.811  0.0475 -0.2325  0.2560
 5082TIP3    H115210   4.124   2.578   5.809 -0.1129  0.1022  2.6250
 5082TIP3    H215211   4.014   2.521   5.896 -1.9409 -1.4625 -0.5119
 5083TIP3   OH215212   3.907   0.231   4.642 -0.0816 -0.0661  0.8571
 5083TIP3    H115213   3.989   0.266   4.675 -0.7159  1.6836  0.6922
 5083TIP3    H215214   3.862   0.306   4.603 -0.7108 -1.4390 -1.2749
 5084TIP3   OH215215   5.889   2.354   1.939  0.5851 -0.0582  0.1436
 5084TIP3    H115216   5.953   2.406   1.987  1.0821 -1.1847  0.7554
 5084TIP3    H215217   5.919   2.356   1.848  0.6475  0.6322  0.1772
 5085TIP3   OH215218   0.202   0.397   3.132  0.1401 -0.4739  0.7735
 5085TIP3    H115219   0.225   0.402   3.040  0.2113  1.2363  0.8615
 5085TIP3    H215220   0.106   0.390   3.133  0.2248 -2.2439  0.5633
 5086TIP3   OH215221   1.719   0.932   3.007  0.3210  0.0537 -0.2499
 5086TIP3    H115222   1.812   0.922   2.986  0.4937  1.3330 -0.1801
 5086TIP3    H215223   1.680   0.848   2.985  1.6847 -0.8985  0.7681
 5087TIP3   OH215224   3.854   2.174   0.455 -0.8978 -0.0674 -0.0752
 5087TIP3    H115225   3.804   2.158   0.535 -0.1260  0.4604  0.5252
 5087TIP3    H215226   3.829   2.102   0.396  1.0029 -2.4701  1.8193
 5088TIP3   OH215227   4.227   0.982   1.225 -0.5811  0.4451 -0.0932
 5088TIP3    H115228   4.203   0.933   1.147 -1.3223  0.9242 -0.1782
 5088TIP3    H215229   4.322   0.975   1.230 -0.7133 -1.8727  0.4710
 5089TIP3   OH215230   5.040   4.196   4.233 -0.1166 -0.2540  0.3470
 5089TIP3    H115231   5.016   4.107   4.206 -0.8615 -0.0518  0.3212
 5089TIP3    H215232   4.957   4.239   4.251  0.2495  0.3788  0.5685
 5090TIP3   OH215233   0.044   3.997   0.779  0.2399 -0.4624 -0.2536
 5090TIP3    H115234  -0.032   3.940   0.789 -0.8275  0.6631 -1.6534
 5090TIP3    H215235   0.101   3.974   0.853 -0.8161 -2.2871  0.0324
 5091TIP3   OH215236   6.615   6.399   2.333 -0.1488  0.2004 -0.0643
 5091TIP3    H115237   6.654   6.324   2.287  1.6419  0.3068  1.2092
 5091TIP3    H215238   6.564   6.444   2.265  1.0432 -0.5862 -1.5560
 5092TIP3   OH215239   2.448   0.804   5.853  0.7057 -0.2831  0.2159
 5092TIP3    H115240   2.475   0.712   5.859  0.6855 -0.4777 -2.0348
 5092TIP3    H215241   2.372   0.810   5.910 -0.0858 -2.0033 -0.5810
 5093TIP3   OH215242   1.645   3.260   3.044  0.2584  0.1814 -0.2635
 5093TIP3    H115243   1.608   3.274   2.957 -0.1825 -0.2731 -0.1553
 5093TIP3    H215244   1.692   3.341   3.064 -0.9595  0.9170 -0.2786
 5094TIP3   OH215245   5.440   5.374   3.819  0.1611  0.6169 -0.2147
 5094TIP3    H115246   5.440   5.291   3.868  2.9825 -0.3533 -1.6829
 5094TIP3    H215247   5.521   5.418   3.846  0.5045  1.2168 -2.0769
 5095TIP3   OH215248   0.086   0.582   3.693 -0.0750 -0.0787  1.2396
 5095TIP3    H115249   0.059   0.562   3.603 -0.1297  0.3100  1.1695
 5095TIP3    H215250   0.009   0.559   3.746  0.8297 -2.8544  1.5070
 5096TIP3   OH215251   4.636   0.246   5.498 -0.2169  0.2215 -0.1272
 5096TIP3    H115252   4.663   0.320   5.553  0.8609 -1.2600  1.4283
 5096TIP3    H215253   4.671   0.267   5.411  0.6339  1.2522  0.4382
 5097TIP3   OH215254   5.937   3.861   5.178 -0.6148 -0.1567 -0.2520
 5097TIP3    H115255   5.984   3.777   5.180 -0.7369 -0.4060 -3.3006
 5097TIP3    H215256   5.855   3.842   5.133 -0.8122  1.5234 -0.6638
 5098TIP3   OH215257   4.788   4.685   2.524  0.3063  0.0118 -0.0453
 5098TIP3    H115258   4.858   4.717   2.580 -0.7685  3.2517 -0.3379
 5098TIP3    H215259   4.722   4.651   2.584  0.7756 -0.0898  0.4131
 5099TIP3   OH215260   3.236   1.242   5.837 -0.6802  0.3503  0.3921
 5099TIP3    H115261   3.148   1.224   5.872 -0.5664 -0.0568  0.4727
 5099TIP3    H215262   3.223   1.318   5.779 -1.1298  0.1608  0.2337
 5100TIP3   OH215263   1.777   5.696   0.404  0.3896  0.2388 -0.2523
 5100TIP3    H115264   1.694   5.736   0.429 -0.1799 -0.9367 -0.1901
 5100TIP3    H215265   1.783   5.617   0.458  2.0998  0.8887  0.5688
 5101TIP3   OH215266   3.331   4.833   0.572  0.0872 -0.0777  0.1577
 5101TIP3    H115267   3.321   4.798   0.483  1.1560  0.8676 -0.3671
 5101TIP3    H215268   3.390   4.772   0.616  1.8185  0.8807 -0.7047
 5102TIP3   OH215269   2.518   3.292   3.522 -0.0372 -0.3925  0.4120
 5102TIP3    H115270   2.558   3.379   3.517 -0.6833 -0.1594 -1.8101
 5102TIP3    H215271   2.442   3.303   3.579  1.9047 -0.4404  3.2388
 5103TIP3   OH215272   2.128   6.511   5.211  0.0511  0.6781  0.1244
 5103TIP3    H115273   2.217   6.481   5.190 -0.2240  0.1826 -0.3631
 5103TIP3    H215274   2.140   6.571   5.285  0.9329  1.5826 -0.7113
 5104TIP3   OH215275   4.732   3.588   1.798 -0.2898 -0.3136  0.0950
 5104TIP3    H115276   4.672   3.530   1.751 -1.3053  1.8982 -1.5414
 5104TIP3    H215277   4.676   3.634   1.860  0.0941  0.3324 -0.0339
 5105TIP3   OH215278   3.951   2.492   4.600 -0.4357  0.5762  0.1544
 5105TIP3    H115279   3.986   2.532   4.679  3.0234  0.3906 -1.1006
 5105TIP3    H215280   3.959   2.560   4.533  0.4350 -0.4310 -0.8209
 5106TIP3   OH215281   4.990   5.815   5.530  0.3293  0.7253  0.5649
 5106TIP3    H115282   5.007   5.905   5.557 -2.2521  1.1361  1.1678
 5106TIP3    H215283   4.903   5.796   5.566 -0.4713 -0.9965 -2.0023
 5107TIP3   OH215284   6.271   1.108   5.171  0.3799 -0.1239 -0.3509
 5107TIP3    H115285   6.233   1.026   5.205 -0.8170  0.7030  0.3746
 5107TIP3    H215286   6.205   1.174   5.189  1.3168  1.0143 -0.9718
 5108TIP3   OH215287   5.491   3.925   2.523  0.1769 -0.2952  0.8091
 5108TIP3    H115288   5.530   3.885   2.446 -0.1816 -0.4685  0.7168
 5108TIP3    H215289   5.533   3.881   2.597  2.0679  1.2945  0.7746
 5109TIP3   OH215290   0.775   5.946   2.099 -0.1397  0.4032  0.0788
 5109TIP3    H115291   0.823   6.016   2.144  0.7573  0.6373 -1.1869
 5109TIP3    H215292   0.727   5.901   2.168  0.3929  1.3841  1.1129
 5110TIP3   OH215293   3.474   3.399   4.401 -0.0282  0.1373  0.0591
 5110TIP3    H115294   3.461   3.312   4.362  0.1455 -0.2272  0.7877
 5110TIP3    H215295   3.458   3.460   4.330 -0.7241 -0.4755 -0.3211
 5111TIP3   OH215296   5.159   0.256   5.746  0.3438  0.0882 -0.1859
 5111TIP3    H115297   5.252   0.235   5.749 -0.0926 -1.9152  1.6282
 5111TIP3    H215298   5.116   0.174   5.723 -1.0319  0.7977 -0.2682
 5112TIP3   OH215299   6.716   6.217   3.789  0.2386 -0.4522 -0.2113
 5112TIP3    H115300   6.722   6.308   3.817  2.1955 -0.5353 -0.2017
 5112TIP3    H215301   6.659   6.176   3.854 -1.4632  0.9262 -0.7676
 5113TIP3   OH215302   5.241   3.456   3.585 -0.1332 -0.0245 -0.1521
 5113TIP3    H115303   5.196   3.484   3.505 -0.5860 -0.8937 -0.2180
 5113TIP3    H215304   5.208   3.515   3.653 -1.5557 -0.7638 -0.1589
 5114TIP3   OH215305   1.886   3.269   2.517 -0.0086  0.1787 -0.9008
 5114TIP3    H115306   1.794   3.243   2.522  0.3887 -1.4967 -1.7683
 5114TIP3    H215307   1.917   3.237   2.432  1.8517 -0.9913  0.1333
 5115TIP3   OH215308   3.709   6.584   1.493 -0.0629  0.1301  0.5311
 5115TIP3    H115309   3.664   6.660   1.457  0.5926  0.5675  0.6107
 5115TIP3    H215310   3.698   6.516   1.426  0.3718  0.6627 -0.1081
 5116TIP3   OH215311   2.112   6.149   3.983 -0.6516  0.0434 -0.1260
 5116TIP3    H115312   2.032   6.194   4.008 -1.0793 -0.1682 -1.0797
 5116TIP3    H215313   2.085   6.085   3.918 -0.1209 -1.9336  1.4998
 5117TIP3   OH215314   3.555   3.426   2.614  0.4154 -0.4872 -0.4045
 5117TIP3    H115315   3.469   3.393   2.586  1.1087 -2.3757 -0.4466
 5117TIP3    H215316   3.549   3.430   2.709 -0.7899  2.6599 -0.4846
 5118TIP3   OH215317   4.538   1.484   3.237  0.0236 -0.3084  0.1370
 5118TIP3    H115318   4.623   1.460   3.200 -0.1510  1.2088 -1.3780
 5118TIP3    H215319   4.559   1.525   3.321  0.9448  1.2362 -0.7955
 5119TIP3   OH215320   5.099   3.711   1.169 -0.1728  0.5480  0.1310
 5119TIP3    H115321   5.005   3.700   1.162  0.0424 -0.1619 -2.4230
 5119TIP3    H215322   5.129   3.636   1.221 -0.9156  0.2403  0.1186
 5120TIP3   OH215323   1.179   0.781   0.465 -0.2277 -0.3034 -0.3761
 5120TIP3    H115324   1.151   0.690   0.479 -0.0429 -0.4396 -0.8527
 5120TIP3    H215325   1.164   0.824   0.549 -0.6886 -0.6782 -0.2619
 5121TIP3   OH215326   1.343   1.921   5.751 -0.3807 -0.1003  0.2186
 5121TIP3    H115327   1.363   1.983   5.822 -0.7169 -0.3115  0.4992
 5121TIP3    H215328   1.280   1.860   5.790  1.2622 -1.6916  0.5333
 5122TIP3   OH215329   6.073   0.328   2.270 -0.8807  0.1595  0.8649
 5122TIP3    H115330   6.056   0.372   2.186 -1.8999  1.1798  1.5774
 5122TIP3    H215331   6.168   0.325   2.277 -0.7781  0.0621 -0.3198
 5123TIP3   OH215332   3.371   5.685   5.659 -0.4583  0.0391 -0.0421
 5123TIP3    H115333   3.370   5.685   5.755 -0.4557 -2.0554  0.0136
 5123TIP3    H215334   3.456   5.723   5.636  0.2694 -0.9752  0.8508
 5124TIP3   OH215335   1.260   0.032   5.487 -0.4278  0.1273  0.5803
 5124TIP3    H115336   1.302   0.022   5.402  0.6999 -0.8817  1.2209
 5124TIP3    H215337   1.282  -0.049   5.534 -3.0009 -0.4194  1.0222
 5125TIP3   OH215338   5.647   6.406   5.380  0.0364  0.1433  0.1728
 5125TIP3    H115339   5.624   6.484   5.430  1.3688  0.1204  0.8787
 5125TIP3    H215340   5.624   6.428   5.289  0.1441  1.2597  0.4040
 5126TIP3   OH215341   4.877   1.507   5.014 -1.0567 -0.0496 -0.0399
 5126TIP3    H115342   4.905   1.580   4.959 -1.2927  0.0453 -0.0333
 5126TIP3    H215343   4.930   1.433   4.983 -0.3578  0.2612  0.3755
 5127TIP3   OH215344   5.842   5.532   2.970 -0.2832 -0.3970 -0.1058
 5127TIP3    H115345   5.789   5.463   3.010 -1.6719  0.7338  0.1097
 5127TIP3    H215346   5.881   5.491   2.894  0.3956 -1.9071  0.9980
 5128TIP3   OH215347   4.126   1.442   3.445  0.3228  0.1876  0.0719
 5128TIP3    H115348   4.045   1.405   3.409  0.8252 -0.9994  0.0967
 5128TIP3    H215349   4.176   1.365   3.474  2.0784  0.7569 -1.2305
 5129TIP3   OH215350   6.102   6.018   5.368 -0.2453  0.0950 -0.4323
 5129TIP3    H115351   6.094   5.999   5.461  1.7559  1.3368  0.0597
 5129TIP3    H215352   6.133   5.936   5.329 -3.4473 -1.2232 -0.5365
 5130TIP3   OH215353   5.155   1.296   5.338  0.5530  0.3149 -0.0976
 5130TIP3    H115354   5.216   1.292   5.265  0.9875  0.5597  0.2473
 5130TIP3    H215355   5.209   1.321   5.413 -0.2098  2.1981 -0.0995
 5131TIP3   OH215356   6.193   1.440   3.880  0.7386 -0.7238 -0.4149
 5131TIP3    H115357   6.109   1.408   3.912  0.2473  0.5388 -0.3997
 5131TIP3    H215358   6.248   1.445   3.959  0.1844  0.3750 -0.0813
 5132TIP3   OH215359   1.689   3.352   5.490  0.2594 -0.0275 -0.2309
 5132TIP3    H115360   1.752   3.397   5.433 -0.5310 -1.3574 -2.2664
 5132TIP3    H215361   1.730   3.269   5.511  0.3949  0.3096  0.9275
 5133TIP3   OH215362   2.865   6.756   2.027  0.6224 -0.5841 -0.1645
 5133TIP3    H115363   2.918   6.704   2.087  1.1499 -0.1899 -0.2746
 5133TIP3    H215364   2.802   6.801   2.083  1.7978  0.6162  0.2488
 5134TIP3   OH215365   3.301   5.245   3.772 -0.0002  0.4672  0.0048
 5134TIP3    H115366   3.319   5.337   3.794  0.8561  0.2022  0.4660
 5134TIP3    H215367   3.387   5.208   3.753 -0.4138 -0.0861 -0.8273
 5135TIP3   OH215368   0.446   6.065   5.136  0.7475  0.4576  0.1455
 5135TIP3    H115369   0.514   6.051   5.071  0.9071  0.1116  0.3796
 5135TIP3    H215370   0.430   6.159   5.135  1.7170  0.6351  0.5771
 5136TIP3   OH215371   0.191   6.129   5.294 -0.2055  0.3053  0.0186
 5136TIP3    H115372   0.267   6.187   5.292  0.3783 -0.4572 -0.1598
 5136TIP3    H215373   0.135   6.166   5.363  0.8111  0.2667  0.8917
 5137TIP3   OH215374   2.732   1.557   1.913  0.2774 -0.1109 -0.1675
 5137TIP3    H115375   2.681   1.533   1.990  0.6151  0.7222  0.3258
 5137TIP3    H215376   2.703   1.646   1.891  2.0485  0.7106  0.6068
 5138TIP3   OH215377   0.941   5.277   0.290  0.2108  0.3231  0.0515
 5138TIP3    H115378   1.032   5.262   0.263  0.0413  0.4414 -0.5998
 5138TIP3    H215379   0.889   5.224   0.230 -0.1057 -0.4741  1.0173
 5139TIP3   OH215380   4.611   0.866   3.579  0.1625  0.0414 -0.2092
 5139TIP3    H115381   4.614   0.889   3.486 -0.7093 -0.6454 -0.4250
 5139TIP3    H215382   4.547   0.795   3.584 -2.9314  2.6261  1.3967
 5140TIP3   OH215383   3.596   4.420   3.954 -0.8471  0.6467 -0.1481
 5140TIP3    H115384   3.547   4.355   3.904 -0.3109 -0.6342  0.9348
 5140TIP3    H215385   3.554   4.421   4.040 -1.2361  2.2126 -0.3160
 5141TIP3   OH215386   2.428   5.265   1.409  0.1561 -0.1381  0.2511
 5141TIP3    H115387   2.435   5.248   1.503  1.4992 -1.7263 -0.0949
 5141TIP3    H215388   2.474   5.348   1.397  0.6669 -0.3157  0.8940
 5142TIP3   OH215389   5.047   6.697   1.470  0.0127 -0.2263 -0.1185
 5142TIP3    H115390   5.037   6.660   1.558  0.9238  0.0837  0.1233
 5142TIP3    H215391   5.127   6.750   1.475 -0.1043  0.0512 -1.0476
 5143TIP3   OH215392   4.676   3.298   0.753  0.4232 -0.5092  0.2954
 5143TIP3    H115393   4.627   3.302   0.835 -0.1571  2.5265 -0.0772
 5143TIP3    H215394   4.768   3.295   0.779  0.2093 -1.4767  1.0046
 5144TIP3   OH215395   1.851   6.386   4.802 -0.5753  0.3219  0.4108
 5144TIP3    H115396   1.800   6.444   4.746 -3.5817 -1.5692  0.9782
 5144TIP3    H215397   1.844   6.424   4.889  0.8964  1.2148  0.1699
 5145TIP3   OH215398   5.745   4.948   0.823 -0.2997 -0.6602 -0.2119
 5145TIP3    H115399   5.661   4.950   0.868 -1.1430 -0.6608 -1.7171
 5145TIP3    H215400   5.809   4.925   0.892 -1.3733  0.2603  1.1366
 5146TIP3   OH215401   6.515   2.799   0.216 -0.1075 -0.0814  0.1877
 5146TIP3    H115402   6.465   2.881   0.221 -0.7439 -0.4892  0.7229
 5146TIP3    H215403   6.576   2.812   0.144 -1.4885  0.1729 -0.9704
 5147TIP3   OH215404   0.815   4.452   4.828  0.2213 -0.2176 -0.1107
 5147TIP3    H115405   0.791   4.360   4.830 -0.7899  0.0255 -0.3279
 5147TIP3    H215406   0.732   4.498   4.816  0.7790  0.6860 -0.6368
 5148TIP3   OH215407   2.345   6.127   3.530  1.0029  0.0802 -0.0970
 5148TIP3    H115408   2.384   6.181   3.598 -1.1041  1.5390  0.0206
 5148TIP3    H215409   2.398   6.144   3.452  1.4809  0.8722  0.3939
 5149TIP3   OH215410   1.809   5.170   3.421 -0.5157  0.2670  0.1679
 5149TIP3    H115411   1.766   5.117   3.489  1.3471 -1.1866  0.3040
 5149TIP3    H215412   1.784   5.260   3.442 -1.8152 -0.3371  1.4160
 5150TIP3   OH215413   3.738   4.679   4.901 -0.3125 -0.1226 -0.3267
 5150TIP3    H115414   3.827   4.663   4.933  0.3280  1.5910 -1.1360
 5150TIP3    H215415   3.723   4.607   4.839  0.8673  0.0483 -0.8417
 5151TIP3   OH215416   4.685   5.839   5.613 -0.3523  0.9489  0.5426
 5151TIP3    H115417   4.662   5.766   5.670  1.1273  0.0338  0.0174
 5151TIP3    H215418   4.646   5.817   5.528  0.7357  0.3550  0.1766
 5152TIP3   OH215419   3.303   2.226   2.260 -0.0465 -0.0453  0.4471
 5152TIP3    H115420   3.323   2.243   2.168  0.9636  1.0165  0.8412
 5152TIP3    H215421   3.247   2.148   2.259 -1.3158  0.8371 -1.1640
 5153TIP3   OH215422   4.629   4.843   3.629  0.2718  0.0461 -0.0208
 5153TIP3    H115423   4.611   4.873   3.540  2.2147 -0.5738 -0.6590
 5153TIP3    H215424   4.663   4.920   3.674 -0.2298  0.2273  0.0632
 5154TIP3   OH215425   5.091   1.302   0.115 -0.5207  0.1403 -0.8219
 5154TIP3    H115426   5.113   1.336   0.028 -0.5759  0.7283 -0.6162
 5154TIP3    H215427   5.150   1.350   0.174 -0.1929 -0.5533 -0.5713
 5155TIP3   OH215428   3.928   3.686   1.617  0.5178  0.1568  0.1767
 5155TIP3    H115429   3.939   3.673   1.523 -0.5609 -0.1398  0.0811
 5155TIP3    H215430   3.888   3.605   1.648 -2.2789  1.4598  0.2869
 5156TIP3   OH215431   0.978   2.777   4.967  0.1041 -0.0087  0.3934
 5156TIP3    H115432   0.887   2.752   4.952  0.3790 -0.4777 -0.5409
 5156TIP3    H215433   0.982   2.870   4.942  0.0608 -0.2064 -0.3746
 5157TIP3   OH215434   2.975   1.903   0.320  0.1545  0.6521 -0.6863
 5157TIP3    H115435   2.999   1.811   0.336  2.1471  1.1642 -0.5776
 5157TIP3    H215436   2.898   1.917   0.375  0.6369 -0.5791  0.3600
 5158TIP3   OH215437   6.611   5.230   5.514  0.4988  0.1247  0.0246
 5158TIP3    H115438   6.691   5.195   5.476 -1.1205 -2.3692 -1.4277
 5158TIP3    H215439   6.570   5.279   5.443 -1.3793 -2.5236 -0.8750
 5159TIP3   OH215440   3.785   6.766   5.571  0.3886 -0.4062 -0.2203
 5159TIP3    H115441   3.783   6.840   5.511 -1.4666 -1.2890 -1.3510
 5159TIP3    H215442   3.796   6.690   5.515 -1.9047 -1.3046  0.4151
 5160TIP3   OH215443   0.716   2.685   2.605 -0.3352 -0.4233 -0.1053
 5160TIP3    H115444   0.790   2.647   2.653 -0.6498  1.4875  2.0793
 5160TIP3    H215445   0.751   2.764   2.564 -0.9357  0.0012  0.1802
 5161TIP3   OH215446   4.451   1.175   1.934 -0.2119  0.8797 -0.3189
 5161TIP3    H115447   4.530   1.126   1.913  0.4602  1.2049  1.2485
 5161TIP3    H215448   4.386   1.108   1.954  0.6947  0.5346  1.8041
 5162TIP3   OH215449   3.747   6.568   5.887  0.4719 -0.4132 -0.2043
 5162TIP3    H115450   3.693   6.644   5.866  1.2317  0.7438  1.7729
 5162TIP3    H215451   3.790   6.546   5.805  0.7590  1.7278 -0.6791
 5163TIP3   OH215452   2.331   5.007   1.311 -0.8107  0.2172  0.9650
 5163TIP3    H115453   2.367   5.092   1.335 -0.2206  0.2710 -0.0243
 5163TIP3    H215454   2.317   5.014   1.216 -1.5801 -0.4846  1.0210
 5164TIP3   OH215455   3.409   2.326   3.456 -0.0350 -0.2393 -0.3050
 5164TIP3    H115456   3.494   2.293   3.483 -0.5375  0.2673  2.1151
 5164TIP3    H215457   3.404   2.307   3.362  2.7666 -0.1435 -0.5401
 5165TIP3   OH215458   1.191   4.750   4.545 -0.2153  0.5273 -0.3410
 5165TIP3    H115459   1.106   4.717   4.573  1.2174 -1.3620  2.2430
 5165TIP3    H215460   1.220   4.689   4.477 -1.0006  1.3721 -1.4717
 5166TIP3   OH215461   2.774   1.001   2.498  0.1812  0.3199 -0.1187
 5166TIP3    H115462   2.754   0.964   2.584 -0.5020  0.0410 -0.3901
 5166TIP3    H215463   2.812   0.928   2.449 -0.0171  0.3064 -0.2535
 5167TIP3   OH215464   3.536   0.838   5.209 -0.2398  0.6515 -0.1652
 5167TIP3    H115465   3.479   0.875   5.142  0.3474 -1.3726 -1.8786
 5167TIP3    H215466   3.504   0.749   5.222  0.6894  0.4657  1.0669
 5168TIP3   OH215467   6.025   0.328   1.413 -0.1920  0.0019  0.3996
 5168TIP3    H115468   6.058   0.280   1.488 -1.0816 -1.3482 -0.0345
 5168TIP3    H215469   6.074   0.294   1.339  0.2705  0.9083  0.2779
 5169TIP3   OH215470   0.343   0.742   4.990  0.1023  0.4839 -0.5390
 5169TIP3    H115471   0.406   0.736   4.919 -0.5956  1.1697 -1.2343
 5169TIP3    H215472   0.312   0.652   5.001  0.2171  0.3681 -1.1018
 5170TIP3   OH215473   0.441   0.383   3.808  0.4553 -0.5028  0.1298
 5170TIP3    H115474   0.452   0.433   3.727  0.1175 -0.9043 -0.1639
 5170TIP3    H215475   0.392   0.442   3.866  0.8204 -0.1611  0.1023
 5171TIP3   OH215476   7.188   0.274   3.725 -0.5640  0.5442 -0.2005
 5171TIP3    H115477   7.220   0.326   3.798 -0.7615  0.1198  0.1929
 5171TIP3    H215478   7.101   0.309   3.706 -0.4519  0.7514 -0.3258
 5172TIP3   OH215479   2.221   4.385   1.653 -0.2004 -0.2456 -0.4052
 5172TIP3    H115480   2.261   4.334   1.724  1.8096 -2.5289 -2.9388
 5172TIP3    H215481   2.127   4.369   1.661 -0.0200 -0.4986  1.6656
 5173TIP3   OH215482   2.826   6.059   3.971  0.3446 -0.0116 -0.2415
 5173TIP3    H115483   2.899   6.033   4.027 -0.8037  0.6720  1.6918
 5173TIP3    H215484   2.748   6.045   4.026 -0.8946  0.1744 -1.8901
 5174TIP3   OH215485   3.237   2.356   0.776 -0.7278 -0.6607  0.3102
 5174TIP3    H115486   3.191   2.373   0.858 -1.5072 -0.0036 -0.2447
 5174TIP3    H215487   3.329   2.346   0.801 -0.5479  2.0484  1.0106
 5175TIP3   OH215488   6.109   3.215   3.831 -0.1477 -0.2863  0.1367
 5175TIP3    H115489   6.121   3.274   3.756  0.7340  0.8521  1.1228
 5175TIP3    H215490   6.050   3.147   3.799  0.5093 -0.0508 -1.6970
 5176TIP3   OH215491   3.901   1.468   4.665 -0.0879  1.3018 -0.4054
 5176TIP3    H115492   3.980   1.435   4.622  0.3390  2.3249 -0.4324
 5176TIP3    H215493   3.902   1.562   4.649  0.5829  1.9110  2.6128
 5177TIP3   OH215494   6.348   3.034   2.746 -0.1119 -0.3134 -0.5193
 5177TIP3    H115495   6.430   3.037   2.696  0.2134  0.1574  0.0345
 5177TIP3    H215496   6.338   3.123   2.780 -1.7483  0.1373 -2.0066
 5178TIP3   OH215497   5.646   4.485   2.579 -0.6700  0.0458  0.4460
 5178TIP3    H115498   5.594   4.488   2.499 -2.3961 -1.0332  1.4786
 5178TIP3    H215499   5.712   4.418   2.562 -1.7824 -1.0428  0.3550
 5179TIP3   OH215500   5.308   1.423   1.575 -0.2754 -0.0336  0.0437
 5179TIP3    H115501   5.314   1.513   1.543 -0.7749  0.4422  1.2279
 5179TIP3    H215502   5.214   1.408   1.586 -0.1381 -0.2589  1.0061
 5180TIP3   OH215503   4.308   6.234   3.377  0.2072 -0.1275 -0.1313
 5180TIP3    H115504   4.279   6.229   3.286  0.2844  1.4973 -0.2818
 5180TIP3    H215505   4.378   6.300   3.376  1.8506 -1.7631  0.7377
 5181TIP3   OH215506   7.232   1.439   3.565 -0.0307  0.4564 -0.1233
 5181TIP3    H115507   7.146   1.476   3.544  0.2261  0.3416 -1.4534
 5181TIP3    H215508   7.238   1.447   3.661 -1.4154  0.6726 -0.0255
 5182TIP3   OH215509   5.193   3.054   4.614  0.1783  0.6535  0.5313
 5182TIP3    H115510   5.250   3.034   4.687  1.3765  2.0062  0.0204
 5182TIP3    H215511   5.106   3.065   4.653  0.0503 -2.1681  1.2087
 5183TIP3   OH215512   5.053   4.654   2.842 -0.0640  0.0326 -0.1821
 5183TIP3    H115513   5.116   4.636   2.772 -1.9174 -0.1882 -1.8866
 5183TIP3    H215514   5.052   4.749   2.849 -0.5250  0.1175 -1.1564
 5184TIP3   OH215515   7.125   5.942   4.410  0.0389  0.4095  0.0892
 5184TIP3    H115516   7.173   5.866   4.442 -0.6805  0.0572  0.3396
 5184TIP3    H215517   7.090   5.984   4.488 -1.5365 -0.3291 -0.1771
 5185TIP3   OH215518   5.835   5.902   5.136  0.7314  0.1640  0.1843
 5185TIP3    H115519   5.926   5.918   5.110  0.4513 -0.6159 -1.3628
 5185TIP3    H215520   5.827   5.806   5.137  0.0013  0.2195  0.6363
 5186TIP3   OH215521   3.235   3.729   3.916  0.8458 -0.2823  0.5720
 5186TIP3    H115522   3.318   3.721   3.870  0.9605 -0.2229  0.7705
 5186TIP3    H215523   3.191   3.646   3.900  1.2317 -0.5798  1.0374
 5187TIP3   OH215524   4.369   5.654   0.199 -0.9560 -0.6112  0.5932
 5187TIP3    H115525   4.363   5.691   0.287 -1.4528 -1.7541  1.0543
 5187TIP3    H215526   4.281   5.664   0.162 -1.5174 -2.5944  1.2707
 5188TIP3   OH215527   3.391   5.765   1.300  0.0553 -0.5650  0.2980
 5188TIP3    H115528   3.423   5.719   1.223 -1.4113  1.1654 -1.4167
 5188TIP3    H215529   3.307   5.724   1.320  0.1033 -0.5473  0.5390
 5189TIP3   OH215530   4.899   1.611   0.656  1.0531 -0.2738  0.5437
 5189TIP3    H115531   4.847   1.656   0.589  0.6276 -0.7494  0.5514
 5189TIP3    H215532   4.984   1.654   0.653  1.0063 -0.2219 -0.2329
 5190TIP3   OH215533   5.995   3.839   0.434 -0.7963  0.5884  0.2431
 5190TIP3    H115534   5.984   3.934   0.432  0.9540  0.8116 -1.2574
 5190TIP3    H215535   5.939   3.807   0.364  0.3296  0.7752 -0.7808
 5191TIP3   OH215536   7.029   3.711   3.529  0.0774  0.3783 -0.4874
 5191TIP3    H115537   7.054   3.746   3.615 -0.6016 -0.3188  0.0081
 5191TIP3    H215538   6.976   3.634   3.549  1.1890 -0.7273 -1.5422
 5192TIP3   OH215539   6.416   1.381   4.786  0.0814  0.3853  0.2107
 5192TIP3    H115540   6.448   1.305   4.835 -0.2972  0.1279  0.0618
 5192TIP3    H215541   6.465   1.379   4.704  0.0066  0.2529  0.1696
 5193TIP3   OH215542   6.609   2.787   2.788 -0.4573 -0.1854 -0.3014
 5193TIP3    H115543   6.661   2.805   2.709  2.0740 -0.7789  1.1386
 5193TIP3    H215544   6.605   2.872   2.833  0.7950 -0.4828  0.4144
 5194TIP3   OH215545   4.907   3.205   0.870 -0.4693  0.2193 -0.3361
 5194TIP3    H115546   4.884   3.140   0.936 -0.9927 -1.9679 -2.5223
 5194TIP3    H215547   4.995   3.180   0.841 -0.0767  1.3953 -0.2219
 5195TIP3   OH215548   0.740   6.108   3.503 -0.2812  0.2116 -0.3540
 5195TIP3    H115549   0.650   6.138   3.490 -0.6340  0.3234  1.9307
 5195TIP3    H215550   0.786   6.133   3.423 -1.2700  3.9848  0.0839
 5196TIP3   OH215551   4.047   4.857   3.114 -0.1843  0.2116 -0.2252
 5196TIP3    H115552   3.986   4.891   3.180 -0.6286  1.7673 -1.4014
 5196TIP3    H215553   4.077   4.773   3.151 -0.0388  1.2297  2.1825
 5197TIP3   OH215554   4.361   6.073   4.928 -0.1766 -0.3621 -0.3767
 5197TIP3    H115555   4.313   6.143   4.883  0.3005 -2.0995 -3.8744
 5197TIP3    H215556   4.293   6.013   4.959 -0.4508  0.2486  0.2527
 5198TIP3   OH215557   4.112   1.254   5.739 -0.3744  0.2523 -0.2186
 5198TIP3    H115558   4.074   1.185   5.684  0.8553  1.4265 -2.6978
 5198TIP3    H215559   4.038   1.312   5.758 -1.0613 -0.7914  0.4663
 5199TIP3   OH215560   1.529   2.611   5.051  0.5358  0.0754 -0.0489
 5199TIP3    H115561   1.481   2.537   5.088 -0.7901  1.7537  1.7782
 5199TIP3    H215562   1.510   2.608   4.957 -1.5733 -0.4223  0.3621
 5200TIP3   OH215563   2.879   0.698   1.602  0.0715 -0.0944 -0.0684
 5200TIP3    H115564   2.912   0.735   1.520  0.1492 -1.7492 -0.8390
 5200TIP3    H215565   2.852   0.773   1.654  0.9111  1.0440 -1.2322
 5201TIP3   OH215566   3.546   3.871   4.791  0.6450 -0.4801 -0.1257
 5201TIP3    H115567   3.557   3.811   4.717  0.0085  0.7089 -1.2127
 5201TIP3    H215568   3.460   3.848   4.827 -0.2608  0.7152 -1.4518
 5202TIP3   OH215569   2.393   0.374   0.474  0.0343 -0.2616 -0.5079
 5202TIP3    H115570   2.482   0.380   0.440  0.6599 -0.3193  1.0475
 5202TIP3    H215571   2.351   0.456   0.447  0.5006 -0.2856 -1.3535
 5203TIP3   OH215572   4.764   3.827   0.800 -0.1239 -0.0112 -0.2098
 5203TIP3    H115573   4.846   3.874   0.788 -0.3842  0.1949 -1.2790
 5203TIP3    H215574   4.719   3.835   0.716 -1.1448 -0.3036  0.2906
 5204TIP3   OH215575   1.590   6.503   1.448  0.3072  0.1418 -0.4389
 5204TIP3    H115576   1.587   6.509   1.543 -0.2066  2.8535 -0.5453
 5204TIP3    H215577   1.525   6.567   1.418 -0.0764 -1.1655 -2.6297
 5205TIP3   OH215578   3.009   3.831   5.328  0.0756  0.3251  0.4038
 5205TIP3    H115579   2.953   3.796   5.396  1.1188  0.7148  1.4904
 5205TIP3    H215580   2.963   3.908   5.295 -0.3744  0.1984  0.7384
 5206TIP3   OH215581   7.148   6.488   1.075  0.1558 -0.3130  0.2099
 5206TIP3    H115582   7.201   6.543   1.133  1.1241 -0.4347 -0.5296
 5206TIP3    H215583   7.098   6.431   1.134  0.9648 -0.2880  0.9287
 5207TIP3   OH215584   5.218   2.912   2.620 -0.2137 -0.3616 -0.0839
 5207TIP3    H115585   5.228   2.877   2.708  1.9677 -1.1481 -0.5661
 5207TIP3    H215586   5.146   2.974   2.626 -0.3986 -0.7218  2.1359
 5208TIP3   OH215587   7.125   4.799   1.195  0.6618 -0.1781 -0.3558
 5208TIP3    H115588   7.147   4.711   1.226  0.6712 -0.1324 -0.2296
 5208TIP3    H215589   7.209   4.839   1.173  0.5401 -0.7755 -2.0016
 5209TIP3   OH215590   3.996   0.647   5.033 -0.2136 -0.0297  0.6505
 5209TIP3    H115591   4.058   0.704   5.078 -1.2565  1.5660  0.1456
 5209TIP3    H215592   3.911   0.674   5.065 -0.8177 -0.3932 -0.5820
 5210TIP3   OH215593   4.479   5.247   5.126 -0.4837  0.2707  0.0807
 5210TIP3    H115594   4.401   5.301   5.139 -0.6867  0.1363 -0.5112
 5210TIP3    H215595   4.445   5.158   5.114 -0.3757  0.4320 -1.6764
 5211TIP3   OH215596   1.100   3.105   4.706 -0.2742 -0.5373  0.6863
 5211TIP3    H115597   1.035   3.037   4.689  1.0671 -1.6980 -0.0449
 5211TIP3    H215598   1.132   3.086   4.794  0.6239 -1.3762  0.2131
 5212TIP3   OH215599   3.854   0.707   5.451  0.1171  0.0292 -0.0918
 5212TIP3    H115600   3.882   0.798   5.458  1.4759 -0.4479  1.1958
 5212TIP3    H215601   3.796   0.694   5.526 -0.7474  0.0330 -0.7402
 5213TIP3   OH215602   0.624   3.847   2.391  0.9297  0.0590 -0.0935
 5213TIP3    H115603   0.594   3.934   2.420 -0.3821 -0.2484 -0.4645
 5213TIP3    H215604   0.586   3.837   2.304  1.9091 -0.4783 -0.4617
 5214TIP3   OH215605   0.820   5.673   1.270 -0.0099 -0.0857 -0.9342
 5214TIP3    H115606   0.873   5.746   1.240 -1.5957  1.6060  0.1801
 5214TIP3    H215607   0.735   5.685   1.228 -0.7904 -0.3324  0.4940
 5215TIP3   OH215608   0.960   3.959   5.062  0.4255  0.1542  1.1980
 5215TIP3    H115609   0.905   4.036   5.048  0.1484 -0.2293  0.1507
 5215TIP3    H215610   0.905   3.900   5.114 -0.1975 -0.2665  0.0776
 5216TIP3   OH215611   3.252   1.058   5.582  0.2028  0.5709 -0.5192
 5216TIP3    H115612   3.203   1.080   5.661  0.4350 -0.1907 -0.1588
 5216TIP3    H215613   3.343   1.072   5.605  0.4624 -1.7126  0.0733
 5217TIP3   OH215614   5.752   3.164   1.454  0.1073  0.1478 -0.2463
 5217TIP3    H115615   5.812   3.235   1.479  0.5356  0.0109 -0.8679
 5217TIP3    H215616   5.706   3.142   1.535  0.8534  0.3009  0.2273
 5218TIP3   OH215617   3.639   4.126   0.283 -0.6379  0.1537 -0.4925
 5218TIP3    H115618   3.689   4.105   0.362  0.6417  0.1249 -1.2718
 5218TIP3    H215619   3.551   4.145   0.314 -0.1743  0.0770  0.9307
 5219TIP3   OH215620   4.254   6.629   2.801  0.6440  0.0535  0.2330
 5219TIP3    H115621   4.341   6.592   2.818  1.2280  0.9564 -0.6833
 5219TIP3    H215622   4.245   6.625   2.705  0.9881  2.7368  0.0079
 5220TIP3   OH215623   3.865   1.962   1.503 -0.1780  0.2634 -0.0194
 5220TIP3    H115624   3.831   2.052   1.497 -1.3640 -0.2943 -3.4842
 5220TIP3    H215625   3.944   1.962   1.450  1.5793 -0.1549  2.4008
 5221TIP3   OH215626   4.575   5.006   3.085  0.3820  0.4408 -0.1851
 5221TIP3    H115627   4.640   4.991   3.017  2.4309 -0.3798  1.8208
 5221TIP3    H215628   4.551   4.919   3.115  2.4057  0.6999  2.6145
 5222TIP3   OH215629   3.363   4.858   5.834 -0.0261  0.7472 -0.1178
 5222TIP3    H115630   3.394   4.768   5.817 -2.9630 -0.5335  0.6336
 5222TIP3    H215631   3.425   4.893   5.898  1.1592 -0.7649 -0.3694
 5223TIP3   OH215632   6.068   0.174   4.003 -0.4002 -0.0310 -0.1282
 5223TIP3    H115633   6.138   0.234   4.029 -0.7747  0.0914  0.6258
 5223TIP3    H215634   6.079   0.163   3.909  0.6555 -0.0373 -0.0134
 5224TIP3   OH215635   4.303   4.095   0.255 -0.0449  0.0423  0.0879
 5224TIP3    H115636   4.389   4.108   0.295  0.7888 -0.6479 -1.4010
 5224TIP3    H215637   4.296   4.000   0.244 -0.3064  0.1945 -1.2282
 5225TIP3   OH215638   3.462   0.526   4.222  0.1528 -0.0737 -0.3500
 5225TIP3    H115639   3.549   0.489   4.207  0.1351 -0.2445 -0.0492
 5225TIP3    H215640   3.455   0.530   4.318 -0.6993 -1.3418 -0.3311
 5226TIP3   OH215641   4.299   3.521   5.867 -0.1946  0.0890 -0.3425
 5226TIP3    H115642   4.365   3.452   5.864  1.3068  1.2740  1.9117
 5226TIP3    H215643   4.342   3.597   5.827 -0.0187  0.9336  1.3407
 5227TIP3   OH215644   5.057   2.505   3.777  0.3513 -0.0810  0.5801
 5227TIP3    H115645   5.137   2.551   3.804 -0.2256  0.3394  1.6082
 5227TIP3    H215646   4.990   2.533   3.839 -0.6219 -0.3956 -0.2899
 5228TIP3   OH215647   1.720   4.364   0.514 -0.1369 -0.5953 -0.7215
 5228TIP3    H115648   1.672   4.384   0.594  0.4712 -3.4241  0.4678
 5228TIP3    H215649   1.653   4.354   0.447 -0.6437  2.0546 -0.7553
 5229TIP3   OH215650   0.583   3.565   1.274 -0.4287 -0.1731  0.1973
 5229TIP3    H115651   0.569   3.590   1.183  0.3709  1.4214  0.4714
 5229TIP3    H215652   0.522   3.619   1.324 -0.3642 -0.5111  0.6580
 5230TIP3   OH215653   2.181   3.741   0.329 -0.0966  1.0597 -0.0616
 5230TIP3    H115654   2.093   3.727   0.363 -0.1681 -0.8784 -0.8835
 5230TIP3    H215655   2.170   3.741   0.234  0.5710  2.7383 -0.1745
 5231TIP3   OH215656   3.861   5.207   4.248 -0.9223 -0.1429 -0.2127
 5231TIP3    H115657   3.778   5.174   4.213 -0.2485 -1.2205 -0.8629
 5231TIP3    H215658   3.927   5.174   4.187  0.3178 -1.9570  1.9430
 5232TIP3   OH215659   4.941   6.221   4.189 -0.5683 -0.1733 -0.5628
 5232TIP3    H115660   4.863   6.277   4.196 -1.2756 -1.2422  0.7736
 5232TIP3    H215661   4.978   6.221   4.277  1.1916  0.5993 -1.2667
 5233TIP3   OH215662   2.940   2.075   5.850 -0.8227  0.2690 -0.3762
 5233TIP3    H115663   2.954   2.048   5.759  0.3691 -0.3031 -0.0516
 5233TIP3    H215664   2.849   2.105   5.852 -1.9057 -2.6156 -1.0631
 5234TIP3   OH215665   1.744   4.750   3.327 -0.0207 -0.3005  0.6432
 5234TIP3    H115666   1.823   4.712   3.365  0.3361  0.2816  0.4828
 5234TIP3    H215667   1.775   4.814   3.264 -0.6201 -0.0514  0.5916
 5235TIP3   OH215668   3.507   6.376   1.770  0.2362 -0.1413 -0.1546
 5235TIP3    H115669   3.571   6.306   1.755  0.7489  0.4265 -0.6235
 5235TIP3    H215670   3.430   6.348   1.721  0.0822 -0.8653  0.4739
 5236TIP3   OH215671   6.635   0.083   2.939  0.1290  0.3312 -0.1105
 5236TIP3    H115672   6.632   0.011   2.876  0.6328  2.1346 -2.3487
 5236TIP3    H215673   6.715   0.131   2.916  1.1819  0.2678  2.9511
 5237TIP3   OH215674   1.392   6.559   2.304  0.8092  0.0838  0.3130
 5237TIP3    H115675   1.449   6.636   2.299  0.9160  0.0321  0.7462
 5237TIP3    H215676   1.363   6.556   2.395  0.5495 -0.2053  0.2208
 5238TIP3   OH215677   6.422   2.302   1.004 -0.3099  0.4199  0.3219
 5238TIP3    H115678   6.509   2.262   1.005  0.8027  2.6770 -0.2070
 5238TIP3    H215679   6.420   2.353   0.923 -2.8790 -1.0226 -0.6221
 5239TIP3   OH215680   4.064   5.090   0.269  0.3308 -0.5095  0.2331
 5239TIP3    H115681   4.125   5.017   0.274 -0.0186 -0.8535 -0.5136
 5239TIP3    H215682   4.018   5.078   0.187 -0.2550  0.1405  0.4569
 5240TIP3   OH215683   4.426   4.465   4.233  0.0475  0.1207 -0.1847
 5240TIP3    H115684   4.354   4.426   4.283  1.1357 -1.4258  0.2434
 5240TIP3    H215685   4.503   4.452   4.288  0.6031  2.3616 -0.3188
 5241TIP3   OH215686   2.236   4.327   4.135 -0.3372  0.0247  0.3499
 5241TIP3    H115687   2.262   4.263   4.201 -1.6073 -0.6067  0.2445
 5241TIP3    H215688   2.291   4.404   4.155 -0.7002 -0.1329  2.1453
 5242TIP3   OH215689   3.707   5.946   4.000  0.2539  0.2765  0.4799
 5242TIP3    H115690   3.706   5.865   4.051 -0.4980 -0.7184 -1.0232
 5242TIP3    H215691   3.798   5.958   3.976  0.2919 -0.4741  0.2156
 5243TIP3   OH215692   6.336   2.454   5.324 -0.1983 -0.4578  0.3399
 5243TIP3    H115693   6.308   2.538   5.289 -1.3533 -0.1282  1.9383
 5243TIP3    H215694   6.287   2.389   5.273 -0.4597 -0.0885  0.1186
 5244TIP3   OH215695   3.564   1.788   1.159  0.3081  0.4825  0.0095
 5244TIP3    H115696   3.565   1.877   1.194  1.6030  0.2354  0.6449
 5244TIP3    H215697   3.542   1.732   1.234  1.3264  0.1129  0.0501
 5245TIP3   OH215698   5.675   3.641   0.526 -0.2511  0.4445 -0.2059
 5245TIP3    H115699   5.606   3.683   0.577 -1.5365 -0.2875 -1.2836
 5245TIP3    H215700   5.631   3.572   0.478  1.6692 -1.6744  0.8998
 5246TIP3   OH215701   2.483   1.650   2.383  0.0162  0.2604 -0.2402
 5246TIP3    H115702   2.530   1.699   2.450  0.9986  0.0074 -0.7153
 5246TIP3    H215703   2.404   1.618   2.426  0.3785  0.5309  0.6373
 5247TIP3   OH215704   5.055   2.642   1.608  0.1918 -0.3730 -0.7006
 5247TIP3    H115705   5.064   2.649   1.703 -0.2899 -0.0120 -0.6755
 5247TIP3    H215706   5.018   2.556   1.593  0.5155 -0.5344 -0.5793
 5248TIP3   OH215707   4.675   1.840   1.251  0.5498 -0.4433 -0.6193
 5248TIP3    H115708   4.682   1.756   1.206  0.4233 -0.8647  0.1446
 5248TIP3    H215709   4.586   1.870   1.232 -0.7802 -2.2388  2.0953
 5249TIP3   OH215710   5.821   4.835   5.685 -0.2983 -0.5441  0.2842
 5249TIP3    H115711   5.748   4.895   5.697  0.1738 -0.1022  1.1078
 5249TIP3    H215712   5.817   4.809   5.593 -2.1479 -1.4092  0.5819
 5250TIP3   OH215713   4.109   5.716   4.179  0.2147  0.1118  0.1082
 5250TIP3    H115714   4.041   5.667   4.134 -0.4346  1.7064 -0.7386
 5250TIP3    H215715   4.187   5.661   4.174  0.2205  0.2573 -3.1151
 5251TIP3   OH215716   5.665   5.959   4.354  0.2316  0.0150 -0.1416
 5251TIP3    H115717   5.646   5.871   4.320 -0.2653 -0.0163  0.2121
 5251TIP3    H215718   5.673   6.014   4.276 -1.0491 -0.0267 -0.3233
 5252TIP3   OH215719   2.886   2.389   5.825  0.0195 -0.0857  0.7678
 5252TIP3    H115720   2.859   2.340   5.903 -0.9330  0.3035  0.6984
 5252TIP3    H215721   2.908   2.476   5.857 -0.4291  0.0923  0.5998
 5253TIP3   OH215722   1.899   2.059   3.932  0.2444  0.0087  0.0297
 5253TIP3    H115723   1.827   2.019   3.980 -0.1849  0.0537 -0.5569
 5253TIP3    H215724   1.858   2.124   3.875  0.7620  0.1527 -0.1955
 5254TIP3   OH215725   3.812   3.391   4.616  0.1263  0.1206  0.4207
 5254TIP3    H115726   3.769   3.422   4.537  1.5308  0.5520 -0.1966
 5254TIP3    H215727   3.905   3.387   4.594  0.6979  1.2751  2.3638
 5255TIP3   OH215728   5.736   4.087   1.876 -0.3807  0.0591 -0.1788
 5255TIP3    H115729   5.693   4.149   1.817  0.2230  0.4653 -0.2054
 5255TIP3    H215730   5.827   4.085   1.847  0.1688  1.0158  1.3183
 5256TIP3   OH215731   5.351   2.574   4.852  0.3262  0.4346 -0.3303
 5256TIP3    H115732   5.353   2.488   4.894  1.0634  1.4829  1.9645
 5256TIP3    H215733   5.258   2.596   4.847 -0.0039 -1.1235 -2.4988
 5257TIP3   OH215734   3.870   3.250   2.865 -0.4868 -0.4226 -0.2543
 5257TIP3    H115735   3.863   3.277   2.774 -0.1827  2.7695  0.5521
 5257TIP3    H215736   3.947   3.297   2.899  0.4891 -2.8864  1.2642
 5258TIP3   OH215737   5.082   3.985   5.522 -0.5764  0.7311 -0.6611
 5258TIP3    H115738   5.064   4.068   5.567 -2.3063 -0.0900  0.2591
 5258TIP3    H215739   5.016   3.925   5.556 -0.8391 -0.4132 -2.9957
 5259TIP3   OH215740   5.870   3.271   0.647 -0.4671 -0.8664  0.1194
 5259TIP3    H115741   5.799   3.284   0.585 -0.2785 -0.6406 -0.0516
 5259TIP3    H215742   5.902   3.182   0.629 -1.5586 -1.4799  1.0852
 5260TIP3   OH215743   1.811   5.845   1.587  0.0821  0.2186  0.4458
 5260TIP3    H115744   1.730   5.796   1.573  0.6211 -0.7012  0.4771
 5260TIP3    H215745   1.819   5.900   1.509 -0.5539  0.2997  0.4299
 5261TIP3   OH215746   2.622   5.998   1.459 -0.4613 -0.1470 -0.4889
 5261TIP3    H115747   2.642   5.958   1.543 -0.7499 -0.7167 -0.6889
 5261TIP3    H215748   2.642   6.091   1.471 -1.8766  0.0372  0.6561
 5262TIP3   OH215749   5.779   1.421   3.021  0.2291  0.1426  0.1442
 5262TIP3    H115750   5.688   1.449   3.009 -0.0148 -0.6525  0.0242
 5262TIP3    H215751   5.830   1.501   3.016 -0.4165  0.5346 -0.3447
 5263TIP3   OH215752   2.598   5.352   4.662 -0.7403 -0.4008  0.0129
 5263TIP3    H115753   2.681   5.366   4.616 -1.1036 -2.2626 -1.2926
 5263TIP3    H215754   2.594   5.258   4.675 -2.0818 -0.2062  1.2161
 5264TIP3   OH215755   1.478   0.230   5.868  0.4296 -0.1751 -0.1223
 5264TIP3    H115756   1.471   0.309   5.813 -0.3234 -0.0789  0.1034
 5264TIP3    H215757   1.395   0.184   5.854 -1.7533  1.9300  4.1211
 5265TIP3   OH215758   4.790   6.074   1.058 -0.4487 -0.1608 -0.0361
 5265TIP3    H115759   4.877   6.104   1.084  0.7095 -3.0233 -0.2020
 5265TIP3    H215760   4.736   6.085   1.137  0.4135  0.3631  0.4926
 5266TIP3   OH215761   6.463   3.610   5.773 -0.3624 -0.0548 -0.4720
 5266TIP3    H115762   6.410   3.609   5.693  0.0442  2.0435 -0.8240
 5266TIP3    H215763   6.505   3.524   5.774 -0.8316 -0.3531 -2.2060
 5267TIP3   OH215764   5.554   0.525   4.689  0.2552 -0.6860 -0.0723
 5267TIP3    H115765   5.621   0.578   4.645 -0.6226  0.0381 -0.5910
 5267TIP3    H215766   5.589   0.509   4.776  1.0670 -0.2387 -0.3095
 5268TIP3   OH215767   2.053   3.172   0.035  0.2925  0.3189  0.1449
 5268TIP3    H115768   2.114   3.244   0.050  1.2020 -0.2111 -0.8171
 5268TIP3    H215769   2.017   3.189  -0.052 -0.6331  0.4011  0.5327
 5269TIP3   OH215770   4.270   5.713   1.266  0.1995 -0.2265 -0.0013
 5269TIP3    H115771   4.298   5.685   1.179  0.0831  1.1483 -0.5068
 5269TIP3    H215772   4.185   5.754   1.251  0.7823  1.2103  0.5437
 5270TIP3   OH215773   1.959   3.618   4.811  0.1236 -0.2000  0.5747
 5270TIP3    H115774   1.930   3.664   4.890 -1.4772  0.9046 -0.5898
 5270TIP3    H215775   2.045   3.656   4.793 -0.7254  1.7216  0.2165
 5271TIP3   OH215776   0.789   2.725   0.557  0.1516 -0.2845  0.2772
 5271TIP3    H115777   0.697   2.748   0.566  0.2029 -0.3428  1.0194
 5271TIP3    H215778   0.827   2.743   0.643  0.5389 -1.5915  0.4032
 5272TIP3   OH215779   5.349   6.803   2.926 -0.7372  0.2752  0.0919
 5272TIP3    H115780   5.283   6.855   2.972 -1.5505 -0.0250 -0.7057
 5272TIP3    H215781   5.308   6.717   2.913  0.7840 -0.8326  1.9030
 5273TIP3   OH215782   0.092   1.321   2.544 -0.2905 -0.4144 -0.1085
 5273TIP3    H115783   0.061   1.256   2.607 -2.0719  0.1455 -0.3339
 5273TIP3    H215784   0.078   1.405   2.588  1.7313 -0.1152  0.0756
 5274TIP3   OH215785   6.316   0.151   4.619  0.1653 -0.1456  0.1422
 5274TIP3    H115786   6.242   0.183   4.567 -0.3591 -1.4784  0.0301
 5274TIP3    H215787   6.393   0.183   4.573 -0.3205  0.0451 -0.5539
 5275TIP3   OH215788   6.796   6.470   3.030 -0.2369  0.0086 -0.3984
 5275TIP3    H115789   6.784   6.434   2.943  2.8346 -1.6594 -0.2558
 5275TIP3    H215790   6.842   6.553   3.016 -1.8275  0.9293 -0.4108
 5276TIP3   OH215791   6.030   5.084   0.503  0.2877  0.0112 -0.1532
 5276TIP3    H115792   6.038   5.162   0.449  1.8929  0.5523  0.8073
 5276TIP3    H215793   6.008   5.117   0.590 -2.2097 -0.8422 -0.3649
 5277TIP3   OH215794   0.563   3.697   4.487 -0.3269  0.4136 -0.1713
 5277TIP3    H115795   0.539   3.605   4.479  2.4803 -0.4071 -0.2385
 5277TIP3    H215796   0.595   3.705   4.577 -2.4077  1.8942  0.5187
 5278TIP3   OH215797   0.695   6.301   3.787  0.4684  0.2845 -0.1522
 5278TIP3    H115798   0.743   6.218   3.781 -1.6034 -0.9009 -1.6393
 5278TIP3    H215799   0.733   6.356   3.718  1.3799  0.3256  0.3742
 5279TIP3   OH215800   2.440   4.838   4.632 -0.0536 -0.3060  0.2574
 5279TIP3    H115801   2.509   4.879   4.683 -1.3649 -0.1502  1.9766
 5279TIP3    H215802   2.403   4.909   4.579 -0.1826  0.0341  0.7987
 5280TIP3   OH215803   5.331   2.957   5.423 -0.2408  0.0408 -0.2313
 5280TIP3    H115804   5.417   2.918   5.409  0.2015  1.2020 -0.9093
 5280TIP3    H215805   5.276   2.885   5.454  0.8243 -0.8417 -0.3511
 5281TIP3   OH215806   6.064   1.275   5.191  0.2137 -0.5621  0.1286
 5281TIP3    H115807   6.035   1.365   5.179  0.7418 -0.2377  1.1714
 5281TIP3    H215808   6.027   1.227   5.117  0.4964  0.6339 -0.8062
 5282TIP3   OH215809   6.435   0.155   2.139 -0.5495  0.0571  0.4655
 5282TIP3    H115810   6.435   0.161   2.234  1.0949 -0.5935  0.5298
 5282TIP3    H215811   6.519   0.116   2.117 -1.5284 -1.2974 -1.1594
 5283TIP3   OH215812   2.735   0.843   5.792  0.5263  0.4254 -0.1541
 5283TIP3    H115813   2.642   0.835   5.815  0.5648  0.0691 -0.1062
 5283TIP3    H215814   2.735   0.875   5.702  0.3767  2.0945  0.4100
 5284TIP3   OH215815   7.159   6.655   0.214  0.2247  0.5538 -0.1496
 5284TIP3    H115816   7.141   6.576   0.264  3.0352  0.5256  0.9715
 5284TIP3    H215817   7.190   6.718   0.279 -1.4154  2.4740 -1.0918
 5285TIP3   OH215818   4.624   6.148   3.392 -0.2627  0.7296 -0.0924
 5285TIP3    H115819   4.602   6.171   3.482  0.7843 -0.6848  0.5588
 5285TIP3    H215820   4.680   6.219   3.362 -0.2265  0.9666  0.5245
 5286TIP3   OH215821   7.185   1.223   0.293  0.4449  0.3258 -0.3271
 5286TIP3    H115822   7.196   1.175   0.211  0.0113  0.4132 -0.4412
 5286TIP3    H215823   7.250   1.186   0.352  0.3357 -0.1725 -0.5178
 5287TIP3   OH215824   4.421   3.860   4.416 -0.8521 -0.1589 -0.2423
 5287TIP3    H115825   4.425   3.769   4.386 -2.6256 -0.5577  0.6274
 5287TIP3    H215826   4.453   3.911   4.341  0.5574 -1.4884 -0.6017
 5288TIP3   OH215827   3.355   4.524   0.468 -0.0832 -0.4206  0.2318
 5288TIP3    H115828   3.284   4.580   0.438 -1.6051 -1.3786  1.8466
 5288TIP3    H215829   3.435   4.574   0.450 -1.0015  0.1354 -2.8291
 5289TIP3   OH215830   5.516   2.092   2.119 -0.5106 -0.4110 -0.0988
 5289TIP3    H115831   5.605   2.124   2.137 -0.7479 -0.2884  0.9178
 5289TIP3    H215832   5.464   2.171   2.106 -0.2371 -0.4906 -2.0657
 5290TIP3   OH215833   6.792   3.361   4.735 -0.4087 -0.1447  0.5025
 5290TIP3    H115834   6.760   3.379   4.647  0.8896 -2.3149 -0.4735
 5290TIP3    H215835   6.812   3.448   4.771  0.4498  0.7195 -1.8742
 5291TIP3   OH215836   6.795   0.094   0.428  0.1695 -0.1085  0.4574
 5291TIP3    H115837   6.838   0.177   0.407  1.3334 -0.6002  0.7838
 5291TIP3    H215838   6.778   0.054   0.343  0.5675  0.0114  0.3168
 5292TIP3   OH215839   2.760   2.931   0.143  0.4342 -0.1210  0.3061
 5292TIP3    H115840   2.732   2.903   0.230  2.0992  0.2440  0.9967
 5292TIP3    H215841   2.752   3.026   0.144  1.1842 -0.0506  0.3483
 5293TIP3   OH215842   2.963   6.334   3.312 -0.2196 -0.3235  0.0566
 5293TIP3    H115843   2.972   6.255   3.366  0.4096  0.8010  1.6750
 5293TIP3    H215844   3.052   6.370   3.306 -0.2845 -0.3392 -1.6830
 5294TIP3   OH215845   3.641   5.104   5.440  0.0081 -0.7812  0.3395
 5294TIP3    H115846   3.615   5.079   5.528 -0.9133  0.2763  0.3957
 5294TIP3    H215847   3.561   5.100   5.389  0.7531 -2.6188 -0.7973
 5295TIP3   OH215848   1.714   4.456   1.041  0.2261  0.3392  0.4812
 5295TIP3    H115849   1.759   4.506   1.109  0.6264 -0.1133  0.5561
 5295TIP3    H215850   1.705   4.518   0.968 -0.8011  1.0288  1.1714
 5296TIP3   OH215851   3.356   0.447   1.985 -0.2848  0.2910  0.3477
 5296TIP3    H115852   3.271   0.413   1.955  0.6242 -1.2162 -0.6197
 5296TIP3    H215853   3.343   0.542   1.989 -2.5616  0.0034  2.0407
 5297TIP3   OH215854   1.036   1.284   4.640 -0.7318 -0.2028 -0.4044
 5297TIP3    H115855   1.079   1.301   4.724  0.2147  0.6639 -1.0469
 5297TIP3    H215856   1.046   1.190   4.627 -0.6537 -0.3025  0.3154
 5298TIP3   OH215857   1.440   1.657   3.043  0.2454 -0.2579 -0.1913
 5298TIP3    H115858   1.400   1.616   2.966 -0.6473 -1.2560  0.7630
 5298TIP3    H215859   1.381   1.728   3.066  0.4875  0.0111 -0.4014
 5299TIP3   OH215860   1.518   1.748   4.592 -0.3849  0.7216 -0.2515
 5299TIP3    H115861   1.591   1.799   4.557  0.0124  2.0055  2.2284
 5299TIP3    H215862   1.524   1.759   4.687 -3.5499  0.4753  0.0871
 5300TIP3   OH215863   4.523   1.966   1.803 -0.0318  0.4370 -0.0302
 5300TIP3    H115864   4.455   1.926   1.857 -1.1674  0.0630 -1.6457
 5300TIP3    H215865   4.476   2.002   1.728  1.4670  0.9603 -0.7675
 5301TIP3   OH215866   4.476   4.746   4.296 -0.3999  0.2643 -0.0789
 5301TIP3    H115867   4.500   4.666   4.250  1.3374  0.2280  0.7797
 5301TIP3    H215868   4.435   4.716   4.377 -0.5049  0.2555 -0.1359
 5302TIP3   OH215869   1.114   5.790   4.043  0.2123 -0.1199 -0.0129
 5302TIP3    H115870   1.080   5.820   4.127 -0.4287  1.5038 -0.8039
 5302TIP3    H215871   1.199   5.833   4.034  1.7574 -2.6649  1.0903
 5303TIP3   OH215872   4.841   6.207   0.483  0.3779  0.1381  0.1961
 5303TIP3    H115873   4.892   6.162   0.549  0.0553  1.0590  1.0980
 5303TIP3    H215874   4.764   6.152   0.469  0.1178  0.2564  1.0936
 5304TIP3   OH215875   0.026   3.551   0.081 -0.7427  0.2287 -0.5981
 5304TIP3    H115876   0.034   3.647   0.079 -0.6733  0.2938  1.2435
 5304TIP3    H215877   0.111   3.520   0.112 -1.9342 -0.0997  2.8252
 5305TIP3   OH215878   6.936   4.347   3.766  0.6374 -0.4209  0.3957
 5305TIP3    H115879   6.923   4.404   3.842  0.3726  1.6151 -1.0748
 5305TIP3    H215880   6.859   4.289   3.767 -0.0556  0.4688  0.9449
 5306TIP3   OH215881   6.328   1.060   1.213 -0.1400  0.7272 -0.1922
 5306TIP3    H115882   6.284   1.097   1.137  0.2434  0.7997 -0.3827
 5306TIP3    H215883   6.336   0.967   1.194 -1.5476  0.4409  0.5038
 5307TIP3   OH215884   1.502   5.138   1.420  0.4580  0.0072  0.5733
 5307TIP3    H115885   1.527   5.172   1.506 -0.5589 -0.6573  1.1492
 5307TIP3    H215886   1.422   5.088   1.436 -1.0782  1.7843 -1.1530
 5308TIP3   OH215887   3.216   0.646   1.641  0.1595 -0.0996 -1.0076
 5308TIP3    H115888   3.212   0.685   1.728 -1.3555 -1.4440 -0.4310
 5308TIP3    H215889   3.262   0.563   1.654  0.3149 -0.1035 -1.5725
 5309TIP3   OH215890   0.773   2.500   1.867 -0.0165  0.1528  0.1375
 5309TIP3    H115891   0.718   2.443   1.920 -0.1465  0.3619  0.2291
 5309TIP3    H215892   0.717   2.575   1.847  0.3202  0.5001  0.4691
 5310TIP3   OH215893   1.091   1.848   2.594 -0.4438 -0.0011 -0.5549
 5310TIP3    H115894   1.108   1.755   2.611  0.5975  0.2297 -0.2539
 5310TIP3    H215895   1.006   1.849   2.550 -1.4849 -0.9293  1.3011
 5311TIP3   OH215896   6.311   0.582   3.849  0.1364  0.2949  0.5503
 5311TIP3    H115897   6.313   0.630   3.766  0.7762  0.7488  0.8172
 5311TIP3    H215898   6.401   0.588   3.882 -0.3675  1.1725  1.8574
 5312TIP3   OH215899   2.457   0.532   5.835 -0.1581 -0.3036 -0.6869
 5312TIP3    H115900   2.378   0.501   5.790 -0.4865 -0.8513  0.2441
 5312TIP3    H215901   2.502   0.451   5.862 -0.0203  0.0227  0.0672
 5313TIP3   OH215902   0.498   1.756   0.267 -0.4129  0.9319 -0.1084
 5313TIP3    H115903   0.413   1.728   0.234 -0.3102  1.0408 -0.4669
 5313TIP3    H215904   0.537   1.806   0.195  0.4030 -0.0153 -0.3595
 5314TIP3   OH215905   6.160   4.847   1.044 -0.5212 -0.3591 -0.5757
 5314TIP3    H115906   6.191   4.813   1.128 -0.0252 -1.2244 -1.0967
 5314TIP3    H215907   6.129   4.770   0.997 -2.7087  0.3572 -0.4325
 5315TIP3   OH215908   2.073   0.704   4.447 -0.3163 -0.0562  0.2486
 5315TIP3    H115909   2.029   0.662   4.373 -0.8437  0.3073  0.3441
 5315TIP3    H215910   2.109   0.632   4.498  0.5489 -0.2892 -0.6605
 5316TIP3   OH215911   2.824   6.357   5.418 -0.0596  0.3623  0.0301
 5316TIP3    H115912   2.809   6.379   5.510  0.1009  1.2103 -0.1421
 5316TIP3    H215913   2.857   6.267   5.420 -0.2967  0.2845  0.7797
 5317TIP3   OH215914   0.574   0.330   1.963 -0.1692  0.0475 -0.8785
 5317TIP3    H115915   0.537   0.418   1.963 -1.2290 -0.3763  0.1809
 5317TIP3    H215916   0.632   0.328   2.039 -1.9703 -0.8678  0.5384
 5318TIP3   OH215917   6.884   4.500   2.348 -0.5163  0.4510 -0.3068
 5318TIP3    H115918   6.906   4.470   2.260 -0.7346 -0.9506  0.0968
 5318TIP3    H215919   6.797   4.464   2.365 -0.6944  1.1470  0.2931
 5319TIP3   OH215920   3.955   3.720   0.566  0.1068 -0.2703  0.1624
 5319TIP3    H115921   3.955   3.699   0.473 -1.7677 -3.7420  0.7773
 5319TIP3    H215922   4.027   3.669   0.602 -0.3188 -0.3784  0.8760
 5320TIP3   OH215923   5.323   4.391   5.152 -0.3501 -0.6230  0.5587
 5320TIP3    H115924   5.344   4.340   5.231  0.9200  2.8160  2.6708
 5320TIP3    H215925   5.252   4.449   5.181  0.2045  0.7728 -0.7752
 5321TIP3   OH215926   1.790   5.580   2.745 -0.5875 -0.2279  0.3544
 5321TIP3    H115927   1.817   5.671   2.746  0.8201 -0.6112 -0.0358
 5321TIP3    H215928   1.762   5.563   2.655  0.6036 -0.5530  0.0247
 5322TIP3   OH215929   0.684   2.138   0.534 -0.3724 -0.0092  0.1983
 5322TIP3    H115930   0.776   2.112   0.547 -0.3665 -0.6917 -1.0980
 5322TIP3    H215931   0.679   2.226   0.573  0.8442  0.0712  0.2317
 5323TIP3   OH215932   1.691   3.213   0.225  0.0936  0.3777  0.1148
 5323TIP3    H115933   1.691   3.169   0.310 -1.7233  1.9673  1.0113
 5323TIP3    H215934   1.645   3.295   0.240 -0.8577  0.4450 -2.5501
 5324TIP3   OH215935   4.166   0.766   2.172  0.5511  0.2121  0.0290
 5324TIP3    H115936   4.106   0.740   2.102  1.3355 -2.1812  0.1420
 5324TIP3    H215937   4.176   0.861   2.162 -2.8874  0.6602 -0.2309
 5325TIP3   OH215938   0.147   3.773   2.955  0.5695 -0.9710  0.2897
 5325TIP3    H115939   0.239   3.780   2.930  0.3404  2.7334 -0.2138
 5325TIP3    H215940   0.101   3.753   2.873  0.7678 -0.1431 -0.0405
 5326TIP3   OH215941   5.628   0.586   2.847 -0.0952 -0.1404 -0.3590
 5326TIP3    H115942   5.555   0.647   2.853  0.3597  0.3992 -0.1541
 5326TIP3    H215943   5.594   0.504   2.881 -1.0923 -0.3582 -1.8004
 5327TIP3   OH215944   5.286   5.643   2.129 -0.0896  0.1444 -0.2221
 5327TIP3    H115945   5.230   5.570   2.104 -1.9014  0.9543  1.2570
 5327TIP3    H215946   5.371   5.603   2.146 -1.0024 -1.6255  0.4825
 5328TIP3   OH215947   2.953   0.268   1.179 -0.2484  0.2775 -0.0884
 5328TIP3    H115948   2.961   0.238   1.270 -2.1106 -2.8088 -0.8084
 5328TIP3    H215949   2.900   0.348   1.185 -0.8006 -0.1653  1.5262
 5329TIP3   OH215950   4.110   0.368   5.108 -0.0059 -0.1297 -0.0958
 5329TIP3    H115951   4.052   0.430   5.064  0.6447  0.9531  0.5363
 5329TIP3    H215952   4.101   0.390   5.201  0.5780 -0.6857  0.0947
 5330TIP3   OH215953   2.027   3.982   1.720  0.5071 -0.3366 -0.1651
 5330TIP3    H115954   2.020   3.887   1.726  0.1680 -0.2614  0.7143
 5330TIP3    H215955   2.120   3.998   1.703  0.8839 -0.7550  1.3918
 5331TIP3   OH215956   2.944   2.009   5.589  0.1772 -0.5765 -0.7470
 5331TIP3    H115957   2.878   1.951   5.552 -0.1985  0.8297 -2.3844
 5331TIP3    H215958   2.999   2.033   5.515  0.6909  0.6584  0.0134
 5332TIP3   OH215959   1.351   2.953   0.513  0.1438  0.3158 -0.2733
 5332TIP3    H115960   1.390   3.041   0.512  0.3592  0.2986  1.9763
 5332TIP3    H215961   1.420   2.897   0.547 -0.7707 -0.2856  0.6461
 5333TIP3   OH215962   2.251   3.619   5.288 -0.0182  0.1510  0.2275
 5333TIP3    H115963   2.240   3.663   5.372 -0.1246 -0.4801  0.5472
 5333TIP3    H215964   2.206   3.675   5.225 -1.3242 -0.1806  0.8370
 5334TIP3   OH215965   6.357   1.410   1.031 -0.4549  0.6747 -0.1058
 5334TIP3    H115966   6.384   1.409   1.122 -1.5386 -0.9677  0.2334
 5334TIP3    H215967   6.302   1.488   1.023 -0.5061  0.7237  0.6829
 5335TIP3   OH215968   6.328   0.766   3.633  0.0161  0.6690  0.0394
 5335TIP3    H115969   6.259   0.715   3.590 -0.2621  0.3846  0.7923
 5335TIP3    H215970   6.408   0.742   3.587  0.0026 -1.0105  0.8241
 5336TIP3   OH215971   4.848   0.355   1.866  0.0789  0.2613 -0.1134
 5336TIP3    H115972   4.797   0.279   1.896  0.5304 -0.2212 -0.5451
 5336TIP3    H215973   4.870   0.402   1.946  0.0388 -0.2200  0.1854
 5337TIP3   OH215974   1.291   2.515   1.655  0.0874  0.2381  0.3256
 5337TIP3    H115975   1.277   2.424   1.683 -0.6465  0.5973  1.1797
 5337TIP3    H215976   1.210   2.560   1.680  0.1296  0.9688 -0.8131
 5338TIP3   OH215977   4.465   0.791   4.796  0.1896 -0.5409  0.5936
 5338TIP3    H115978   4.527   0.860   4.775  0.1325 -0.4673  0.6684
 5338TIP3    H215979   4.494   0.716   4.743 -0.5767 -0.0513 -0.5542
 5339TIP3   OH215980   5.250   4.329   2.612  0.1323  0.2114 -0.3979
 5339TIP3    H115981   5.199   4.290   2.541 -0.0984  1.4212 -0.9154
 5339TIP3    H215982   5.338   4.292   2.602 -0.3037 -0.8878 -0.2865
 5340TIP3   OH215983   5.613   5.662   2.406  0.6732 -0.4615 -0.0118
 5340TIP3    H115984   5.598   5.633   2.316  0.6633 -2.1809  0.5198
 5340TIP3    H215985   5.558   5.604   2.460 -2.0054  2.6347  0.9280
 5341TIP3   OH215986   0.524   0.767   0.702  0.1960 -0.3671  0.2636
 5341TIP3    H115987   0.602   0.788   0.650  0.3163 -0.7049  0.3071
 5341TIP3    H215988   0.523   0.834   0.771  0.9137 -0.8540  0.7627
 5342TIP3   OH215989   3.194   0.082   5.247 -0.0618  0.1641 -0.0151
 5342TIP3    H115990   3.207   0.057   5.156 -2.2451  1.2044 -0.6749
 5342TIP3    H215991   3.281   0.077   5.286  0.5583 -2.8982 -1.4358
 5343TIP3   OH215992   2.754   5.884   3.617 -0.3501  0.0256 -0.5080
 5343TIP3    H115993   2.753   5.911   3.525  0.7325  0.4629 -0.4118
 5343TIP3    H215994   2.708   5.954   3.664 -0.7157 -0.0921 -0.6892
 5344TIP3   OH215995   2.742   6.078   4.653  0.0480  0.6757  0.3143
 5344TIP3    H115996   2.794   6.147   4.611 -0.4736  0.4134 -0.7786
 5344TIP3    H215997   2.762   5.999   4.603 -0.2257  0.2551  0.8570
 5345TIP3   OH215998   3.336   5.133   4.908 -0.5184 -0.2698  0.3635
 5345TIP3    H115999   3.369   5.046   4.932  0.7453  0.0112 -0.2538
 5345TIP3    H216000   3.267   5.115   4.844 -0.6600 -0.8367  0.6637
 5346TIP3   OH216001   3.780   0.325   5.400  0.3159 -0.0047 -0.9608
 5346TIP3    H116002   3.873   0.332   5.420 -0.0357  3.9542  0.0827
 5346TIP3    H216003   3.771   0.367   5.314 -0.5858  0.2945 -0.7261
 5347TIP3   OH216004   1.759   2.738   5.167  0.1308  0.5195  0.7784
 5347TIP3    H116005   1.675   2.719   5.125 -0.3842 -1.5274  2.5756
 5347TIP3    H216006   1.825   2.697   5.111 -0.3602 -0.5013  0.9390
 5348TIP3   OH216007   3.317   3.064   1.350  0.5705 -0.1886 -0.0348
 5348TIP3    H116008   3.257   3.053   1.276 -2.0308 -0.5184  2.0000
 5348TIP3    H216009   3.323   3.158   1.363  0.5020 -0.1549 -0.2471
 5349TIP3   OH216010   6.513   0.088   4.814  0.4016  0.3813 -0.5034
 5349TIP3    H116011   6.474   0.075   4.728  2.1234  0.7382 -1.3811
 5349TIP3    H216012   6.527  -0.000   4.848 -1.7050  0.2421  0.1370
 5350TIP3   OH216013   5.581   5.849   3.119 -0.4177 -0.2941 -1.0166
 5350TIP3    H116014   5.513   5.795   3.160  0.0489 -0.6578 -0.7093
 5350TIP3    H216015   5.579   5.931   3.167  0.7897 -1.0675  0.4218
 5351TIP3   OH216016   3.040   5.726   4.274 -0.0933 -0.3503 -0.3854
 5351TIP3    H116017   3.047   5.780   4.195 -0.4341  1.4734  0.8022
 5351TIP3    H216018   2.980   5.655   4.249 -1.3934  1.0255 -1.3330
 5352TIP3   OH216019   6.763   2.568   5.510 -0.3270 -0.1340  0.2240
 5352TIP3    H116020   6.771   2.649   5.460 -1.1125 -0.2548 -0.1117
 5352TIP3    H216021   6.692   2.520   5.467 -1.2426 -0.0976  1.6260
 5353TIP3   OH216022   0.194   1.680   2.506 -0.1261  0.4017  0.2685
 5353TIP3    H116023   0.273   1.641   2.469 -0.0023 -1.0467  1.8868
 5353TIP3    H216024   0.224   1.760   2.548  0.1953  0.6486 -0.4107
 5354TIP3   OH216025   5.797   1.042   2.964  0.1208  0.3433  0.6573
 5354TIP3    H116026   5.716   0.991   2.956  0.1905  0.5312 -1.9159
 5354TIP3    H216027   5.809   1.052   3.059 -1.7231 -1.4683  1.1574
 5355TIP3   OH216028   1.907   5.760   4.508 -0.2762  0.2614 -0.4660
 5355TIP3    H116029   1.831   5.728   4.459  1.1447 -2.0079 -1.3194
 5355TIP3    H216030   1.896   5.723   4.595 -0.6840  0.8376 -0.2684
 5356TIP3   OH216031   4.249   3.583   0.102 -0.3398 -0.2874 -0.0218
 5356TIP3    H116032   4.344   3.590   0.097 -0.3054 -0.9365 -0.3200
 5356TIP3    H216033   4.232   3.509   0.159 -0.6695 -0.1391  0.0803
 5357TIP3   OH216034   5.465   0.127   4.059  0.0318 -0.2252 -0.3104
 5357TIP3    H116035   5.443   0.068   4.131  1.2892  0.8384  1.0044
 5357TIP3    H216036   5.558   0.146   4.071  0.0626  0.6896 -1.7100
 5358TIP3   OH216037   1.774   0.895   4.781  0.1596 -0.1841  0.3019
 5358TIP3    H116038   1.728   0.867   4.860 -0.6561  0.3149  0.0216
 5358TIP3    H216039   1.866   0.897   4.806  0.1920 -2.3308  0.5447
 5359TIP3   OH216040   5.279   0.403   0.849  0.6334 -0.2904 -0.1238
 5359TIP3    H116041   5.327   0.342   0.906  0.4006 -0.4363 -0.0831
 5359TIP3    H216042   5.259   0.477   0.906  1.2896  0.0183 -0.2848
 5360TIP3   OH216043   2.051   2.657   5.566  0.4268 -0.4614  0.5595
 5360TIP3    H116044   2.048   2.737   5.618 -0.0490 -0.5454  0.6632
 5360TIP3    H216045   2.047   2.586   5.630  0.4700 -0.5686  0.4448
 5361TIP3   OH216046   2.480   2.412   2.935  0.2942  0.5295 -0.0804
 5361TIP3    H116047   2.491   2.463   2.855  0.8751 -0.6484 -0.7781
 5361TIP3    H216048   2.454   2.325   2.905  3.9528 -1.0212  0.6881
 5362TIP3   OH216049   5.076   4.549   1.363 -0.3916 -0.0061 -0.5454
 5362TIP3    H116050   5.026   4.535   1.444  1.2361  0.3634  0.5799
 5362TIP3    H216051   5.032   4.623   1.321 -1.4852 -0.4336 -0.1976
 5363TIP3   OH216052   1.945   3.927   5.331  0.0277 -0.0156 -0.6106
 5363TIP3    H116053   1.940   3.855   5.268  0.1784  0.1950 -0.8628
 5363TIP3    H216054   1.996   3.994   5.287  1.9815 -0.6801  0.5044
 5364TIP3   OH216055   2.775   3.922   1.105 -0.6046 -0.3000  0.3292
 5364TIP3    H116056   2.853   3.972   1.127 -1.6292  1.2400  0.6859
 5364TIP3    H216057   2.774   3.850   1.167  1.5669 -1.5570 -0.9808
 5365TIP3   OH216058   1.862   6.228   2.184 -0.5214 -0.0942 -0.3135
 5365TIP3    H116059   1.798   6.265   2.124 -0.1429  4.1657  1.5966
 5365TIP3    H216060   1.928   6.297   2.194  1.6887 -2.3103  1.7323
 5366TIP3   OH216061   6.839   0.220   2.763 -0.2968 -0.2618 -0.0209
 5366TIP3    H116062   6.909   0.240   2.701 -1.8457 -0.7449 -2.0607
 5366TIP3    H216063   6.875   0.241   2.849  2.5847 -1.2179 -0.8893
 5367TIP3   OH216064   2.610   5.044   4.738 -0.9514 -0.3999  0.2759
 5367TIP3    H116065   2.697   5.008   4.755 -0.3214  1.0668  0.3408
 5367TIP3    H216066   2.561   5.028   4.819 -1.6387 -3.5682 -0.6589
 5368TIP3   OH216067   0.686   4.628   1.344 -0.2739  0.1928 -0.5446
 5368TIP3    H116068   0.718   4.639   1.434  0.0461  0.8938 -0.7415
 5368TIP3    H216069   0.634   4.547   1.348  0.4481 -0.2655  0.0788
 5369TIP3   OH216070   1.333   2.672   0.857 -0.3702 -0.1803  0.1673
 5369TIP3    H116071   1.394   2.733   0.817  0.3115  0.5594  2.2082
 5369TIP3    H216072   1.342   2.591   0.806  1.9021  0.0808  0.0783
 5370TIP3   OH216073   3.070   6.528   5.020  0.7847  0.2924  0.0434
 5370TIP3    H116074   3.145   6.492   4.972  1.4144 -0.7830  1.7479
 5370TIP3    H216075   3.009   6.455   5.027  0.0677  0.8508 -0.3710
 5371TIP3   OH216076   5.786   2.168   2.126  0.0698 -0.4256  0.0805
 5371TIP3    H116077   5.879   2.172   2.151  0.6818 -1.5953 -1.8627
 5371TIP3    H216078   5.781   2.218   2.045 -1.1383  0.0532  0.4288
 5372TIP3   OH216079   0.800   6.192   2.561  0.0545  0.8038 -0.2446
 5372TIP3    H116080   0.759   6.155   2.638 -2.1729  0.5483 -1.4662
 5372TIP3    H216081   0.872   6.245   2.595 -0.2436 -0.0939  1.9090
 5373TIP3   OH216082   6.120   1.656   4.372 -0.3227 -0.6077  0.4724
 5373TIP3    H116083   6.056   1.724   4.394  1.2402  0.6580  1.3133
 5373TIP3    H216084   6.110   1.590   4.440  0.0617  0.1722  1.3077
 5374TIP3   OH216085   7.111   3.372   3.684 -0.1004 -0.3174  0.0134
 5374TIP3    H116086   7.063   3.431   3.625 -0.1556  0.8485  1.1867
 5374TIP3    H216087   7.155   3.310   3.625 -1.8368 -0.5095 -1.1585
 5375TIP3   OH216088   0.212   3.742   4.533  0.3951 -0.1421  0.5863
 5375TIP3    H116089   0.235   3.835   4.529 -0.6221  0.1182  0.3596
 5375TIP3    H216090   0.255   3.704   4.456  3.2471 -0.4767  2.2295
 5376TIP3   OH216091   6.724   1.880   4.695  0.0922 -0.5297  0.6557
 5376TIP3    H116092   6.668   1.930   4.636  0.6954 -0.5830  0.0270
 5376TIP3    H216093   6.669   1.862   4.771  0.3570  2.6449  1.7356
 5377TIP3   OH216094   3.133   6.340   3.630  0.2037  0.1676  0.2789
 5377TIP3    H116095   3.157   6.288   3.552 -0.9289  1.6047 -1.0844
 5377TIP3    H216096   3.191   6.416   3.626  1.5510 -0.6811  2.0311
 5378TIP3   OH216097   4.992   6.490   2.521  0.0097  0.4308 -0.6025
 5378TIP3    H116098   4.978   6.557   2.454  0.0015  0.8553 -0.1801
 5378TIP3    H216099   5.083   6.500   2.547 -0.4535  1.4790  0.7351
 5379TIP3   OH216100   3.308   1.613   4.692 -0.6116  0.7728  0.5022
 5379TIP3    H116101   3.340   1.673   4.624  1.3485 -1.0292 -0.2691
 5379TIP3    H216102   3.386   1.564   4.719 -1.9005 -0.5156  2.0447
 5380TIP3   OH216103   4.950   2.282   3.392  0.6352  0.0485  0.1425
 5380TIP3    H116104   5.033   2.326   3.371  1.0072 -0.9154 -0.4537
 5380TIP3    H216105   4.958   2.260   3.485  0.6655  0.7640  0.3133
 5381TIP3   OH216106   0.197   3.894   4.260  0.1705 -0.4069 -0.0039
 5381TIP3    H116107   0.145   3.924   4.185 -2.9949  2.1672  2.8809
 5381TIP3    H216108   0.278   3.944   4.256 -1.6257  2.7667  0.2508
 5382TIP3   OH216109   2.814   5.785   4.533  0.0146 -0.1051 -0.1309
 5382TIP3    H116110   2.727   5.822   4.552 -0.6494 -0.2449 -2.5589
 5382TIP3    H216111   2.838   5.823   4.448  2.2435 -0.2762  0.3686
 5383TIP3   OH216112   6.956   4.108   5.408  0.2898  0.5465 -0.0527
 5383TIP3    H116113   6.916   4.155   5.336  3.3116  1.4276 -1.3388
 5383TIP3    H216114   6.990   4.177   5.466  0.0746 -0.1244  0.9033
 5384TIP3   OH216115   1.745   0.447   4.879 -0.4568 -0.5815  0.1045
 5384TIP3    H116116   1.818   0.496   4.841 -1.3562  1.5822  1.0261
 5384TIP3    H216117   1.767   0.438   4.972 -1.1691 -0.2752  0.3097
 5385TIP3   OH216118   6.300   5.009   2.558 -0.0019 -0.2513 -0.1247
 5385TIP3    H116119   6.238   5.083   2.561  0.0126 -0.2522  0.2455
 5385TIP3    H216120   6.386   5.051   2.548  0.0374 -0.2011  0.3972
 5386TIP3   OH216121   1.212   5.252   3.956  0.2267  0.0686  0.1413
 5386TIP3    H116122   1.181   5.175   4.005  1.0237 -1.5287 -1.6912
 5386TIP3    H216123   1.132   5.299   3.933 -0.2905 -0.2291  1.2783
 5387TIP3   OH216124   0.229   4.310   3.327  0.3509 -0.0208 -0.2416
 5387TIP3    H116125   0.160   4.299   3.261  0.4783 -0.9833 -0.2207
 5387TIP3    H216126   0.262   4.399   3.311 -0.5447  0.2682 -0.5762
 5388TIP3   OH216127   2.298   0.339   4.896 -0.3561  0.6083  0.1401
 5388TIP3    H116128   2.368   0.291   4.939 -0.0625 -0.8439 -1.8398
 5388TIP3    H216129   2.252   0.383   4.968  2.0697  1.0003  1.5722
 5389TIP3   OH216130   4.308   5.282   1.178 -1.0485  0.2326  0.0800
 5389TIP3    H116131   4.327   5.346   1.247 -2.6254  0.6048  0.2209
 5389TIP3    H216132   4.214   5.267   1.185 -0.5356 -3.4057  1.1301
 5390TIP3   OH216133   3.339   6.158   0.440 -0.6947 -0.3265  0.2806
 5390TIP3    H116134   3.411   6.110   0.399 -0.4870  1.4501 -1.6009
 5390TIP3    H216135   3.270   6.093   0.450  0.7486 -1.8241  1.1590
 5391TIP3   OH216136   0.552   5.061   2.675 -0.2240 -0.1051 -0.2933
 5391TIP3    H116137   0.644   5.065   2.648 -0.1374  1.3559  0.1551
 5391TIP3    H216138   0.551   4.996   2.745  0.1280 -1.4407 -1.4667
 5392TIP3   OH216139   4.672   0.146   1.966 -0.0565  0.1848  0.0396
 5392TIP3    H116140   4.635   0.058   1.971 -2.7637  0.9458 -2.7185
 5392TIP3    H216141   4.613   0.200   2.019  0.0087  0.6953 -0.3959
 5393TIP3   OH216142   4.251   0.274   2.611  0.2058 -0.0799  0.2910
 5393TIP3    H116143   4.156   0.269   2.595  0.0500  1.4111  0.5788
 5393TIP3    H216144   4.261   0.345   2.674  1.4814 -0.6607  0.7804
 5394TIP3   OH216145   3.580   0.874   1.211 -0.6063  0.0482 -0.4721
 5394TIP3    H116146   3.665   0.885   1.169 -1.0721 -1.4461 -1.9127
 5394TIP3    H216147   3.548   0.963   1.224  1.1560  0.6364  0.0944
 5395TIP3   OH216148   5.274   5.933   3.441 -0.2343 -0.2115  0.3843
 5395TIP3    H116149   5.355   5.889   3.466  1.1162  0.6404 -2.1415
 5395TIP3    H216150   5.218   5.863   3.409 -0.1862 -0.7157  1.3844
 5396TIP3   OH216151   0.908   3.477   0.638  0.0992  0.4287 -0.1504
 5396TIP3    H116152   0.919   3.428   0.557  1.1214 -0.5990  0.5747
 5396TIP3    H216153   0.858   3.418   0.695 -1.1297  1.3694 -0.2048
 5397TIP3   OH216154   3.990   2.402   4.186  0.2617 -0.4248  0.5374
 5397TIP3    H116155   3.931   2.339   4.227  0.7851 -0.1677  1.7007
 5397TIP3    H216156   4.078   2.367   4.201  0.5469  0.4605  1.0199
 5398TIP3   OH216157   3.370   3.950   2.467 -0.1651 -0.1248  0.0642
 5398TIP3    H116158   3.439   3.997   2.514 -0.5629 -1.9839  2.7618
 5398TIP3    H216159   3.300   4.014   2.455  0.6174  0.8377  0.5434
 5399TIP3   OH216160   4.743   3.209   3.371  0.2339 -0.0367  0.0073
 5399TIP3    H116161   4.681   3.199   3.443 -1.0666  1.7059 -0.8094
 5399TIP3    H216162   4.728   3.132   3.316  1.5324 -1.6080  1.7183
 5400TIP3   OH216163   2.647   2.504   5.098 -0.1540 -0.7331  0.2554
 5400TIP3    H116164   2.669   2.481   5.189 -1.8334  0.7657  1.1083
 5400TIP3    H216165   2.650   2.599   5.096 -2.8680 -0.5748 -0.4573
 5401TIP3   OH216166   2.374   6.582   2.422  0.1284  0.1586 -0.0843
 5401TIP3    H116167   2.459   6.582   2.379  0.5353  2.7000  0.5218
 5401TIP3    H216168   2.313   6.615   2.356 -0.0901 -0.1250 -0.0293
 5402TIP3   OH216169   0.808   5.655   3.991 -0.4480 -0.0722  0.2038
 5402TIP3    H116170   0.776   5.733   4.037  0.1926 -0.1139  0.7229
 5402TIP3    H216171   0.901   5.651   4.012  0.1130  0.5132 -1.9542
 5403TIP3   OH216172   3.369   1.448   2.587 -0.4566 -0.2309  0.3697
 5403TIP3    H116173   3.391   1.421   2.498 -0.4135  0.3760  0.1894
 5403TIP3    H216174   3.281   1.414   2.601 -0.4858 -0.2822  0.0718
 5404TIP3   OH216175   7.062   6.148   5.764 -0.0365  0.3807  0.0613
 5404TIP3    H116176   7.128   6.081   5.750 -1.4241 -1.2802  1.0473
 5404TIP3    H216177   7.046   6.147   5.859 -1.4880  0.6915 -0.1532
 5405TIP3   OH216178   0.578   0.895   5.802 -0.6850 -0.2872  0.0114
 5405TIP3    H116179   0.616   0.951   5.869 -0.0877 -1.3444  0.5815
 5405TIP3    H216180   0.497   0.863   5.841  0.2387 -1.8522  0.7651
 5406TIP3   OH216181   1.471   4.231   1.601 -0.6144 -0.0897 -0.4281
 5406TIP3    H116182   1.435   4.291   1.667 -0.7602 -1.8027  1.1404
 5406TIP3    H216183   1.412   4.239   1.526 -1.0870  1.1185  0.0506
 5407TIP3   OH216184   0.305   6.422   1.627 -0.5084  0.1317  0.3522
 5407TIP3    H116185   0.255   6.493   1.588  0.2150  0.3077 -0.2777
 5407TIP3    H216186   0.252   6.393   1.702 -1.1392  0.8572  0.1937
 5408TIP3   OH216187   6.099   4.544   4.819  0.0297  0.5939  0.2939
 5408TIP3    H116188   6.105   4.630   4.861 -0.9085  0.1425  1.4294
 5408TIP3    H216189   6.104   4.482   4.892  0.4615 -0.3011 -0.4905
 5409TIP3   OH216190   2.782   4.805   0.653 -0.4526 -0.0868  0.1553
 5409TIP3    H116191   2.819   4.869   0.715 -1.0894  0.4110  0.0294
 5409TIP3    H216192   2.857   4.775   0.602  0.3801 -1.6622  2.1653
 5410TIP3   OH216193   3.109   0.569   3.223 -0.1778 -0.2321 -0.7459
 5410TIP3    H116194   3.142   0.481   3.207  1.1513  0.0637  0.1224
 5410TIP3    H216195   3.115   0.580   3.318  0.0192  0.8966 -0.8653
 5411TIP3   OH216196   2.074   1.130   4.089 -0.9652  0.1045  0.0412
 5411TIP3    H116197   1.995   1.105   4.138 -0.3704 -0.5497  0.6925
 5411TIP3    H216198   2.098   1.051   4.040 -1.4565  0.7011 -1.2110
 5412TIP3   OH216199   1.573   2.878   1.715 -0.4720  0.1600 -0.5109
 5412TIP3    H116200   1.527   2.822   1.778  1.2913 -1.8347 -0.8580
 5412TIP3    H216201   1.564   2.832   1.631  0.4639  0.7478 -0.9509
 5413TIP3   OH216202   4.132   1.843   4.313 -0.6154 -0.3908 -0.6463
 5413TIP3    H116203   4.071   1.826   4.384  0.4149 -0.8379  0.1542
 5413TIP3    H216204   4.216   1.809   4.344  0.3832  1.5019 -1.0925
 5414TIP3   OH216205   5.748   5.315   5.814  0.3525 -0.2441 -0.7371
 5414TIP3    H116206   5.728   5.337   5.905  2.3635 -1.3426  0.0227
 5414TIP3    H216207   5.831   5.359   5.796  0.5656 -0.9988 -1.6644
 5415TIP3   OH216208   5.095   2.503   4.847  0.5712  0.1168  0.2063
 5415TIP3    H116209   5.015   2.456   4.869  1.2065 -0.7781  0.6864
 5415TIP3    H216210   5.110   2.562   4.920 -0.8454  1.9623 -0.9182
 5416TIP3   OH216211   2.984   2.034   2.982  0.0060 -0.1130  0.3275
 5416TIP3    H116212   2.922   2.047   2.910 -0.1999 -0.6930  0.3967
 5416TIP3    H216213   2.947   2.083   3.055 -0.3536 -0.4222  0.3558
 5417TIP3   OH216214   5.481   2.517   4.234  0.1273 -0.1755 -0.0445
 5417TIP3    H116215   5.543   2.464   4.185  0.3220  0.7633 -0.8632
 5417TIP3    H216216   5.524   2.602   4.244  0.1325 -0.3766  1.8963
 5418TIP3   OH216217   4.299   4.320   4.446  0.0858  0.0961 -0.0994
 5418TIP3    H116218   4.261   4.319   4.535  1.0805  2.1335  0.4064
 5418TIP3    H216219   4.374   4.260   4.452 -0.5759 -0.7424  0.0582
 5419TIP3   OH216220   6.292   5.455   0.031  0.2439 -0.5103 -0.1851
 5419TIP3    H116221   6.325   5.504  -0.045 -2.2543 -0.6885 -1.4921
 5419TIP3    H216222   6.224   5.510   0.068 -0.6377 -1.7383  0.0826
 5420TIP3   OH216223   3.625   4.607   1.577 -0.1004 -0.0059  0.1227
 5420TIP3    H116224   3.683   4.682   1.564  1.3772 -1.2633 -0.7181
 5420TIP3    H216225   3.651   4.544   1.510 -1.7725 -1.0243  0.3765
 5421TIP3   OH216226   1.801   4.301   2.902 -0.3485  0.2652 -0.3337
 5421TIP3    H116227   1.853   4.237   2.950 -0.6107  0.3550  0.0714
 5421TIP3    H216228   1.743   4.249   2.847 -1.4293  0.1275  0.9099
 5422TIP3   OH216229   2.933   3.347   2.208  0.1886 -0.3559  0.3610
 5422TIP3    H116230   2.949   3.441   2.200  0.7729 -0.3545  1.3854
 5422TIP3    H216231   2.958   3.311   2.123  1.9223  0.1728  0.5992
 5423TIP3   OH216232   4.334   3.513   2.650 -0.2417 -0.5760 -0.6741
 5423TIP3    H116233   4.344   3.580   2.718  1.6818 -0.4371 -1.0405
 5423TIP3    H216234   4.414   3.461   2.655 -0.8992 -1.7326 -1.5996
 5424TIP3   OH216235   1.658   1.111   1.471  0.0227  0.0885  0.3437
 5424TIP3    H116236   1.610   1.190   1.446  1.8811  1.3985  0.7085
 5424TIP3    H216237   1.688   1.074   1.388  0.8387  0.9129  0.2547
 5425TIP3   OH216238   1.815   6.250   4.266 -0.4509 -0.3038  0.5796
 5425TIP3    H116239   1.827   6.260   4.172 -0.3066 -1.8318  0.4080
 5425TIP3    H216240   1.822   6.155   4.281 -1.0997 -0.1464  2.0343
 5426TIP3   OH216241   6.561   3.856   3.762 -0.1497  1.0552 -0.3250
 5426TIP3    H116242   6.606   3.773   3.778  1.1216  1.5908 -0.9968
 5426TIP3    H216243   6.499   3.836   3.692 -0.9298  0.3262  0.5544
 5427TIP3   OH216244   1.723   2.360   4.265  0.1172 -0.1981 -0.2596
 5427TIP3    H116245   1.681   2.446   4.260 -1.1401 -0.6540  1.5237
 5427TIP3    H216246   1.717   2.325   4.176  1.4520  1.8732 -1.2346
 5428TIP3   OH216247   1.261   2.424   4.472 -0.7488 -0.3637  0.2352
 5428TIP3    H116248   1.271   2.406   4.379  1.6615  0.6297  0.2398
 5428TIP3    H216249   1.325   2.492   4.491 -0.3232 -1.3679  2.8522
 5429TIP3   OH216250   0.427   5.621   4.850 -0.2225  0.6854 -0.4341
 5429TIP3    H116251   0.490   5.619   4.779 -1.4859  1.8544 -1.6463
 5429TIP3    H216252   0.415   5.714   4.870 -1.7863  0.5248 -0.4802
 5430TIP3   OH216253   5.260   3.081   3.281 -0.1914  0.5303 -0.1696
 5430TIP3    H116254   5.182   3.033   3.308  1.8420 -1.2060  3.3488
 5430TIP3    H216255   5.243   3.172   3.306 -0.4496 -0.1535  2.3578
 5431TIP3   OH216256   6.953   6.388   2.694 -0.0868 -0.4596  0.0893
 5431TIP3    H116257   6.948   6.470   2.742  0.6404 -0.0939 -0.4251
 5431TIP3    H216258   6.913   6.407   2.609  2.0606  0.0616 -0.8887
 5432TIP3   OH216259   2.746   3.738   1.302  0.1682  0.3117 -0.6218
 5432TIP3    H116260   2.680   3.690   1.353  0.0283  0.1562 -0.9458
 5432TIP3    H216261   2.829   3.700   1.329  0.0009 -0.6761 -1.4713
 5433TIP3   OH216262   2.659   1.788   4.424  0.0859 -0.2963 -0.4795
 5433TIP3    H116263   2.745   1.748   4.434  0.0371 -0.1846  0.4584
 5433TIP3    H216264   2.671   1.878   4.453 -0.0270  0.1279 -1.6815
 5434TIP3   OH216265   0.561   1.413   4.353  0.6014  0.6395 -1.2306
 5434TIP3    H116266   0.603   1.375   4.276  2.6002 -0.2751  0.2271
 5434TIP3    H216267   0.630   1.461   4.398 -0.2513  0.3343  0.5021
 5435TIP3   OH216268   5.217   5.525   3.132 -0.5208 -0.0724 -0.2799
 5435TIP3    H116269   5.210   5.433   3.156 -1.7896 -0.2094 -1.0447
 5435TIP3    H216270   5.129   5.549   3.104 -0.1314  1.2812 -0.4237
 5436TIP3   OH216271   4.138   3.739   5.316  0.0920  0.3171  0.1698
 5436TIP3    H116272   4.045   3.746   5.294  0.3614  0.8565 -0.8686
 5436TIP3    H216273   4.168   3.830   5.322  0.6988  0.1489 -0.1813
 5437TIP3   OH216274   2.011   2.675   0.469  0.1973  0.3971 -0.2493
 5437TIP3    H116275   1.946   2.617   0.509  1.1150 -1.8806 -1.8253
 5437TIP3    H216276   1.969   2.708   0.390  0.5493 -0.2749 -0.7351
 5438TIP3   OH216277   6.094   4.370   0.489 -0.3112  0.2857  0.6046
 5438TIP3    H116278   6.178   4.366   0.444 -1.3867 -0.3692 -1.5193
 5438TIP3    H216279   6.095   4.454   0.535  1.7381 -0.0212  1.2170
 5439TIP3   OH216280   2.832   4.535   2.138  0.0241  0.3729 -0.8061
 5439TIP3    H116281   2.793   4.564   2.055 -0.6706  0.1543 -0.5687
 5439TIP3    H216282   2.915   4.582   2.144 -0.0428  0.5868 -1.5005
 5440TIP3   OH216283   3.881   6.642   4.753 -0.2401 -0.3274 -0.0965
 5440TIP3    H116284   3.871   6.684   4.667  0.8981 -0.3584 -0.2681
 5440TIP3    H216285   3.870   6.549   4.735 -0.0887 -0.3269 -0.2016
 5441TIP3   OH216286   7.146   0.377   0.076 -0.4831 -0.3607 -0.2582
 5441TIP3    H116287   7.096   0.340   0.004  0.1401 -0.2481 -0.7627
 5441TIP3    H216288   7.137   0.472   0.066 -0.6891 -0.3502  0.0235
 5442TIP3   OH216289   3.958   0.361   0.442  0.3703 -0.0269  0.0996
 5442TIP3    H116290   4.006   0.280   0.428  2.2920  0.8253  1.3988
 5442TIP3    H216291   3.866   0.334   0.440  0.9566 -2.4689  1.7116
 5443TIP3   OH216292   1.175   4.122   2.996 -0.0527  0.1079  0.2088
 5443TIP3    H116293   1.108   4.070   2.952 -0.1950  0.8270 -0.4648
 5443TIP3    H216294   1.244   4.060   3.018 -0.3805 -0.4235 -0.2401
 5444TIP3   OH216295   7.092   2.261   5.407 -0.3230 -0.1594 -0.7704
 5444TIP3    H116296   7.016   2.297   5.361 -2.5334 -1.3705  1.6716
 5444TIP3    H216297   7.054   2.205   5.475  2.7919 -0.8263  0.5646
 5445TIP3   OH216298   5.895   5.468   4.700  0.4184  0.3275 -0.4525
 5445TIP3    H116299   5.951   5.480   4.623  0.3674  2.0732 -0.2490
 5445TIP3    H216300   5.806   5.480   4.667  0.2736 -0.5058 -0.3972
 5446TIP3   OH216301   2.032   6.813   1.486  0.1985  0.0987  0.5173
 5446TIP3    H116302   1.961   6.750   1.501  0.7857 -0.6792  0.0720
 5446TIP3    H216303   2.070   6.829   1.572  0.5321 -0.7351  0.5274
 5447TIP3   OH216304   3.704   6.663   3.141  0.3401 -0.1643 -0.6969
 5447TIP3    H116305   3.619   6.673   3.098  0.5566  0.5034 -0.9907
 5447TIP3    H216306   3.711   6.570   3.161 -1.0392 -0.0398  0.5236
 5448TIP3   OH216307   6.237   6.110   2.104 -0.2805 -0.0778  0.2664
 5448TIP3    H116308   6.147   6.081   2.093 -0.4298  0.3993  0.1729
 5448TIP3    H216309   6.284   6.033   2.135  0.0728 -1.3967 -3.1041
 5449TIP3   OH216310   5.134   0.098   0.771 -0.6630  0.0694  0.1478
 5449TIP3    H116311   5.128   0.143   0.687  0.7294 -1.7543 -1.0160
 5449TIP3    H216312   5.218   0.052   0.767 -1.8334 -2.3367  1.3303
 5450TIP3   OH216313   0.984   1.137   2.595 -0.2824  0.2853 -0.1734
 5450TIP3    H116314   0.899   1.094   2.604 -0.2745  0.4346  0.7398
 5450TIP3    H216315   1.002   1.171   2.682  0.4694  0.7210 -0.4955
 5451TIP3   OH216316   2.176   2.632   1.058 -0.0817 -0.0060  0.1062
 5451TIP3    H116317   2.097   2.685   1.054 -0.6418 -0.8382 -0.1756
 5451TIP3    H216318   2.147   2.543   1.038  0.4059 -0.8626  2.6863
 5452TIP3   OH216319   0.694  -0.013   1.173  0.1982  0.3204  0.2646
 5452TIP3    H116320   0.629   0.043   1.216 -1.2243 -1.3058  0.3000
 5452TIP3    H216321   0.664  -0.019   1.082  0.7542  0.1863  0.0875
 5453TIP3   OH216322   5.275   6.512   3.994  0.0325  0.3687 -0.1236
 5453TIP3    H116323   5.240   6.595   3.961 -0.3293  0.6091  0.8331
 5453TIP3    H216324   5.331   6.480   3.923 -0.2753  1.1436 -0.7354
 5454TIP3   OH216325   2.583   4.494   4.897  0.2759  0.2452  0.7655
 5454TIP3    H116326   2.497   4.460   4.872  0.4014  0.1478  0.4663
 5454TIP3    H216327   2.615   4.540   4.820  0.9043 -0.5375  0.5418
 5455TIP3   OH216328   2.287   5.613   3.166 -0.4022  0.4603  0.0271
 5455TIP3    H116329   2.263   5.547   3.230  0.7323  0.4608  0.4783
 5455TIP3    H216330   2.296   5.565   3.084 -0.2364  0.1730  0.2136
 5456TIP3   OH216331   3.107   6.403   2.643  0.0406  0.1294  0.6570
 5456TIP3    H116332   3.122   6.350   2.721 -0.0796 -2.2760 -0.8484
 5456TIP3    H216333   3.191   6.404   2.597 -0.2644  0.2133  0.0801
 5457TIP3   OH216334   3.642   1.415   1.905 -0.1132  0.3988  0.4308
 5457TIP3    H116335   3.571   1.351   1.907  0.8678 -0.7167  1.3446
 5457TIP3    H216336   3.668   1.419   1.813  0.2053 -1.0080  0.4346
 5458TIP3   OH216337   4.367   1.804   5.341 -0.2554  0.0030  0.5341
 5458TIP3    H116338   4.301   1.812   5.273  0.8941 -0.0187 -0.6281
 5458TIP3    H216339   4.362   1.886   5.390 -0.8801  0.1563  0.2173
 5459TIP3   OH216340   1.786   3.475   2.367  0.3507 -0.3721  0.2224
 5459TIP3    H116341   1.850   3.418   2.325  0.7461 -0.3458  0.7742
 5459TIP3    H216342   1.796   3.457   2.461 -2.3350 -2.4348  0.2564
 5460TIP3   OH216343   3.699   6.472   5.165 -0.4361 -0.3584  0.1947
 5460TIP3    H116344   3.692   6.377   5.153  0.0780 -0.3048 -0.5654
 5460TIP3    H216345   3.634   6.509   5.106  0.8057 -0.1724 -1.1163
 5461TIP3   OH216346   0.570   2.612   0.250  0.2467  0.3680  0.6876
 5461TIP3    H116347   0.640   2.586   0.310  1.3360 -0.2494 -0.7562
 5461TIP3    H216348   0.601   2.583   0.164 -1.7980  0.0914 -0.0160
 5462TIP3   OH216349   6.806   0.731   3.141  0.1640  0.0331 -0.0962
 5462TIP3    H116350   6.760   0.663   3.190  0.3314 -1.8166 -2.3115
 5462TIP3    H216351   6.754   0.744   3.062  1.2699  0.9130 -0.7177
 5463TIP3   OH216352   3.139   6.418   3.921 -0.1959 -0.0813  0.0667
 5463TIP3    H116353   3.138   6.415   3.826  0.6019  0.9301  0.0042
 5463TIP3    H216354   3.048   6.403   3.947 -0.5885  0.5404 -0.8947
 5464TIP3   OH216355   4.214   6.621   3.727  0.6203  0.0258  0.6041
 5464TIP3    H116356   4.297   6.667   3.733  0.7903 -0.4256  2.6469
 5464TIP3    H216357   4.238   6.528   3.731  0.1400 -0.1993 -1.1427
 5465TIP3   OH216358   2.179   6.397   2.522 -0.5743  0.0052  0.1764
 5465TIP3    H116359   2.136   6.393   2.437 -1.1622  0.1233  0.4604
 5465TIP3    H216360   2.246   6.464   2.513 -0.1598 -0.4770 -0.4003
 5466TIP3   OH216361   6.912   4.047   3.303  0.2943 -0.1667 -0.1604
 5466TIP3    H116362   6.927   3.953   3.300 -0.0942 -0.2715  0.7808
 5466TIP3    H216363   6.817   4.056   3.299  0.0183 -0.0627  3.4269
 5467TIP3   OH216364   0.017   5.936   4.990  0.0316  0.6924  0.3209
 5467TIP3    H116365   0.057   5.901   5.069 -0.3007 -1.3216 -0.3294
 5467TIP3    H216366   0.089   5.945   4.928 -0.0779 -0.2885  0.0316
 5468TIP3   OH216367   4.063   2.632   0.083  0.1599  0.3008  0.3787
 5468TIP3    H116368   4.079   2.725   0.066  3.1181 -0.0631  0.6836
 5468TIP3    H216369   4.047   2.627   0.177 -1.1696  0.5932  0.1871
 5469TIP3   OH216370   0.647   2.756   2.292  0.0702 -0.0884  0.2342
 5469TIP3    H116371   0.642   2.849   2.317 -0.1499  0.0714 -0.3844
 5469TIP3    H216372   0.737   2.731   2.310  0.3687  0.4876 -0.3975
 5470TIP3   OH216373   0.327   3.822   3.512 -0.0727  0.2600  0.3909
 5470TIP3    H116374   0.292   3.883   3.447  0.2108 -0.2702 -0.2700
 5470TIP3    H216375   0.384   3.875   3.566  1.0589  0.3780 -0.8673
 5471TIP3   OH216376   2.781   3.234   1.116  0.0437 -0.2932  0.1526
 5471TIP3    H116377   2.840   3.307   1.135 -0.2297  0.1743 -0.7065
 5471TIP3    H216378   2.705   3.249   1.171 -0.1087  0.1999 -0.1907
 5472TIP3   OH216379   6.591   0.816   3.561  0.2429 -0.2122  0.2736
 5472TIP3    H116380   6.566   0.835   3.471  0.4975 -1.2773 -0.0395
 5472TIP3    H216381   6.677   0.856   3.572  0.3614 -0.3743 -0.0669
 5473TIP3   OH216382   5.585   6.171   0.606  0.2220 -0.1292  0.6025
 5473TIP3    H116383   5.576   6.128   0.691 -0.6777 -1.8789 -0.3151
 5473TIP3    H216384   5.676   6.157   0.581  0.2727 -0.3612  0.9106
 5474TIP3   OH216385   5.238   4.470   4.852  0.0379 -0.2345 -0.1757
 5474TIP3    H116386   5.154   4.484   4.809 -0.6761 -2.2922  0.4328
 5474TIP3    H216387   5.224   4.501   4.942  0.3681  0.6277 -0.4098
 5475TIP3   OH216388   6.587   1.859   5.708 -0.1562  0.3326 -0.0452
 5475TIP3    H116389   6.651   1.801   5.667  1.9002  3.0903 -1.0829
 5475TIP3    H216390   6.533   1.891   5.636 -0.1207  1.0085  0.2202
 5476TIP3   OH216391   2.461   6.034   4.335 -0.3982 -0.3751  0.3230
 5476TIP3    H116392   2.472   6.041   4.430 -0.7160 -0.7649  0.3954
 5476TIP3    H216393   2.374   5.994   4.325 -0.4262 -0.1983 -0.1345
 5477TIP3   OH216394   6.448   6.810   5.548 -0.2749  0.0662 -0.4825
 5477TIP3    H116395   6.463   6.813   5.642 -1.5227  1.0647 -0.2987
 5477TIP3    H216396   6.513   6.747   5.516 -0.6953 -1.3117  1.2088
 5478TIP3   OH216397   2.757   4.272   0.130  0.1894  0.2810  0.1145
 5478TIP3    H116398   2.681   4.234   0.174 -1.5099  2.6293 -0.5895
 5478TIP3    H216399   2.806   4.316   0.200  0.5879 -0.7060  0.4725
 5479TIP3   OH216400   5.799   3.328   3.375  0.7180 -0.0334  0.7492
 5479TIP3    H116401   5.858   3.403   3.371  0.5499  0.1118  0.9349
 5479TIP3    H216402   5.830   3.269   3.306  1.1002  0.0244  0.8648
 5480TIP3   OH216403   3.763   2.203   1.293 -0.0450  0.2163 -0.2195
 5480TIP3    H116404   3.721   2.288   1.292  1.6790  1.1234 -0.1953
 5480TIP3    H216405   3.852   2.220   1.325 -0.5805 -2.0596  2.8988
 5481TIP3   OH216406   2.012   1.767   4.842  0.5961 -0.5972  0.5474
 5481TIP3    H116407   2.100   1.767   4.807 -0.3213  1.5434 -2.1182
 5481TIP3    H216408   1.994   1.859   4.863 -2.2021 -0.1829 -2.7217
 5482TIP3   OH216409   0.340   4.203   2.067  0.1456 -0.1510 -0.7904
 5482TIP3    H116410   0.306   4.263   2.134  0.4927 -1.8369  0.9836
 5482TIP3    H216411   0.423   4.173   2.103  0.7422 -0.4759 -2.4019
 5483TIP3   OH216412   0.414   4.284   5.599  0.2126  0.5491 -0.1753
 5483TIP3    H116413   0.364   4.205   5.618 -1.5398  0.9506 -2.6420
 5483TIP3    H216414   0.376   4.351   5.657 -2.1514  0.8106 -1.8897
 5484TIP3   OH216415   2.099   2.891   1.971 -0.2861 -0.4130  0.1613
 5484TIP3    H116416   2.057   2.822   1.918  0.8804  0.2512 -1.7174
 5484TIP3    H216417   2.160   2.843   2.028 -0.7968 -1.0635  0.1801
 5485TIP3   OH216418   3.074   0.158   4.357 -0.5783 -0.2587 -0.4015
 5485TIP3    H116419   3.142   0.217   4.322  0.2649 -2.2001 -2.2365
 5485TIP3    H216420   3.113   0.120   4.436 -1.0408  1.3805  0.6673
 5486TIP3   OH216421   5.127   3.632   4.387 -0.0475 -0.0633 -0.1778
 5486TIP3    H116422   5.194   3.568   4.411 -1.3624 -0.7939  1.7822
 5486TIP3    H216423   5.175   3.715   4.380  1.1944 -0.7199  0.2595
 5487TIP3   OH216424   0.584   2.031   4.148  0.3352 -0.5860  0.3786
 5487TIP3    H116425   0.587   1.995   4.060  1.1826 -0.7952  0.4779
 5487TIP3    H216426   0.494   2.018   4.177 -0.0438 -0.1979 -0.5766
 5488TIP3   OH216427   5.127   5.717   1.057 -0.1933  0.3805  0.0107
 5488TIP3    H116428   5.033   5.725   1.041 -0.4228 -0.5142  0.8446
 5488TIP3    H216429   5.136   5.710   1.152  0.6605 -0.0986 -0.0859
 5489TIP3   OH216430   3.813   4.360   0.906 -0.4804 -0.0204  0.4062
 5489TIP3    H116431   3.794   4.346   0.814  2.4680 -1.2501 -0.1345
 5489TIP3    H216432   3.815   4.455   0.916 -0.1581  0.1378 -0.9719
 5490TIP3   OH216433   4.585   5.134   3.816  0.0678  0.4487 -0.1310
 5490TIP3    H116434   4.533   5.135   3.736 -0.2884 -1.8937  0.0189
 5490TIP3    H216435   4.668   5.175   3.790  0.3668 -1.1814 -2.0504
 5491TIP3   OH216436   2.161   2.670   5.090  1.2527  0.2389 -0.5469
 5491TIP3    H116437   2.195   2.619   5.164  0.3540 -0.1627 -0.3905
 5491TIP3    H216438   2.093   2.614   5.052 -1.0221  1.9663  0.7115
 5492TIP3   OH216439   6.067   5.724   5.241  0.1676 -0.3181  0.5956
 5492TIP3    H116440   6.136   5.690   5.299  1.2576  1.0498  0.1465
 5492TIP3    H216441   6.025   5.645   5.206  1.4554 -1.1903  0.9278
 5493TIP3   OH216442   1.222   5.091   4.914 -0.5404 -0.0295  0.5817
 5493TIP3    H116443   1.313   5.059   4.913 -0.4504  0.2255  0.1464
 5493TIP3    H216444   1.177   5.036   4.850 -0.5493  0.2429  0.3505
 5494TIP3   OH216445   4.825   4.557   4.627  0.0338 -0.2722  0.1822
 5494TIP3    H116446   4.917   4.564   4.603  0.3688 -2.3842  0.6130
 5494TIP3    H216447   4.809   4.632   4.684  0.5503  1.9657 -2.4283
 5495TIP3   OH216448   5.307   0.424   2.784 -0.5386 -0.3380 -0.8344
 5495TIP3    H116449   5.322   0.407   2.877  0.2035 -1.4827 -1.1297
 5495TIP3    H216450   5.378   0.483   2.759  0.1497 -1.1822 -0.9624
 5496TIP3   OH216451   2.625   1.209   5.002  0.7166 -0.5449  0.4812
 5496TIP3    H116452   2.717   1.237   5.009  0.0445  1.8950  0.4513
 5496TIP3    H216453   2.590   1.260   4.930 -1.0750 -0.1765  1.5638
 5497TIP3   OH216454   0.656   6.363   1.053  0.0514  0.2637  0.2212
 5497TIP3    H116455   0.613   6.286   1.015  1.8296 -0.0184 -1.3987
 5497TIP3    H216456   0.740   6.330   1.085  0.6269  1.4301 -0.0307
 5498TIP3   OH216457   3.206   0.224   1.353  0.3722 -0.0493  0.3524
 5498TIP3    H116458   3.118   0.213   1.389  0.1843  2.0307  0.6514
 5498TIP3    H216459   3.220   0.319   1.352  2.3222 -0.2957 -0.4081
 5499TIP3   OH216460   3.192   1.971   2.239  0.1808 -0.1131 -0.2320
 5499TIP3    H116461   3.213   1.887   2.280  3.6962  0.8041  0.1722
 5499TIP3    H216462   3.189   1.952   2.145  3.2495 -0.4423 -0.3634
 5500TIP3   OH216463   5.464   3.632   5.295  0.1881  0.4166  0.3303
 5500TIP3    H116464   5.400   3.659   5.361 -1.1738 -1.1526 -0.2594
 5500TIP3    H216465   5.415   3.634   5.213  0.8813 -0.8487 -0.1336
 5501TIP3   OH216466   3.958   5.801   1.893  0.0607 -0.6146 -0.1124
 5501TIP3    H116467   3.870   5.837   1.903 -0.2313 -0.8872 -1.5013
 5501TIP3    H216468   4.000   5.858   1.828  0.9916 -0.3751  0.6695
 5502TIP3   OH216469   0.178   3.544   0.792  0.4553  0.0095  0.3035
 5502TIP3    H116470   0.097   3.538   0.842  0.7767  0.0216  0.8367
 5502TIP3    H216471   0.186   3.460   0.748 -0.8085  0.6612 -1.2801
 5503TIP3   OH216472   5.867   1.290   4.477  0.6885 -0.2776  0.1094
 5503TIP3    H116473   5.925   1.289   4.402 -0.7013  0.0013 -1.0119
 5503TIP3    H216474   5.785   1.327   4.444  0.0962  0.0339  1.8040
 5504TIP3   OH216475   1.087   6.180   3.785 -1.0103 -0.2661  0.2994
 5504TIP3    H116476   1.016   6.135   3.830 -2.5123  1.2290 -0.4598
 5504TIP3    H216477   1.055   6.192   3.695  0.3574  0.1148 -0.1636
 5505TIP3   OH216478   5.635   5.853   0.521 -0.2517  0.0106  0.4376
 5505TIP3    H116479   5.695   5.810   0.459 -0.0969  1.2437 -0.2943
 5505TIP3    H216480   5.554   5.804   0.512 -0.0084 -0.2974 -0.2109
 5506TIP3   OH216481   1.532   0.679   1.925  0.2014  0.3364 -0.4207
 5506TIP3    H116482   1.455   0.682   1.982 -0.5300 -2.8723 -1.0389
 5506TIP3    H216483   1.497   0.650   1.840  1.8788  0.4714 -1.1881
 5507TIP3   OH216484   4.267   2.248   3.954 -0.6445  0.3127 -0.3669
 5507TIP3    H116485   4.239   2.325   3.905  2.1813  0.9770 -1.0863
 5507TIP3    H216486   4.277   2.279   4.044 -0.9113  0.4106 -0.3708
 5508TIP3   OH216487   3.077   0.871   3.262 -0.4193 -0.1403  0.3616
 5508TIP3    H116488   3.034   0.892   3.345  0.4599 -0.5924  0.9469
 5508TIP3    H216489   3.069   0.776   3.255  0.9646 -0.3009  0.7625
 5509TIP3   OH216490   6.552   2.837   4.388 -0.9370  0.1242  0.1053
 5509TIP3    H116491   6.557   2.883   4.305 -2.4812 -0.2204 -0.2090
 5509TIP3    H216492   6.627   2.868   4.438  0.0835  0.2408 -1.4586
 5510TIP3   OH216493   1.218   0.965   4.707 -0.2886 -0.1305  0.4069
 5510TIP3    H116494   1.182   1.039   4.755  0.9592 -0.1419  1.4201
 5510TIP3    H216495   1.304   0.949   4.748  1.1619  0.2741 -2.2314
 5511TIP3   OH216496   6.239   1.036   3.631 -0.1292  0.5029 -0.4830
 5511TIP3    H116497   6.293   0.964   3.597 -0.4600  0.1975 -0.3728
 5511TIP3    H216498   6.168   0.992   3.678 -0.3650  0.9036 -0.4614
 5512TIP3   OH216499   4.543   2.615   5.680  0.5432 -0.1957 -0.1532
 5512TIP3    H116500   4.574   2.664   5.604  0.8621 -2.3259 -1.4968
 5512TIP3    H216501   4.520   2.529   5.644 -0.8577 -0.7375  1.9125
 5513TIP3   OH216502   1.644   6.522   2.618 -0.3562 -0.0124 -0.0644
 5513TIP3    H116503   1.575   6.463   2.648 -0.2065 -0.6924 -0.9786
 5513TIP3    H216504   1.725   6.480   2.647 -0.2591 -0.1605 -0.5357
 5514TIP3   OH216505   6.326   3.791   3.221 -0.6380 -0.8013 -0.3073
 5514TIP3    H116506   6.316   3.710   3.271 -4.2423 -0.4453 -0.1379
 5514TIP3    H216507   6.324   3.861   3.287  1.6634 -0.4770 -0.5120
 5515TIP3   OH216508   2.206   1.613   3.546  0.1863 -0.5937 -0.3983
 5515TIP3    H116509   2.117   1.615   3.581 -0.4993  0.4483 -2.0860
 5515TIP3    H216510   2.262   1.597   3.623 -1.4208 -1.0195  0.7211
 5516TIP3   OH216511   4.128   0.787   5.685 -0.2004  0.3355 -0.0649
 5516TIP3    H116512   4.204   0.840   5.663 -0.3925  0.8528  0.4995
 5516TIP3    H216513   4.116   0.729   5.609  0.3999  0.6500 -0.4019
 5517TIP3   OH216514   3.890   0.402   1.395  0.5210  0.4192 -0.1178
 5517TIP3    H116515   3.882   0.497   1.404 -0.5497  0.2149  1.8771
 5517TIP3    H216516   3.984   0.385   1.393  0.7678  1.4338  1.4037
 5518TIP3   OH216517   1.903   2.156   5.338 -0.2328 -0.6578  0.4072
 5518TIP3    H116518   1.879   2.240   5.378  1.1447  0.2499 -0.5858
 5518TIP3    H216519   1.998   2.150   5.350 -0.1634 -1.5798 -0.4722
 5519TIP3   OH216520   5.734   6.109   5.869 -0.0298  0.1502  0.0386
 5519TIP3    H116521   5.764   6.059   5.945 -0.5338 -0.8071 -0.3765
 5519TIP3    H216522   5.813   6.155   5.838  0.4899 -0.5539  0.3047
 5520TIP3   OH216523   0.632   4.610   1.617 -0.4407  0.3871  0.3215
 5520TIP3    H116524   0.569   4.601   1.689  0.0108 -1.0193  0.5763
 5520TIP3    H216525   0.655   4.703   1.616 -1.3903  0.6471  1.1864
 5521TIP3   OH216526   4.406   6.241   2.862 -0.2507 -0.0032  0.1305
 5521TIP3    H116527   4.483   6.185   2.850 -2.3003 -3.0972  0.0679
 5521TIP3    H216528   4.392   6.282   2.777  1.9375  1.6201  0.4684
 5522TIP3   OH216529   4.058   1.763   3.026  0.1324 -0.2276  0.2008
 5522TIP3    H116530   4.045   1.714   2.945  1.7818  1.3895 -1.1164
 5522TIP3    H216531   4.092   1.698   3.088 -1.9270 -1.6605 -0.0754
 5523TIP3   OH216532   0.653   6.706   3.935 -0.6008 -0.0083  0.2259
 5523TIP3    H116533   0.746   6.702   3.956 -0.4916 -2.5674 -0.3236
 5523TIP3    H216534   0.636   6.798   3.916  2.6825  0.1619 -3.2842
 5524TIP3   OH216535   6.649   5.068   5.204  0.4531 -0.8166  0.0782
 5524TIP3    H116536   6.567   5.117   5.198  0.8480 -0.0974  0.4835
 5524TIP3    H216537   6.703   5.102   5.132  0.3261 -1.4331 -0.3150
 5525TIP3   OH216538   2.732   4.157   3.602 -0.5271 -0.2588 -0.1071
 5525TIP3    H116539   2.683   4.167   3.521 -0.7186 -1.4436 -0.1458
 5525TIP3    H216540   2.712   4.069   3.633  2.1358 -1.1286 -0.5364
 5526TIP3   OH216541   4.863   0.834   4.807  0.5687  0.3820  0.1211
 5526TIP3    H116542   4.785   0.871   4.765 -0.8047 -0.2842  1.9290
 5526TIP3    H216543   4.891   0.901   4.869  1.0840  0.3837 -0.1134
 5527TIP3   OH216544   5.558   1.084   4.917  0.8888 -0.3532  0.0420
 5527TIP3    H116545   5.611   1.101   4.839  0.6505  0.2031 -0.0028
 5527TIP3    H216546   5.469   1.069   4.883  0.5804  0.8765  0.2655
 5528TIP3   OH216547   5.896   4.292   1.007 -0.3312 -0.0877  0.8358
 5528TIP3    H116548   5.905   4.213   0.953  2.8460  0.4553  0.3988
 5528TIP3    H216549   5.846   4.353   0.953 -1.7341 -1.3296  0.6755
 5529TIP3   OH216550   6.324   0.240   2.682  0.0495 -0.0362 -0.2235
 5529TIP3    H116551   6.306   0.189   2.761 -0.0828 -1.2859 -1.0397
 5529TIP3    H216552   6.407   0.285   2.701 -0.1108 -0.1120  0.7115
 5530TIP3   OH216553   5.999   1.865   2.365 -0.6148 -0.8933 -0.2229
 5530TIP3    H116554   5.970   1.825   2.446 -2.7858 -0.9461 -0.9572
 5530TIP3    H216555   5.949   1.947   2.359  1.1516  0.2321 -0.4607
 5531TIP3   OH216556   2.545   5.069   3.531  0.6477  0.0810 -0.1348
 5531TIP3    H116557   2.509   5.088   3.618 -2.4135 -0.2890 -1.1846
 5531TIP3    H216558   2.478   5.101   3.470  1.4323 -2.0680 -2.2737
 5532TIP3   OH216559   3.558   4.076   2.063  0.3439  0.6642 -0.2425
 5532TIP3    H116560   3.530   4.139   2.129 -0.5790  1.0887 -1.0121
 5532TIP3    H216561   3.477   4.044   2.024  0.5994 -2.9053  1.7697
 5533TIP3   OH216562   6.464   1.460   3.702 -0.3082  0.0679  0.0917
 5533TIP3    H116563   6.388   1.402   3.698 -0.1629 -0.1555  0.5190
 5533TIP3    H216564   6.436   1.538   3.655 -0.5200 -0.3272 -0.4451
 5534TIP3   OH216565   4.270   2.079   4.320  0.3900  0.4848 -0.1163
 5534TIP3    H116566   4.358   2.039   4.316 -0.6302 -2.2284  1.6199
 5534TIP3    H216567   4.211   2.008   4.295 -1.5476  0.9421  2.7270
 5535TIP3   OH216568   4.070   2.757   2.311  0.0247  0.0229 -0.1803
 5535TIP3    H116569   4.046   2.849   2.305 -1.3767 -0.3886 -1.7129
 5535TIP3    H216570   4.069   2.738   2.405 -0.9568  1.2691  0.0885
 5536TIP3   OH216571   1.655   6.189   2.789  0.4212  0.2686  0.1824
 5536TIP3    H116572   1.742   6.183   2.829 -0.1286 -0.1574  1.3694
 5536TIP3    H216573   1.594   6.187   2.864 -0.6233  0.1707 -0.6473
 5537TIP3   OH216574   3.383   6.474   0.526 -0.0424 -0.5311 -0.0026
 5537TIP3    H116575   3.358   6.563   0.502 -0.5774 -0.6704  0.0158
 5537TIP3    H216576   3.330   6.418   0.469  1.4688 -0.8421 -1.1718
 5538TIP3   OH216577   5.756   0.826   3.862  0.0511  0.1740  0.1595
 5538TIP3    H116578   5.772   0.884   3.788 -1.0217  0.4639  0.1416
 5538TIP3    H216579   5.753   0.885   3.938  1.2471 -0.1294  0.4691
 5539TIP3   OH216580   6.161   4.441   2.694 -0.6593 -0.5683 -0.1274
 5539TIP3    H116581   6.253   4.462   2.676 -0.7357 -0.9427 -1.0375
 5539TIP3    H216582   6.116   4.462   2.612 -1.3440 -0.6125  0.2379
 5540TIP3   OH216583   5.221   5.678   5.756  0.5100  0.0919 -0.1802
 5540TIP3    H116584   5.146   5.672   5.816  0.0876  1.2409 -0.5774
 5540TIP3    H216585   5.261   5.591   5.760 -1.7919 -1.1148 -1.2057
 5541TIP3   OH216586   1.617   6.490   3.846 -0.0046  0.0853  0.5627
 5541TIP3    H116587   1.597   6.424   3.912  0.9467 -1.3051 -0.4698
 5541TIP3    H216588   1.679   6.447   3.788 -2.8239  0.1669 -2.8809
 5542TIP3   OH216589   4.766   3.510   2.420  0.5556  0.6988  0.2050
 5542TIP3    H116590   4.822   3.544   2.489  0.1467 -0.8835  1.3843
 5542TIP3    H216591   4.787   3.417   2.416 -0.0702  0.5895 -1.2033
 5543TIP3   OH216592   1.085   6.195   5.746 -0.5817  0.6406 -0.3686
 5543TIP3    H116593   1.179   6.202   5.728 -0.0243  0.8061  2.1379
 5543TIP3    H216594   1.059   6.112   5.707  0.9527 -0.1082  0.1042
 5544TIP3   OH216595   2.420   0.229   5.654 -0.0124  0.1603  0.0063
 5544TIP3    H116596   2.496   0.243   5.710  0.1748  0.9950 -0.4252
 5544TIP3    H216597   2.457   0.214   5.567 -0.2811 -1.6397  0.1769
 5545TIP3   OH216598   6.415   0.653   5.696  0.1167  0.3547  0.1334
 5545TIP3    H116599   6.391   0.666   5.605 -0.4477  0.4986  0.2985
 5545TIP3    H216600   6.511   0.650   5.696  0.1369  0.9968 -0.3718
 5546TIP3   OH216601   4.795   5.776   0.393  0.6658 -0.0246  0.1534
 5546TIP3    H116602   4.814   5.857   0.347  1.6422 -0.7474 -0.7668
 5546TIP3    H216603   4.734   5.801   0.463  1.6928  1.6480  0.4849
 5547TIP3   OH216604   2.236   2.418   3.354  1.1953 -0.2737 -0.3787
 5547TIP3    H116605   2.281   2.428   3.437  0.0130  0.5990  0.1930
 5547TIP3    H216606   2.177   2.343   3.367 -0.9636  1.4704  0.5648
 5548TIP3   OH216607   1.000   1.372   3.704 -0.1008 -0.0002  0.4361
 5548TIP3    H116608   0.936   1.442   3.695 -1.9126 -1.3866  1.7867
 5548TIP3    H216609   0.994   1.323   3.622 -1.2574 -0.4654  0.7797
 5549TIP3   OH216610   2.521   2.447   1.164  0.1674  0.2881 -0.7417
 5549TIP3    H116611   2.446   2.395   1.137  1.3078 -1.5425 -0.5347
 5549TIP3    H216612   2.578   2.450   1.087  0.7970 -0.0635 -0.3027
 5550TIP3   OH216613   2.551   5.171   3.232 -0.2110 -0.1952 -0.4402
 5550TIP3    H116614   2.495   5.197   3.159 -1.8067 -1.5052  0.2656
 5550TIP3    H216615   2.499   5.108   3.281  1.2184 -0.1132  1.2701
 5551TIP3   OH216616   5.970   4.453   1.195  0.5642  0.5648 -0.5844
 5551TIP3    H116617   6.045   4.410   1.235 -0.2233 -0.7322 -0.4655
 5551TIP3    H216618   5.916   4.382   1.162 -1.1010  1.4042  0.2040
 5552TIP3   OH216619   7.158   5.470   3.127  0.7257  0.7472 -0.1243
 5552TIP3    H116620   7.241   5.478   3.080  0.4695  1.1498 -0.5256
 5552TIP3    H216621   7.176   5.504   3.215  0.8769  1.2554 -0.3454
 5553TIP3   OH216622   1.760   0.936   3.277 -0.3230  0.0957  0.2695
 5553TIP3    H116623   1.762   0.926   3.181  1.2075 -0.5938  0.3404
 5553TIP3    H216624   1.847   0.969   3.299  0.5266 -2.7471  1.6753
 5554TIP3   OH216625   2.589   3.632   5.166  0.2185  0.3541  0.0499
 5554TIP3    H116626   2.536   3.704   5.131 -1.8822 -0.5846  1.0857
 5554TIP3    H216627   2.556   3.619   5.255  1.1494 -1.2954  0.1987
 5555TIP3   OH216628   1.411   0.894   2.739  0.3936  0.3955 -0.0585
 5555TIP3    H116629   1.345   0.893   2.669 -0.1576  0.3802  0.4487
 5555TIP3    H216630   1.493   0.916   2.695  0.0593  0.3645 -0.7114
 5556TIP3   OH216631   6.262   2.443   5.892 -0.1221 -0.4162 -0.6909
 5556TIP3    H116632   6.325   2.390   5.843 -1.7906 -2.0941 -1.1723
 5556TIP3    H216633   6.295   2.532   5.886  3.1780 -1.3936  0.6540
 5557TIP3   OH216634   0.143   3.596   3.758 -0.0746  0.5800  0.2068
 5557TIP3    H116635   0.200   3.628   3.829  0.2249 -1.6641  1.0565
 5557TIP3    H216636   0.062   3.646   3.768  0.4847  1.3320  1.2086
 5558TIP3   OH216637   1.269   5.047   1.851  0.4189  0.0898  0.1709
 5558TIP3    H116638   1.359   5.076   1.867  0.5437 -1.1453  2.0003
 5558TIP3    H216639   1.216   5.093   1.916 -0.0786 -0.1853 -0.0295
 5559TIP3   OH216640   6.327   0.505   2.523  0.2047  0.1409 -0.1817
 5559TIP3    H116641   6.261   0.477   2.459 -0.0186  0.4053 -0.0676
 5559TIP3    H216642   6.352   0.424   2.568  2.6953 -0.6807 -2.7096
 5560TIP3   OH216643   0.384   3.074   1.437  0.3868  0.1750 -0.2316
 5560TIP3    H116644   0.327   2.998   1.445 -0.1624  0.7668  2.4796
 5560TIP3    H216645   0.462   3.041   1.392 -1.0668 -1.1886 -1.9300
 5561TIP3   OH216646   3.517   0.270   5.768  0.7392  0.1212 -0.4893
 5561TIP3    H116647   3.562   0.302   5.847 -0.8249 -0.8840  0.8730
 5561TIP3    H216648   3.564   0.190   5.746  1.7566  0.8727 -1.1679
 5562TIP3   OH216649   0.366   3.347   4.260  0.3393  0.2035  0.2966
 5562TIP3    H116650   0.287   3.298   4.281  0.1991  0.9012  1.4731
 5562TIP3    H216651   0.347   3.436   4.288  1.2601  0.5419 -0.1265
 5563TIP3   OH216652   3.998   1.185   1.683  0.3889  0.0246  0.0471
 5563TIP3    H116653   4.003   1.094   1.712  1.0419  0.3496  1.0323
 5563TIP3    H216654   3.977   1.180   1.590 -1.1752 -1.0974  0.4255
 5564TIP3   OH216655   2.087   0.914   0.620 -0.0172 -0.4231  0.1436
 5564TIP3    H116656   2.067   0.821   0.630 -1.6948 -0.0712  0.2555
 5564TIP3    H216657   2.130   0.920   0.535 -1.3236 -1.0890 -0.5779
 5565TIP3   OH216658   5.300   6.528   5.588  0.3059 -0.1001  0.4878
 5565TIP3    H116659   5.284   6.549   5.496  1.2817  0.3187  0.4078
 5565TIP3    H216660   5.336   6.440   5.586  0.0744 -0.1962  0.4965
 5566TIP3   OH216661   4.005   1.757   3.753  0.1426  0.4492 -0.2308
 5566TIP3    H116662   4.100   1.752   3.737  0.2763  0.8210  0.3856
 5566TIP3    H216663   3.995   1.727   3.843 -0.3253  0.4323 -0.2870
 5567TIP3   OH216664   4.358   6.352   4.014 -0.3241 -0.0651  0.4641
 5567TIP3    H116665   4.430   6.366   3.952 -0.3161  0.3048  0.5570
 5567TIP3    H216666   4.360   6.258   4.031  0.9951  0.1159  1.4980
 5568TIP3   OH216667   5.941   4.941   1.262 -0.4016 -0.7501 -0.5748
 5568TIP3    H116668   6.017   4.951   1.205  0.7906 -1.3792  0.8404
 5568TIP3    H216669   5.950   4.854   1.300 -1.3167 -0.4705  0.3423
 5569TIP3   OH216670   0.045   5.092   1.612 -0.6613  0.0627 -0.3494
 5569TIP3    H116671   0.082   5.117   1.527 -0.2171  0.1461 -0.1362
 5569TIP3    H216672   0.122   5.077   1.667 -0.9481  0.4894  0.1774
 5570TIP3   OH216673   1.286   3.718   0.918 -0.0622  0.5305  0.2171
 5570TIP3    H116674   1.281   3.664   0.997  1.0096 -1.9757 -1.3271
 5570TIP3    H216675   1.200   3.709   0.877 -0.3434  1.1818  0.6294
 5571TIP3   OH216676   4.523   0.593   2.392  0.0841  0.2285  0.1411
 5571TIP3    H116677   4.458   0.528   2.417  0.4723 -0.3936 -0.4341
 5571TIP3    H216678   4.514   0.663   2.458 -1.3336  0.2904 -0.0961
 5572TIP3   OH216679   3.239   6.591   0.193  0.0243 -0.7691 -0.4174
 5572TIP3    H116680   3.166   6.599   0.130 -0.4563 -0.8401  0.1264
 5572TIP3    H216681   3.204   6.624   0.275  0.3952 -1.4381  0.0204
 5573TIP3   OH216682   4.095   4.232   4.032  0.0338 -1.0584  0.7124
 5573TIP3    H116683   4.181   4.274   4.035 -0.4015  0.1896 -1.4130
 5573TIP3    H216684   4.065   4.231   4.123  1.7550 -0.3775  1.3319
 5574TIP3   OH216685   3.331   5.533   1.604 -0.4345  0.2171 -0.4445
 5574TIP3    H116686   3.335   5.461   1.540 -1.8618 -1.3251  1.0759
 5574TIP3    H216687   3.279   5.497   1.676  2.2119  1.3552  2.2264
 5575TIP3   OH216688   0.366   0.086   3.143  0.3369  0.4091 -0.5437
 5575TIP3    H116689   0.291   0.095   3.202  0.5415 -1.6579  0.0841
 5575TIP3    H216690   0.443   0.097   3.199  0.5199 -0.6453 -0.5647
 5576TIP3   OH216691   6.267   2.206   0.085 -0.7827  0.1953 -0.9810
 5576TIP3    H116692   6.348   2.225   0.038  0.4282  0.7342  1.1726
 5576TIP3    H216693   6.212   2.282   0.069 -0.5520  0.1976 -1.8023
 5577TIP3   OH216694   2.764   1.796   4.914  0.4372  0.7164  0.3682
 5577TIP3    H116695   2.822   1.829   4.983  2.1958  0.0140 -0.6953
 5577TIP3    H216696   2.677   1.798   4.953  1.1561  1.7943  2.0608
 5578TIP3   OH216697   7.149   3.178   2.151 -0.0290  0.7565  0.0860
 5578TIP3    H116698   7.068   3.140   2.119  0.8931 -2.3588  1.0992
 5578TIP3    H216699   7.202   3.103   2.179  2.0596  2.8063  2.1408
 5579TIP3   OH216700   3.408   3.530   1.760 -0.3091 -0.6359 -0.7898
 5579TIP3    H116701   3.351   3.489   1.825  0.0187  0.2241  0.0745
 5579TIP3    H216702   3.427   3.616   1.797 -0.1873 -0.0845 -2.0856
 5580TIP3   OH216703   4.949   5.431   5.681 -0.1799  0.4287 -0.0202
 5580TIP3    H116704   5.003   5.352   5.678  0.1062  0.5583  1.1676
 5580TIP3    H216705   4.978   5.476   5.760 -1.6417  0.7845  0.3300
 5581TIP3   OH216706   4.663   4.077   3.485 -0.2187 -0.7020 -0.5740
 5581TIP3    H116707   4.655   4.170   3.506  2.1572 -0.4186 -0.6477
 5581TIP3    H216708   4.629   4.032   3.561 -0.5957  0.2448 -0.1674
 5582TIP3   OH216709   3.945   0.554   1.081 -0.0347 -0.3690 -0.0701
 5582TIP3    H116710   3.934   0.571   1.174 -0.8249  0.9576 -0.3823
 5582TIP3    H216711   4.029   0.594   1.059 -0.4481  0.4716 -0.1686
 5583TIP3   OH216712   2.856   5.612   3.117  0.0661 -0.0146  0.2917
 5583TIP3    H116713   2.917   5.546   3.083  0.5045 -0.1785  1.3456
 5583TIP3    H216714   2.910   5.690   3.131 -0.3850  0.4798 -0.6380
 5584TIP3   OH216715   6.474   4.898   3.635 -0.2936 -0.1288  0.1621
 5584TIP3    H116716   6.422   4.959   3.582 -0.1542  0.8912  1.1495
 5584TIP3    H216717   6.424   4.887   3.716  0.7234  0.4366  0.9059
 5585TIP3   OH216718   4.207   6.044   2.686  0.2145 -0.1815 -0.3765
 5585TIP3    H116719   4.166   5.958   2.695 -0.0075 -0.1191 -0.7892
 5585TIP3    H216720   4.272   6.046   2.756  0.3703 -0.7724 -0.4922
 5586TIP3   OH216721   7.092   2.798   0.769 -0.1921 -0.0435 -0.6087
 5586TIP3    H116722   7.082   2.866   0.836  2.4096  0.0178 -0.1736
 5586TIP3    H216723   7.120   2.721   0.817  1.2307 -0.1387 -1.5479
 5587TIP3   OH216724   6.460   2.097   2.317  0.4192  0.0405  0.1997
 5587TIP3    H116725   6.432   2.089   2.408  0.3885 -1.1423  0.1023
 5587TIP3    H216726   6.412   2.028   2.271  0.6801  0.4146 -0.6496
 5588TIP3   OH216727   7.212   3.724   3.299 -0.3370 -0.2417  0.0967
 5588TIP3    H116728   7.149   3.671   3.250 -0.1357 -1.5035  1.1557
 5588TIP3    H216729   7.229   3.674   3.379 -1.4130  2.1847  1.9857
 5589TIP3   OH216730   0.543   2.567   5.564 -0.0269  0.3356  0.0242
 5589TIP3    H116731   0.522   2.504   5.632 -2.5619  0.5365 -0.4983
 5589TIP3    H216732   0.549   2.516   5.484 -0.9400  0.5811 -0.2122
 5590TIP3   OH216733   5.242   2.268   4.827 -0.2229 -0.6155  0.0186
 5590TIP3    H116734   5.248   2.273   4.923 -0.4446  0.0141  0.0057
 5590TIP3    H216735   5.198   2.349   4.802  2.1792  0.5287 -0.8271
 5591TIP3   OH216736   1.627   1.300   0.778  0.5594 -0.1062 -0.1018
 5591TIP3    H116737   1.618   1.210   0.745  0.1387 -0.1505  0.1198
 5591TIP3    H216738   1.608   1.293   0.872 -0.2929  0.3360 -0.2307
 5592TIP3   OH216739   3.569   4.078   1.013  0.1990  0.3253  0.1797
 5592TIP3    H116740   3.475   4.072   1.028  0.2070  0.0854  0.1334
 5592TIP3    H216741   3.578   4.075   0.918  0.4168 -2.1521  0.2332
 5593TIP3   OH216742   0.893   0.224   5.201 -0.1861  0.0524 -0.6011
 5593TIP3    H116743   0.806   0.264   5.209 -0.3720 -0.4176 -0.2006
 5593TIP3    H216744   0.886   0.167   5.124  0.0737  0.7596 -1.1611
 5594TIP3   OH216745   4.950   0.632   0.287  0.0524  0.3027 -0.2503
 5594TIP3    H116746   4.995   0.687   0.350  1.9402 -1.3724 -0.0291
 5594TIP3    H216747   4.921   0.692   0.218  1.1909  1.6615  0.4211
 5595TIP3   OH216748   3.589   4.926   4.879  0.4347 -0.0643  0.4466
 5595TIP3    H116749   3.502   4.909   4.916  0.3402  0.9495  0.7017
 5595TIP3    H216750   3.636   4.843   4.890 -0.0008 -0.1568  1.6988
 5596TIP3   OH216751   4.296   2.784   3.308  0.0897  0.5319  0.9230
 5596TIP3    H116752   4.257   2.697   3.317 -0.0920  0.5998  0.7983
 5596TIP3    H216753   4.242   2.840   3.363  1.6236  0.1434  2.9416
 5597TIP3   OH216754   0.665   1.782   1.994  0.4200 -0.7283  0.7388
 5597TIP3    H116755   0.597   1.727   2.033  0.4580  0.2019  2.1794
 5597TIP3    H216756   0.747   1.734   2.012  0.0880 -3.2033 -3.2860
 5598TIP3   OH216757   3.585   0.283   1.992  0.3778 -0.0388 -0.1283
 5598TIP3    H116758   3.493   0.309   1.994 -0.1665 -1.8710 -0.4569
 5598TIP3    H216759   3.625   0.343   1.928 -0.5198  0.8754  0.1372
 5599TIP3   OH216760   6.060   2.163   2.515 -0.1662  0.1065 -0.2372
 5599TIP3    H116761   6.049   2.154   2.420 -1.4991  0.6484 -0.1540
 5599TIP3    H216762   5.980   2.125   2.552  0.8225 -1.1189  0.7466
 5600TIP3   OH216763   3.143   5.460   5.262  0.2625  0.4670 -0.4826
 5600TIP3    H116764   3.167   5.446   5.170 -0.4076 -0.8110 -0.4943
 5600TIP3    H216765   3.105   5.547   5.264  0.1070  0.4346 -1.4697
 5601TIP3   OH216766   2.177   5.929   3.506 -0.0568 -0.2654 -0.3160
 5601TIP3    H116767   2.188   5.915   3.412 -0.1108 -0.6905 -0.2597
 5601TIP3    H216768   2.226   6.009   3.524  0.4389 -0.5011 -0.6006
 5602TIP3   OH216769   6.957   1.148   2.120 -0.4939 -0.2482 -0.5643
 5602TIP3    H116770   7.039   1.187   2.087 -0.3434  0.1467  0.2418
 5602TIP3    H216771   6.943   1.192   2.204 -0.9149 -1.1660 -0.1516
 5603TIP3   OH216772   6.682   6.125   5.691  0.1011  0.6587 -0.4101
 5603TIP3    H116773   6.727   6.060   5.636 -0.6914 -1.4709  1.2836
 5603TIP3    H216774   6.702   6.209   5.650  1.3544 -0.6105 -2.6367
 5604TIP3   OH216775   6.527   1.915   1.511  0.2269  0.2653 -0.3783
 5604TIP3    H116776   6.491   1.895   1.598 -0.6263 -0.1951 -0.8250
 5604TIP3    H216777   6.575   1.996   1.524  0.4092  0.0230  0.6041
 5605TIP3   OH216778   0.585   5.419   3.773 -0.1071  0.2200 -0.3940
 5605TIP3    H116779   0.584   5.405   3.868 -1.8530  0.8506 -0.2841
 5605TIP3    H216780   0.506   5.375   3.742  0.2141  0.4090 -1.4994
 5606TIP3   OH216781   4.068   6.781   4.100 -0.3515  0.1516 -0.3676
 5606TIP3    H116782   4.149   6.747   4.061 -1.2311 -0.3578 -1.7973
 5606TIP3    H216783   4.098   6.846   4.164  1.2133 -0.6044 -0.2872
 5607TIP3   OH216784   4.260   4.980   0.923  0.5358  0.6090  0.2281
 5607TIP3    H116785   4.224   4.905   0.969 -0.2692 -0.8675 -2.5809
 5607TIP3    H216786   4.197   5.050   0.937 -0.9007 -0.4911 -0.5094
 5608TIP3   OH216787   2.648   0.136   3.958 -0.2905  0.2193  0.0241
 5608TIP3    H116788   2.638   0.219   4.006  1.8600  0.7223 -0.2934
 5608TIP3    H216789   2.672   0.072   4.026 -3.9787 -0.7819  0.6417
 5609TIP3   OH216790   3.167   4.150   5.776  0.1188  0.2530  0.4174
 5609TIP3    H116791   3.109   4.099   5.719  0.0329  1.4591 -0.6164
 5609TIP3    H216792   3.122   4.151   5.861 -0.6265 -0.0954  0.0386
 5610TIP3   OH216793   0.935   2.877   4.685 -0.4493  0.2907  0.3028
 5610TIP3    H116794   0.993   2.807   4.715 -1.2468  0.3169  2.0066
 5610TIP3    H216795   0.879   2.835   4.620 -0.4487 -0.4759  0.7824
 5611TIP3   OH216796   0.855   3.761   3.025  0.4819  0.3004 -0.2337
 5611TIP3    H116797   0.882   3.783   3.114 -1.6833  1.6002  0.1877
 5611TIP3    H216798   0.796   3.832   3.000  1.1531  0.0337 -2.7998
 5612TIP3   OH216799   6.928   3.928   5.750  0.1796 -0.3709  1.1731
 5612TIP3    H116800   6.889   4.009   5.717  1.0173 -0.5121 -0.2380
 5612TIP3    H216801   6.855   3.882   5.793 -0.4668  0.7930  1.3439
 5613TIP3   OH216802   4.114   3.866   3.135 -0.3004  0.3293 -0.3027
 5613TIP3    H116803   4.136   3.825   3.051  0.1442 -0.0473 -0.0020
 5613TIP3    H216804   4.194   3.861   3.186 -0.0320  2.1262 -0.4666
 5614TIP3   OH216805   3.439   0.605   5.406 -0.0658  0.0792 -0.9589
 5614TIP3    H116806   3.501   0.549   5.452 -0.0299 -0.7602 -1.9776
 5614TIP3    H216807   3.404   0.664   5.473  3.2868  1.9834 -0.6420
 5615TIP3   OH216808   0.111   3.060   4.494 -0.0900 -0.2323  0.0046
 5615TIP3    H116809   0.051   3.010   4.550  0.5340 -0.0756  0.8285
 5615TIP3    H216810   0.195   3.058   4.541  0.6721 -0.8006 -1.3229
 5616TIP3   OH216811   6.489   4.730   4.541 -0.4492  0.0617 -0.1132
 5616TIP3    H116812   6.491   4.710   4.634  1.0500 -0.3474 -0.2047
 5616TIP3    H216813   6.574   4.769   4.523  0.6482 -2.8144 -1.8970
 5617TIP3   OH216814   0.684   5.704   5.342  0.0768  0.2917 -0.2628
 5617TIP3    H116815   0.672   5.609   5.345  0.3055  0.2810  0.4821
 5617TIP3    H216816   0.731   5.725   5.423 -1.7493  1.2990  0.5982
 5618TIP3   OH216817   2.339   5.757   0.679 -0.3143 -0.1419  0.2823
 5618TIP3    H116818   2.251   5.719   0.683 -0.4828  0.3072  1.2218
 5618TIP3    H216819   2.390   5.695   0.627 -1.5891  0.4218 -1.7596
 5619TIP3   OH216820   5.500   3.260   3.511  0.0452  0.4563 -0.5295
 5619TIP3    H116821   5.416   3.304   3.496 -0.0295  1.3319  1.9624
 5619TIP3    H216822   5.553   3.283   3.435 -1.6781  0.5680 -1.7536
 5620TIP3   OH216823   1.448   0.583   1.687  0.1174 -0.2389 -0.4839
 5620TIP3    H116824   1.465   0.494   1.718 -0.3845 -0.0044  0.5331
 5620TIP3    H216825   1.416   0.572   1.598 -0.3834 -1.1189 -0.2080
 5621TIP3   OH216826   4.509   6.236   5.127  0.3318 -0.3056 -0.0621
 5621TIP3    H116827   4.454   6.214   5.202 -0.1084  1.1205  0.0764
 5621TIP3    H216828   4.478   6.180   5.056  0.0160 -0.8950  0.5351
 5622TIP3   OH216829   1.992   3.588   1.394 -0.1505 -0.0930 -0.1306
 5622TIP3    H116830   2.034   3.549   1.318  1.3474 -0.9311  1.0753
 5622TIP3    H216831   1.948   3.515   1.439  0.1886  0.1175  0.5644
 5623TIP3   OH216832   2.807   0.009   0.559 -0.6713 -0.5915 -0.5836
 5623TIP3    H116833   2.892  -0.035   0.554 -0.0248  0.4633  0.3283
 5623TIP3    H216834   2.786   0.032   0.469  0.1423 -0.6577 -0.7986
 5624TIP3   OH216835   2.577   2.526   0.150 -0.4021  0.1734  0.1094
 5624TIP3    H116836   2.626   2.565   0.078 -1.4728 -3.0979 -2.6586
 5624TIP3    H216837   2.488   2.561   0.142 -0.5095 -0.1523 -0.1225
 5625TIP3   OH216838   6.064   0.778   2.995  0.5027  0.4608 -0.0046
 5625TIP3    H116839   6.043   0.742   3.081  0.2399 -0.4164 -0.4261
 5625TIP3    H216840   6.132   0.844   3.013 -0.2636  1.0109  0.9817
 5626TIP3   OH216841   5.914   6.787   0.972 -0.1034 -0.2953  0.2694
 5626TIP3    H116842   5.948   6.712   0.923  0.7961  0.7928 -0.8335
 5626TIP3    H216843   5.855   6.831   0.911  2.4837  2.1672 -0.6953
 5627TIP3   OH216844   3.288   6.105   4.982 -0.6549  0.5446 -0.2222
 5627TIP3    H116845   3.363   6.064   4.939 -0.9133  0.4242 -0.5694
 5627TIP3    H216846   3.325   6.148   5.059 -0.1927  0.7017 -0.5248
 5628TIP3   OH216847   6.047   0.475   3.903 -0.2110 -0.4617  0.2686
 5628TIP3    H116848   6.028   0.456   3.811  0.5989  1.4712 -0.3498
 5628TIP3    H216849   6.141   0.460   3.912 -0.0285  0.6753  0.4066
 5629TIP3   OH216850   4.049   3.280   2.155 -0.6097  0.5281  0.6717
 5629TIP3    H116851   3.985   3.290   2.085  0.4632 -0.9491 -0.6321
 5629TIP3    H216852   4.111   3.351   2.141 -1.2022  1.1197  1.0521
 5630TIP3   OH216853   3.168   2.503   5.265 -0.0768 -0.1649 -0.1313
 5630TIP3    H116854   3.100   2.570   5.265 -1.2986 -1.3353  1.1518
 5630TIP3    H216855   3.228   2.530   5.335  0.7125  0.7502 -1.1185
 5631TIP3   OH216856   2.167   0.398   4.033 -0.6488 -0.0126  0.1908
 5631TIP3    H116857   2.078   0.397   3.998 -0.3632 -0.5180 -0.5372
 5631TIP3    H216858   2.223   0.384   3.956  0.0180 -0.4930  0.7583
 5632TIP3   OH216859   0.655   0.522   1.527  0.7972 -0.4144 -0.3204
 5632TIP3    H116860   0.718   0.482   1.467  0.8936 -1.2278  0.3104
 5632TIP3    H216861   0.632   0.605   1.485 -1.3293 -2.1594 -3.0006
 5633TIP3   OH216862   1.606   0.741   0.690 -0.4382 -0.2813  0.2871
 5633TIP3    H116863   1.540   0.714   0.754 -0.4469  1.4490  1.0571
 5633TIP3    H216864   1.688   0.739   0.738 -0.3006  0.0282  0.0683
 5634TIP3   OH216865   3.638   6.046   0.825 -0.2939 -0.0005 -0.0757
 5634TIP3    H116866   3.636   6.088   0.911 -0.6735 -3.1925  1.6232
 5634TIP3    H216867   3.624   6.118   0.763 -1.3346  2.2710  2.5725
 5635TIP3   OH216868   0.999   4.556   5.258  0.7364  0.1229  0.3963
 5635TIP3    H116869   1.063   4.512   5.313 -1.5754 -1.9162  1.6610
 5635TIP3    H216870   1.017   4.524   5.169  0.1876 -2.1906  1.0508
 5636TIP3   OH216871   4.013   0.225   4.078  0.9023  0.3532  0.5463
 5636TIP3    H116872   4.036   0.277   4.155  1.2601 -0.2232  0.8359
 5636TIP3    H216873   3.918   0.215   4.084  0.5357  2.5600 -0.5378
 5637TIP3   OH216874   2.501   2.774   2.369 -0.0139  0.2896  0.1462
 5637TIP3    H116875   2.450   2.798   2.446 -1.6959 -1.4492 -0.3520
 5637TIP3    H216876   2.503   2.678   2.369 -0.8309  0.1795 -2.4024
 5638TIP3   OH216877   1.691   0.265   1.662  0.4388  0.1446  0.1196
 5638TIP3    H116878   1.739   0.344   1.638 -0.7392  0.7051 -0.5349
 5638TIP3    H216879   1.615   0.266   1.604 -1.5347  0.4965  2.5275
 5639TIP3   OH216880   1.002   2.496   0.088 -0.4087  0.2870 -0.7302
 5639TIP3    H116881   1.092   2.463   0.088 -1.0888 -1.7207 -1.0098
 5639TIP3    H216882   0.958   2.447   0.157 -1.2567  1.4092 -0.4392
 5640TIP3   OH216883   0.467   2.004   0.447  0.6105  0.2338  0.3439
 5640TIP3    H116884   0.554   2.037   0.470  1.0002 -0.6628  0.2139
 5640TIP3    H216885   0.484   1.924   0.397 -0.3058 -0.6227  1.3590
 5641TIP3   OH216886   0.251   2.515   4.945 -0.4239 -0.1881  0.1098
 5641TIP3    H116887   0.277   2.452   5.013 -0.4949 -0.0701  0.2456
 5641TIP3    H216888   0.168   2.481   4.912  0.1652 -0.8892 -0.7285
 5642TIP3   OH216889   5.059   1.968   4.298  0.9268 -0.2097  0.2511
 5642TIP3    H116890   4.989   2.033   4.284  1.4516  0.2315 -0.4025
 5642TIP3    H216891   5.058   1.952   4.392  1.2074  1.2296  0.5239
 5643TIP3   OH216892   2.360   3.915   4.166  0.2009  0.6953  0.2918
 5643TIP3    H116893   2.449   3.948   4.166 -0.6943  3.3442 -0.7895
 5643TIP3    H216894   2.306   3.991   4.144 -2.3981 -0.6437  1.5802
 5644TIP3   OH216895   5.357   1.850   2.831 -0.1979  1.3058  0.0425
 5644TIP3    H116896   5.310   1.797   2.895 -2.2976  1.8672 -0.9364
 5644TIP3    H216897   5.365   1.936   2.873  0.7832  0.9749  0.5577
 5645TIP3   OH216898   5.069   6.427   2.006  0.0432  0.2238 -0.4861
 5645TIP3    H116899   5.145   6.382   1.968  0.2117 -1.2139  1.3420
 5645TIP3    H216900   5.107   6.502   2.051  0.2056  0.3161 -0.7744
 5646TIP3   OH216901   1.750   0.946   3.965 -0.0134  0.6368 -0.2225
 5646TIP3    H116902   1.835   0.918   3.999 -0.8386 -1.1698  0.4964
 5646TIP3    H216903   1.695   0.956   4.042 -0.5865  1.3388 -0.7104
 5647TIP3   OH216904   4.545   6.732   2.498  0.6956  0.1376 -0.2218
 5647TIP3    H116905   4.597   6.674   2.443  0.1604  0.2414 -0.8499
 5647TIP3    H216906   4.588   6.729   2.584  1.1904 -0.4852 -0.4857
 5648TIP3   OH216907   3.343   5.085   0.725 -0.2884 -0.9160  0.2905
 5648TIP3    H116908   3.419   5.066   0.779 -1.4855 -0.9671  2.0353
 5648TIP3    H216909   3.329   5.005   0.673 -1.3863 -2.4551  2.7738
 5649TIP3   OH216910   2.152   0.006   4.857 -0.2021  0.1819  0.6007
 5649TIP3    H116911   2.230   0.023   4.909 -1.0876  1.3368  1.5996
 5649TIP3    H216912   2.105   0.089   4.856 -2.0536 -0.8187  1.0970
 5650TIP3   OH216913   4.497   1.041   5.410 -0.0160  0.4830 -0.5505
 5650TIP3    H116914   4.538   0.993   5.338  0.2065  0.3651 -0.3456
 5650TIP3    H216915   4.544   1.125   5.412 -0.0606  0.5087 -0.5786
 5651TIP3   OH216916   6.261   4.276   5.273 -0.3783  0.4921  0.2746
 5651TIP3    H116917   6.289   4.223   5.348 -2.1199 -0.0023  0.6175
 5651TIP3    H216918   6.172   4.304   5.295 -1.5716 -0.9744 -2.2734
 5652TIP3   OH216919   5.323   1.309   1.235 -0.4941  0.0686 -1.0528
 5652TIP3    H116920   5.320   1.399   1.204  2.0195  0.2250 -1.0374
 5652TIP3    H216921   5.293   1.256   1.161 -1.7086  0.8718 -1.1513
 5653TIP3   OH216922   3.696   3.429   3.138  0.3205 -0.5969 -0.1838
 5653TIP3    H116923   3.642   3.372   3.193 -0.4164  0.2568  0.0055
 5653TIP3    H216924   3.636   3.463   3.072  0.1892  1.5956  0.9596
 5654TIP3   OH216925   1.586   1.423   5.585  0.3937 -0.1804  0.5071
 5654TIP3    H116926   1.553   1.497   5.637 -1.0314  0.3512 -1.0950
 5654TIP3    H216927   1.630   1.464   5.510  1.0295 -0.9636  0.4329
 5655TIP3   OH216928   6.530   4.445   2.356 -0.1757 -0.3717  0.1333
 5655TIP3    H116929   6.601   4.393   2.393  0.0967 -0.6045 -0.6904
 5655TIP3    H216930   6.553   4.455   2.264 -0.2716  1.1379  0.2444
 5656TIP3   OH216931   5.632   3.998   3.658 -0.3293 -0.3800 -0.4702
 5656TIP3    H116932   5.576   4.064   3.699  0.0401  0.5432 -1.4017
 5656TIP3    H216933   5.634   3.925   3.720 -1.1527  0.2854  0.3507
 5657TIP3   OH216934   0.455   0.156   3.955  0.5818  0.0440 -0.3317
 5657TIP3    H116935   0.536   0.172   4.002  0.8090 -0.1809 -0.6417
 5657TIP3    H216936   0.452   0.225   3.888  0.5237  0.0438 -0.3296
 5658TIP3   OH216937   2.839   5.210   2.262  0.2745 -0.0044 -0.0315
 5658TIP3    H116938   2.775   5.183   2.196 -0.7705 -0.2272  1.0344
 5658TIP3    H216939   2.883   5.129   2.288  0.1019 -0.0469  0.1330
 5659TIP3   OH216940   2.456   6.185   4.643  0.3848 -0.0457  1.1692
 5659TIP3    H116941   2.464   6.257   4.580  0.0074  0.6364  1.8913
 5659TIP3    H216942   2.537   6.136   4.633 -0.1176 -0.5717 -0.6078
 5660TIP3   OH216943   4.237   1.246   1.436  0.1143 -0.9473 -0.1293
 5660TIP3    H116944   4.186   1.294   1.502 -1.2337  0.0163 -1.8032
 5660TIP3    H216945   4.179   1.176   1.407  0.3816 -0.8616 -0.8824
 5661TIP3   OH216946   0.519   1.033   2.294  0.7098  0.6632 -0.5994
 5661TIP3    H116947   0.453   1.032   2.224  0.2643 -1.0913 -0.2042
 5661TIP3    H216948   0.494   1.108   2.349 -0.8546  0.1749 -0.5872
 5662TIP3   OH216949   3.940   6.061   2.170  0.0416 -0.5333 -0.1346
 5662TIP3    H116950   3.910   5.971   2.183  1.8827 -1.0643  0.7462
 5662TIP3    H216951   3.910   6.108   2.248  2.4899 -1.3827  1.4284
 5663TIP3   OH216952   6.272   2.207   5.476 -0.1115  0.1868 -0.4000
 5663TIP3    H116953   6.258   2.206   5.381  0.1733 -1.5330 -0.4469
 5663TIP3    H216954   6.212   2.274   5.508  0.1984  1.2034 -1.8390
 5664TIP3   OH216955   5.067   2.654   5.071  0.0607 -0.5412 -0.0990
 5664TIP3    H116956   4.993   2.683   5.125  0.1256 -1.9021  0.7849
 5664TIP3    H216957   5.112   2.590   5.126  2.0243  0.3816 -0.5580
 5665TIP3   OH216958   0.182   6.277   3.231  0.0192 -0.1706  0.0258
 5665TIP3    H116959   0.247   6.323   3.284 -0.2059  0.5364 -0.2925
 5665TIP3    H216960   0.098   6.302   3.268 -0.2476  1.7080 -1.6375
 5666TIP3   OH216961   0.441   2.616   2.396 -0.1851 -0.5200  0.2158
 5666TIP3    H116962   0.520   2.651   2.354  1.4282 -2.4170  1.4924
 5666TIP3    H216963   0.439   2.659   2.481 -0.0028 -1.1345  0.5333
 5667TIP3   OH216964   3.837   1.924   3.065  0.1780 -0.1450  0.0721
 5667TIP3    H116965   3.780   1.932   2.988  0.4323 -0.4726 -0.1525
 5667TIP3    H216966   3.902   1.859   3.040 -0.5793 -1.3461  1.0853
 5668TIP3   OH216967   2.258   4.165   3.520  0.1955 -0.2429 -0.4979
 5668TIP3    H116968   2.324   4.230   3.495 -0.0178  0.6268  1.1085
 5668TIP3    H216969   2.298   4.118   3.593 -0.8688  0.1723  0.3781
 5669TIP3   OH216970   0.984   5.816   0.051 -0.2939  0.6357  0.4735
 5669TIP3    H116971   0.983   5.898   0.101  1.7968  0.7344  0.4663
 5669TIP3    H216972   0.994   5.747   0.117  0.3639  0.5970  0.3401
 5670TIP3   OH216973   1.438   5.763   5.507  0.1098  0.4749 -0.1131
 5670TIP3    H116974   1.388   5.817   5.568 -1.4929  0.3075 -1.1975
 5670TIP3    H216975   1.403   5.675   5.519  1.2276  0.0624  0.1684
 5671TIP3   OH216976   5.092   2.477   5.277 -0.1264 -0.0781 -0.5940
 5671TIP3    H116977   5.001   2.488   5.303 -0.7659 -2.1868 -1.6863
 5671TIP3    H216978   5.127   2.411   5.336  0.4293  0.0635 -0.7536
 5672TIP3   OH216979   4.299   5.660   0.465  0.4805 -0.0649  0.4060
 5672TIP3    H116980   4.227   5.705   0.509 -0.0941  0.6302 -1.1897
 5672TIP3    H216981   4.283   5.567   0.482 -2.2197 -0.1517 -1.8299
 5673TIP3   OH216982   5.640   2.601   4.902  0.1061  0.1554 -0.1723
 5673TIP3    H116983   5.654   2.665   4.971 -0.0249  2.6466 -2.2963
 5673TIP3    H216984   5.545   2.586   4.901  0.1064  0.1418  0.1532
 5674TIP3   OH216985   5.319   6.269   3.132  0.0620 -0.0251  0.0300
 5674TIP3    H116986   5.354   6.184   3.105 -0.9309 -1.2155  2.3015
 5674TIP3    H216987   5.228   6.268   3.104  0.3071  0.7854 -0.8840
 5675TIP3   OH216988   1.797   3.676   4.033  0.1987 -0.4431 -0.5356
 5675TIP3    H116989   1.706   3.662   4.007  0.0797 -0.2118 -0.2520
 5675TIP3    H216990   1.820   3.597   4.083 -0.1365 -0.1114  0.1629
 5676TIP3   OH216991   6.624   1.079   2.907  0.1220 -0.1087 -0.3771
 5676TIP3    H116992   6.714   1.056   2.881 -0.1720 -0.3051 -1.2451
 5676TIP3    H216993   6.585   0.995   2.931  0.8415  0.2262  2.2496
 5677TIP3   OH216994   6.086   5.064   3.947  0.4001  0.9992 -0.1921
 5677TIP3    H116995   6.161   5.122   3.933  0.2091  1.6744  1.4031
 5677TIP3    H216996   6.009   5.119   3.933  0.2168  0.8386  0.1576
 5678TIP3   OH216997   0.164   0.449   2.232  0.5589  0.3150  0.6274
 5678TIP3    H116998   0.195   0.510   2.166  1.8081  0.9525  1.7574
 5678TIP3    H216999   0.071   0.470   2.242  0.6433  1.0461 -0.0440
 5679TIP3   OH217000   1.537   1.558   4.120 -0.1339  0.2159 -0.1565
 5679TIP3    H117001   1.542   1.597   4.033 -1.8659 -0.0658 -0.4208
 5679TIP3    H217002   1.525   1.632   4.179 -2.3558  0.2651 -0.5528
 5680TIP3   OH217003   2.852   2.526   2.590 -0.6027 -0.4067 -0.0194
 5680TIP3    H117004   2.862   2.454   2.528 -1.6719 -0.3440 -0.2704
 5680TIP3    H217005   2.926   2.516   2.650 -0.5648 -1.5247 -0.2328
 5681TIP3   OH217006   3.731   2.370   1.004 -0.5800 -0.0155 -0.0881
 5681TIP3    H117007   3.721   2.452   0.956 -1.7503 -0.0893 -0.0129
 5681TIP3    H217008   3.703   2.392   1.093  1.4679  0.1007  0.5690
 5682TIP3   OH217009   7.098   2.682   2.333 -0.5908 -0.4110 -0.0988
 5682TIP3    H117010   7.082   2.667   2.426 -0.3291  1.0097  0.1992
 5682TIP3    H217011   7.193   2.683   2.325 -0.6100  0.1348 -0.2627
 5683TIP3   OH217012   3.653   3.215   0.692 -0.4454  0.1742  0.1839
 5683TIP3    H117013   3.699   3.187   0.613 -1.1864 -0.2374 -0.1142
 5683TIP3    H217014   3.615   3.300   0.669 -1.5359 -0.4205 -0.2694
 5684TIP3   OH217015   3.739   0.326   0.777 -0.2655  0.0960 -0.6826
 5684TIP3    H117016   3.815   0.290   0.732 -0.6096 -1.2760 -0.2010
 5684TIP3    H217017   3.687   0.367   0.707  0.6011  0.5053 -1.0967
 5685TIP3   OH217018   4.869   3.141   1.701 -0.4415 -0.2662  0.4771
 5685TIP3    H117019   4.931   3.071   1.719 -0.7694 -0.5657  0.4573
 5685TIP3    H217020   4.902   3.217   1.749  0.5997 -0.0780 -0.4875
 5686TIP3   OH217021   0.715   0.636   0.523 -0.1878  0.1428 -0.1593
 5686TIP3    H117022   0.791   0.662   0.575 -0.0389 -0.3488 -0.1254
 5686TIP3    H217023   0.719   0.692   0.445 -0.3144  0.7581  0.2664
 5687TIP3   OH217024   3.857   3.145   3.743  0.0068  0.0149 -0.7172
 5687TIP3    H117025   3.901   3.219   3.701  1.5438 -0.5883 -0.2403
 5687TIP3    H217026   3.871   3.071   3.684 -2.9190  0.3454 -2.0141
 5688TIP3   OH217027   7.185   1.826   3.503  0.0266  0.4646  0.1816
 5688TIP3    H117028   7.101   1.805   3.463 -0.4154  0.3856  1.1395
 5688TIP3    H217029   7.249   1.774   3.454 -0.5040  0.3285 -0.3762
 5689TIP3   OH217030   3.682   5.134   2.399 -0.6166  0.6349 -0.0724
 5689TIP3    H117031   3.602   5.100   2.359 -1.3938  0.4292  1.5953
 5689TIP3    H217032   3.683   5.097   2.487  0.4719  1.9324  0.4948
 5690TIP3   OH217033   3.724   3.519   3.526  0.3410  0.0129  0.7852
 5690TIP3    H117034   3.802   3.496   3.577  0.5542 -1.5917 -0.2109
 5690TIP3    H217035   3.757   3.537   3.438 -0.5201 -2.1114 -0.0321
 5691TIP3   OH217036   4.541   1.455   5.612  0.0486 -0.0973  0.1497
 5691TIP3    H117037   4.448   1.474   5.623  0.2853  0.9017  0.5056
 5691TIP3    H217038   4.544   1.391   5.540 -0.8699  0.2699 -0.2329
 5692TIP3   OH217039   3.093   6.787   1.199  0.9939  0.3279  0.0957
 5692TIP3    H117040   3.189   6.796   1.197  1.0012  1.1435  1.8011
 5692TIP3    H217041   3.078   6.703   1.242  0.8641 -1.7527 -3.5706
 5693TIP3   OH217042   4.557   3.757   1.521  0.2539  0.5149 -0.2800
 5693TIP3    H117043   4.645   3.795   1.516  1.1642 -1.0998  1.9153
 5693TIP3    H217044   4.560   3.682   1.461  0.8216 -0.2904  0.7320
 5694TIP3   OH217045   4.954   3.030   4.714  0.1935 -0.4489 -0.3332
 5694TIP3    H117046   4.953   2.938   4.740  3.1568 -0.6727 -0.6679
 5694TIP3    H217047   4.880   3.069   4.761 -0.9283 -2.8885  0.0905
 5695TIP3   OH217048   6.763   5.241   4.979  0.6106  0.6259 -0.2011
 5695TIP3    H117049   6.843   5.222   5.027  0.1689  0.0263  0.3253
 5695TIP3    H217050   6.788   5.240   4.887  1.4174  1.5146  0.0036
 5696TIP3   OH217051   2.860   1.641   0.935 -0.5509  0.1676  0.1689
 5696TIP3    H117052   2.916   1.709   0.971 -2.7107  1.3418  1.5161
 5696TIP3    H217053   2.879   1.563   0.988 -3.2839  1.7205  3.8611
 5697TIP3   OH217054   5.049   2.430   2.438  0.2833 -0.6988 -1.0051
 5697TIP3    H117055   4.985   2.501   2.428 -1.1405 -1.8231 -0.3908
 5697TIP3    H217056   5.130   2.465   2.401 -0.1952  1.4481 -0.1946
 5698TIP3   OH217057   2.771   3.471   5.030 -0.1753 -0.2862  0.0795
 5698TIP3    H117058   2.855   3.516   5.017 -0.6175  0.3775 -0.6194
 5698TIP3    H217059   2.708   3.542   5.041 -0.7011 -0.7703  0.2061
 5699TIP3   OH217060   3.111   3.010   0.573  0.4070 -0.6931 -0.8295
 5699TIP3    H117061   3.093   2.941   0.636  2.0674 -1.0910 -0.7725
 5699TIP3    H217062   3.202   3.033   0.586  0.4693  0.0353 -2.2911
 5700TIP3   OH217063   6.607   2.034   3.198  0.4461 -0.0306  0.4257
 5700TIP3    H117064   6.660   2.104   3.160 -0.1446 -1.3600 -3.2246
 5700TIP3    H217065   6.521   2.074   3.211  0.3068  0.1508 -0.9388
 5701TIP3   OH217066   2.188   6.032   1.702  0.0746  0.1008  0.0792
 5701TIP3    H117067   2.097   6.051   1.679 -0.2017 -0.9368  0.2836
 5701TIP3    H217068   2.232   6.117   1.694 -0.7215  0.4474 -0.8685
 5702TIP3   OH217069   6.372   4.738   5.670 -0.1391 -0.0091  0.4474
 5702TIP3    H117070   6.284   4.775   5.679 -0.2452  0.5293 -2.0897
 5702TIP3    H217071   6.418   4.798   5.611  0.9694 -1.8130 -0.6232
 5703TIP3   OH217072   2.705   5.639   0.154 -0.3369  0.8927 -0.4752
 5703TIP3    H117073   2.669   5.580   0.219 -0.9878  1.4372 -0.3261
 5703TIP3    H217074   2.785   5.673   0.194  1.6408 -1.9622 -1.6565
 5704TIP3   OH217075   0.533   4.001   3.633 -0.1721 -0.2013  0.2173
 5704TIP3    H117076   0.474   4.073   3.616  0.7824  0.4279 -0.5646
 5704TIP3    H217077   0.544   4.000   3.728 -2.2346 -1.0193  0.4930
 5705TIP3   OH217078   3.902   5.032   5.035  0.0199  0.0889  0.4310
 5705TIP3    H117079   3.982   5.062   5.079 -0.1759  1.1985  0.0590
 5705TIP3    H217080   3.855   4.983   5.103  0.7082 -0.0212  0.8404
 5706TIP3   OH217081   2.071   6.513   0.023 -0.2527  0.6276 -0.1230
 5706TIP3    H117082   2.143   6.483   0.078 -0.4286 -0.2919 -0.3884
 5706TIP3    H217083   2.014   6.437   0.012  0.1427  0.5460 -2.1682
 5707TIP3   OH217084   0.739   1.632   0.291 -0.3805 -0.1474 -0.1859
 5707TIP3    H117085   0.658   1.682   0.281  0.1396  0.5162 -1.3569
 5707TIP3    H217086   0.742   1.577   0.212  0.2801 -0.1928 -0.1307
 5708TIP3   OH217087   2.007   6.131   4.940  0.1243 -0.1367 -0.5079
 5708TIP3    H117088   1.945   6.196   4.907  1.0200  0.4479 -1.1179
 5708TIP3    H217089   2.086   6.144   4.886  0.9790 -0.4543  0.6189
 5709TIP3   OH217090   4.703   0.779   3.178  0.3075  0.6496  0.0969
 5709TIP3    H117091   4.671   0.864   3.208  0.9956  0.9452 -0.0046
 5709TIP3    H217092   4.784   0.798   3.131 -0.0720  0.0500 -0.8248
 5710TIP3   OH217093   2.120   5.693   0.992  0.5919 -0.1796  0.0147
 5710TIP3    H117094   2.091   5.777   0.958 -0.8268 -0.9906 -0.8637
 5710TIP3    H217095   2.142   5.711   1.084 -0.9767  0.8804  0.2343
 5711TIP3   OH217096   6.629   0.726   0.260  0.2927  0.2200 -0.4645
 5711TIP3    H117097   6.622   0.820   0.245  0.1055  0.2330 -0.2927
 5711TIP3    H217098   6.635   0.689   0.172  0.6087  0.4104 -0.5253
 5712TIP3   OH217099   5.281   3.723   4.762  0.3879 -0.0090 -0.3453
 5712TIP3    H117100   5.352   3.663   4.784  0.2551 -0.1756 -0.3737
 5712TIP3    H217101   5.292   3.739   4.668  0.6102  0.2564 -0.2756
 5713TIP3   OH217102   1.352   6.642   4.237 -0.2267 -0.0711  0.9259
 5713TIP3    H117103   1.445   6.619   4.241 -0.4405 -0.8487  1.9581
 5713TIP3    H217104   1.316   6.583   4.171  0.3493  1.6172 -1.0008
 5714TIP3   OH217105   4.622   6.749   4.327 -0.3965 -0.4622 -0.1693
 5714TIP3    H117106   4.566   6.684   4.284 -1.5436  0.7144 -0.5487
 5714TIP3    H217107   4.650   6.807   4.256  0.9576 -0.7606  0.0986
 5715TIP3   OH217108   2.791   3.852   1.894 -0.3914  0.1863  0.0786
 5715TIP3    H117109   2.716   3.847   1.954 -0.9032  1.7256 -0.3790
 5715TIP3    H217110   2.840   3.928   1.923  0.3717 -0.1273 -0.3485
 5716TIP3   OH217111   1.564   5.749   1.171 -0.1239  0.1794 -0.3155
 5716TIP3    H117112   1.491   5.690   1.152 -2.1917  2.2766  0.5757
 5716TIP3    H217113   1.587   5.730   1.262  0.6454 -0.6461 -0.6691
 5717TIP3   OH217114   1.231   0.445   3.072 -0.2095  0.0001  0.2067
 5717TIP3    H117115   1.301   0.385   3.043  0.6134  1.2068 -0.3880
 5717TIP3    H217116   1.155   0.388   3.086  0.4057 -1.1227 -0.8195
 5718TIP3   OH217117   1.418   2.779   2.236  0.1021 -0.8697 -0.4708
 5718TIP3    H117118   1.503   2.818   2.215  0.2081 -1.0064 -0.3008
 5718TIP3    H217119   1.364   2.797   2.160 -0.4914  1.3854  0.4237
 5719TIP3   OH217120   0.977   2.554   0.756 -0.1556  0.1125 -0.3581
 5719TIP3    H117121   0.959   2.499   0.680  0.0380  0.3173 -0.5529
 5719TIP3    H217122   1.073   2.558   0.761 -0.1688  0.8816 -0.6742
 5720TIP3   OH217123   2.545   3.213   3.249 -0.1978  0.7497 -0.6217
 5720TIP3    H117124   2.523   3.218   3.342 -0.8564 -0.4966 -0.6907
 5720TIP3    H217125   2.546   3.304   3.220  1.2987  1.2620  0.8697
 5721TIP3   OH217126   4.481   5.250   0.692  0.3057  0.0145  0.0738
 5721TIP3    H117127   4.544   5.308   0.649 -0.2982  0.4475 -0.2409
 5721TIP3    H217128   4.500   5.259   0.785  1.4032 -0.6690 -0.0627
 5722TIP3   OH217129   0.435   2.180   5.309  0.3331  0.3601 -0.2402
 5722TIP3    H117130   0.407   2.153   5.396 -0.0487 -0.7161 -0.6706
 5722TIP3    H217131   0.504   2.118   5.285  0.8079  0.9766 -0.4889
 5723TIP3   OH217132   5.092   6.260   5.321  0.6781 -0.4249 -0.6215
 5723TIP3    H117133   5.040   6.340   5.329  0.6883 -0.5936  2.0206
 5723TIP3    H217134   5.028   6.189   5.328  0.8310 -0.6517 -1.4765
 5724TIP3   OH217135   1.268   1.332   5.240 -0.0082  0.1844 -0.9098
 5724TIP3    H117136   1.219   1.393   5.185 -1.9499 -1.9138 -1.7053
 5724TIP3    H217137   1.319   1.280   5.178 -0.8469 -1.0310 -0.6315
 5725TIP3   OH217138   5.014   0.837   3.999  0.5995  0.5260  0.2690
 5725TIP3    H117139   5.004   0.918   3.948 -0.2150  0.9735  1.1217
 5725TIP3    H217140   4.925   0.805   4.012  0.9029 -0.4255  0.1004
 5726TIP3   OH217141   2.644   0.604   1.048  0.3009  0.2106  0.2963
 5726TIP3    H117142   2.670   0.681   1.098  1.1126  1.1669 -1.4954
 5726TIP3    H217143   2.581   0.638   0.983 -1.6066 -1.1840  1.3181
 5727TIP3   OH217144   5.941   0.325   0.581 -0.3055 -0.6354 -0.6834
 5727TIP3    H117145   5.944   0.302   0.488  2.0662  0.4840 -0.9527
 5727TIP3    H217146   5.879   0.398   0.587  0.2728 -0.0671 -1.5534
 5728TIP3   OH217147   2.192   1.754   4.346 -0.3094  0.5367  0.2524
 5728TIP3    H117148   2.283   1.780   4.332  0.0439 -0.2448  1.0136
 5728TIP3    H217149   2.177   1.766   4.440 -0.1089 -1.9613  0.6679
 5729TIP3   OH217150   5.663   0.654   5.856 -0.3530 -0.5625  0.2544
 5729TIP3    H117151   5.654   0.732   5.911 -0.1919  1.4486 -2.3388
 5729TIP3    H217152   5.673   0.689   5.767  0.2214 -3.5661 -0.9856
 5730TIP3   OH217153   5.145   2.917   0.530  0.9467  0.1750 -0.4749
 5730TIP3    H117154   5.085   2.915   0.604  1.6360  1.4799  0.1512
 5730TIP3    H217155   5.168   2.826   0.515 -0.8014 -0.3027 -0.4285
 5731TIP3   OH217156   5.645   4.536   3.299  0.1469  0.7036  0.1022
 5731TIP3    H117157   5.677   4.462   3.248 -0.6026  0.8266 -0.5525
 5731TIP3    H217158   5.573   4.501   3.351 -2.8672  1.7103 -3.0464
 5732TIP3   OH217159   7.064   4.974   3.923 -0.6358  0.3173  0.4595
 5732TIP3    H117160   7.057   4.944   3.832 -0.7230  0.6289  0.3631
 5732TIP3    H217161   6.980   5.015   3.942 -0.3459  0.9338  0.4345
 5733TIP3   OH217162   6.489   0.110   1.804  0.4500 -0.1409  0.2357
 5733TIP3    H117163   6.548   0.061   1.861 -0.7489 -0.4323  1.2736
 5733TIP3    H217164   6.405   0.066   1.814 -0.1580  0.8336 -0.4912
 5734TIP3   OH217165   3.800   5.586   0.351  0.4054 -0.1336  0.3380
 5734TIP3    H117166   3.732   5.531   0.311 -0.1447  0.6524  0.1842
 5734TIP3    H217167   3.881   5.537   0.336  0.0510 -0.4380 -0.6646
 5735TIP3   OH217168   5.405   1.192   2.733 -0.2769  0.4229  0.2925
 5735TIP3    H117169   5.372   1.242   2.808  0.0677 -0.4554  1.0477
 5735TIP3    H217170   5.470   1.249   2.693 -0.0894  0.7056  0.9790
 5736TIP3   OH217171   0.330   1.119   3.450 -0.1361 -0.2029  0.2813
 5736TIP3    H117172   0.257   1.166   3.489 -0.6572  1.3252 -2.2664
 5736TIP3    H217173   0.290   1.039   3.415 -0.6737  0.6295 -1.1091
 5737TIP3   OH217174   6.296   0.040   5.811  0.0628  0.1892 -0.4891
 5737TIP3    H117175   6.363  -0.025   5.830 -2.6196 -2.0715  2.1252
 5737TIP3    H217176   6.245   0.001   5.740  0.0681  0.7774 -0.8214
 5738TIP3   OH217177   1.129   1.557   2.819 -0.0036 -0.0600 -0.4323
 5738TIP3    H117178   1.143   1.650   2.836 -2.0113  0.0652  0.8196
 5738TIP3    H217179   1.122   1.551   2.724 -1.7733  1.4377 -0.4558
 5739TIP3   OH217180   2.980   1.740   4.408 -0.3610  0.5759  0.7456
 5739TIP3    H117181   3.014   1.799   4.477 -0.5204  2.4096 -0.6710
 5739TIP3    H217182   2.974   1.795   4.330  0.1857 -1.5316 -0.8798
 5740TIP3   OH217183   4.054   0.354   2.065 -0.3655 -0.2408  0.6237
 5740TIP3    H117184   4.000   0.420   2.021  0.0782  0.5024  1.1757
 5740TIP3    H217185   4.047   0.276   2.009 -0.4827  0.4276 -0.3108
 5741TIP3   OH217186   7.043   5.909   1.943  0.0138  0.1800 -0.0561
 5741TIP3    H117187   7.072   5.980   1.999 -1.4806  1.3516 -0.6800
 5741TIP3    H217188   6.954   5.888   1.974  0.2736 -1.1432 -0.1451
 5742TIP3   OH217189   1.711   1.318   3.304 -0.1477 -0.2842  0.2899
 5742TIP3    H117190   1.647   1.289   3.239 -2.3874  0.7346  1.9136
 5742TIP3    H217191   1.709   1.251   3.372 -0.4136  0.3504  0.9208
 5743TIP3   OH217192   2.750   1.576   4.751  0.4226 -0.4380  0.1917
 5743TIP3    H117193   2.845   1.565   4.752  0.6248  0.9811  1.7571
 5743TIP3    H217194   2.735   1.658   4.799 -1.5236 -0.0134 -1.0267
 5744TIP3   OH217195   0.103   5.874   3.405 -0.8069  0.1884 -0.1150
 5744TIP3    H117196   0.118   5.784   3.374 -0.2056 -0.1830  1.2193
 5744TIP3    H217197   0.043   5.911   3.340  2.8090  0.5324 -3.6693
 5745TIP3   OH217198   4.797   4.984   5.772  0.2549 -0.2443  0.2529
 5745TIP3    H117199   4.817   5.054   5.710  0.1204  0.2398  0.7467
 5745TIP3    H217200   4.783   4.907   5.718  2.7949 -0.4715 -0.1782
 5746TIP3   OH217201   1.847   5.534   1.049 -0.0299 -0.2502 -0.0144
 5746TIP3    H117202   1.911   5.587   1.003 -0.0686 -0.7174 -0.6073
 5746TIP3    H217203   1.856   5.561   1.141  2.8909 -2.1841  0.3908
 5747TIP3   OH217204   3.414   6.775   2.690  0.0397 -0.1057  0.2248
 5747TIP3    H117205   3.473   6.846   2.664 -0.9224  0.6689  0.0707
 5747TIP3    H217206   3.359   6.760   2.612 -0.6823 -0.0507  0.7167
 5748TIP3   OH217207   2.475   3.591   4.268  0.0954 -0.2718 -1.2166
 5748TIP3    H117208   2.534   3.515   4.276  0.1707 -0.1792 -0.8538
 5748TIP3    H217209   2.516   3.646   4.202  1.0546  0.3508 -0.1450
 5749TIP3   OH217210   2.981   5.556   1.233 -0.6670 -0.1203  0.1217
 5749TIP3    H117211   2.896   5.573   1.193 -0.4807 -0.5490 -0.4771
 5749TIP3    H217212   3.000   5.634   1.284 -0.9862  0.3727 -0.5068
 5750TIP3   OH217213   6.746   5.543   3.312  0.3485  0.0528  0.0105
 5750TIP3    H117214   6.736   5.609   3.380 -0.1863 -1.2868  1.2929
 5750TIP3    H217215   6.824   5.493   3.338  0.5028 -0.1006 -0.7097
 5751TIP3   OH217216   4.007   3.276   3.560 -0.6047 -0.1783 -0.2066
 5751TIP3    H117217   3.995   3.266   3.466 -0.5117  0.3592 -0.2754
 5751TIP3    H217218   4.101   3.260   3.573 -0.5692  0.0024 -0.2390
 5752TIP3   OH217219   2.743   4.322   4.350  0.2507  0.1557  0.8410
 5752TIP3    H117220   2.772   4.352   4.436  0.5929  1.1672  0.3881
 5752TIP3    H217221   2.776   4.388   4.289  1.7990 -1.6016 -0.3235
 5753TIP3   OH217222   1.362   4.995   5.678  0.0629 -0.2369 -0.0741
 5753TIP3    H117223   1.437   4.956   5.632  0.9651  0.8051  0.4621
 5753TIP3    H217224   1.389   4.995   5.770 -0.3035  0.7711  0.0412
 5754TIP3   OH217225   4.241   3.408   3.794 -0.0863  0.6188 -0.0622
 5754TIP3    H117226   4.237   3.314   3.777  1.4998  0.6247 -0.6532
 5754TIP3    H217227   4.199   3.448   3.719 -1.2927  0.3818  0.4674
 5755TIP3   OH217228   1.002   5.499   3.234  0.7842  0.6186 -0.1277
 5755TIP3    H117229   0.990   5.579   3.286  0.0854  1.3108 -1.3075
 5755TIP3    H217230   0.981   5.428   3.293 -1.1317  1.4371  0.2366
 5756TIP3   OH217231   4.570   2.310   3.927 -0.1735 -0.4753  0.2755
 5756TIP3    H117232   4.621   2.338   3.850  0.0078  3.7035  1.6528
 5756TIP3    H217233   4.491   2.270   3.890  0.8756 -0.5958 -2.0223
 5757TIP3   OH217234   2.238   4.624   3.742 -0.2060 -0.7944 -0.1439
 5757TIP3    H117235   2.231   4.680   3.664  0.4954  0.5395  0.7030
 5757TIP3    H217236   2.290   4.676   3.803 -0.9079 -1.7187  1.2878
 5758TIP3   OH217237   0.352   5.626   0.983  0.5280  0.3994  0.3123
 5758TIP3    H117238   0.323   5.671   0.904 -0.3583 -1.1627 -0.3023
 5758TIP3    H217239   0.312   5.674   1.055  2.0867  2.4149 -0.0518
 5759TIP3   OH217240   6.517   2.150   1.962  0.1557  0.2848 -0.6435
 5759TIP3    H117241   6.423   2.133   1.965  0.3463 -1.0147 -1.1156
 5759TIP3    H217242   6.556   2.063   1.948  1.6301  0.2253  2.7797
 5760TIP3   OH217243   5.258   0.366   4.863  0.4321 -0.1096  0.1102
 5760TIP3    H117244   5.351   0.385   4.857  0.5166 -0.9082 -1.9696
 5760TIP3    H217245   5.246   0.328   4.951  1.9948  0.2506  0.4953
 5761TIP3   OH217246   6.241   6.699   3.035 -0.5128  0.3293  0.2527
 5761TIP3    H117247   6.171   6.637   3.052 -2.5415  2.3350 -0.2271
 5761TIP3    H217248   6.208   6.783   3.069  1.5439  1.4138 -0.2366
 5762TIP3   OH217249   5.939   5.524   5.520 -0.1845 -0.1052  0.0997
 5762TIP3    H117250   5.895   5.604   5.549 -0.9615 -1.0947  1.8027
 5762TIP3    H217251   5.878   5.486   5.457  0.4809  0.9310 -1.2124
 5763TIP3   OH217252   0.050   1.943   1.141  0.1480  0.2370 -0.2221
 5763TIP3    H117253  -0.006   1.924   1.217 -0.9516  1.0850 -0.7907
 5763TIP3    H217254  -0.007   1.991   1.081  1.1778  0.1074 -1.3300
 5764TIP3   OH217255   2.151   4.782   2.934  0.3919  0.6995 -0.5710
 5764TIP3    H117256   2.192   4.802   2.850  2.9040  1.5333  0.7330
 5764TIP3    H217257   2.092   4.855   2.950 -0.0976  0.5375 -1.5779
 5765TIP3   OH217258   4.247   4.194   5.641 -0.1995  0.2483 -0.5650
 5765TIP3    H117259   4.230   4.157   5.728  2.1473 -1.1677 -0.6306
 5765TIP3    H217260   4.195   4.275   5.639 -2.3282 -0.9657  1.1380
 5766TIP3   OH217261   2.996   2.535   3.696  0.6983  0.1991  0.1570
 5766TIP3    H117262   3.073   2.533   3.753  0.4430  0.4170  0.5165
 5766TIP3    H217263   2.936   2.472   3.736  0.3520  0.6640  0.3703
 5767TIP3   OH217264   1.995   2.312   1.774 -0.1790  0.5321  0.6066
 5767TIP3    H117265   1.938   2.303   1.850  0.0597  1.8235  0.9678
 5767TIP3    H217266   1.935   2.319   1.700 -0.4049 -2.3605  0.4057
 5768TIP3   OH217267   6.668   4.513   2.658  0.0150  0.4130  0.0205
 5768TIP3    H117268   6.673   4.513   2.754 -0.7585  3.0690  0.1434
 5768TIP3    H217269   6.732   4.580   2.631 -0.3071  0.2175 -1.2668
 5769TIP3   OH217270   0.836   0.570   2.288  0.0258  0.5780 -0.4511
 5769TIP3    H117271   0.843   0.650   2.235  0.9035  0.5923 -0.3356
 5769TIP3    H217272   0.915   0.570   2.342 -0.4098  0.0917  0.2096
 5770TIP3   OH217273   0.729   6.412   4.319 -0.3115 -0.2559  0.2705
 5770TIP3    H117274   0.693   6.500   4.310  4.1344  1.6507 -2.5387
 5770TIP3    H217275   0.740   6.400   4.413 -3.4774  0.9205  0.9211
 5771TIP3   OH217276   4.756   0.152   1.021 -0.5240 -0.1457  0.1542
 5771TIP3    H117277   4.724   0.087   0.958 -1.2071  0.7853 -0.4776
 5771TIP3    H217278   4.842   0.119   1.047  0.1134 -0.1991 -1.8321
 5772TIP3   OH217279   5.117   5.253   3.201  0.3868  0.1488  0.4046
 5772TIP3    H117280   5.131   5.168   3.243 -0.3395 -0.9013 -1.3452
 5772TIP3    H217281   5.034   5.284   3.236  1.0326  0.5761  1.6526
 5773TIP3   OH217282   1.948   4.286   5.350  0.2703 -0.3146  0.5985
 5773TIP3    H117283   1.948   4.352   5.280 -1.7510 -1.8274 -0.9406
 5773TIP3    H217284   1.925   4.335   5.429 -0.9448  0.8925 -0.4548
 5774TIP3   OH217285   4.732   0.803   4.332  0.2982  0.0435  0.1608
 5774TIP3    H117286   4.747   0.709   4.325  1.8481  0.3453 -1.2298
 5774TIP3    H217287   4.755   0.837   4.246  1.4613  1.8958  1.1386
 5775TIP3   OH217288   4.086   6.408   2.851  0.0847  0.9256  0.4799
 5775TIP3    H117289   4.118   6.498   2.856 -1.3211  1.4661  0.4154
 5775TIP3    H217290   4.043   6.393   2.936 -1.2916  0.9990 -0.1686
 5776TIP3   OH217291   4.868   3.185   4.494 -0.0640  0.5411 -0.9045
 5776TIP3    H117292   4.915   3.134   4.559  1.6631  0.2017 -2.3496
 5776TIP3    H217293   4.782   3.143   4.489  0.8362 -1.3961 -1.0603
 5777TIP3   OH217294   0.703   1.895   3.644 -0.0888 -0.6830 -0.4807
 5777TIP3    H117295   0.646   1.836   3.692 -0.1256 -0.8137 -0.6868
 5777TIP3    H217296   0.790   1.855   3.649 -0.1918 -0.9737 -0.9838
 5778TIP3   OH217297   2.893   1.392   5.408  0.3789  0.2303 -0.2226
 5778TIP3    H117298   2.868   1.301   5.393 -0.3397  0.4867 -0.6346
 5778TIP3    H217299   2.824   1.427   5.465  0.6760  0.5031 -0.0245
 5779TIP3   OH217300   4.417   2.801   4.924  0.4033 -0.1229 -0.3031
 5779TIP3    H117301   4.421   2.892   4.953 -3.6408  0.6126 -1.4074
 5779TIP3    H217302   4.431   2.804   4.830  5.0774 -1.4537  0.1136
 5780TIP3   OH217303   7.119   0.470   2.194  0.1227 -0.0145  0.0550
 5780TIP3    H117304   7.038   0.441   2.235  0.1710 -1.4867 -0.8285
 5780TIP3    H217305   7.096   0.482   2.101  0.9496 -0.6596 -0.2424
 5781TIP3   OH217306   6.617   2.497   3.770  0.1335 -0.2861 -0.4848
 5781TIP3    H117307   6.545   2.449   3.811  0.4873  0.4094  1.0153
 5781TIP3    H217308   6.630   2.454   3.686 -1.5620 -0.8695 -0.4741
 5782TIP3   OH217309   6.286   0.908   0.509 -0.4437  0.1255  0.2664
 5782TIP3    H117310   6.319   0.827   0.469 -0.8876  0.2171 -0.3001
 5782TIP3    H217311   6.219   0.939   0.448 -0.5022  0.7509  0.6421
 5783TIP3   OH217312  -0.002   1.886   5.224  0.9360 -0.0841  0.5378
 5783TIP3    H117313   0.002   1.829   5.148  1.9524  1.8146 -0.9211
 5783TIP3    H217314   0.086   1.881   5.263  0.6380 -0.4913  1.1720
 5784TIP3   OH217315   4.782   3.921   2.215 -0.7553 -0.4854  0.6651
 5784TIP3    H117316   4.715   3.978   2.252  0.4091  0.1917  1.8463
 5784TIP3    H217317   4.865   3.963   2.239  0.1052 -0.9298 -1.3334
 5785TIP3   OH217318   1.580   0.417   4.411 -0.0568 -0.2956  0.5349
 5785TIP3    H117319   1.583   0.461   4.495 -1.0388 -0.5741  0.7255
 5785TIP3    H217320   1.605   0.327   4.430  0.6400 -0.1448  0.3654
 5786TIP3   OH217321   4.743   5.453   0.134  0.2608 -0.3721  0.4273
 5786TIP3    H117322   4.682   5.427   0.203  0.5403 -0.2053  0.7325
 5786TIP3    H217323   4.830   5.443   0.173  0.4045  0.1453  0.2450
 5787TIP3   OH217324   4.517   0.283   4.333 -0.1511 -0.2509 -1.0997
 5787TIP3    H117325   4.470   0.217   4.282  1.9620 -2.9316  0.1431
 5787TIP3    H217326   4.610   0.258   4.325  0.5422  1.2841  1.1948
 5788TIP3   OH217327   5.190   1.353   1.915  0.5165  0.4785 -0.5508
 5788TIP3    H117328   5.214   1.441   1.887  0.3594  0.4650 -0.7377
 5788TIP3    H217329   5.202   1.353   2.010 -2.3000  1.6365 -0.0720
 5789TIP3   OH217330   0.728   2.176   4.304 -0.6592  0.3542  0.3421
 5789TIP3    H117331   0.772   2.218   4.230  0.4369  1.1243  1.3874
 5789TIP3    H217332   0.675   2.106   4.265 -2.5677  2.6605 -1.4615
 5790TIP3   OH217333   4.115   4.495   5.477 -0.3411 -0.3306 -0.2887
 5790TIP3    H117334   4.087   4.404   5.470  0.5651 -0.6006 -0.6187
 5790TIP3    H217335   4.037   4.547   5.460 -1.0325 -1.0456  0.6197
 5791TIP3   OH217336   5.231   0.519   0.158 -0.0807 -0.5064  0.1357
 5791TIP3    H117337   5.168   0.555   0.220  1.5524  0.2587  1.4281
 5791TIP3    H217338   5.258   0.436   0.197 -0.9881 -1.3286 -0.9182
 5792TIP3   OH217339   1.441   0.644   3.938 -0.1593 -0.1165  0.1631
 5792TIP3    H117340   1.465   0.626   4.029 -0.9196  2.7402  1.0237
 5792TIP3    H217341   1.525   0.652   3.892  0.2297 -2.9816  0.2035
 5793TIP3   OH217342   3.588   3.097   2.607  0.1444  0.2623 -0.4975
 5793TIP3    H117343   3.523   3.114   2.538 -0.1495  0.1566 -0.2462
 5793TIP3    H217344   3.673   3.107   2.563  0.0130  2.5508 -0.3597
 5794TIP3   OH217345   1.983   2.762   3.816  0.0853  0.2305 -0.2973
 5794TIP3    H117346   2.063   2.732   3.773  1.5082 -0.1132  2.3694
 5794TIP3    H217347   1.933   2.682   3.834 -0.5481  0.3807 -1.2752
 5795TIP3   OH217348   5.602   3.255   5.572  0.3689  0.2146  0.2419
 5795TIP3    H117349   5.602   3.336   5.522  1.0611 -0.2316 -0.5136
 5795TIP3    H217350   5.509   3.235   5.585  0.1597  0.2742 -1.0154
 5796TIP3   OH217351   6.268   1.875   5.184  0.3391 -0.1997  0.1844
 5796TIP3    H117352   6.245   1.789   5.148 -1.1490  0.6405 -0.9861
 5796TIP3    H217353   6.189   1.903   5.231 -0.1777  1.6036 -1.6328
 5797TIP3   OH217354   1.459   1.898   1.277 -1.1022  0.5400  0.3515
 5797TIP3    H117355   1.442   1.883   1.369  1.0425 -1.8048  0.4396
 5797TIP3    H217356   1.552   1.916   1.272 -1.0676  0.0466 -1.4269
 5798TIP3   OH217357   3.115   4.141   4.612 -0.1734 -0.2262  0.7456
 5798TIP3    H117358   3.027   4.179   4.620 -0.5480 -1.3305  2.8795
 5798TIP3    H217359   3.162   4.175   4.688  1.4757  0.7826 -0.6692
 5799TIP3   OH217360   6.607   3.206   3.362 -0.0205 -0.1888 -0.1229
 5799TIP3    H117361   6.659   3.200   3.442  1.0105  0.3483 -0.7315
 5799TIP3    H217362   6.598   3.300   3.345 -1.9599 -0.2334  0.4344
 5800TIP3   OH217363   4.861   1.016   2.960 -0.1555  0.3753  0.4865
 5800TIP3    H117364   4.775   1.020   2.918  0.4342  1.9523 -0.6873
 5800TIP3    H217365   4.856   1.080   3.031 -0.4682 -0.7707  1.5313
 5801TIP3   OH217366   1.690   4.312   1.441  0.2012 -0.0231  0.3330
 5801TIP3    H117367   1.632   4.296   1.515 -0.1655 -1.6158 -0.2591
 5801TIP3    H217368   1.737   4.230   1.430  1.7518  0.8577  0.0704
 5802TIP3   OH217369   7.192   0.168   0.586  0.3765  0.5455 -0.0654
 5802TIP3    H117370   7.206   0.211   0.501 -1.9186  0.2912 -0.6293
 5802TIP3    H217371   7.138   0.092   0.566  0.6489 -0.1048  1.5170
 5803TIP3   OH217372   3.989   4.898   1.222  0.1531 -0.0200 -0.2581
 5803TIP3    H117373   3.945   4.925   1.142 -0.4151 -0.7802 -0.2045
 5803TIP3    H217374   3.918   4.882   1.285  0.6078  1.1680  0.5985
 5804TIP3   OH217375   2.683   2.405   0.384 -0.1772  0.3706  0.3248
 5804TIP3    H117376   2.633   2.431   0.307 -0.1828  0.7398  0.4531
 5804TIP3    H217377   2.767   2.376   0.349 -0.1783  0.5421  0.1779
 5805TIP3   OH217378   0.504   5.232   4.625  0.0251 -0.2414 -0.2675
 5805TIP3    H117379   0.587   5.265   4.659 -0.5310  0.9056  0.0279
 5805TIP3    H217380   0.438   5.270   4.682 -0.6546 -2.5371  0.6139
 5806TIP3   OH217381   2.677   5.127   0.816  0.2925 -0.2949  0.5104
 5806TIP3    H117382   2.610   5.097   0.754  2.0769  0.4546 -1.9437
 5806TIP3    H217383   2.716   5.046   0.850  1.3691 -0.8741 -1.8418
 5807TIP3   OH217384   3.531   1.034   2.072 -0.3111  0.5581 -0.3059
 5807TIP3    H117385   3.551   1.052   2.164  0.2026 -0.2480 -0.2446
 5807TIP3    H217386   3.552   0.941   2.061  2.3030  1.2250 -1.8929
 5808TIP3   OH217387   4.894   3.325   2.880  0.2851 -0.1608  0.0730
 5808TIP3    H117388   4.819   3.359   2.929  0.7816  1.2432 -0.1082
 5808TIP3    H217389   4.904   3.235   2.911 -0.0304  0.3754  1.8217
 5809TIP3   OH217390   5.976   6.456   5.439 -0.3611 -0.5056  0.2502
 5809TIP3    H117391   6.029   6.397   5.386 -0.5894 -0.2876 -0.2205
 5809TIP3    H217392   5.988   6.542   5.400 -0.1637 -0.2589  0.8338
 5810TIP3   OH217393   3.728   4.455   2.243 -0.0280 -0.0407  0.3780
 5810TIP3    H117394   3.795   4.489   2.302  0.1469 -0.2957  0.3298
 5810TIP3    H217395   3.669   4.529   2.228  1.0727  0.6493 -0.7653
 5811TIP3   OH217396   1.332   0.361   1.198  0.3039  0.1257  0.6265
 5811TIP3    H117397   1.294   0.274   1.190  0.8209 -0.0802  0.3518
 5811TIP3    H217398   1.415   0.356   1.150 -0.3092  1.1693 -0.5855
 5812TIP3   OH217399   1.604   4.580   4.522  0.0257  0.3370  0.5623
 5812TIP3    H117400   1.554   4.559   4.600 -0.9841 -0.8768 -0.3714
 5812TIP3    H217401   1.657   4.502   4.505  0.9165  0.9321  0.5302
 5813TIP3   OH217402   1.454   3.459   4.428 -0.1768 -0.5718 -0.1552
 5813TIP3    H117403   1.537   3.498   4.457 -0.2035 -0.1562 -0.6330
 5813TIP3    H217404   1.390   3.487   4.494  0.3193 -2.0887  1.0347
 5814TIP3   OH217405   5.106   6.598   4.632 -0.1508  0.0097 -0.4380
 5814TIP3    H117406   5.144   6.518   4.669  0.2631  0.1704 -0.5134
 5814TIP3    H217407   5.142   6.603   4.543  0.5816  0.7874 -0.1070
 5815TIP3   OH217408   1.460   2.287   2.320  0.0962 -0.2234  0.3534
 5815TIP3    H117409   1.507   2.264   2.400 -0.2169 -1.9619  0.0673
 5815TIP3    H217410   1.497   2.231   2.253 -0.4320  0.4138 -0.4895
 5816TIP3   OH217411   2.940   6.228   3.053 -0.4022 -0.2880 -0.5535
 5816TIP3    H117412   2.946   6.262   3.142  2.2052 -0.3950 -0.6166
 5816TIP3    H217413   2.873   6.282   3.011 -1.4956 -0.0785  1.3630
 5817TIP3   OH217414   0.527   6.250   4.206 -0.8306 -0.6584 -0.2288
 5817TIP3    H117415   0.540   6.246   4.111  0.3239 -0.2683 -0.0944
 5817TIP3    H217416   0.584   6.321   4.235 -1.2221 -0.7382  0.7609
 5818TIP3   OH217417   0.760   6.037   4.284 -0.1789  0.6434  0.1995
 5818TIP3    H117418   0.766   6.112   4.343  0.2789  0.8345 -0.0919
 5818TIP3    H217419   0.831   5.979   4.311  1.4395  1.7278 -1.5634
 5819TIP3   OH217420   3.089   2.549   0.045  0.3813  0.0440 -0.0723
 5819TIP3    H117421   3.040   2.467   0.046 -0.5040  0.5502 -0.4892
 5819TIP3    H217422   3.135   2.550   0.128  0.7950 -1.1009 -0.2686
 5820TIP3   OH217423   2.581   3.861   2.065 -0.8196 -0.3790  0.6338
 5820TIP3    H117424   2.617   3.900   2.145 -1.4217  0.6329  0.4309
 5820TIP3    H217425   2.493   3.897   2.058 -0.9886 -0.9267 -0.1686
 5821TIP3   OH217426   0.811   0.057   4.994  0.4272 -0.1823  0.2502
 5821TIP3    H117427   0.728   0.038   5.038  0.6122  0.2740  0.8039
 5821TIP3    H217428   0.787   0.101   4.913  0.0766 -1.1198 -0.1748
 5822TIP3   OH217429   3.647   3.969   3.540 -0.0068 -0.4763  0.2842
 5822TIP3    H117430   3.639   4.014   3.456 -0.2406 -1.7987 -0.4245
 5822TIP3    H217431   3.720   3.908   3.529  0.5017 -0.0833  1.3277
 5823TIP3   OH217432   0.864   2.997   3.623 -0.5063  0.4062  0.2078
 5823TIP3    H117433   0.941   2.989   3.678 -0.5001  0.2326  0.1734
 5823TIP3    H217434   0.890   3.058   3.553 -0.5977  0.8322  0.5381
 5824TIP3   OH217435   0.005   2.239   0.503 -0.5518  0.3730 -0.7820
 5824TIP3    H117436   0.097   2.211   0.502 -0.3178  1.1428 -1.2403
 5824TIP3    H217437  -0.043   2.160   0.528  0.1984 -0.1305 -0.8839
 5825TIP3   OH217438   1.995   4.983   2.364  0.2608  0.3810 -0.1587
 5825TIP3    H117439   1.976   4.890   2.347  0.1426  0.4875 -0.6197
 5825TIP3    H217440   2.079   4.998   2.322  0.7636  0.2419  0.7598
 5826TIP3   OH217441   5.240   0.629   3.205  0.2246  0.8573 -0.4313
 5826TIP3    H117442   5.271   0.602   3.292  1.1117  0.3040 -0.9039
 5826TIP3    H217443   5.237   0.548   3.154 -0.9531  1.0783 -0.7267
 5827TIP3   OH217444   6.180   5.915   5.089  0.0673 -0.5053 -0.1484
 5827TIP3    H117445   6.110   5.863   5.129  1.6985 -2.1980  0.6752
 5827TIP3    H217446   6.150   6.005   5.097 -3.0562 -1.2244 -1.9289
 5828TIP3   OH217447   5.555   4.074   5.480  0.6729  0.1182 -0.0931
 5828TIP3    H117448   5.580   4.154   5.527  2.0459  0.5720 -1.5091
 5828TIP3    H217449   5.638   4.030   5.464 -0.1123 -2.0380  1.3288
 5829TIP3   OH217450   5.601   6.312   3.537  0.0717 -0.2362 -0.4261
 5829TIP3    H117451   5.517   6.289   3.497 -0.3521  2.3883 -1.2344
 5829TIP3    H217452   5.660   6.325   3.462  0.5866  0.0690  0.0261
 5830TIP3   OH217453   6.747   1.999   0.986  0.0136 -0.2332 -0.3724
 5830TIP3    H117454   6.817   1.946   0.949  0.6535  0.1367  0.2834
 5830TIP3    H217455   6.675   1.938   1.001  0.8893 -1.0067  0.7804
 5831TIP3   OH217456   1.844   5.480   3.246 -0.1771  0.3508  0.3020
 5831TIP3    H117457   1.917   5.423   3.223 -0.1479 -0.8178  2.9062
 5831TIP3    H217458   1.770   5.421   3.257 -1.2132  1.3611 -0.9306
 5832TIP3   OH217459   5.539   6.594   1.461  0.0181 -0.5478 -0.3229
 5832TIP3    H117460   5.536   6.564   1.370 -0.6664  0.6005 -0.7012
 5832TIP3    H217461   5.631   6.589   1.485  0.8622  2.5711 -2.3204
 5833TIP3   OH217462   0.607   3.194   5.401 -0.6764  0.2309  0.1740
 5833TIP3    H117463   0.542   3.170   5.466 -2.2101  1.2801 -0.9067
 5833TIP3    H217464   0.576   3.277   5.366  0.6292  0.1768 -1.2018
 5834TIP3   OH217465   5.401   0.492   1.935 -0.2729 -0.2080 -0.6374
 5834TIP3    H117466   5.321   0.458   1.895 -0.2366  0.1118 -0.9820
 5834TIP3    H217467   5.389   0.474   2.029 -0.8284  0.0012 -0.6634
 5835TIP3   OH217468   0.909   1.242   3.427 -0.5987 -0.1941  0.2135
 5835TIP3    H117469   1.003   1.232   3.413 -0.6118 -0.5880  0.3976
 5835TIP3    H217470   0.870   1.164   3.387 -0.8179 -0.2021  0.4382
 5836TIP3   OH217471   0.605   3.757   4.925 -0.5916 -0.6471 -0.0064
 5836TIP3    H117472   0.620   3.816   4.998 -0.7844  0.5400 -0.8951
 5836TIP3    H217473   0.513   3.771   4.901  0.0099  0.6196 -1.8260
 5837TIP3   OH217474   5.902   5.877   3.725 -0.0193  0.0562  0.5761
 5837TIP3    H117475   5.926   5.785   3.712 -0.9589 -0.2356  0.8760
 5837TIP3    H217476   5.907   5.916   3.638  1.3162 -0.0337  0.5798
 5838TIP3   OH217477   1.367   2.080   4.330 -0.0274  0.8172  0.0250
 5838TIP3    H117478   1.455   2.042   4.329  0.6567  2.2143  1.9043
 5838TIP3    H217479   1.351   2.106   4.239  0.8695 -0.7959 -0.6310
 5839TIP3   OH217480   0.062   0.205   1.471 -0.3405 -0.3444  0.3958
 5839TIP3    H117481  -0.019   0.166   1.438 -0.8345  0.0804  1.0834
 5839TIP3    H217482   0.102   0.247   1.394 -1.1481  0.0796  0.1955
 5840TIP3   OH217483   5.856   0.794   1.740 -0.0453 -0.0787 -0.1330
 5840TIP3    H117484   5.853   0.737   1.663  1.3776  0.4433 -0.6146
 5840TIP3    H217485   5.789   0.759   1.799 -2.2254  0.3639 -2.1787
 5841TIP3   OH217486   4.066   6.389   1.884 -0.1074 -0.0118  0.5480
 5841TIP3    H117487   4.056   6.358   1.974  0.3690  0.0055  0.6105
 5841TIP3    H217488   4.017   6.327   1.832 -1.7523  0.8731  0.9605
 5842TIP3   OH217489   4.176   2.571   3.397  0.2642 -0.1914  0.0644
 5842TIP3    H117490   4.207   2.481   3.386 -0.9752 -0.5665 -0.5632
 5842TIP3    H217491   4.088   2.570   3.360 -0.1769  1.0303  1.0479
 5843TIP3   OH217492   2.823   3.009   4.771  0.1012 -0.4266  0.2005
 5843TIP3    H117493   2.792   3.070   4.838 -0.7238 -1.0538  0.4127
 5843TIP3    H217494   2.892   3.057   4.724 -1.8161  1.4272 -0.9248
 5844TIP3   OH217495   5.041   5.029   4.348  0.1516 -0.3557 -0.4433
 5844TIP3    H117496   4.984   4.961   4.385  1.0024 -1.3226 -0.8680
 5844TIP3    H217497   4.993   5.110   4.362 -1.6677 -1.2076 -1.4091
 5845TIP3   OH217498   0.429   6.564   2.815 -0.7432 -0.3449 -0.0650
 5845TIP3    H117499   0.411   6.609   2.732 -1.2744 -0.9217 -0.2683
 5845TIP3    H217500   0.490   6.494   2.791 -0.1881  0.0413  0.1920
 5846TIP3   OH217501   1.484   5.982   0.864  0.5255 -0.0504 -0.0824
 5846TIP3    H117502   1.396   5.943   0.863  0.4770  0.0766 -0.7219
 5846TIP3    H217503   1.502   6.003   0.773  0.6192  1.2830  0.2264
 5847TIP3   OH217504   5.231   0.754   0.018 -0.8079 -0.1318 -0.0685
 5847TIP3    H117505   5.164   0.722  -0.043 -1.6577 -0.5062  1.0230
 5847TIP3    H217506   5.241   0.683   0.081 -0.2606  0.4218  0.4753
 5848TIP3   OH217507   6.373   5.895   0.210  0.2669 -0.6292 -0.1881
 5848TIP3    H117508   6.329   5.961   0.263  0.0022 -0.0095 -1.1508
 5848TIP3    H217509   6.312   5.821   0.208  0.2227 -0.6032  0.2598
 5849TIP3   OH217510   6.545   0.307   4.566 -0.1215 -0.4965  0.9592
 5849TIP3    H117511   6.627   0.262   4.587  1.0185  0.4687 -1.0804
 5849TIP3    H217512   6.546   0.385   4.620  0.3029 -0.5124  0.9782
 5850TIP3   OH217513   6.876   1.876   0.597 -0.5094 -0.8664  0.2364
 5850TIP3    H117514   6.897   1.809   0.532  0.1533  0.0474 -0.5102
 5850TIP3    H217515   6.781   1.884   0.592 -0.6368 -1.9582  0.5587
 5851TIP3   OH217516   6.885   1.869   1.212  0.0662  0.1649 -0.1186
 5851TIP3    H117517   6.829   1.936   1.172  0.2204  0.4278  0.1033
 5851TIP3    H217518   6.824   1.806   1.250 -0.1127  1.2473  1.4908
 5852TIP3   OH217519   0.676   4.338   3.405  0.1174 -0.6993 -0.4950
 5852TIP3    H117520   0.712   4.336   3.316  1.5419  0.4776  0.0068
 5852TIP3    H217521   0.733   4.281   3.456  1.5046  1.3103  0.3466
 5853TIP3   OH217522   1.930   1.773   4.004  0.1223  0.1156 -0.2843
 5853TIP3    H117523   1.839   1.766   4.032  0.3171 -0.2891  0.2486
 5853TIP3    H217524   1.980   1.726   4.070  0.8571  1.4181  0.1287
 5854TIP3   OH217525   1.289   6.163   1.193  0.1852 -0.7255  0.7170
 5854TIP3    H117526   1.245   6.179   1.109  0.5207 -0.5270  0.5806
 5854TIP3    H217527   1.291   6.067   1.201  1.5604 -0.7979 -0.2486
 5855TIP3   OH217528   5.159   5.980   5.842 -0.1381  0.1816  0.3284
 5855TIP3    H117529   5.152   5.917   5.770  0.4543 -0.4790  0.8297
 5855TIP3    H217530   5.245   5.962   5.881 -0.4019  0.5970  1.1256
 5856TIP3   OH217531   4.981   1.759   1.702 -0.2521  0.3038  0.3061
 5856TIP3    H117532   5.013   1.838   1.745  0.4725 -0.2061  0.7221
 5856TIP3    H217533   4.937   1.791   1.623 -2.9591  1.3861  2.1338
 5857TIP3   OH217534   0.018   0.503   5.238  0.5601 -0.0234 -0.4802
 5857TIP3    H117535   0.088   0.564   5.260 -0.8202  0.4071  3.4259
 5857TIP3    H217536   0.031   0.428   5.296 -0.5256 -1.2949 -1.7999
 5858TIP3   OH217537   3.929   5.000   0.054 -0.1080  0.2532 -0.7720
 5858TIP3    H117538   3.869   5.050  -0.001  0.3699  1.4698 -0.2322
 5858TIP3    H217539   4.004   4.982  -0.002  1.2628  3.2025 -0.0672
 5859TIP3   OH217540   1.534   6.392   5.153  0.0146 -0.1207 -0.0967
 5859TIP3    H117541   1.560   6.301   5.141  0.6074 -0.0809  0.8205
 5859TIP3    H217542   1.439   6.388   5.165 -0.1459 -0.4761 -1.3473
 5860TIP3   OH217543   1.202   2.740   2.061 -0.4587  0.0066 -0.6556
 5860TIP3    H117544   1.114   2.709   2.040 -0.3680  0.4490 -1.7791
 5860TIP3    H217545   1.188   2.819   2.114 -0.7252 -0.3728 -0.1602
 5861TIP3   OH217546   5.862   5.729   1.522  0.6299  0.4396  0.2461
 5861TIP3    H117547   5.810   5.791   1.573 -1.4365 -0.0594 -1.1369
 5861TIP3    H217548   5.917   5.784   1.467 -1.0018  1.1216 -0.7874
 5862TIP3   OH217549   4.133   4.659   0.684 -0.2338 -0.1483  0.3476
 5862TIP3    H117550   4.174   4.595   0.743  0.3428 -0.6016 -0.5303
 5862TIP3    H217551   4.196   4.732   0.681 -0.4773  0.0810  0.6364
 5863TIP3   OH217552   5.227   6.723   3.830  0.1826  0.0185  0.2425
 5863TIP3    H117553   5.248   6.797   3.887 -0.1343  0.2542  0.0617
 5863TIP3    H217554   5.142   6.747   3.791 -3.4100 -3.1823  5.0015
 5864TIP3   OH217555   2.611   0.510   2.376  0.2336  0.3632  0.5448
 5864TIP3    H117556   2.676   0.453   2.333  1.6737  1.6985  0.8529
 5864TIP3    H217557   2.636   0.507   2.469 -2.1874 -1.6534  1.2300
 5865TIP3   OH217558   2.928   6.108   5.525 -0.0723 -1.0081 -0.0940
 5865TIP3    H117559   3.009   6.125   5.573 -1.1545  1.2878  1.0407
 5865TIP3    H217560   2.869   6.070   5.591 -0.5287 -0.8966 -0.4359
 5866TIP3   OH217561   5.192   4.583   5.331 -0.1258 -0.2185 -0.9636
 5866TIP3    H117562   5.280   4.594   5.367 -0.2024 -1.5155 -0.3053
 5866TIP3    H217563   5.171   4.667   5.291 -0.1123  1.4246  2.1833
 5867TIP3   OH217564   4.258   5.371   0.527 -0.0571 -0.8747 -0.1801
 5867TIP3    H117565   4.166   5.366   0.554 -0.4011 -1.9447 -1.4666
 5867TIP3    H217566   4.305   5.318   0.591 -0.2541  0.0200  0.7340
 5868TIP3   OH217567   7.084   0.807   2.275  0.1008  0.0829  0.9305
 5868TIP3    H117568   7.071   0.869   2.347 -1.2471  0.2781  0.5415
 5868TIP3    H217569   6.996   0.783   2.248  0.5033  1.3208 -1.7819
 5869TIP3   OH217570   6.766   4.002   4.168 -0.0391  0.2736 -0.9004
 5869TIP3    H117571   6.850   4.033   4.201 -0.4476 -0.2497  0.7144
 5869TIP3    H217572   6.781   3.909   4.147  0.0746  0.4672 -1.7047
 5870TIP3   OH217573   1.867   4.013   3.861 -0.7438  0.4987  0.4544
 5870TIP3    H117574   1.924   4.059   3.799 -0.8964 -0.1320 -0.1572
 5870TIP3    H217575   1.914   3.933   3.882 -1.0072  0.3896  0.6329
 5871TIP3   OH217576   4.681   1.614   1.111  0.2864 -0.3118 -0.3161
 5871TIP3    H117577   4.686   1.530   1.157  0.0467 -0.3674 -0.3859
 5871TIP3    H217578   4.663   1.590   1.020 -1.2743 -0.1540 -0.0816
 5872TIP3   OH217579   2.407   0.580   4.315 -0.6773  0.1008 -1.0376
 5872TIP3    H117580   2.478   0.517   4.304  0.5821  0.8800  1.6944
 5872TIP3    H217581   2.331   0.527   4.338 -0.0870 -0.5495 -0.5565
 5873TIP3   OH217582   2.995   4.023   5.602  0.1893 -0.1568  0.4191
 5873TIP3    H117583   3.032   3.938   5.626  0.5612  0.2856  1.5050
 5873TIP3    H217584   2.903   4.018   5.630  0.8033  0.6240  2.8105
 5874TIP3   OH217585   5.085   5.437   2.194 -0.2000  0.5055 -0.0196
 5874TIP3    H117586   5.135   5.367   2.152  0.9110  1.4881 -0.4288
 5874TIP3    H217587   5.057   5.493   2.121 -1.8633  0.0188  0.2207
 5875TIP3   OH217588   3.317   5.602   4.588 -0.2384  0.3727  0.6755
 5875TIP3    H117589   3.372   5.530   4.619 -0.1546  0.6469  1.1797
 5875TIP3    H217590   3.318   5.665   4.660  2.0337  2.2065 -0.8150
 5876TIP3   OH217591   5.158   3.994   1.255 -0.4558  0.4982 -0.1622
 5876TIP3    H117592   5.203   4.046   1.189 -0.3357  0.2032 -0.3133
 5876TIP3    H217593   5.160   3.904   1.221  2.0380 -0.1872  1.4685
 5877TIP3   OH217594   2.451   5.473   5.175  0.2260 -0.1685  0.6447
 5877TIP3    H117595   2.387   5.488   5.245 -0.7893  2.4992 -0.7254
 5877TIP3    H217596   2.536   5.489   5.216 -0.3148  0.8536  1.4108
 5878TIP3   OH217597   0.870   5.872   5.826  0.8341 -0.0184  0.3868
 5878TIP3    H117598   0.930   5.928   5.877 -0.7075  1.7248  0.3816
 5878TIP3    H217599   0.806   5.933   5.790 -1.1904 -1.8637  0.7192
 5879TIP3   OH217600   4.000   0.527   0.657 -0.3516 -0.4005  0.7192
 5879TIP3    H117601   4.037   0.486   0.735  3.2591 -1.4232 -1.3028
 5879TIP3    H217602   3.981   0.453   0.599 -3.9277  0.2628  0.8410
 5880TIP3   OH217603   4.182   5.392   0.860 -0.0101 -0.6639  0.2278
 5880TIP3    H117604   4.090   5.401   0.885 -0.1750 -0.6490 -0.3549
 5880TIP3    H217605   4.196   5.297   0.857 -0.8630 -0.8034 -2.5508
 5881TIP3   OH217606   2.031   5.726   5.656  0.5416 -0.4413  0.0524
 5881TIP3    H117607   2.031   5.798   5.719  1.1554 -1.4010  1.1967
 5881TIP3    H217608   2.047   5.768   5.571 -2.8341  1.2125  0.0670
 5882TIP3   OH217609   4.433   6.762   0.694  0.0968  0.1626  0.5499
 5882TIP3    H117610   4.442   6.683   0.641  2.0286  0.0012  1.0330
 5882TIP3    H217611   4.431   6.833   0.631 -0.8019 -0.2071  0.1453
 5883TIP3   OH217612   4.778   2.583   1.069 -0.1339 -0.0889 -0.4431
 5883TIP3    H117613   4.823   2.546   0.993 -0.1860 -1.7660  0.2891
 5883TIP3    H217614   4.705   2.524   1.085 -0.7265  0.8153  0.3098
 5884TIP3   OH217615   5.882   2.678   3.583 -0.3332  0.2407  0.2922
 5884TIP3    H117616   5.848   2.630   3.507  0.6065 -0.8054  0.4993
 5884TIP3    H217617   5.901   2.766   3.549  1.4866 -0.6122 -1.1415
 5885TIP3   OH217618   6.166   4.670   3.917 -0.1644  0.1501 -0.2336
 5885TIP3    H117619   6.175   4.577   3.939 -1.8072 -0.1950 -0.8787
 5885TIP3    H217620   6.085   4.675   3.867 -0.4981  2.0399  0.4137
 5886TIP3   OH217621   0.780   4.069   1.941 -0.2112 -0.2697  0.3790
 5886TIP3    H117622   0.742   4.076   1.854  0.6801 -0.4799 -0.0389
 5886TIP3    H217623   0.875   4.074   1.927 -0.0635 -0.0358  1.3602
 5887TIP3   OH217624   0.428   3.509   2.177 -0.0250  0.0400  0.1034
 5887TIP3    H117625   0.382   3.573   2.123 -0.4818 -0.6005 -0.2870
 5887TIP3    H217626   0.435   3.549   2.263  0.4296  0.9486 -0.3451
 5888TIP3   OH217627   0.918   4.995   5.131  0.6268  0.2169 -0.4640
 5888TIP3    H117628   0.876   4.912   5.155 -0.4180  1.3867  2.0437
 5888TIP3    H217629   1.012   4.975   5.130  0.3234 -1.7032 -3.1330
 5889TIP3   OH217630   0.925   3.225   4.515 -0.1341  0.6804 -0.3885
 5889TIP3    H117631   0.893   3.174   4.440 -0.6619  0.0924  0.2226
 5889TIP3    H217632   1.016   3.195   4.527 -0.8448 -1.2110  0.8238
 5890TIP3   OH217633   5.526   5.094   0.945  0.0919 -0.1515  0.4082
 5890TIP3    H117634   5.465   5.152   0.991 -0.9341 -1.2747  0.5143
 5890TIP3    H217635   5.550   5.142   0.866 -3.0892 -0.7280 -1.0481
 5891TIP3   OH217636   1.043   6.405   1.006 -0.2614  0.2069 -0.0063
 5891TIP3    H117637   1.085   6.322   0.984  2.4083  0.9185  1.8865
 5891TIP3    H217638   0.989   6.385   1.083  0.5871  0.2368  0.6107
 5892TIP3   OH217639   7.132   5.955   3.229  0.3220  0.0804  0.1754
 5892TIP3    H117640   7.037   5.943   3.231  0.6612 -3.4129  1.6516
 5892TIP3    H217641   7.148   6.006   3.149 -2.8557  2.7735  0.9988
 5893TIP3   OH217642   4.999   0.431   3.894 -0.0945  0.3452 -0.1028
 5893TIP3    H117643   4.930   0.380   3.851  0.3337 -1.3387  1.1083
 5893TIP3    H217644   4.984   0.521   3.865 -1.0423 -0.4037 -2.1327
 5894TIP3   OH217645   2.704   3.660   2.425 -0.6004  0.1884 -0.1974
 5894TIP3    H117646   2.645   3.706   2.484  0.1306  1.5810 -0.4976
 5894TIP3    H217647   2.741   3.729   2.369  1.2667 -0.6258 -0.0591
 5895TIP3   OH217648   0.225   4.837   1.394 -0.1119 -0.1073  0.2028
 5895TIP3    H117649   0.202   4.762   1.340  2.1940 -0.6305 -0.1732
 5895TIP3    H217650   0.182   4.821   1.478 -1.1092 -0.9194 -0.4458
 5896TIP3   OH217651   6.518   1.708   4.860  0.2315 -0.5467 -0.2413
 5896TIP3    H117652   6.444   1.717   4.800  0.4116  0.2076 -0.3633
 5896TIP3    H217653   6.568   1.634   4.825 -0.4619 -1.0735 -0.1463
 5897TIP3   OH217654   3.208   1.180   0.162  0.0313  0.1288  0.3414
 5897TIP3    H117655   3.159   1.114   0.211  0.2753 -0.3420 -0.0399
 5897TIP3    H217656   3.142   1.245   0.138 -0.7309 -1.1621 -1.3285
 5898TIP3   OH217657   0.107   5.231   3.189 -0.0748 -0.0925 -0.5383
 5898TIP3    H117658   0.025   5.267   3.157 -0.7265 -1.9309 -1.0955
 5898TIP3    H217659   0.133   5.167   3.122  1.8037  0.4157 -0.3618
 5899TIP3   OH217660   0.693   4.501   0.634 -0.8160 -1.1454 -0.4348
 5899TIP3    H117661   0.647   4.484   0.716 -0.5960 -1.2625 -0.3338
 5899TIP3    H217662   0.628   4.486   0.566 -1.7483  1.4194 -0.1967
 5900TIP3   OH217663   4.970   1.676   2.735  0.6377  0.0171  0.2933
 5900TIP3    H117664   4.979   1.676   2.640 -1.8964  1.6782 -0.0585
 5900TIP3    H217665   4.973   1.768   2.759 -0.2024 -0.2737  1.6271
 5901TIP3   OH217666   3.165   2.852   1.900  0.1876  0.3702 -0.0770
 5901TIP3    H117667   3.077   2.866   1.866 -0.1138 -1.7509 -0.2504
 5901TIP3    H217668   3.220   2.845   1.822  0.1018 -0.7148 -0.0532
 5902TIP3   OH217669   2.551   2.183   0.514  0.3199 -0.3569  0.0090
 5902TIP3    H117670   2.606   2.124   0.566  1.1211  0.0335 -0.3729
 5902TIP3    H217671   2.610   2.253   0.486 -0.9504  1.5404  1.8063
 5903TIP3   OH217672   4.807   0.875   3.781  0.4019  0.6232  0.0241
 5903TIP3    H117673   4.755   0.888   3.702  0.1674  1.4827  0.3083
 5903TIP3    H217674   4.744   0.878   3.852  0.7349  0.8306  0.3146
 5904TIP3   OH217675   3.903   0.743   4.081 -0.4049  0.3660 -0.4119
 5904TIP3    H117676   3.919   0.676   4.147 -0.9822 -0.3771 -1.0065
 5904TIP3    H217677   3.949   0.710   4.003  2.1581  2.2784  0.1608
 5905TIP3   OH217678   6.173   0.837   3.318  0.8506  0.2992  0.4110
 5905TIP3    H117679   6.191   0.905   3.254 -0.1944  1.3464  1.1888
 5905TIP3    H217680   6.204   0.756   3.277 -1.3690  0.6344 -2.1668
 5906TIP3   OH217681   5.242   4.805   0.623 -0.1917  0.0846 -0.0199
 5906TIP3    H117682   5.192   4.729   0.654  0.9655 -0.5928  0.2575
 5906TIP3    H217683   5.281   4.842   0.703 -0.1511  0.5331 -0.2423
 5907TIP3   OH217684   3.766   3.108   4.790 -0.3453  0.3032  0.3122
 5907TIP3    H117685   3.749   3.069   4.875  0.8531 -0.3824  0.2701
 5907TIP3    H217686   3.701   3.069   4.732  0.7070 -1.5543  0.3097
 5908TIP3   OH217687   3.589   5.803   1.474  0.4544  0.0011  0.0138
 5908TIP3    H117688   3.518   5.803   1.410  1.5692 -0.4422 -1.2815
 5908TIP3    H217689   3.598   5.711   1.501 -0.5507  0.3016  1.4744
 5909TIP3   OH217690   3.108   0.180   1.693 -0.0189 -0.1391 -0.5458
 5909TIP3    H117691   3.024   0.218   1.668 -0.2184 -1.4874 -2.0674
 5909TIP3    H217692   3.086   0.095   1.732  0.5173  0.5431  1.3632
 5910TIP3   OH217693   3.088   0.964   5.791  0.3303 -0.1614 -0.2398
 5910TIP3    H117694   3.128   0.936   5.873  0.2091 -0.7208 -0.3664
 5910TIP3    H217695   3.069   0.883   5.744 -1.4012  0.0419  0.0323
 5911TIP3   OH217696   4.832   4.432   3.268  0.6632 -0.2852  0.1176
 5911TIP3    H117697   4.799   4.343   3.257 -2.1792  0.6697 -0.0303
 5911TIP3    H217698   4.874   4.453   3.185  1.8465 -1.6302  0.3435
 5912TIP3   OH217699   5.614   6.435   4.042  0.1333 -0.3407  0.2426
 5912TIP3    H117700   5.690   6.402   3.995 -0.1374  1.1728 -1.3890
 5912TIP3    H217701   5.638   6.525   4.066 -0.7493 -0.1968  0.6378
 5913TIP3   OH217702   3.281   3.798   0.936  0.2977  0.2027  0.0030
 5913TIP3    H117703   3.297   3.891   0.949  0.6106  0.2311 -0.5457
 5913TIP3    H217704   3.358   3.767   0.888  0.4792 -0.4651  0.7110
 5914TIP3   OH217705   3.437   1.089   0.344 -0.1676  0.6087  0.5311
 5914TIP3    H117706   3.500   1.126   0.406  0.4351  0.0201  0.2836
 5914TIP3    H217707   3.393   1.165   0.306 -0.9525  0.9725  2.0722
 5915TIP3   OH217708   1.946   2.654   4.177 -0.3088  0.2038  0.4290
 5915TIP3    H117709   2.028   2.685   4.217  0.7521 -1.1271 -0.6304
 5915TIP3    H217710   1.953   2.559   4.177 -1.0197  0.1119 -1.3731
 5916TIP3   OH217711   3.359   0.920   4.550 -0.3663  0.0246 -0.1584
 5916TIP3    H117712   3.450   0.922   4.522 -0.3937 -0.1538 -0.2712
 5916TIP3    H217713   3.346   1.000   4.600 -0.6031  0.9228 -1.5931
 5917TIP3   OH217714   4.905   1.157   5.705 -0.0266 -0.0405 -0.1146
 5917TIP3    H117715   4.819   1.158   5.662  0.1754  0.4303 -0.5271
 5917TIP3    H217716   4.915   1.245   5.741  0.5904  0.1439 -0.7129
 5918TIP3   OH217717   2.585   6.392   0.825 -0.0226  0.1517  0.3688
 5918TIP3    H117718   2.678   6.404   0.809  0.1541  0.6994  1.6961
 5918TIP3    H217719   2.545   6.393   0.738  1.0273  1.4281 -0.1245
 5919TIP3   OH217720   3.601   5.050   5.727 -0.0535 -0.1195  0.3495
 5919TIP3    H117721   3.654   4.970   5.728  0.5132  0.2302  2.2841
 5919TIP3    H217722   3.510   5.019   5.729  0.1546 -0.8034  2.5049
 5920TIP3   OH217723   6.283   1.324   5.520 -0.1782 -0.0088 -0.0754
 5920TIP3    H117724   6.203   1.292   5.478  0.8506 -2.0561 -0.5699
 5920TIP3    H217725   6.339   1.353   5.448 -0.4010  1.3546  0.2658
 5921TIP3   OH217726   3.888   4.506   3.500  0.5345  0.0143  0.3561
 5921TIP3    H117727   3.944   4.513   3.577 -1.8141  1.7033  2.0423
 5921TIP3    H217728   3.893   4.592   3.458 -1.7819  0.7034  1.3583
 5922TIP3   OH217729   2.117   5.497   5.751 -0.0866  0.1566 -0.0722
 5922TIP3    H117730   2.087   5.580   5.713  0.6588  0.2204 -0.5506
 5922TIP3    H217731   2.205   5.485   5.715  0.4011 -0.0965  1.1657
 5923TIP3   OH217732   6.576   2.580   5.251  0.0834 -0.3211  0.0253
 5923TIP3    H117733   6.506   2.519   5.272  0.1093 -0.7666 -1.0936
 5923TIP3    H217734   6.547   2.664   5.287 -0.7332 -0.6337  0.1176
 5924TIP3   OH217735   5.639   3.266   3.938  0.0860 -0.5105  0.3373
 5924TIP3    H117736   5.732   3.273   3.918 -0.1559 -1.5264 -1.3698
 5924TIP3    H217737   5.630   3.183   3.984 -0.0693 -0.8146 -0.2326
 5925TIP3   OH217738   3.447   2.223   4.267  0.2168  0.0740  0.1850
 5925TIP3    H117739   3.497   2.223   4.186 -0.5054  0.4012 -0.2734
 5925TIP3    H217740   3.415   2.313   4.275 -1.6032 -0.4798 -0.3626
 5926TIP3   OH217741   6.158   6.214   3.653  0.1200 -0.4748 -0.2332
 5926TIP3    H117742   6.191   6.125   3.667  2.0974  0.1391 -0.6234
 5926TIP3    H217743   6.235   6.270   3.667 -1.1205  1.1941  0.1769
 5927TIP3   OH217744   6.466   4.132   2.600 -0.0080 -0.3626  0.3280
 5927TIP3    H117745   6.471   4.163   2.691 -2.0260 -0.0322  0.3791
 5927TIP3    H217746   6.431   4.043   2.607 -1.2895  0.0717 -0.1321
 5928TIP3   OH217747   6.739   5.814   4.531  0.2260  0.0166  0.4921
 5928TIP3    H117748   6.791   5.735   4.545 -1.2010 -0.7938  1.4085
 5928TIP3    H217749   6.766   5.873   4.601 -0.2646 -0.5003  1.1209
 5929TIP3   OH217750   4.056   2.079   4.010 -0.3710  0.0269 -0.0744
 5929TIP3    H117751   4.137   2.129   4.009  0.6888 -1.4681  2.3155
 5929TIP3    H217752   3.986   2.145   4.009  0.9266  1.4865  1.3119
 5930TIP3   OH217753   5.744   2.411   4.345  0.1901 -0.6810  0.1671
 5930TIP3    H117754   5.834   2.441   4.362 -0.3909  0.7923  0.7869
 5930TIP3    H217755   5.747   2.377   4.256  0.7104  2.2565 -1.0474
 5931TIP3   OH217756   5.319   1.335   4.968  0.5825  0.7178  0.0619
 5931TIP3    H117757   5.382   1.374   4.909 -0.0457  1.0120 -0.4275
 5931TIP3    H217758   5.335   1.241   4.963  1.0863  0.7994  0.0799
 5932TIP3   OH217759   3.724   0.430   2.765  0.0910  0.1159 -0.0824
 5932TIP3    H117760   3.631   0.445   2.746 -0.0335 -1.4469 -0.9030
 5932TIP3    H217761   3.770   0.481   2.699 -0.2136  0.1675 -0.2592
 5933TIP3   OH217762   1.059   0.998   3.323 -0.3108  1.0856  0.4501
 5933TIP3    H117763   1.081   1.001   3.230  2.6076  0.5166  1.0250
 5933TIP3    H217764   0.969   0.964   3.326  0.5918 -1.9509 -2.0765
 5934TIP3   OH217765   3.991   4.797   2.385 -0.1170  0.1623  0.3038
 5934TIP3    H117766   4.086   4.783   2.391 -0.0805  0.9480  2.0789
 5934TIP3    H217767   3.976   4.816   2.292  1.1308 -1.9889 -0.4172
 5935TIP3   OH217768   0.506   1.264   2.502 -0.8254  0.2214 -0.2710
 5935TIP3    H117769   0.458   1.241   2.582 -0.9390  0.7361 -0.1859
 5935TIP3    H217770   0.463   1.344   2.470 -0.8874 -0.0731 -0.9437
 5936TIP3   OH217771   0.762   6.184   2.927  0.2163 -0.1359  0.2734
 5936TIP3    H117772   0.839   6.154   2.975  0.9864 -0.2507 -0.9830
 5936TIP3    H217773   0.706   6.107   2.921  0.3536 -0.2566  0.5484
 5937TIP3   OH217774   1.912   5.220   1.250 -0.2904 -0.0352 -0.1033
 5937TIP3    H117775   1.954   5.135   1.268  1.3724  1.1206  1.9735
 5937TIP3    H217776   1.822   5.198   1.229  0.0299 -2.3248  0.5898
 5938TIP3   OH217777   4.278   0.336   5.688 -0.4097  0.2528  0.2082
 5938TIP3    H117778   4.321   0.402   5.742 -0.4517  0.5825 -0.1562
 5938TIP3    H217779   4.302   0.253   5.728 -1.2424  0.5247  1.3323
 5939TIP3   OH217780   5.833   3.856   5.863 -0.0722  0.1153  0.1314
 5939TIP3    H117781   5.774   3.810   5.803 -1.0456 -0.3940  1.4461
 5939TIP3    H217782   5.895   3.789   5.891 -0.6537 -0.0732  0.9897
 5940TIP3   OH217783   2.812   1.701   5.562 -0.1369 -0.3746  0.0246
 5940TIP3    H117784   2.821   1.729   5.470 -2.3338 -0.9235 -0.4020
 5940TIP3    H217785   2.763   1.619   5.558  1.3819 -1.4302  1.6151
 5941TIP3   OH217786   3.914   6.315   3.374  0.1594  0.4690 -0.1884
 5941TIP3    H117787   3.904   6.314   3.469 -0.6362  0.0658 -0.2707
 5941TIP3    H217788   3.956   6.232   3.353 -2.2497 -0.7591 -0.4354
 5942TIP3   OH217789   3.055   4.195   4.251  0.1036 -0.2596 -0.1460
 5942TIP3    H117790   3.047   4.259   4.322 -3.7543 -1.2641  0.5308
 5942TIP3    H217791   3.086   4.115   4.293  1.9250  0.2534 -0.4398
 5943TIP3   OH217792   5.840   3.457   0.330 -0.8411  0.6663  0.2139
 5943TIP3    H117793   5.816   3.514   0.403 -1.3298 -0.1266  0.6760
 5943TIP3    H217794   5.769   3.467   0.267 -1.2840  0.0218  0.6088
 5944TIP3   OH217795   1.157   3.806   5.497  0.6299 -0.3271 -0.1347
 5944TIP3    H117796   1.238   3.761   5.520  0.6003 -0.3490 -0.0752
 5944TIP3    H217797   1.093   3.774   5.559  0.1200 -1.7269 -1.3187
 5945TIP3   OH217798   6.541   2.311   0.166 -0.7991 -0.6874 -0.0417
 5945TIP3    H117799   6.610   2.273   0.113  0.2957  0.6277  0.3928
 5945TIP3    H217800   6.510   2.386   0.116 -1.3664 -0.8044  0.1250
 5946TIP3   OH217801   1.914   5.923   3.154 -0.2579  0.5003  0.4354
 5946TIP3    H117802   1.941   5.898   3.066 -1.1267  0.3062  0.2213
 5946TIP3    H217803   1.993   5.909   3.208  0.0337 -0.1850 -0.1519
 5947TIP3   OH217804   1.071   4.257   4.868 -0.2164  0.2282 -0.5632
 5947TIP3    H117805   0.992   4.299   4.901 -0.1751  0.2719 -0.5222
 5947TIP3    H217806   1.041   4.211   4.789 -0.8057 -1.7229  0.7196
 5948TIP3   OH217807   3.326   3.433   5.153 -0.2310  0.4629  0.3131
 5948TIP3    H117808   3.380   3.383   5.092  1.1752  1.8110  0.3882
 5948TIP3    H217809   3.323   3.379   5.232 -1.4686 -0.9671 -0.6446
 5949TIP3   OH217810   1.474   2.334   0.362  0.0862  0.2173 -0.1143
 5949TIP3    H117811   1.458   2.241   0.347  0.1745  0.1435  0.2579
 5949TIP3    H217812   1.393   2.377   0.332  0.3537  0.0946 -1.0432
 5950TIP3   OH217813  -0.001   3.480   1.005  0.6295  0.1368 -0.3069
 5950TIP3    H117814   0.039   3.521   1.082  0.1973  1.3423 -0.7083
 5950TIP3    H217815   0.008   3.386   1.021 -0.8031  0.3192  1.9281
 5951TIP3   OH217816   6.418   5.394   5.386  0.1323 -0.2729  0.0999
 5951TIP3    H117817   6.349   5.404   5.452  0.9777  1.1266  0.8246
 5951TIP3    H217818   6.389   5.321   5.332 -2.5314  1.0361 -0.3988
 5952TIP3   OH217819   5.949   3.455   4.279 -0.3409 -0.3190  0.1031
 5952TIP3    H117820   5.993   3.520   4.224  1.1342  0.3516  1.9468
 5952TIP3    H217821   5.858   3.485   4.283 -0.6362 -0.7115 -2.3469
 5953TIP3   OH217822   4.424   1.920   4.625 -1.0536 -0.7557  0.5055
 5953TIP3    H117823   4.353   1.856   4.622 -0.0359 -2.0958  2.6016
 5953TIP3    H217824   4.387   1.996   4.669 -0.9029 -1.9981  2.9595
 5954TIP3   OH217825   2.945   1.471   4.303  0.0901  0.0853 -0.5655
 5954TIP3    H117826   2.921   1.561   4.329  0.4146  0.1435 -0.4693
 5954TIP3    H217827   3.032   1.480   4.265 -0.1107 -0.1035 -1.0759
 5955TIP3   OH217828   1.624   5.012   4.682 -0.2388  0.8203  0.0960
 5955TIP3    H117829   1.546   4.982   4.635  0.9792 -2.0164 -0.3764
 5955TIP3    H217830   1.625   4.959   4.762  0.9862  1.0518  0.2560
 5956TIP3   OH217831   6.318   2.500   2.195  0.2339 -0.1694  0.3105
 5956TIP3    H117832   6.364   2.427   2.154  1.1379  0.3096  0.4585
 5956TIP3    H217833   6.327   2.572   2.133 -2.7104 -0.7757 -0.9935
 5957TIP3   OH217834   0.618   2.235   2.209 -0.1675 -0.0525 -0.3648
 5957TIP3    H117835   0.574   2.173   2.267 -0.8279  0.8955  0.1702
 5957TIP3    H217836   0.677   2.284   2.266  1.1506 -0.8760 -0.9706
 5958TIP3   OH217837   0.912   4.771   5.653 -0.0178 -0.6974  0.0589
 5958TIP3    H117838   1.004   4.778   5.630 -0.4088 -0.0040 -1.3827
 5958TIP3    H217839   0.892   4.853   5.699 -0.4234  0.1772 -1.6008
 5959TIP3   OH217840   1.679   0.678   2.926  0.2694  0.1419 -0.3646
 5959TIP3    H117841   1.640   0.662   2.840  1.2000  0.4571 -0.8605
 5959TIP3    H217842   1.743   0.608   2.936 -0.3884 -0.3583  0.4324
 5960TIP3   OH217843   1.229   5.183   5.410 -0.0495 -0.4794 -0.8256
 5960TIP3    H117844   1.249   5.111   5.470 -0.3857 -0.8683 -1.1659
 5960TIP3    H217845   1.303   5.243   5.418 -0.5514 -0.0254  0.7174
 5961TIP3   OH217846   1.483   5.576   2.883 -0.4047 -0.3326 -0.1312
 5961TIP3    H117847   1.553   5.530   2.836  0.6572  0.7743  0.3088
 5961TIP3    H217848   1.480   5.663   2.842 -0.8525 -0.0481  0.4911
 5962TIP3   OH217849   5.975   1.970   5.877 -0.2838 -0.8394 -0.1964
 5962TIP3    H117850   6.005   2.061   5.887  0.1619 -1.0768  0.7501
 5962TIP3    H217851   6.022   1.938   5.800 -0.7625 -0.1478 -0.7908
 5963TIP3   OH217852   5.364   6.357   3.398  0.1719 -0.0653  0.2187
 5963TIP3    H117853   5.368   6.453   3.397 -0.9713  0.0589 -2.7851
 5963TIP3    H217854   5.393   6.331   3.311 -0.6101 -2.3951  0.5881
 5964TIP3   OH217855   1.199   0.586   1.055 -0.2403  0.3680 -0.1238
 5964TIP3    H117856   1.126   0.546   1.007 -1.0528  1.9290 -0.2372
 5964TIP3    H217857   1.225   0.519   1.118 -1.5553 -0.3433 -0.2865
 5965TIP3   OH217858   2.300   5.807   4.218 -0.0666 -0.4773  0.1030
 5965TIP3    H117859   2.256   5.787   4.136 -0.4547 -0.8875  0.3995
 5965TIP3    H217860   2.331   5.722   4.250 -0.3558 -0.3982  0.6145
 5966TIP3   OH217861   2.169   1.927   4.015 -0.5386 -0.5207 -0.1486
 5966TIP3    H117862   2.169   1.990   4.087 -0.6104 -0.2294 -0.3978
 5966TIP3    H217863   2.242   1.868   4.034 -0.4044 -0.2984  0.0368
 5967TIP3   OH217864   4.916   2.926   5.621  0.6742 -0.7208  0.3665
 5967TIP3    H117865   4.973   2.850   5.630  2.5580  0.2727 -2.1077
 5967TIP3    H217866   4.971   3.001   5.643 -0.9252  0.0660  1.9946
 5968TIP3   OH217867   2.397   4.654   3.252 -0.6395  0.0688  0.0255
 5968TIP3    H117868   2.342   4.607   3.189 -2.0338  1.0437  0.4657
 5968TIP3    H217869   2.348   4.651   3.334  0.0238  0.8503  0.4676
 5969TIP3   OH217870   1.660   5.042   2.829 -0.4195  0.0738  0.5091
 5969TIP3    H117871   1.567   5.036   2.810 -0.4095 -0.4513  0.6123
 5969TIP3    H217872   1.676   5.136   2.844 -0.6467  0.3657 -0.9406
 5970TIP3   OH217873   5.636   5.081   3.528  0.0918  0.3173 -0.5704
 5970TIP3    H117874   5.573   5.043   3.467  0.3982  0.5071 -1.0142
 5970TIP3    H217875   5.704   5.014   3.538  0.1282  0.3540 -0.5691
 5971TIP3   OH217876   5.984   2.278   1.087 -0.2984 -0.3660 -0.4080
 5971TIP3    H117877   5.981   2.271   1.182  1.3834  0.1740 -0.2826
 5971TIP3    H217878   5.898   2.246   1.058 -0.4906 -1.4593  1.2178
 5972TIP3   OH217879   5.535   0.777   1.557  0.0354  0.5580  0.3994
 5972TIP3    H117880   5.442   0.758   1.564  0.2166 -0.3614  0.4085
 5972TIP3    H217881   5.574   0.733   1.632  0.8255 -1.5180 -1.1435
 5973TIP3   OH217882   1.996   1.297   0.029 -0.5813 -0.1995 -0.8249
 5973TIP3    H117883   1.902   1.306   0.046 -0.5516 -1.8819  0.4938
 5973TIP3    H217884   2.016   1.367  -0.032 -2.8464 -0.2524 -1.7208
 5974TIP3   OH217885   3.268   0.903   1.514  0.2831 -0.2552  0.1690
 5974TIP3    H117886   3.232   0.839   1.575  0.2829  0.0355  0.4859
 5974TIP3    H217887   3.192   0.943   1.473  0.3078 -1.1284 -0.7503
 5975TIP3   OH217888   5.054   5.632   0.463 -0.0646 -0.1122  0.2744
 5975TIP3    H117889   4.962   5.652   0.443  0.0265 -1.2319 -1.4714
 5975TIP3    H217890   5.104   5.692   0.409  0.2428 -0.1110  0.5580
 5976TIP3   OH217891   5.782   4.261   2.509 -0.2052  0.3133  0.1955
 5976TIP3    H117892   5.871   4.294   2.502 -0.2737  0.4966  0.1747
 5976TIP3    H217893   5.785   4.195   2.578  0.4410 -1.3542 -1.3485
 5977TIP3   OH217894   5.793   6.530   1.483 -0.4252  0.0009  0.1788
 5977TIP3    H117895   5.811   6.440   1.511 -2.4311 -0.3255  0.5796
 5977TIP3    H217896   5.830   6.585   1.553 -0.5662 -0.5734  0.7134
 5978TIP3   OH217897   6.629   6.548   4.594 -0.4050  0.3582  0.4153
 5978TIP3    H117898   6.539   6.516   4.594 -1.1623  2.1214 -2.7573
 5978TIP3    H217899   6.621   6.643   4.584  1.8056  0.5493  0.0427
 5979TIP3   OH217900   2.653   1.434   1.080 -0.0146 -0.4350  0.2630
 5979TIP3    H117901   2.609   1.467   1.159 -0.6586  0.8767 -0.5996
 5979TIP3    H217902   2.607   1.353   1.059 -1.7222  0.6201 -0.2888
 5980TIP3   OH217903   5.719   2.915   2.500  0.1992 -0.1517  0.5766
 5980TIP3    H117904   5.770   2.990   2.473 -1.4639  0.7144 -0.3196
 5980TIP3    H217905   5.695   2.871   2.418 -0.6246 -0.4088  0.9403
 5981TIP3   OH217906   3.822   2.082   2.737 -0.4961 -0.0227  0.4788
 5981TIP3    H117907   3.762   2.077   2.812 -0.5747 -1.0798  0.3573
 5981TIP3    H217908   3.832   1.992   2.708 -1.1774  0.4460 -1.3688
 5982TIP3   OH217909   5.717   3.001   4.441 -0.2878 -0.1833 -0.4012
 5982TIP3    H117910   5.741   2.958   4.523 -1.5980  1.2426  0.7820
 5982TIP3    H217911   5.743   2.938   4.373  1.8440 -0.9501  0.9924
 5983TIP3   OH217912   0.168   1.156   1.377 -0.5061  0.0197 -0.1948
 5983TIP3    H117913   0.080   1.136   1.408 -1.7604  2.1406 -2.1068
 5983TIP3    H217914   0.205   1.213   1.445 -1.1256  0.2307 -0.0325
 5984TIP3   OH217915   4.129   6.669   3.162 -0.4052  0.1744  0.3198
 5984TIP3    H117916   4.052   6.716   3.196 -1.1044  0.3015 -1.3582
 5984TIP3    H217917   4.142   6.704   3.074  1.9435  0.5443  0.7481
 5985TIP3   OH217918   5.900   2.867   2.703  0.1452 -0.1427 -0.2552
 5985TIP3    H117919   5.987   2.857   2.665  0.3328  0.8640 -0.1190
 5985TIP3    H217920   5.840   2.852   2.629  0.3356 -2.5533 -0.0002
 5986TIP3   OH217921   2.204   2.704   3.679 -0.0669 -0.0666 -0.3869
 5986TIP3    H117922   2.228   2.685   3.588  1.1505  2.1136 -0.5995
 5986TIP3    H217923   2.287   2.715   3.724 -0.6467 -2.0515  1.2803
 5987TIP3   OH217924   4.312   5.297   3.008  0.0194  0.4383 -0.2718
 5987TIP3    H117925   4.261   5.247   2.945  1.2599 -1.2991  0.0582
 5987TIP3    H217926   4.345   5.372   2.958 -0.4532  0.0380 -1.2134
 5988TIP3   OH217927   1.937   3.471   0.508 -0.3217 -0.3191 -0.2164
 5988TIP3    H117928   1.875   3.542   0.525  1.1565  0.7763  0.7806
 5988TIP3    H217929   1.924   3.449   0.416  0.0400  2.1018 -0.9038
 5989TIP3   OH217930   6.648   5.879   0.252  0.0954  0.6231 -0.1937
 5989TIP3    H117931   6.563   5.866   0.211  0.5784 -0.6090 -0.8501
 5989TIP3    H217932   6.640   5.836   0.337  0.5811 -1.0344 -0.9523
 5990TIP3   OH217933   5.508   5.276   1.306  0.3476 -0.3969  0.1926
 5990TIP3    H117934   5.483   5.249   1.217  1.6241  1.7717 -0.8975
 5990TIP3    H217935   5.437   5.333   1.335 -0.2152 -1.3382  0.7408
 5991TIP3   OH217936   2.894   2.311   2.431  0.0991  0.6828  0.3402
 5991TIP3    H117937   2.936   2.235   2.392 -1.6036 -0.4128  0.5212
 5991TIP3    H217938   2.800   2.292   2.424 -0.3142  1.5005  2.8467
 5992TIP3   OH217939   5.080   5.122   5.250 -0.0351 -0.0690  0.0332
 5992TIP3    H117940   5.133   5.117   5.330  0.9263 -0.7982 -0.6264
 5992TIP3    H217941   5.101   5.207   5.213  1.0909 -0.5442 -0.4776
 5993TIP3   OH217942   6.029   4.694   1.345 -0.0758  0.4614 -0.8291
 5993TIP3    H117943   6.115   4.685   1.386  0.3553 -0.0617 -1.8044
 5993TIP3    H217944   6.027   4.625   1.278 -1.8617 -0.5250  0.1833
 5994TIP3   OH217945   4.717   1.292   4.889  0.0259 -0.5527  0.1419
 5994TIP3    H117946   4.789   1.355   4.884 -0.4193 -0.0618 -0.1638
 5994TIP3    H217947   4.707   1.275   4.983 -1.1592  1.3858  0.4111
 5995TIP3   OH217948   4.306   4.493   0.849 -0.0029  0.2792  0.5476
 5995TIP3    H117949   4.396   4.527   0.841  0.7886 -1.4199  1.5973
 5995TIP3    H217950   4.287   4.497   0.943 -0.7591  0.0061  0.4118
 5996TIP3   OH217951   2.535   4.070   1.757 -0.3119 -0.4628  0.2527
 5996TIP3    H117952   2.597   4.131   1.717  0.2139 -0.0628  1.6119
 5996TIP3    H217953   2.558   3.985   1.721  0.5797 -0.2151  0.2246
 5997TIP3   OH217954   4.091   1.427   0.474 -0.4139  0.4184 -0.1162
 5997TIP3    H117955   4.123   1.459   0.559 -0.3728 -0.7619  0.3311
 5997TIP3    H217956   3.996   1.420   0.485 -0.3572 -0.1948 -0.0035
 5998TIP3   OH217957   3.445   3.145   0.918 -0.3508 -0.6393  0.1041
 5998TIP3    H117958   3.523   3.145   0.862  0.3736  0.8764  1.0497
 5998TIP3    H217959   3.479   3.155   1.007 -1.6329  3.0177  0.3503
 5999TIP3   OH217960   6.245   2.084   4.954  0.0103  0.1232 -0.5782
 5999TIP3    H117961   6.206   2.001   4.983  0.6799 -0.2404 -0.6947
 5999TIP3    H217962   6.217   2.148   5.020 -0.5164 -0.1932 -0.4893
 6000TIP3   OH217963   4.832   5.379   4.534 -0.3315 -0.3489  0.5589
 6000TIP3    H117964   4.842   5.471   4.559  0.0535  0.5353 -2.5066
 6000TIP3    H217965   4.742   5.357   4.559 -1.4586  1.8262 -1.2445
 6001TIP3   OH217966   2.388   6.649   3.556 -0.4304  0.4766 -0.5244
 6001TIP3    H117967   2.418   6.730   3.596 -0.2720  1.3022 -2.2213
 6001TIP3    H217968   2.379   6.670   3.463 -0.0341 -1.5452 -1.0767
 6002TIP3   OH217969   5.255   1.737   5.434  0.4383 -0.3305  0.2318
 6002TIP3    H117970   5.319   1.698   5.494  1.1189 -0.6224 -0.6752
 6002TIP3    H217971   5.291   1.722   5.347 -1.1877 -1.1328 -0.3499
 6003TIP3   OH217972   0.872   2.898   1.458 -0.4804 -0.8460  0.0693
 6003TIP3    H117973   0.796   2.950   1.484  0.4681  0.9141 -0.5155
 6003TIP3    H217974   0.912   2.871   1.540  0.3422  1.4354  0.5019
 6004TIP3   OH217975   7.221   6.057   3.750  0.9029  0.1402 -0.7046
 6004TIP3    H117976   7.138   6.013   3.728  0.9499 -0.3417  0.0479
 6004TIP3    H217977   7.218   6.139   3.701  0.7549 -0.6285 -2.0711
 6005TIP3   OH217978   4.081   0.477   0.107  0.2855 -0.0222 -0.4133
 6005TIP3    H117979   4.108   0.543   0.171 -0.7739  0.3061 -0.3018
 6005TIP3    H217980   4.023   0.523   0.047 -0.6752 -0.8959 -0.1823
 6006TIP3   OH217981   6.216   3.257   1.951  0.0083 -0.1389 -0.2968
 6006TIP3    H117982   6.189   3.301   1.871  1.8439 -1.0537 -1.5011
 6006TIP3    H217983   6.269   3.321   1.997 -1.6094  0.6240  0.5738
 6007TIP3   OH217984   6.947   3.033   1.364  0.4047  0.5711 -0.4727
 6007TIP3    H117985   6.945   2.991   1.450 -0.0966 -2.2891 -1.7394
 6007TIP3    H217986   7.035   3.016   1.331  0.6923  1.9191 -0.4189
 6008TIP3   OH217987   5.112   6.715   5.698  0.0397 -0.3333  0.3771
 6008TIP3    H117988   5.169   6.644   5.667 -0.3974  0.2293 -1.9617
 6008TIP3    H217989   5.171   6.789   5.713  0.0645  0.0948 -1.5531
 6009TIP3   OH217990   0.324   3.153   3.647  0.1610  0.4391 -0.1345
 6009TIP3    H117991   0.359   3.087   3.707 -2.8521 -0.1118  1.2209
 6009TIP3    H217992   0.348   3.237   3.687 -2.0280  0.0859  2.1565
 6010TIP3   OH217993   2.245   3.020   3.696 -0.3052 -0.3245 -0.0277
 6010TIP3    H117994   2.173   3.045   3.638  0.6470  2.1197 -0.2842
 6010TIP3    H217995   2.205   2.960   3.759 -2.3261  0.1342 -0.7807
 6011TIP3   OH217996   2.932   4.102   4.933 -0.1088  0.1955  0.0934
 6011TIP3    H117997   2.877   4.167   4.976  1.0901  0.0130  2.0348
 6011TIP3    H217998   3.003   4.152   4.894  1.0447  0.0917  1.9509
 6012TIP3   OH217999   5.342   5.028   3.605 -0.6553  0.4599 -0.9567
 6012TIP3    H118000   5.277   5.099   3.602 -1.1975 -0.0736 -2.5840
 6012TIP3    H218001   5.362   5.009   3.514  1.5342  0.3293 -0.5119
 6013TIP3   OH218002   6.623   3.302   4.182 -0.2371 -0.7662 -0.2673
 6013TIP3    H118003   6.580   3.387   4.178  1.1428  0.0123  0.5825
 6013TIP3    H218004   6.711   3.318   4.147 -0.4383 -2.2011 -1.5295
 6014TIP3   OH218005   4.484   1.417   0.127  0.4633 -0.2341 -0.1891
 6014TIP3    H118006   4.431   1.428   0.048  0.7704  0.4678 -0.3077
 6014TIP3    H218007   4.481   1.323   0.145 -1.0421 -0.1688 -0.0247
 6015TIP3   OH218008   2.062   4.201   2.498  0.1451 -0.5011  0.2362
 6015TIP3    H118009   1.996   4.270   2.494 -0.8427 -1.4532 -1.2720
 6015TIP3    H218010   2.083   4.184   2.406  1.4918 -1.1670  0.6465
 6016TIP3   OH218011   1.167   0.180   0.623  0.0921 -0.2828 -0.0667
 6016TIP3    H118012   1.166   0.242   0.550  0.2007 -0.1951  0.0058
 6016TIP3    H218013   1.076   0.181   0.655 -0.0841 -0.7420 -0.5492
 6017TIP3   OH218014   4.558   0.300   1.177 -0.0982  0.0585 -0.1220
 6017TIP3    H118015   4.611   0.374   1.207  1.3565 -1.0762  0.2285
 6017TIP3    H218016   4.612   0.257   1.111 -0.9044 -0.7232 -0.2838
 6018TIP3   OH218017   1.418   4.112   2.000 -0.2967  0.2680  0.5349
 6018TIP3    H118018   1.374   4.076   2.076  0.4214  1.2035  1.4231
 6018TIP3    H218019   1.511   4.113   2.023  0.0595 -0.3936 -0.7622
 6019TIP3   OH218020   1.688   3.404   5.002 -0.1218 -0.2849 -0.5511
 6019TIP3    H118021   1.666   3.318   5.038  0.4554 -0.9554 -1.7205
 6019TIP3    H218022   1.776   3.422   5.034 -1.2967  1.2423  2.0662
 6020TIP3   OH218023   1.835   0.331   0.526 -0.3332  0.3151  0.0426
 6020TIP3    H118024   1.883   0.253   0.498  0.1715  0.1422  1.3253
 6020TIP3    H218025   1.895   0.403   0.513 -0.1461  0.2519  0.5558
 6021TIP3   OH218026   3.278   1.365   0.776  0.2947  0.5555  0.4703
 6021TIP3    H118027   3.308   1.438   0.722 -1.3515 -0.4543 -2.0004
 6021TIP3    H218028   3.301   1.287   0.726  1.7487 -0.7095  2.9033
 6022TIP3   OH218029   6.951   6.659   4.630  0.1093 -0.1878  0.0761
 6022TIP3    H118030   6.944   6.726   4.697  1.4936  0.1790 -0.1246
 6022TIP3    H218031   7.041   6.627   4.637  0.3234 -0.0732 -1.6553
 6023TIP3   OH218032   0.542   0.090   5.741 -0.4966 -0.0593 -0.7914
 6023TIP3    H118033   0.586   0.163   5.785 -1.4870 -0.6128  1.2282
 6023TIP3    H218034   0.569   0.012   5.791  0.2613 -1.0811 -2.6786
 6024TIP3   OH218035   2.738   6.237   4.296 -0.1334  0.4319  0.0732
 6024TIP3    H118036   2.681   6.273   4.228  1.7256  2.1401 -0.6580
 6024TIP3    H218037   2.679   6.221   4.370 -1.4548  3.2302 -0.2356
 6025TIP3   OH218038   1.674   0.478   5.314 -0.4075 -0.2780 -0.1600
 6025TIP3    H118039   1.753   0.514   5.356 -0.5433 -0.2435  0.0686
 6025TIP3    H218040   1.634   0.424   5.383 -1.8192  1.5159  0.4824
 6026TIP3   OH218041   2.057   3.382   3.642  0.0254 -0.3476 -0.5194
 6026TIP3    H118042   2.028   3.292   3.630 -0.4089 -0.1306 -1.1563
 6026TIP3    H218043   1.985   3.425   3.689 -0.0888 -0.1469 -0.8773
 6027TIP3   OH218044   6.411   1.027   5.458  0.4574 -0.0655 -0.0461
 6027TIP3    H118045   6.340   1.076   5.416 -0.3838 -2.1100 -1.1082
 6027TIP3    H218046   6.383   1.017   5.549  0.2839  0.7110 -0.0052
 6028TIP3   OH218047   0.275   2.380   2.463  0.5098 -0.2999 -0.1369
 6028TIP3    H118048   0.352   2.425   2.430  0.0275  0.2497 -0.5445
 6028TIP3    H218049   0.301   2.348   2.550  0.0894  3.0915  1.4187
 6029TIP3   OH218050   3.269   1.577   4.989 -0.4243  0.3097 -0.4024
 6029TIP3    H118051   3.232   1.574   5.077  1.0017  2.2103  0.3388
 6029TIP3    H218052   3.306   1.489   4.976 -2.3270 -0.6048  0.0792
 6030TIP3   OH218053   1.728   4.116   2.488 -0.5679 -0.1162  0.5453
 6030TIP3    H118054   1.790   4.188   2.493  1.3629 -1.7710  1.6414
 6030TIP3    H218055   1.648   4.156   2.454  0.9981  2.1414 -0.7581
 6031TIP3   OH218056   2.704   2.090   4.152  0.2456  0.2302 -0.3640
 6031TIP3    H118057   2.643   2.132   4.212  0.0227 -0.5714 -0.0148
 6031TIP3    H218058   2.672   2.112   4.065  0.3089  1.0260 -0.1927
 6032TIP3   OH218059   5.682   3.491   4.229 -0.3276  0.1505 -0.4831
 6032TIP3    H118060   5.671   3.400   4.257  1.1311 -0.4145 -1.5955
 6032TIP3    H218061   5.607   3.537   4.266 -2.1586 -1.8662 -1.4945
 6033TIP3   OH218062   7.152   2.480   4.817  0.4024  0.4515 -0.4107
 6033TIP3    H118063   7.080   2.501   4.758  1.1060  1.8871 -0.7978
 6033TIP3    H218064   7.123   2.402   4.864 -1.0004  0.4588 -1.2295
 6034TIP3   OH218065   2.697   2.691   5.347 -0.3803  0.1468  0.2816
 6034TIP3    H118066   2.657   2.614   5.388  0.5516 -0.8084 -0.5553
 6034TIP3    H218067   2.627   2.729   5.294 -1.1335  0.4752  1.4717
 6035TIP3   OH218068   5.830   1.035   1.867 -0.2868 -0.1453 -0.1084
 6035TIP3    H118069   5.893   1.088   1.819  0.9599 -0.4230  1.1634
 6035TIP3    H218070   5.844   0.946   1.835 -0.5474 -0.1044 -0.3423
 6036TIP3   OH218071   4.953   2.795   4.849  0.5175  0.5640  0.6661
 6036TIP3    H118072   4.859   2.780   4.862  0.4310  0.8006  0.3287
 6036TIP3    H218073   4.994   2.762   4.929  0.1883  0.0093  0.6110
 6037TIP3   OH218074   3.743   2.813   4.639  0.4678  0.6475  0.3031
 6037TIP3    H118075   3.715   2.901   4.614  0.6407  0.6010 -0.0675
 6037TIP3    H218076   3.727   2.808   4.733 -0.5181  0.7139  0.1462
 6038TIP3   OH218077   6.492   0.917   4.385  0.0054 -0.5367 -0.0065
 6038TIP3    H118078   6.492   1.011   4.403 -0.3568 -0.7012  0.9273
 6038TIP3    H218079   6.506   0.910   4.291  2.4894  0.3987  0.2230
 6039TIP3   OH218080   0.375   3.918   3.911 -0.2860 -0.1201  0.0327
 6039TIP3    H118081   0.298   3.972   3.895 -0.7964 -0.9244 -0.2830
 6039TIP3    H218082   0.449   3.979   3.900 -0.7045  0.0359 -2.7702
 6040TIP3   OH218083   3.493   5.941   0.221  0.4028 -0.4245 -0.2745
 6040TIP3    H118084   3.495   5.941   0.125 -0.0517 -0.3012 -0.2888
 6040TIP3    H218085   3.529   6.027   0.246 -1.0746  0.2638 -0.3950
 6041TIP3   OH218086   2.209   6.431   0.286 -0.0136  0.3803 -0.2145
 6041TIP3    H118087   2.182   6.369   0.354 -2.8706  0.4239 -1.1688
 6041TIP3    H218088   2.274   6.383   0.234  0.1727 -0.6367  0.9161
 6042TIP3   OH218089   1.093   1.838   1.004  0.1685  0.0059  0.1830
 6042TIP3    H118090   1.080   1.819   0.912  0.0136  1.9329 -0.2399
 6042TIP3    H218091   1.023   1.791   1.049  0.0408 -0.6771 -0.7108
 6043TIP3   OH218092   6.520   4.985   1.549 -0.4271 -0.4552 -0.3205
 6043TIP3    H118093   6.520   4.980   1.454  1.7031 -1.0060 -0.3323
 6043TIP3    H218094   6.602   4.944   1.576 -0.5917  0.4094  1.7120
 6044TIP3   OH218095   1.190   1.272   3.424 -0.2785 -0.0112 -0.2300
 6044TIP3    H118096   1.251   1.287   3.497 -0.0028 -0.4505 -0.3655
 6044TIP3    H218097   1.228   1.319   3.350 -0.1349 -0.2309 -0.2973
 6045TIP3   OH218098   3.975   4.262   2.190 -0.0054  0.3448  0.2126
 6045TIP3    H118099   3.889   4.240   2.226 -0.6585  1.1119 -0.8044
 6045TIP3    H218100   4.008   4.180   2.153 -0.1211 -0.0381  0.9533
 6046TIP3   OH218101   5.383   1.141   3.307  0.1257 -0.0480 -0.0481
 6046TIP3    H118102   5.463   1.178   3.343 -0.9217 -0.5309  3.0540
 6046TIP3    H218103   5.391   1.047   3.320  0.2619 -0.4363 -2.4838
 6047TIP3   OH218104   1.512   4.012   4.436 -0.5780  0.0260  0.1325
 6047TIP3    H118105   1.586   3.966   4.475 -1.6160 -0.7456  1.2755
 6047TIP3    H218106   1.539   4.031   4.346  1.4316  0.7844  0.8590
 6048TIP3   OH218107   0.306   2.650   0.208  0.4374 -0.3447  0.0212
 6048TIP3    H118108   0.396   2.617   0.208  0.8889  0.7813 -1.5951
 6048TIP3    H218109   0.291   2.675   0.300  2.7562  1.9001 -0.0933
 6049TIP3   OH218110   4.428   5.931   2.888 -0.4170 -0.2352 -0.0459
 6049TIP3    H118111   4.498   5.975   2.841 -0.0533  1.9034  2.3353
 6049TIP3    H218112   4.453   5.936   2.980 -2.8777 -0.9114  0.7368
 6050TIP3   OH218113   5.255   4.605   2.641 -0.2299 -0.2632 -0.5512
 6050TIP3    H118114   5.255   4.514   2.613 -0.1742 -0.5397  0.3070
 6050TIP3    H218115   5.345   4.621   2.671 -0.5795 -0.3516  0.5869
 6051TIP3   OH218116   6.030   2.281   5.618 -0.8949  0.3048 -0.1808
 6051TIP3    H118117   6.055   2.271   5.710 -0.2096 -0.3447 -0.4251
 6051TIP3    H218118   5.936   2.264   5.617 -0.8585  0.0496  0.3665
 6052TIP3   OH218119   4.898   4.516   3.829 -0.5526 -0.1934 -0.0219
 6052TIP3    H118120   4.917   4.610   3.831  1.8134 -0.6172  1.6330
 6052TIP3    H218121   4.942   4.481   3.907 -1.9030 -2.5976 -0.2399
 6053TIP3   OH218122   1.585   0.276   0.643 -0.1080 -0.1255 -0.1943
 6053TIP3    H118123   1.669   0.307   0.609  0.7395  1.7961  3.1347
 6053TIP3    H218124   1.522   0.344   0.618 -0.5527 -1.1055 -1.8862
 6054TIP3   OH218125   4.196   2.323   4.526 -0.1703 -0.5202  0.0880
 6054TIP3    H118126   4.200   2.265   4.450  0.7466 -0.0913 -0.1955
 6054TIP3    H218127   4.102   2.336   4.540 -0.3671  0.3906 -1.7405
 6055TIP3   OH218128   2.295   4.714   5.788  0.2331  0.4408  0.4540
 6055TIP3    H118129   2.208   4.731   5.753  0.6246 -0.7809 -1.2840
 6055TIP3    H218130   2.324   4.797   5.825 -0.9959  1.3130 -0.4918
 6056TIP3   OH218131   2.309   5.470   2.917  0.1168 -0.0652 -0.7417
 6056TIP3    H118132   2.214   5.481   2.910 -0.0101 -0.5974  0.0027
 6056TIP3    H218133   2.345   5.542   2.867 -0.6720  1.8590  1.2620
 6057TIP3   OH218134   6.266   1.246   2.220 -0.5106 -0.1301  0.6454
 6057TIP3    H118135   6.330   1.256   2.290  0.5130 -1.2557 -0.0819
 6057TIP3    H218136   6.268   1.152   2.200 -1.2357  0.0811 -0.4748
 6058TIP3   OH218137   4.910   4.208   1.794  0.2781 -0.1694  0.1820
 6058TIP3    H118138   4.988   4.154   1.811  0.2720 -0.8681 -1.7546
 6058TIP3    H218139   4.874   4.225   1.881  0.9400 -2.3395  0.9585
 6059TIP3   OH218140   5.444   4.532   1.479 -0.3045 -0.0981 -0.7410
 6059TIP3    H118141   5.425   4.614   1.433 -0.0869 -0.6582 -1.8837
 6059TIP3    H218142   5.495   4.558   1.555 -0.4928  0.8537 -0.9213
 6060TIP3   OH218143   3.614   1.385   5.134  0.3887 -0.4294  0.4398
 6060TIP3    H118144   3.617   1.445   5.208  1.4293  0.3634 -0.2216
 6060TIP3    H218145   3.681   1.417   5.074  0.2659 -1.6591 -0.3925
 6061TIP3   OH218146   6.575   3.571   1.023  0.0339  0.2983 -0.3497
 6061TIP3    H118147   6.491   3.533   0.997  0.2036 -0.2566 -0.0965
 6061TIP3    H218148   6.588   3.541   1.113 -0.0030  1.2609 -0.0067
 6062TIP3   OH218149   1.126   2.826   5.659  0.0202 -0.1005  0.1054
 6062TIP3    H118150   1.072   2.823   5.738  0.2350  1.7841  0.3931
 6062TIP3    H218151   1.211   2.858   5.691  0.9160 -1.7628 -0.5305
 6063TIP3   OH218152   6.280   6.155   1.459  0.2608 -0.2416  0.3155
 6063TIP3    H118153   6.362   6.108   1.469  0.8406  0.3762 -1.2351
 6063TIP3    H218154   6.304   6.248   1.464 -0.3685 -0.0566  0.0773
 6064TIP3   OH218155   5.765   0.389   5.223  0.1768  0.5779 -0.1696
 6064TIP3    H118156   5.852   0.351   5.209  0.5190  1.5957 -0.9876
 6064TIP3    H218157   5.722   0.329   5.284  0.7845 -0.9489 -1.1676
 6065TIP3   OH218158   1.665   5.112   1.186 -0.3683  0.2678 -0.4649
 6065TIP3    H118159   1.631   5.177   1.125  0.3563  0.5937 -0.5233
 6065TIP3    H218160   1.607   5.119   1.263 -1.0208  0.1476 -0.9320
 6066TIP3   OH218161   6.195   5.232   1.977 -0.1579 -0.1846 -0.4646
 6066TIP3    H118162   6.180   5.212   2.069 -0.6493 -0.3719 -0.5852
 6066TIP3    H218163   6.289   5.252   1.972  0.5772 -3.0881 -0.4373
 6067TIP3   OH218164   2.811   2.133   1.963  0.3000  0.1368  0.6548
 6067TIP3    H118165   2.758   2.209   1.942  0.4676 -0.2438 -1.4103
 6067TIP3    H218166   2.896   2.169   1.989 -0.3744  0.6866  2.2012
 6068TIP3   OH218167   7.047   4.486   3.465  0.3387 -0.3415  0.1008
 6068TIP3    H118168   7.046   4.444   3.551  0.1178  0.7997  0.6738
 6068TIP3    H218169   7.041   4.414   3.403  1.5497 -1.2780  1.0068
 6069TIP3   OH218170   5.661   4.457   0.512 -0.1120 -0.3997  0.1360
 6069TIP3    H118171   5.731   4.430   0.453 -0.0306 -0.9237  0.4639
 6069TIP3    H218172   5.697   4.533   0.558 -0.1488 -0.0352 -0.4256
 6070TIP3   OH218173   7.058   5.526   2.749 -0.0848  0.2816  0.2126
 6070TIP3    H118174   7.027   5.438   2.731 -0.8976  0.1969  1.8249
 6070TIP3    H218175   7.017   5.580   2.682  0.1721 -0.5091 -0.5977
 6071TIP3   OH218176   6.551   3.298   0.491  0.0113  0.2562 -0.4304
 6071TIP3    H118177   6.574   3.391   0.491 -1.3215  0.6128  0.3160
 6071TIP3    H218178   6.622   3.255   0.538 -1.0457  1.3852  2.3650
 6072TIP3   OH218179   7.125   3.732   2.212 -0.4479 -0.1996 -0.2739
 6072TIP3    H118180   7.092   3.758   2.126 -0.1434 -0.1488 -0.3764
 6072TIP3    H218181   7.116   3.637   2.214 -1.6713 -0.0906  0.1446
 6073TIP3   OH218182   3.466   0.406   2.951  0.0915 -0.1326  0.3104
 6073TIP3    H118183   3.451   0.485   3.004  0.8560  0.1052  0.1998
 6073TIP3    H218184   3.451   0.435   2.861 -0.4093 -0.3249  0.3299
 6074TIP3   OH218185   0.657   3.345   2.481 -0.2795  0.1043  0.1573
 6074TIP3    H118186   0.699   3.407   2.421  1.1976 -1.4932 -0.5723
 6074TIP3    H218187   0.662   3.261   2.435 -2.8317 -0.4696  0.8145
 6075TIP3   OH218188   3.076   3.262   2.817  0.2204  0.1253  0.6520
 6075TIP3    H118189   3.147   3.274   2.880  1.8017  0.7423 -1.1465
 6075TIP3    H218190   3.065   3.347   2.775 -0.0493 -0.5130 -0.6380
 6076TIP3   OH218191   1.884   1.750   3.358  0.6860  0.0818 -0.4756
 6076TIP3    H118192   1.865   1.675   3.414  3.6044 -1.8141 -1.7835
 6076TIP3    H218193   1.813   1.751   3.294 -0.9163  0.2760  1.2199
 6077TIP3   OH218194   0.893   5.238   0.541  0.3212  0.4575  0.0743
 6077TIP3    H118195   0.912   5.250   0.448 -0.3002 -0.2631 -0.1506
 6077TIP3    H218196   0.931   5.153   0.563  1.6781  1.2130  0.8266
 6078TIP3   OH218197   6.102   2.768   0.204 -0.0722 -0.3160  0.0792
 6078TIP3    H118198   6.020   2.780   0.252  0.0586  0.8482  0.0549
 6078TIP3    H218199   6.168   2.753   0.271  0.1883  1.7645  0.3414
 6079TIP3   OH218200   5.251   3.162   4.239 -0.1333 -0.1616  0.0892
 6079TIP3    H118201   5.315   3.165   4.310  2.0874 -2.4000 -1.6081
 6079TIP3    H218202   5.201   3.082   4.256 -0.5484  0.0542 -0.1165
 6080TIP3   OH218203   6.530   0.662   3.208  0.3936  0.7029 -0.0960
 6080TIP3    H118204   6.507   0.755   3.212  0.0138  0.6252 -0.3687
 6080TIP3    H218205   6.453   0.620   3.169  0.4481  0.2327  0.2985
 6081TIP3   OH218206   0.827   5.857   3.021  0.4216  0.2557  0.2705
 6081TIP3    H118207   0.741   5.877   2.986 -0.5494  1.2775  2.9971
 6081TIP3    H218208   0.830   5.761   3.024 -0.5920  0.2147  0.1306
 6082TIP3   OH218209   6.668   0.370   0.187 -0.3409  0.9207 -0.2871
 6082TIP3    H118210   6.725   0.446   0.174 -1.5691  1.7455 -0.9534
 6082TIP3    H218211   6.704   0.304   0.128  0.8898  0.8624  0.4819
 6083TIP3   OH218212   5.463   2.884   0.610 -0.3027 -0.8613 -0.5890
 6083TIP3    H118213   5.371   2.902   0.590 -1.0073 -1.5082  1.8171
 6083TIP3    H218214   5.493   2.962   0.656 -0.3764 -1.5887  0.7356
 6084TIP3   OH218215   2.501   0.342   3.525 -0.1366  0.0060  0.0635
 6084TIP3    H118216   2.528   0.360   3.435 -1.0862 -1.0108 -0.4469
 6084TIP3    H218217   2.574   0.373   3.579  0.7452  0.0033 -1.0940
 6085TIP3   OH218218   1.862   6.657   5.212  0.0852 -0.3958 -0.3357
 6085TIP3    H118219   1.943   6.617   5.242  0.7019  1.2476  0.2901
 6085TIP3    H218220   1.880   6.751   5.210 -1.0094 -0.1666 -2.6444
 6086TIP3   OH218221   4.841   1.195   1.367 -0.0429  0.3137 -0.0410
 6086TIP3    H118222   4.806   1.217   1.453  1.0343  1.5970  0.1060
 6086TIP3    H218223   4.771   1.215   1.305 -0.5948 -0.0004  0.4770
 6087TIP3   OH218224   3.928   6.795   1.235  0.1089 -0.0399 -0.5928
 6087TIP3    H118225   3.956   6.769   1.323  0.1099  0.1896 -0.5249
 6087TIP3    H218226   4.009   6.822   1.191  0.0537  0.2137 -0.5379
 6088TIP3   OH218227   2.313   5.371   4.582  0.1246  0.1680 -0.4219
 6088TIP3    H118228   2.306   5.407   4.493 -0.6582  0.5515 -0.2142
 6088TIP3    H218229   2.406   5.378   4.603  0.3862 -0.2984 -1.3607
 6089TIP3   OH218230   7.174   5.287   0.185  0.4260  0.3848  0.1006
 6089TIP3    H118231   7.268   5.271   0.191  0.4083  0.5329  0.8101
 6089TIP3    H218232   7.140   5.211   0.137  0.8417  0.1172  0.2235
 6090TIP3   OH218233   1.773   0.193   0.229  0.0898  0.2402 -0.1346
 6090TIP3    H118234   1.802   0.116   0.279  0.7860  0.7792  0.3136
 6090TIP3    H218235   1.824   0.189   0.148 -0.0956  0.0614 -0.2413
 6091TIP3   OH218236   2.766   1.467   3.416 -0.4188  0.3566 -0.1150
 6091TIP3    H118237   2.850   1.508   3.395  0.2827 -1.4864 -1.1474
 6091TIP3    H218238   2.783   1.415   3.494 -0.4111 -0.4653 -0.6424
 6092TIP3   OH218239   2.540   1.473   1.329 -0.3812 -0.3804  0.0009
 6092TIP3    H118240   2.556   1.559   1.369 -0.2282 -0.9651  1.2568
 6092TIP3    H218241   2.591   1.412   1.383 -1.0641 -1.3530 -0.4271
 6093TIP3   OH218242   2.018   2.999   0.267  0.1400  0.1429 -0.0299
 6093TIP3    H118243   2.029   3.043   0.183  2.1127 -1.7817 -0.8895
 6093TIP3    H218244   1.964   2.923   0.247 -2.8388  1.7158  1.3397
 6094TIP3   OH218245   3.278   5.793   1.593 -0.5086 -0.0675 -0.5260
 6094TIP3    H118246   3.183   5.801   1.588 -0.4392  0.0137 -2.0650
 6094TIP3    H218247   3.297   5.703   1.565 -0.1997 -0.5205  1.0473
 6095TIP3   OH218248   4.978   2.009   3.404  0.3508  0.2281 -0.4944
 6095TIP3    H118249   5.019   1.990   3.488 -0.4834 -0.9804 -0.3376
 6095TIP3    H218250   5.007   2.098   3.383  4.1525 -0.9607 -1.0699
 6096TIP3   OH218251   0.114   1.466   5.175  0.9048 -0.1931 -0.5648
 6096TIP3    H118252   0.116   1.485   5.081 -1.9614  0.5492 -0.5714
 6096TIP3    H218253   0.065   1.383   5.181  0.3346  0.1925  0.2875
 6097TIP3   OH218254   4.861   6.345   2.757 -0.7964  0.0213  0.6416
 6097TIP3    H118255   4.853   6.377   2.667 -2.7205  0.4274  0.8974
 6097TIP3    H218256   4.894   6.256   2.749 -0.4439  0.2400 -0.4337
 6098TIP3   OH218257   4.182   0.828   4.620  0.0391 -0.1431 -0.3073
 6098TIP3    H118258   4.111   0.787   4.570 -2.0565 -0.5045  2.6502
 6098TIP3    H218259   4.253   0.838   4.557 -2.1955 -0.8606 -3.1912
 6099TIP3   OH218260   7.086   5.097   0.926 -0.8509 -0.0003  0.1767
 6099TIP3    H118261   7.092   5.083   0.832  0.0753 -1.4887  0.4247
 6099TIP3    H218262   7.116   5.187   0.939  1.0762 -0.4537 -0.7647
 6100TIP3   OH218263   3.753   4.395   1.427 -0.0912  0.4125  0.0916
 6100TIP3    H118264   3.778   4.350   1.346  0.7939  1.7241 -0.3813
 6100TIP3    H218265   3.707   4.328   1.478  0.7188 -0.8778 -0.8183
 6101TIP3   OH218266   4.302   4.595   1.535  0.5357  0.3954 -0.4394
 6101TIP3    H118267   4.279   4.683   1.562  3.1882  1.0173  0.0873
 6101TIP3    H218268   4.225   4.542   1.555 -0.3825  2.2288  1.1155
 6102TIP3   OH218269   4.789   0.101   4.592  0.3292  0.9640 -0.6308
 6102TIP3    H118270   4.782   0.082   4.685 -0.3353  2.0185 -0.4462
 6102TIP3    H218271   4.870   0.059   4.565 -0.2945 -0.7393  0.0548
 6103TIP3   OH218272   4.661   2.818   3.590 -0.3239 -0.2273 -0.2236
 6103TIP3    H118273   4.666   2.724   3.602  0.5619 -0.0090  1.2573
 6103TIP3    H218274   4.749   2.850   3.610 -0.5332  0.8921 -0.9869
 6104TIP3   OH218275   6.633   5.626   1.887  0.0171  0.6262 -0.1571
 6104TIP3    H118276   6.555   5.677   1.865 -0.8428 -0.1418  1.0107
 6104TIP3    H218277   6.633   5.554   1.823 -1.7155 -0.8247  1.3429
 6105TIP3   OH218278   2.231   4.448   0.927  0.1626 -0.1014 -0.6644
 6105TIP3    H118279   2.272   4.452   0.840  0.7901  0.4007 -0.3576
 6105TIP3    H218280   2.242   4.537   0.962  0.9040 -0.5797  0.3669
 6106TIP3   OH218281   1.323   2.369   4.222  0.2401 -0.0212 -0.5086
 6106TIP3    H118282   1.365   2.322   4.149 -2.1231 -1.8309 -0.8334
 6106TIP3    H218283   1.237   2.394   4.188 -0.0302  1.1539  0.9496
 6107TIP3   OH218284   1.518   4.518   5.415  0.4168  0.0697  0.4235
 6107TIP3    H118285   1.532   4.574   5.339  0.9751  1.0897  1.2426
 6107TIP3    H218286   1.423   4.509   5.421  0.4022 -1.6590 -1.5065
 6108TIP3   OH218287   4.097   6.432   4.089  0.1847  0.4598 -0.2574
 6108TIP3    H118288   4.190   6.411   4.084  0.0586 -0.2132  0.1255
 6108TIP3    H218289   4.094   6.527   4.091  0.8837  0.4831  0.0604
 6109TIP3   OH218290   4.534   1.447   0.900 -0.7895 -0.3121  0.4049
 6109TIP3    H118291   4.464   1.383   0.886  0.4737 -1.4425 -0.9841
 6109TIP3    H218292   4.611   1.395   0.923  0.0841  0.7482 -0.0128
 6110TIP3   OH218293   4.976   5.012   4.652 -0.6794  0.0662 -0.2228
 6110TIP3    H118294   4.978   4.964   4.569 -1.1798 -1.4166  0.5916
 6110TIP3    H218295   4.887   5.046   4.659 -0.6693  0.0935 -0.2235
 6111TIP3   OH218296   6.979   3.202   2.385 -0.4569 -0.5784  0.2304
 6111TIP3    H118297   7.057   3.149   2.378  1.3451  1.9112  0.0947
 6111TIP3    H218298   7.003   3.272   2.446 -1.8434  1.3927 -1.3326
 6112TIP3   OH218299   2.639   2.408   3.154 -0.0494 -0.2481 -0.2276
 6112TIP3    H118300   2.587   2.415   3.074 -0.1178 -2.1963 -0.4030
 6112TIP3    H218301   2.640   2.496   3.190 -1.0428  0.4154 -1.7351
 6113TIP3   OH218302   0.989   0.457   3.286  0.9496  0.4191 -0.2423
 6113TIP3    H118303   1.025   0.537   3.249 -0.1310  0.4807 -1.2451
 6113TIP3    H218304   0.926   0.487   3.352  0.0402  0.4523 -1.0933
 6114TIP3   OH218305   4.025   3.609   2.218 -0.3338 -0.1741  0.4295
 6114TIP3    H118306   4.027   3.682   2.280 -0.6609 -0.1711  0.4400
 6114TIP3    H218307   4.105   3.619   2.166  1.0640 -1.3788  2.2158
 6115TIP3   OH218308   5.663   4.787   4.034 -0.2565 -0.2335  0.7151
 6115TIP3    H118309   5.579   4.778   4.080 -0.5723 -0.6793  0.0653
 6115TIP3    H218310   5.729   4.776   4.103 -0.7264  0.3983  1.2810
 6116TIP3   OH218311   1.883   1.016   0.076  0.7047  0.0745  0.4164
 6116TIP3    H118312   1.939   1.088   0.103  2.0930 -0.4461 -0.9608
 6116TIP3    H218313   1.868   1.030  -0.017 -0.9740 -0.1462  0.6230
 6117TIP3   OH218314   5.515   0.693   4.229  0.2016  0.4802 -0.3020
 6117TIP3    H118315   5.542   0.612   4.271 -1.7040  1.6029  3.5327
 6117TIP3    H218316   5.426   0.677   4.200 -0.6828  1.4437  1.6671
 6118TIP3   OH218317   1.316   1.520   5.747 -0.2037  0.7243  0.6391
 6118TIP3    H118318   1.295   1.426   5.746  0.9387  0.4498  1.0505
 6118TIP3    H218319   1.325   1.543   5.654  1.7651 -0.1284  0.5790
 6119TIP3   OH218320   5.949   6.778   3.831  0.0224 -0.1102 -1.1327
 6119TIP3    H118321   6.001   6.702   3.807  2.0054  1.2074 -1.2340
 6119TIP3    H218322   5.923   6.817   3.747  1.0406  0.6277 -1.1179
 6120TIP3   OH218323   0.084   1.488   1.940 -0.1690  0.2006  0.4713
 6120TIP3    H118324   0.175   1.462   1.951  0.1095  0.7055 -0.4395
 6120TIP3    H218325   0.034   1.407   1.947  0.5337 -0.3953 -0.8914
 6121TIP3   OH218326   4.432   3.130   3.286  0.5809  0.1386  0.5489
 6121TIP3    H118327   4.473   3.101   3.367  1.2532 -0.7289 -0.0738
 6121TIP3    H218328   4.384   3.053   3.254  0.5926  0.3632 -0.0390
 6122TIP3   OH218329   3.435   5.943   3.665 -0.9533 -0.0714 -0.2300
 6122TIP3    H118330   3.396   6.019   3.707 -1.0012  0.0939 -0.5755
 6122TIP3    H218331   3.425   5.959   3.571 -1.0938 -0.5693 -0.3027
 6123TIP3   OH218332   6.999   1.871   4.678  0.2881  0.5608  0.3207
 6123TIP3    H118333   6.910   1.904   4.664 -0.2489 -1.6131 -2.0116
 6123TIP3    H218334   7.055   1.938   4.639 -0.5118  0.6027 -0.7990
 6124TIP3   OH218335   3.188   2.651   0.311 -0.1472  0.0461  0.2306
 6124TIP3    H118336   3.124   2.628   0.378  0.1468 -0.1109  0.4619
 6124TIP3    H218337   3.267   2.673   0.361 -0.0414  0.2929 -0.0486
 6125TIP3   OH218338   0.636   5.774   0.719  0.5029  0.0704 -0.0830
 6125TIP3    H118339   0.680   5.824   0.650  1.2285  0.3317  0.5550
 6125TIP3    H218340   0.555   5.822   0.734  0.7599  0.5324 -0.1308
 6126TIP3   OH218341   0.154   5.085   0.640 -0.3469  0.6851 -1.0358
 6126TIP3    H118342   0.204   5.163   0.614 -0.8540  0.4865 -2.7839
 6126TIP3    H218343   0.181   5.067   0.730  1.8312  1.2640 -1.5192
 6127TIP3   OH218344   5.242   0.574   2.446  0.3074  0.6008 -0.1299
 6127TIP3    H118345   5.328   0.604   2.476  1.3648 -1.6375 -0.6848
 6127TIP3    H218346   5.188   0.571   2.525  1.3047  0.2682  0.5551
 6128TIP3   OH218347   5.343   3.665   5.065 -0.7264 -0.2220 -0.1650
 6128TIP3    H118348   5.260   3.713   5.076 -0.8335 -0.8293  2.5079
 6128TIP3    H218349   5.320   3.589   5.013 -1.5476  0.3041 -0.5939
 6129TIP3   OH218350   1.793   0.612   5.845 -0.3844  0.1271  0.5881
 6129TIP3    H118351   1.721   0.625   5.782  0.3616  0.4539 -0.2133
 6129TIP3    H218352   1.830   0.699   5.858  0.7474 -0.2352 -0.0848
 6130TIP3   OH218353   0.419   1.446   2.748 -0.0729  0.1140 -0.4350
 6130TIP3    H118354   0.401   1.356   2.723  0.8093 -0.6496  1.4783
 6130TIP3    H218355   0.352   1.466   2.814  0.4326  0.4533 -0.0183
 6131TIP3   OH218356   1.460   5.578   3.652 -0.0748  0.3171  0.3122
 6131TIP3    H118357   1.448   5.621   3.567  1.3510 -0.7525 -0.4770
 6131TIP3    H218358   1.516   5.638   3.702 -0.4100  0.6624  0.2765
 6132TIP3   OH218359   1.008   3.957   4.617  0.1459  0.0779 -0.0719
 6132TIP3    H118360   0.968   4.042   4.631  0.3826 -0.0780  1.9480
 6132TIP3    H218361   0.935   3.899   4.597  0.0241  0.7869 -1.8144
 6133TIP3   OH218362   0.370   3.089   2.426 -0.2211 -0.3315  0.0578
 6133TIP3    H118363   0.314   3.012   2.430  0.7368 -1.2073 -1.9486
 6133TIP3    H218364   0.449   3.059   2.382  0.7686  1.4813  0.4885
 6134TIP3   OH218365   2.861   4.626   2.446  0.0246  0.3776  0.0189
 6134TIP3    H118366   2.779   4.594   2.484 -0.4077  1.6934  0.2636
 6134TIP3    H218367   2.868   4.581   2.362 -0.8126  0.0297  0.1207
 6135TIP3   OH218368   4.751   1.076   0.764 -0.3214 -0.3007  0.6273
 6135TIP3    H118369   4.689   1.130   0.716  0.0823 -1.8536 -1.8144
 6135TIP3    H218370   4.776   1.006   0.702  1.8901 -1.2034  2.3756
 6136TIP3   OH218371   6.986   3.133   2.870  0.1427  0.5684  0.2525
 6136TIP3    H118372   6.953   3.075   2.938  1.8607  0.1208  0.7596
 6136TIP3    H218373   6.936   3.214   2.880 -0.8963 -0.1395  0.8357
 6137TIP3   OH218374   6.463   6.399   4.116 -0.0523  0.5167 -0.1968
 6137TIP3    H118375   6.405   6.471   4.139 -0.5643 -0.3345  1.2913
 6137TIP3    H218376   6.522   6.390   4.190 -0.3289 -0.9150 -0.1225
 6138TIP3   OH218377   3.148   6.004   2.796  0.3122 -0.3554  0.6238
 6138TIP3    H118378   3.190   6.064   2.858  0.9895 -0.3909  0.2092
 6138TIP3    H218379   3.069   6.049   2.769  1.2722  0.7816 -0.3893
 6139TIP3   OH218380   1.161   3.955   0.669  0.2424 -0.5362 -0.1604
 6139TIP3    H118381   1.241   3.961   0.722  0.1913  0.1167 -0.1400
 6139TIP3    H218382   1.158   3.865   0.639  0.2045 -0.9486  1.0450
 6140TIP3   OH218383   3.638   6.219   3.923 -0.3402 -0.1209  0.4295
 6140TIP3    H118384   3.551   6.223   3.962  0.1184  0.5339  1.4129
 6140TIP3    H218385   3.676   6.138   3.957 -0.1803  0.1178  0.8141
 6141TIP3   OH218386   4.763   6.582   3.953  0.0330 -0.1007 -0.9962
 6141TIP3    H118387   4.845   6.535   3.963  0.0852 -0.7167 -3.6259
 6141TIP3    H218388   4.779   6.668   3.993  1.1475 -0.9992  0.5704
 6142TIP3   OH218389   7.025   5.405   3.960 -0.5817 -0.3588  0.6723
 6142TIP3    H118390   7.020   5.489   4.007  1.3815  0.3857 -0.3404
 6142TIP3    H218391   6.955   5.410   3.895 -0.1222  0.7615  0.2428
 6143TIP3   OH218392   4.292   4.856   4.809 -0.2972  0.3522  0.0964
 6143TIP3    H118393   4.210   4.887   4.771 -1.2844 -0.3834  1.5212
 6143TIP3    H218394   4.353   4.929   4.800 -1.2029  1.0224 -0.7167
 6144TIP3   OH218395   2.312   2.270   2.667 -0.1035  0.6659 -0.2157
 6144TIP3    H118396   2.282   2.360   2.656 -1.5490  0.1760 -0.4380
 6144TIP3    H218397   2.233   2.216   2.659  0.6541 -0.5986  0.3874
 6145TIP3   OH218398   4.248   1.526   0.725  0.6234 -0.2126  0.0462
 6145TIP3    H118399   4.301   1.585   0.778 -0.3698 -0.2092  1.0885
 6145TIP3    H218400   4.210   1.464   0.789 -1.1571  0.2062 -0.5372
 6146TIP3   OH218401   1.851   1.213   3.009  0.0951  0.1967 -0.5787
 6146TIP3    H118402   1.795   1.275   2.962 -1.5004  1.4344  2.6835
 6146TIP3    H218403   1.796   1.135   3.020  1.3318 -1.0694 -2.7534
 6147TIP3   OH218404   2.673   4.144   1.319  0.1094  0.5151 -0.0717
 6147TIP3    H118405   2.699   4.068   1.371 -2.1016  0.7336  1.4998
 6147TIP3    H218406   2.756   4.185   1.294  1.3132 -0.6092  1.7881
 6148TIP3   OH218407   4.758   0.513   4.067  0.3885  0.3428  0.3979
 6148TIP3    H118408   4.688   0.530   4.005  1.7549  3.0965 -0.5430
 6148TIP3    H218409   4.807   0.441   4.029 -0.1422  0.4554 -0.5215
 6149TIP3   OH218410   0.391   0.513   2.559  0.2555 -0.0673  0.0424
 6149TIP3    H118411   0.334   0.437   2.562 -0.0581  0.1683  0.0846
 6149TIP3    H218412   0.351   0.570   2.493  1.0198 -0.3629 -0.7066
 6150TIP3   OH218413   0.634   6.443   5.521 -0.6836 -0.2548  0.8824
 6150TIP3    H118414   0.582   6.523   5.513  0.5161  0.3686 -2.8657
 6150TIP3    H218415   0.579   6.374   5.484  0.4088  0.1084 -1.6047
 6151TIP3   OH218416   4.624   5.659   1.097 -0.6026 -0.0126  0.6811
 6151TIP3    H118417   4.618   5.597   1.171 -0.3201 -1.8191 -0.7370
 6151TIP3    H218418   4.541   5.648   1.051  0.2898 -0.9853 -0.7817
 6152TIP3   OH218419   2.376   4.580   0.324  0.6285 -0.1460 -0.5911
 6152TIP3    H118420   2.299   4.527   0.308  0.8532 -0.3915 -0.8761
 6152TIP3    H218421   2.375   4.645   0.254 -0.2753  0.9667  0.4120
 6153TIP3   OH218422   3.907   4.806   0.807  0.2436 -0.3330 -0.0800
 6153TIP3    H118423   3.831   4.797   0.749 -0.7322  1.1618  0.9067
 6153TIP3    H218424   3.971   4.743   0.773 -0.4594  0.1693 -2.4933
 6154TIP3   OH218425   3.280   0.394   5.732 -0.1843  0.1976  1.7151
 6154TIP3    H118426   3.277   0.456   5.805  1.1768  1.9972  0.3373
 6154TIP3    H218427   3.372   0.368   5.726  0.4632  2.5755 -1.2130
 6155TIP3   OH218428   6.868   4.737   1.314 -0.0893 -0.2213  0.8410
 6155TIP3    H118429   6.944   4.770   1.267 -1.3237  1.7959  0.0772
 6155TIP3    H218430   6.839   4.661   1.264  0.1987  0.2933 -0.1340
 6156TIP3   OH218431   7.192   4.495   3.738 -0.5314 -0.2491 -0.3029
 6156TIP3    H118432   7.238   4.430   3.684  1.2534 -1.8269  2.8405
 6156TIP3    H218433   7.116   4.449   3.772  0.4071 -0.6135  1.4423
 6157TIP3   OH218434   1.570   1.047   0.713 -0.2282  0.2182  0.5679
 6157TIP3    H118435   1.531   1.023   0.797 -0.9428 -0.2563  0.1098
 6157TIP3    H218436   1.606   0.966   0.678  0.4624  0.4983  0.6087
 6158TIP3   OH218437   5.636   0.464   5.595 -0.2523  0.2067  0.1192
 6158TIP3    H118438   5.675   0.388   5.552  2.4120  0.9575  0.9987
 6158TIP3    H218439   5.586   0.507   5.527  2.8554  0.7197 -2.0738
 6159TIP3   OH218440   3.864   2.727   3.972 -0.2652  0.4193 -0.1946
 6159TIP3    H118441   3.849   2.822   3.969  0.3137  0.5304  0.3802
 6159TIP3    H218442   3.903   2.712   4.057 -1.9660 -0.5725  0.4620
 6160TIP3   OH218443   2.589   2.086   5.483 -0.1080  0.6679 -0.1455
 6160TIP3    H118444   2.542   2.060   5.563  2.3824  0.7623  1.4712
 6160TIP3    H218445   2.640   2.163   5.509  1.1199  0.4284 -1.6779
 6161TIP3   OH218446   2.302   4.809   3.939  0.2726  0.6582  0.1414
 6161TIP3    H118447   2.211   4.835   3.922 -0.7681 -1.5618  1.9179
 6161TIP3    H218448   2.319   4.837   4.029  0.9055 -0.0782  0.2597
 6162TIP3   OH218449   3.553   5.075   4.640 -0.1198  0.0856 -0.8543
 6162TIP3    H118450   3.607   5.152   4.656  0.1460 -0.5247  1.7345
 6162TIP3    H218451   3.577   5.014   4.711 -3.7134 -0.4711  0.0910
 6163TIP3   OH218452   2.584   0.716   0.771  0.4767 -0.3316  0.0544
 6163TIP3    H118453   2.606   0.703   0.679  0.4701  1.0888 -0.1702
 6163TIP3    H218454   2.488   0.715   0.773  0.4266  1.3182 -0.2539
 6164TIP3   OH218455   3.011   0.648   0.530 -0.2849 -0.4972  0.0733
 6164TIP3    H118456   3.104   0.638   0.550  0.3114  2.4781 -0.8385
 6164TIP3    H218457   2.968   0.583   0.586  2.2495 -1.4692  1.0402
 6165TIP3   OH218458   3.252   1.070   3.171 -0.1372  0.4866 -0.2028
 6165TIP3    H118459   3.220   0.982   3.190 -0.5581  0.2244 -1.8889
 6165TIP3    H218460   3.193   1.129   3.217  0.0966 -0.1016  0.8676
 6166TIP3   OH218461   6.981   2.403   5.193 -0.2723 -0.0882 -0.0584
 6166TIP3    H118462   7.032   2.482   5.210 -0.6754  0.3062 -0.6375
 6166TIP3    H218463   7.026   2.362   5.118  0.5243 -0.9496  0.8411
 6167TIP3   OH218464   6.123   0.251   4.452 -0.5222  0.0634 -0.2896
 6167TIP3    H118465   6.118   0.311   4.377 -1.7299 -1.5724 -1.5934
 6167TIP3    H218466   6.032   0.239   4.479 -0.3229 -1.2559 -0.1430
 6168TIP3   OH218467  -0.032   0.945   2.521  0.4682  0.4788  0.0306
 6168TIP3    H118468   0.054   0.983   2.503  0.3538  0.9204  0.4040
 6168TIP3    H218469  -0.016   0.878   2.587  0.6992 -0.2705 -0.7663
 6169TIP3   OH218470   0.425   2.251   3.160  0.5515  0.5943  0.2777
 6169TIP3    H118471   0.372   2.296   3.226  1.3944 -0.7067  1.9355
 6169TIP3    H218472   0.365   2.234   3.088 -0.9102  0.5048  1.4664
 6170TIP3   OH218473   1.199   1.407   0.061  0.5789 -0.4652 -0.5253
 6170TIP3    H118474   1.290   1.434   0.046  0.5625 -0.9368 -1.5697
 6170TIP3    H218475   1.206   1.323   0.107  0.6660 -0.3715 -0.3670
 6171TIP3   OH218476   4.659   2.324   4.175 -0.3424  0.1483 -0.7362
 6171TIP3    H118477   4.592   2.382   4.210 -0.2586 -0.1857  0.0126
 6171TIP3    H218478   4.642   2.320   4.081 -0.8804  0.6880 -0.6652
 6172TIP3   OH218479   4.826   4.914   1.634 -0.0937  0.0849 -0.1851
 6172TIP3    H118480   4.795   4.859   1.706 -0.2213  1.0948  0.5525
 6172TIP3    H218481   4.794   5.001   1.655  0.7025  0.5813 -0.9667
 6173TIP3   OH218482   1.066   4.728   4.165 -0.3628  0.3476 -0.3608
 6173TIP3    H118483   1.124   4.667   4.211 -2.5192 -0.2141  1.8127
 6173TIP3    H218484   0.998   4.673   4.127 -1.2241  1.2112 -0.1214
 6174TIP3   OH218485   2.890   5.391   2.472 -0.0894  0.0461  0.0819
 6174TIP3    H118486   2.926   5.315   2.518  0.9722 -0.5430 -1.6135
 6174TIP3    H218487   2.869   5.358   2.385 -2.1619  1.0873  0.1238
 6175TIP3   OH218488   5.256   3.520   2.405 -0.4615 -0.3058  0.1077
 6175TIP3    H118489   5.192   3.453   2.382  0.2157 -0.7313 -0.5914
 6175TIP3    H218490   5.204   3.590   2.444 -1.3718 -0.5631 -0.6014
 6176TIP3   OH218491   0.019   0.854   5.425 -0.0511 -0.2607  0.5677
 6176TIP3    H118492   0.041   0.761   5.433 -1.4151 -0.6759 -0.1841
 6176TIP3    H218493  -0.008   0.880   5.513  1.1962 -0.3136  0.9898
 6177TIP3   OH218494   4.534   2.006   4.389 -1.0688  0.2901 -0.0288
 6177TIP3    H118495   4.493   1.945   4.450 -2.0696 -0.1724 -1.1152
 6177TIP3    H218496   4.614   2.034   4.432 -2.5053  1.2483  2.2127
 6178TIP3   OH218497   0.354   5.861   0.725 -0.1124 -0.2779 -0.4713
 6178TIP3    H118498   0.283   5.802   0.698 -0.4714  0.1874 -0.5508
 6178TIP3    H218499   0.374   5.912   0.647  0.7819 -0.8697 -0.6441
 6179TIP3   OH218500   5.652   5.643   1.341 -0.3662 -0.4555  0.4271
 6179TIP3    H118501   5.681   5.579   1.275  0.8235  0.6377 -0.1509
 6179TIP3    H218502   5.728   5.655   1.398 -1.5072 -1.7074  2.3324
 6180TIP3   OH218503   3.288   4.982   3.966 -0.5703 -0.1622 -0.1326
 6180TIP3    H118504   3.216   4.990   4.028 -0.2113 -0.8258  0.3879
 6180TIP3    H218505   3.247   4.982   3.880 -1.2546 -1.1082  0.1754
 6181TIP3   OH218506   4.864   3.237   3.892 -0.3933  0.0998 -0.2032
 6181TIP3    H118507   4.854   3.214   3.800  1.4355  1.1734 -0.7254
 6181TIP3    H218508   4.888   3.155   3.936  3.1289  0.2914 -1.5042
 6182TIP3   OH218509   6.863   4.271   3.508 -0.4413  0.1754 -0.0488
 6182TIP3    H118510   6.862   4.313   3.594  1.6513  1.8292 -0.7522
 6182TIP3    H218511   6.849   4.178   3.526  0.7517  0.3713  2.1678
 6183TIP3   OH218512   6.971   4.311   0.537 -0.1773  0.4737 -0.6067
 6183TIP3    H118513   6.913   4.334   0.464 -0.4164  1.1166 -0.2162
 6183TIP3    H218514   6.955   4.378   0.603  0.0434 -0.0985  0.0413
 6184TIP3   OH218515   5.511   4.162   1.120  0.0946 -0.1763  0.5032
 6184TIP3    H118516   5.450   4.201   1.183  0.5864  0.4444  0.6118
 6184TIP3    H218517   5.589   4.217   1.126  1.1011 -1.6326  1.1950
 6185TIP3   OH218518   1.678   1.711   3.170 -0.1022 -0.2544 -0.0501
 6185TIP3    H118519   1.608   1.666   3.121 -0.3706  1.0451 -0.9367
 6185TIP3    H218520   1.676   1.800   3.135  1.6666 -0.0595  0.2902
 6186TIP3   OH218521   3.962   5.801   3.013 -0.6064 -0.0026  0.1231
 6186TIP3    H118522   4.051   5.824   3.038 -0.5108 -1.6863  1.4937
 6186TIP3    H218523   3.930   5.878   2.966  1.5907  0.5901 -0.5201
 6187TIP3   OH218524   6.308   3.778   1.856  0.2165  0.3288  0.2889
 6187TIP3    H118525   6.243   3.759   1.923  0.4256 -1.2083  0.1078
 6187TIP3    H218526   6.257   3.794   1.776  0.0006 -2.2562 -0.1915
 6188TIP3   OH218527   5.388   5.286   2.177  0.9156 -0.0312 -0.0710
 6188TIP3    H118528   5.448   5.212   2.173  0.8773 -0.0170 -2.8279
 6188TIP3    H218529   5.312   5.259   2.125  0.1505  1.3240  0.2729
 6189TIP3   OH218530   2.075   4.019   4.382 -0.3038  0.1507 -0.3564
 6189TIP3    H118531   2.085   3.999   4.475  0.7339  0.1951 -0.4449
 6189TIP3    H218532   1.999   3.969   4.355  0.4334 -1.2796  0.1194
 6190TIP3   OH218533   6.237   2.756   4.664 -0.0192 -0.0250 -0.5319
 6190TIP3    H118534   6.247   2.851   4.660 -1.3816  0.1723  0.2372
 6190TIP3    H218535   6.278   2.724   4.583 -0.3934  1.2896 -1.2616
 6191TIP3   OH218536   3.880   5.543   1.942  1.0215 -0.1479 -0.4123
 6191TIP3    H118537   3.785   5.530   1.943  1.0285 -0.5041  1.9461
 6191TIP3    H218538   3.891   5.638   1.952  0.9147 -0.1487 -0.2933
 6192TIP3   OH218539   6.726   1.802   3.259  0.1177  0.3105  0.1269
 6192TIP3    H118540   6.693   1.737   3.197 -1.7055  0.4841  0.8561
 6192TIP3    H218541   6.687   1.884   3.230  0.6586  0.7062  0.4990
 6193TIP3   OH218542   5.541   4.751   4.645 -0.6733 -0.0094  0.0470
 6193TIP3    H118543   5.627   4.780   4.615 -0.7949 -0.1891 -0.4778
 6193TIP3    H218544   5.514   4.817   4.708 -1.2943  1.4482 -1.6739
 6194TIP3   OH218545   1.315   2.161   4.592  0.1908  0.4462  0.3005
 6194TIP3    H118546   1.372   2.131   4.521 -1.3868 -0.5888 -0.6073
 6194TIP3    H218547   1.266   2.235   4.555 -1.2378 -0.6159 -0.0468
 6195TIP3   OH218548   4.777   0.560   3.516  0.2500  0.1230  0.0791
 6195TIP3    H118549   4.817   0.561   3.603 -0.6473 -1.6846  0.5521
 6195TIP3    H218550   4.845   0.597   3.458  1.4812 -0.1743  1.2857
 6196TIP3   OH218551   0.638   5.238   5.570  0.1195 -0.3880 -0.1381
 6196TIP3    H118552   0.574   5.256   5.501  0.1114  1.3162  0.2927
 6196TIP3    H218553   0.590   5.252   5.651  0.1276 -2.3993  0.2640
 6197TIP3   OH218554   5.172   3.948   0.603  0.2284  0.3809  0.8042
 6197TIP3    H118555   5.246   3.904   0.645  0.7841  0.3674 -0.1743
 6197TIP3    H218556   5.211   4.022   0.557  0.0164 -0.9866 -1.7537
 6198TIP3   OH218557   0.841   5.729   0.529  0.0349 -0.3744 -0.3872
 6198TIP3    H118558   0.824   5.652   0.582 -1.3762  0.9275  1.1588
 6198TIP3    H218559   0.804   5.708   0.443  0.9781 -1.9181 -0.4558
 6199TIP3   OH218560   2.207   4.367   1.334 -0.4712 -0.1488 -0.2138
 6199TIP3    H118561   2.161   4.297   1.288 -0.1378 -0.5217  0.0141
 6199TIP3    H218562   2.139   4.410   1.385 -0.5439 -0.8034  0.2527
 6200TIP3   OH218563   5.483   0.144   4.933  0.3643 -0.0448  0.0264
 6200TIP3    H118564   5.548   0.101   4.987  0.0379  1.7381  1.9655
 6200TIP3    H218565   5.493   0.237   4.952 -2.3804  0.3472  0.0400
 6201TIP3   OH218566   4.802   1.118   3.503  0.0361  0.1940  0.1848
 6201TIP3    H118567   4.763   1.055   3.442  1.0632 -0.2646 -0.0201
 6201TIP3    H218568   4.887   1.138   3.465 -0.6215  2.4077 -0.2230
 6202TIP3   OH218569   1.236   5.867   5.701 -0.0631  0.2791 -0.5109
 6202TIP3    H118570   1.236   5.962   5.714 -0.4782  0.0695  1.2723
 6202TIP3    H218571   1.285   5.833   5.775 -1.0051 -0.9816 -0.4438
 6203TIP3   OH218572   5.553   0.355   3.505 -0.1920 -0.2330 -0.2368
 6203TIP3    H118573   5.633   0.317   3.468 -1.1488 -1.4542 -1.1345
 6203TIP3    H218574   5.546   0.314   3.592  0.6990  0.7026  0.3044
 6204TIP3   OH218575   3.536   3.859   0.622  0.3015  0.2117  0.1990
 6204TIP3    H118576   3.442   3.846   0.613  0.4556 -0.2498 -0.8019
 6204TIP3    H218577   3.561   3.805   0.698 -0.2912  0.6444  0.7108
 6205TIP3   OH218578   0.479   6.137   0.915 -0.4144  0.3386  0.3214
 6205TIP3    H118579   0.515   6.056   0.950  2.2442  2.1263  2.1166
 6205TIP3    H218580   0.385   6.121   0.907  0.0770 -3.0373  0.0674
 6206TIP3   OH218581   6.469   3.321   1.702  0.1822 -0.2715  0.6531
 6206TIP3    H118582   6.520   3.251   1.662  1.4857  1.4236 -0.8284
 6206TIP3    H218583   6.378   3.291   1.697  0.4345 -0.8365 -2.2775
 6207TIP3   OH218584   3.290   1.453   0.413 -0.1113 -0.3776 -0.0757
 6207TIP3    H118585   3.360   1.397   0.380  0.8549  0.8190 -0.1283
 6207TIP3    H218586   3.324   1.488   0.495 -0.6872  0.1503 -0.0549
 6208TIP3   OH218587   2.164   5.809   2.692 -0.2916  0.0264 -0.3188
 6208TIP3    H118588   2.225   5.758   2.639  0.4541 -0.1487  0.6794
 6208TIP3    H218589   2.126   5.872   2.630 -1.6255 -2.0079 -1.7121
 6209TIP3   OH218590   6.249   0.509   4.577  0.1152 -0.1675 -0.4350
 6209TIP3    H118591   6.247   0.442   4.509  1.7972  0.6457 -1.3785
 6209TIP3    H218592   6.342   0.527   4.589 -0.1274 -0.3341  2.1936
 6210TIP3   OH218593   1.624   3.140   3.294 -0.5881  0.2538  0.2756
 6210TIP3    H118594   1.664   3.054   3.306  0.3913  0.7537  0.6761
 6210TIP3    H218595   1.623   3.153   3.199 -0.8162 -0.2266  0.2086
 6211TIP3   OH218596   4.050   1.767   0.827  0.0625  0.0693 -0.3971
 6211TIP3    H118597   4.123   1.825   0.847  0.4039 -0.8565  1.1825
 6211TIP3    H218598   4.089   1.681   0.817 -0.8891 -0.7201  1.8945
 6212TIP3   OH218599   5.553   2.158   1.191  0.2925 -0.0426  0.0279
 6212TIP3    H118600   5.621   2.151   1.124  1.5853 -1.8245  1.4360
 6212TIP3    H218601   5.583   2.231   1.247  0.2942  0.0980 -0.1541
 6213TIP3   OH218602   6.602   3.203   4.824  0.2422  0.1229 -0.7593
 6213TIP3    H118603   6.686   3.246   4.803 -0.6442  3.9388  2.3878
 6213TIP3    H218604   6.536   3.259   4.783 -0.9099  0.3503  1.2933
 6214TIP3   OH218605   0.632   4.964   0.134 -0.2758  0.1694 -0.2898
 6214TIP3    H118606   0.620   5.014   0.215  0.4470  2.6849 -1.6127
 6214TIP3    H218607   0.576   4.887   0.145 -1.9660  1.5576  1.6699
 6215TIP3   OH218608   6.569   0.161   4.303 -0.8745 -0.4399  0.0764
 6215TIP3    H118609   6.568   0.201   4.390 -1.4001 -1.5910  0.6241
 6215TIP3    H218610   6.642   0.203   4.258 -1.3186  1.0360  0.6481
 6216TIP3   OH218611   2.867   6.001   4.357 -0.1138  0.3992  0.2505
 6216TIP3    H118612   2.935   5.969   4.297 -0.9785 -1.0643 -0.0074
 6216TIP3    H218613   2.831   6.079   4.314  1.2270  1.0603  0.2842
 6217TIP3   OH218614   3.728   1.024   1.857 -0.1497 -0.0993  0.1228
 6217TIP3    H118615   3.710   0.978   1.775 -3.2367 -0.3914  0.8394
 6217TIP3    H218616   3.642   1.036   1.897  1.1533  0.9017  2.8733
 6218TIP3   OH218617   6.305   0.904   3.949 -0.4932 -0.2287  0.5262
 6218TIP3    H118618   6.311   0.899   3.854  0.6254 -0.4790  0.5934
 6218TIP3    H218619   6.283   0.815   3.976  2.4708 -1.0431  0.6625
 6219TIP3   OH218620   5.862   4.896   4.733 -0.2762 -0.1473 -0.2402
 6219TIP3    H118621   5.952   4.927   4.744 -0.0844 -0.9099  0.4117
 6219TIP3    H218622   5.819   4.966   4.684  0.2640  0.9580  0.7892
 6220TIP3   OH218623   5.882   6.493   3.454  0.2515 -0.3378  0.0357
 6220TIP3    H118624   5.887   6.584   3.424 -0.0171  0.1888  1.5427
 6220TIP3    H218625   5.969   6.476   3.492 -0.0171 -0.3830  0.6386
 6221TIP3   OH218626   4.321   3.329   0.220  0.2484  1.0079  0.4364
 6221TIP3    H118627   4.378   3.381   0.277  0.6219  0.9816  0.0968
 6221TIP3    H218628   4.284   3.262   0.277  2.0764 -0.2018  0.3026
 6222TIP3   OH218629   2.958   0.795   2.456 -0.0091  0.2092 -0.1722
 6222TIP3    H118630   3.022   0.726   2.439 -2.1679 -1.9571  0.0085
 6222TIP3    H218631   2.912   0.767   2.534 -0.1261  2.5686  0.6917
 6223TIP3   OH218632   1.728   4.323   5.018 -0.8245  0.6879 -0.2490
 6223TIP3    H118633   1.720   4.228   5.007 -0.2820  0.3976  1.5406
 6223TIP3    H218634   1.648   4.349   5.064 -0.4928  0.9183  0.2076
 6224TIP3   OH218635   4.250   5.352   3.819  0.4857  0.3146 -0.7496
 6224TIP3    H118636   4.300   5.405   3.757 -0.0323 -0.0386 -1.4888
 6224TIP3    H218637   4.160   5.380   3.807  0.4495  0.7002  0.3284
 6225TIP3   OH218638   3.623   1.095   0.558  0.6654 -0.0502  0.0702
 6225TIP3    H118639   3.714   1.124   0.553  0.7963 -0.5821 -0.9760
 6225TIP3    H218640   3.629   0.999   0.562  0.1305 -0.1862 -1.6581
 6226TIP3   OH218641   1.992   6.049   4.472 -0.4287 -0.1598  0.3235
 6226TIP3    H118642   2.047   6.045   4.393 -0.6238  0.0585  0.1753
 6226TIP3    H218643   1.947   5.964   4.473  0.9585 -0.9171  1.2193
 6227TIP3   OH218644   6.758   2.191   3.031  0.4365  0.0053 -0.4333
 6227TIP3    H118645   6.844   2.232   3.018  0.8470 -0.3979  0.8222
 6227TIP3    H218646   6.709   2.254   3.083  0.2886 -0.1422 -0.3930
 6228TIP3   OH218647   1.180   4.452   1.323  0.1593 -0.0619  0.2840
 6228TIP3    H118648   1.085   4.452   1.339 -0.4348 -2.4529 -2.4977
 6228TIP3    H218649   1.209   4.366   1.354  1.4462  0.5745  0.9245
 6229TIP3   OH218650   3.393   5.389   1.103  0.4248  0.0173  0.3051
 6229TIP3    H118651   3.377   5.464   1.047 -0.2709 -0.6036 -0.3471
 6229TIP3    H218652   3.306   5.353   1.120  0.7657 -0.7625  0.4322
 6230TIP3   OH218653   4.132   3.140   5.622 -0.3604 -0.0174 -0.0048
 6230TIP3    H118654   4.040   3.139   5.593 -0.2023  1.9824 -0.6998
 6230TIP3    H218655   4.135   3.208   5.689  0.5151 -0.5082  0.4694
 6231TIP3   OH218656   0.033   2.332   4.582  0.1854 -0.0981 -0.6519
 6231TIP3    H118657   0.012   2.398   4.648  1.1495 -0.1821 -0.2451
 6231TIP3    H218658   0.075   2.381   4.512  0.7520 -0.2523 -0.4230
 6232TIP3   OH218659   5.960   2.545   4.436 -0.6887 -0.3109 -0.0887
 6232TIP3    H118660   5.997   2.494   4.508  1.7846 -1.6061 -2.1052
 6232TIP3    H218661   6.017   2.621   4.428 -1.7390  0.5217  0.1180
 6233TIP3   OH218662   6.702   5.741   2.376 -0.0372  0.3540  0.4901
 6233TIP3    H118663   6.760   5.803   2.420  0.0012  1.3620 -0.8882
 6233TIP3    H218664   6.661   5.793   2.306  0.0518 -1.1860 -0.7591
 6234TIP3   OH218665   2.492   1.955   0.071  0.3719  0.2971 -0.6509
 6234TIP3    H118666   2.474   1.907   0.152 -0.3472  2.2828  0.4348
 6234TIP3    H218667   2.410   1.951   0.022  0.0742  1.0472 -0.2158
 6235TIP3   OH218668   2.576   3.880   2.773  0.3920 -0.0137 -0.2816
 6235TIP3    H118669   2.558   3.966   2.812 -1.6610 -0.4382 -0.1612
 6235TIP3    H218670   2.652   3.847   2.822 -1.2161  0.0766  2.4867
 6236TIP3   OH218671   6.436   5.797   1.758  0.0046 -0.3306 -0.3080
 6236TIP3    H118672   6.433   5.866   1.825 -0.9931 -1.2218  0.6127
 6236TIP3    H218673   6.365   5.819   1.698 -0.4310 -0.6136  0.0847
 6237TIP3   OH218674   3.317   4.608   0.858 -0.9736 -0.4077 -0.3838
 6237TIP3    H118675   3.247   4.581   0.917  0.6963 -2.1053  0.9310
 6237TIP3    H218676   3.355   4.527   0.825 -1.5777  0.4705 -3.6116
 6238TIP3   OH218677   7.088   5.020   0.660  0.4882  0.0106 -0.0475
 6238TIP3    H118678   7.181   5.037   0.648  0.3078  0.1978 -1.4104
 6238TIP3    H218679   7.044   5.077   0.596 -0.4965 -0.7130 -0.0589
 6239TIP3   OH218680   4.528   6.487   1.745  0.7935  0.1725  0.1446
 6239TIP3    H118681   4.549   6.473   1.838  0.0791  3.0758  0.8308
 6239TIP3    H218682   4.606   6.531   1.710  0.5470  0.2479 -0.3078
 6240TIP3   OH218683   1.756   5.282   4.337 -0.3395 -0.1553  0.2813
 6240TIP3    H118684   1.670   5.270   4.377 -0.6248  1.3893  0.2034
 6240TIP3    H218685   1.812   5.309   4.410 -0.1357 -0.3141  0.1809
 6241TIP3   OH218686   1.981   0.490   1.058  0.7473  0.0585  0.3343
 6241TIP3    H118687   2.044   0.436   1.107  2.6930  1.4812 -0.4656
 6241TIP3    H218688   1.998   0.469   0.966  0.7722  1.2062  0.0639
 6242TIP3   OH218689   1.599   6.129   1.859  0.2705 -0.3047 -0.6020
 6242TIP3    H118690   1.554   6.139   1.775 -1.9564  0.1489  0.5653
 6242TIP3    H218691   1.620   6.218   1.886 -0.7763 -0.2861  0.1955
 6243TIP3   OH218692   5.261   1.629   3.839  0.7458 -0.1961  0.1068
 6243TIP3    H118693   5.184   1.643   3.784  0.3774 -1.6893  0.1823
 6243TIP3    H218694   5.307   1.712   3.838 -0.6324  0.5920 -0.3184
 6244TIP3   OH218695   4.782   0.247   4.364  0.2873  0.0007  0.0319
 6244TIP3    H118696   4.857   0.307   4.364 -0.0143  0.3868 -0.3699
 6244TIP3    H218697   4.795   0.192   4.441  1.6429 -0.7693 -0.7110
 6245TIP3   OH218698   3.078   1.655   0.401 -0.0830 -0.2822  0.1515
 6245TIP3    H118699   3.025   1.647   0.480  1.7476  0.6096  1.5411
 6245TIP3    H218700   3.142   1.584   0.408  1.8664  1.4568  0.9685
 6246TIP3   OH218701   5.985   2.395   3.566 -0.0605 -0.0693 -0.6451
 6246TIP3    H118702   5.957   2.427   3.480 -0.9449  0.1959 -0.2665
 6246TIP3    H218703   5.928   2.440   3.628 -0.3574 -1.2845 -0.0027
 6247TIP3   OH218704   1.208   0.353   3.441  1.0193 -0.5383  0.7407
 6247TIP3    H118705   1.233   0.436   3.482 -2.2640  0.4096  1.1353
 6247TIP3    H218706   1.142   0.378   3.376  1.1957 -2.7084 -0.3544
 6248TIP3   OH218707   0.629   2.073   3.128 -0.4815 -0.3984  0.2307
 6248TIP3    H118708   0.607   2.073   3.035 -0.8101  0.4912  0.3008
 6248TIP3    H218709   0.586   2.151   3.163  1.3798  0.4776  0.7023
 6249TIP3   OH218710   5.917   5.426   0.683 -0.5469  0.3174  0.1089
 6249TIP3    H118711   5.931   5.372   0.762 -1.0606  0.1882  0.1152
 6249TIP3    H218712   5.994   5.483   0.680 -0.7127  0.6056  0.9335
 6250TIP3   OH218713   4.928   5.071   1.895 -0.2355  0.3399  0.0454
 6250TIP3    H118714   4.874   5.150   1.902  0.2700  0.6370  0.7530
 6250TIP3    H218715   5.015   5.104   1.872 -0.3119 -0.1241 -0.9596
 6251TIP3   OH218716   2.713   6.540   0.452  0.4337 -0.1417  0.0196
 6251TIP3    H118717   2.782   6.535   0.518  0.9084 -0.5485 -0.5010
 6251TIP3    H218718   2.632   6.524   0.501  0.6064  1.1965  0.7886
 6252TIP3   OH218719   2.360   4.937   2.389 -0.6033 -0.2153  0.4521
 6252TIP3    H118720   2.300   4.910   2.320  1.3730 -1.4827 -0.8753
 6252TIP3    H218721   2.437   4.881   2.377 -0.0381 -0.2604  3.5009
 6253TIP3   OH218722   4.758   4.746   1.830  0.0832  0.1126  0.2197
 6253TIP3    H118723   4.708   4.804   1.888  1.5418  0.5728  1.0789
 6253TIP3    H218724   4.747   4.659   1.868 -1.1045 -0.0082 -0.3597
 6254TIP3   OH218725   3.994   4.130   1.269  0.3772 -0.5711  0.3929
 6254TIP3    H118726   4.021   4.038   1.273 -0.9509 -1.1666 -1.8663
 6254TIP3    H218727   3.898   4.127   1.279  0.1328  0.3467 -1.3080
 6255TIP3   OH218728   6.911   0.465   4.572 -0.1289 -0.4931  0.1099
 6255TIP3    H118729   6.888   0.558   4.580 -2.0175 -1.0541  2.0987
 6255TIP3    H218730   7.000   0.466   4.536 -0.3495  2.0470 -0.5925
 6256TIP3   OH218731   0.287   3.095   0.507 -0.2071  0.3885  0.5448
 6256TIP3    H118732   0.226   3.079   0.436 -1.0478  3.3578  0.4797
 6256TIP3    H218733   0.371   3.062   0.475 -1.5823 -3.6905  0.5948
 6257TIP3   OH218734   0.851   2.156   1.835  0.2340  0.4951  0.1388
 6257TIP3    H118735   0.937   2.151   1.877 -0.2750  2.0422  1.4561
 6257TIP3    H218736   0.866   2.204   1.754  1.0406 -1.6290 -1.0743
 6258TIP3   OH218737   0.026   3.983   3.486 -0.0070 -0.0748 -0.2546
 6258TIP3    H118738   0.074   4.008   3.407 -2.7780  0.6432 -1.8973
 6258TIP3    H218739  -0.007   3.895   3.467 -1.1480  0.3195 -0.1749
 6259TIP3   OH218740   0.573   6.565   0.459 -0.2881 -0.3492  0.2210
 6259TIP3    H118741   0.664   6.594   0.452  0.2898 -2.3126 -1.5067
 6259TIP3    H218742   0.569   6.517   0.541  0.5957 -1.2679 -0.2487
 6260TIP3   OH218743   1.266   3.228   3.633 -0.3162 -0.1637 -0.1015
 6260TIP3    H118744   1.328   3.183   3.576 -0.8345  0.1743 -0.9399
 6260TIP3    H218745   1.319   3.295   3.676 -0.0248 -0.1033 -0.5465
 6261TIP3   OH218746   5.027   4.000   3.913 -0.5861  0.3311 -0.1719
 6261TIP3    H118747   4.990   3.957   3.990 -0.6525 -0.2668 -0.5277
 6261TIP3    H218748   4.956   4.054   3.879 -1.2741 -1.0566 -1.0340
 6262TIP3   OH218749   4.489   0.091   1.742 -0.2163 -0.2672  0.2795
 6262TIP3    H118750   4.562   0.138   1.781 -1.5522  3.2773 -1.1080
 6262TIP3    H218751   4.463   0.027   1.809  1.2171  1.5383  2.7178
 6263TIP3   OH218752   0.951   1.493   0.514  0.1504 -0.1597  0.3014
 6263TIP3    H118753   0.973   1.480   0.607 -0.1912  1.2651  0.6063
 6263TIP3    H218754   0.856   1.505   0.514  0.0872 -0.6458 -0.3055
 6264TIP3   OH218755   2.935   0.209   2.613  0.3577  0.6044 -0.0872
 6264TIP3    H118756   2.970   0.120   2.622  1.3780  1.0011 -0.0468
 6264TIP3    H218757   3.005   0.266   2.646 -0.4916  1.3954  0.3918
 6265TIP3   OH218758   1.598   2.454   0.745 -0.2184  0.2840  0.3406
 6265TIP3    H118759   1.554   2.396   0.807 -1.0397  0.1310 -0.3785
 6265TIP3    H218760   1.664   2.500   0.799 -0.5329 -0.2473  1.2052
 6266TIP3   OH218761   2.036   2.205   3.612  0.3615 -0.2347 -0.4658
 6266TIP3    H118762   2.078   2.163   3.537  0.6925 -1.3435  0.3164
 6266TIP3    H218763   2.097   2.193   3.684  0.5495  1.7930 -0.2204
 6267TIP3   OH218764   2.305   5.764   0.003 -0.1177 -0.4804 -0.0272
 6267TIP3    H118765   2.233   5.781  -0.058  1.2536 -0.7753 -1.8218
 6267TIP3    H218766   2.263   5.728   0.081 -1.9781  0.2126 -0.6652
 6268TIP3   OH218767   2.838   1.014   4.620  0.0502 -0.0703  0.0561
 6268TIP3    H118768   2.861   1.101   4.652 -1.1199  0.5077 -0.6023
 6268TIP3    H218769   2.889   1.003   4.539  3.0308 -1.5439  1.9531
 6269TIP3   OH218770   5.982   4.069   1.767  0.2362  0.2058 -0.1892
 6269TIP3    H118771   6.015   4.135   1.706  0.2119 -0.5677 -1.0705
 6269TIP3    H218772   6.050   4.002   1.767 -1.0497 -1.1834 -1.6631
 6270TIP3   OH218773   3.183   0.500   1.402 -0.1699 -0.0841  0.6355
 6270TIP3    H118774   3.148   0.543   1.324  0.9341 -1.4526 -0.6684
 6270TIP3    H218775   3.227   0.571   1.450  3.1723  0.1895 -2.3576
 6271TIP3   OH218776   4.018   0.658   3.852 -0.5704  0.4295  0.6999
 6271TIP3    H118777   4.011   0.563   3.837 -1.0578  0.7137 -1.0757
 6271TIP3    H218778   4.019   0.696   3.765  0.8483  2.0145  1.3705
 6272TIP3   OH218779   3.109   3.816   2.852  0.3046  0.2509 -0.5826
 6272TIP3    H118780   3.100   3.724   2.828 -0.5809 -0.4463  2.0883
 6272TIP3    H218781   3.115   3.816   2.947 -0.2308  3.0025 -0.4559
 6273TIP3   OH218782   2.385   6.220   5.428 -0.9047 -0.0115  0.0503
 6273TIP3    H118783   2.383   6.175   5.344 -1.1440 -1.2819  0.7119
 6273TIP3    H218784   2.324   6.170   5.483  0.5184 -0.2595  1.4868
 6274TIP3   OH218785   1.300   2.435   5.570 -0.3334 -0.1277  0.1583
 6274TIP3    H118786   1.222   2.385   5.547 -0.4757  1.5430 -3.6796
 6274TIP3    H218787   1.286   2.522   5.531  2.5641  0.9114  1.1293
 6275TIP3   OH218788   0.660   3.999   5.069  0.5393 -0.1752  0.2726
 6275TIP3    H118789   0.723   4.068   5.089  1.0841  0.1707 -2.3100
 6275TIP3    H218790   0.600   3.999   5.144  1.0882  2.4376  0.8069
 6276TIP3   OH218791   6.396   3.053   4.980 -0.1743  0.3110  0.1128
 6276TIP3    H118792   6.326   3.118   4.977  1.2490  1.9402  0.0663
 6276TIP3    H218793   6.468   3.095   4.932  1.9498  0.1633  2.9093
 6277TIP3   OH218794   3.895   0.476   4.514 -0.6306  0.3445  0.1658
 6277TIP3    H118795   3.910   0.558   4.561  1.3315  0.4501 -0.5697
 6277TIP3    H218796   3.924   0.493   4.425 -2.8018 -0.3472 -0.7565
 6278TIP3   OH218797   0.443   4.793   0.086  0.6245  0.5037  0.2480
 6278TIP3    H118798   0.475   4.703   0.081  0.5142  0.5080 -0.8297
 6278TIP3    H218799   0.359   4.786   0.133  0.6232  0.0466  0.1823
 6279TIP3   OH218800   2.303   3.319   4.745 -0.0081  0.1525 -0.3752
 6279TIP3    H118801   2.208   3.322   4.759  0.2511  1.6085  1.4628
 6279TIP3    H218802   2.317   3.371   4.666 -0.8979 -2.0714 -2.0952
 6280TIP3   OH218803   5.373   2.331   2.052  0.3391 -0.6779  0.1038
 6280TIP3    H118804   5.356   2.396   1.984  2.7489  1.4282  1.3159
 6280TIP3    H218805   5.332   2.367   2.130 -0.3660 -1.8882  0.3182
 6281TIP3   OH218806   0.079   1.481   4.881 -0.4890  0.2284 -0.2059
 6281TIP3    H118807   0.132   1.547   4.837  0.5196 -0.3733  0.0711
 6281TIP3    H218808  -0.012   1.505   4.861 -0.0991  0.9050 -1.2369
 6282TIP3   OH218809   6.263   2.603   3.442 -0.3512  0.2913  0.0481
 6282TIP3    H118810   6.287   2.513   3.465 -1.7520 -0.4544 -1.2345
 6282TIP3    H218811   6.296   2.614   3.353 -1.1979  0.6313 -0.2282
 6283TIP3   OH218812   5.304   1.966   2.206 -0.1388 -0.1987 -0.0410
 6283TIP3    H118813   5.390   1.997   2.178  0.4686 -1.6514  0.1171
 6283TIP3    H218814   5.255   2.046   2.226  0.4303  0.7645 -2.1966
 6284TIP3   OH218815   6.828   3.378   0.566 -0.8566 -0.6243 -0.3788
 6284TIP3    H118816   6.867   3.415   0.646 -2.0104 -0.9904  0.3840
 6284TIP3    H218817   6.788   3.453   0.522  1.7169  0.0025 -1.8573
 6285TIP3   OH218818   2.853   4.755   1.757 -0.3569  0.2991  0.1487
 6285TIP3    H118819   2.929   4.803   1.788  0.5737 -0.7353 -0.4664
 6285TIP3    H218820   2.843   4.683   1.819 -2.4153  1.8199  1.7156
 6286TIP3   OH218821   3.410   5.009   0.353 -0.0506 -0.4276  0.0666
 6286TIP3    H118822   3.327   5.029   0.396 -0.9554 -2.0939 -0.8201
 6286TIP3    H218823   3.469   4.985   0.425 -1.1009 -1.7315  0.5272
 6287TIP3   OH218824   4.097   6.188   4.888  0.1241 -0.1132  0.5274
 6287TIP3    H118825   4.050   6.111   4.855  0.4926  0.1846 -0.7747
 6287TIP3    H218826   4.047   6.217   4.964 -0.6555 -0.9726  0.3551
 6288TIP3   OH218827   3.248   1.840   4.935  0.0973 -0.6226 -0.2651
 6288TIP3    H118828   3.273   1.853   4.843  0.1596  1.7190  0.0137
 6288TIP3    H218829   3.246   1.745   4.946  0.9710 -0.9609 -2.4384
 6289TIP3   OH218830   4.588   2.093   2.523 -0.3071 -0.3764  0.5588
 6289TIP3    H118831   4.575   2.003   2.496  0.2227 -0.1001 -0.6832
 6289TIP3    H218832   4.683   2.106   2.520 -0.3379  0.0837  1.2301
 6290TIP3   OH218833   1.783   3.890   2.645  0.1003  0.1772 -0.2086
 6290TIP3    H118834   1.787   3.972   2.595 -2.3855  0.2805 -0.3551
 6290TIP3    H218835   1.827   3.826   2.589  0.9193  1.1253 -0.6815
 6291TIP3   OH218836   2.781   6.660   2.461 -0.0985 -0.8218  0.4187
 6291TIP3    H118837   2.737   6.644   2.378 -0.9502 -0.1105  0.7095
 6291TIP3    H218838   2.725   6.724   2.506 -0.2935 -2.0391  2.0293
 6292TIP3   OH218839   4.595   4.255   3.219  0.2320 -0.6281  0.1625
 6292TIP3    H118840   4.509   4.297   3.226  0.7535  0.5053  0.0420
 6292TIP3    H218841   4.576   4.162   3.204 -0.9756 -0.2049 -1.1020
 6293TIP3   OH218842   4.591   3.580   4.769 -0.0160 -0.2592  0.1668
 6293TIP3    H118843   4.629   3.576   4.681 -0.2484  5.2716 -0.5740
 6293TIP3    H218844   4.501   3.611   4.755 -0.4791 -0.4356  2.3308
 6294TIP3   OH218845   3.050   2.074   2.451  0.0949 -0.3316 -0.2723
 6294TIP3    H118846   3.132   2.100   2.493  0.3291 -1.2497 -0.1500
 6294TIP3    H218847   3.076   2.013   2.383 -0.5670 -1.4704  0.4670
 6295TIP3   OH218848   0.336   3.207   1.686 -0.7039  0.1291  0.1297
 6295TIP3    H118849   0.280   3.230   1.612 -0.2186  0.6791 -0.0700
 6295TIP3    H218850   0.425   3.221   1.654 -0.5239  1.8767  1.2940
 6296TIP3   OH218851   6.127   5.260   2.247  0.2078 -0.0497  0.0238
 6296TIP3    H118852   6.115   5.200   2.319  0.8954  0.8098  0.8761
 6296TIP3    H218853   6.209   5.306   2.266 -0.9024  2.0341  0.0793
 6297TIP3   OH218854   1.735   6.409   5.379  0.0770  0.2468  0.2863
 6297TIP3    H118855   1.717   6.450   5.294  3.3668 -0.1855 -0.7823
 6297TIP3    H218856   1.673   6.337   5.384 -1.1792  1.1703 -1.0577
 6298TIP3   OH218857   1.888   5.143   4.657 -0.0803 -0.2051  0.5617
 6298TIP3    H118858   1.951   5.075   4.634  0.1094 -0.3086  1.3407
 6298TIP3    H218859   1.803   5.102   4.641  0.0359 -0.5450  0.7840
 6299TIP3   OH218860   2.622   3.116   3.816  0.1216 -0.2708  0.9245
 6299TIP3    H118861   2.545   3.167   3.792  1.1041  1.5052  1.2678
 6299TIP3    H218862   2.590   3.050   3.877 -1.8979 -2.8391 -2.5629
 6300TIP3   OH218863   4.827   1.017   1.742 -0.3631  0.6078  0.2390
 6300TIP3    H118864   4.797   0.992   1.830 -0.8650  1.8323  0.4301
 6300TIP3    H218865   4.904   1.072   1.758  1.1944 -1.3102 -0.2065
 6301TIP3   OH218866   2.209   0.413   2.024 -0.7935  0.2777 -0.6613
 6301TIP3    H118867   2.170   0.492   1.986  1.0246  1.2329 -0.6268
 6301TIP3    H218868   2.163   0.402   2.108 -0.9295  1.4347 -0.5648
 6302TIP3   OH218869   0.104   1.865   0.089  0.8293  0.3814  0.0631
 6302TIP3    H118870   0.051   1.936   0.126  0.2891 -0.8981  1.8766
 6302TIP3    H218871   0.050   1.832   0.017 -0.0910  0.2034  0.8035
 6303TIP3   OH218872   6.525   5.084   0.762 -0.0822  0.0793  0.2981
 6303TIP3    H118873   6.457   5.048   0.705 -0.0443  1.1601 -0.4738
 6303TIP3    H218874   6.607   5.067   0.715  0.0556  0.0208  0.5560
 6304TIP3   OH218875   2.720   5.587   0.696  0.3169 -0.0160 -0.3526
 6304TIP3    H118876   2.648   5.577   0.633 -0.0897 -0.7681  0.2086
 6304TIP3    H218877   2.696   5.529   0.768  0.9969  0.4976  0.2979
 6305TIP3   OH218878   6.638   4.732   4.057 -0.1072  0.0647 -0.5055
 6305TIP3    H118879   6.646   4.683   4.138  0.2414  1.3517  0.2643
 6305TIP3    H218880   6.609   4.667   3.992 -0.1577 -1.0241  0.5786
 6306TIP3   OH218881   3.635   1.134   2.303  0.2212  0.0620  0.2179
 6306TIP3    H118882   3.722   1.160   2.333  0.2793  0.6413 -0.4059
 6306TIP3    H218883   3.576   1.198   2.342  0.1685  0.1361  0.0203
 6307TIP3   OH218884   1.314   3.790   2.219  0.7012  0.0722 -0.2605
 6307TIP3    H118885   1.321   3.756   2.308 -0.6831  2.0282  0.6623
 6307TIP3    H218886   1.396   3.839   2.206 -0.7595  3.3310  1.6395
 6308TIP3   OH218887   5.568   0.340   2.288  0.0009  0.3506 -0.1943
 6308TIP3    H118888   5.633   0.402   2.255  0.0549  0.2317 -0.3128
 6308TIP3    H218889   5.586   0.333   2.381  0.9425 -0.6127 -0.4303
 6309TIP3   OH218890   2.948   4.100   5.232  0.0457 -0.3045  0.3479
 6309TIP3    H118891   3.016   4.150   5.277  0.9801 -1.7687  0.6416
 6309TIP3    H218892   2.953   4.128   5.141  0.0654  0.6346  0.6329
 6310TIP3   OH218893   1.839   5.959   5.123  0.5794  0.2935  0.5671
 6310TIP3    H118894   1.864   5.918   5.040  0.3526  0.4077  0.4431
 6310TIP3    H218895   1.921   5.997   5.156  0.7783 -0.1996  0.6509
 6311TIP3   OH218896   0.852   3.253   2.835 -0.3206 -0.0221  0.3275
 6311TIP3    H118897   0.871   3.328   2.891  2.6962  0.1150 -0.6798
 6311TIP3    H218898   0.887   3.178   2.884  1.4658 -0.0189 -0.8475
 6312TIP3   OH218899   1.904   6.422   0.716  0.1036 -0.2358  0.0414
 6312TIP3    H118900   1.848   6.471   0.776  0.0630  1.2334 -1.1217
 6312TIP3    H218901   1.894   6.467   0.632  1.7584 -0.9306 -0.5818
 6313TIP3   OH218902   0.667   2.783   1.804  0.1757 -0.0273  0.5261
 6313TIP3    H118903   0.585   2.829   1.789  0.6308  0.7447  0.3467
 6313TIP3    H218904   0.735   2.844   1.775  0.8036 -0.7624  0.3929
 6314TIP3   OH218905   3.973   3.231   3.265  0.2766 -0.4969  0.3587
 6314TIP3    H118906   3.882   3.254   3.251  0.6174 -0.2131 -1.8074
 6314TIP3    H218907   4.020   3.314   3.268  0.5937 -0.6720  0.3618
 6315TIP3   OH218908   6.039   2.720   1.562  0.5236 -0.4632 -0.1097
 6315TIP3    H118909   6.102   2.770   1.511  0.3263 -0.2708 -0.1685
 6315TIP3    H218910   6.091   2.656   1.609  1.2778  1.9975  2.7022
 6316TIP3   OH218911   5.254   6.071   1.821  0.2078  0.3231 -0.1291
 6316TIP3    H118912   5.167   6.096   1.851 -0.3767 -0.7486 -0.8614
 6316TIP3    H218913   5.299   6.043   1.900 -0.2495  0.4768  0.1946
 6317TIP3   OH218914   0.577   2.032   0.808 -0.2491 -0.1035 -0.1658
 6317TIP3    H118915   0.659   2.020   0.759 -0.1742  0.2453 -0.1304
 6317TIP3    H218916   0.516   2.068   0.744 -0.9514 -2.1086 -0.6860
 6318TIP3   OH218917   0.978   2.587   0.401  0.0423 -0.4341  0.4321
 6318TIP3    H118918   1.052   2.638   0.368  0.0283 -0.3378  0.5480
 6318TIP3    H218919   0.915   2.652   0.432 -0.4907 -0.4899 -0.4964
 6319TIP3   OH218920   3.593   3.227   2.871  0.0650 -0.7583  0.5798
 6319TIP3    H118921   3.684   3.252   2.887 -0.1792 -0.4111  1.4874
 6319TIP3    H218922   3.592   3.196   2.780  0.8236  0.4519  0.1439
 6320TIP3   OH218923   0.350   2.591   4.304 -0.2079  0.0263  0.1686
 6320TIP3    H118924   0.424   2.552   4.258  1.6375  2.7831  0.5271
 6320TIP3    H218925   0.284   2.604   4.236  0.7350 -0.0259 -0.7868
 6321TIP3   OH218926   4.650   5.730   2.842  0.0942  0.3726  0.0773
 6321TIP3    H118927   4.739   5.731   2.806  0.7079  0.0832  1.5228
 6321TIP3    H218928   4.594   5.731   2.765  1.3465  0.3485 -0.8783
 6322TIP3   OH218929   2.766   4.385   3.760 -0.4204 -0.2818  0.3192
 6322TIP3    H118930   2.755   4.454   3.695  0.2949  1.1073  1.6100
 6322TIP3    H218931   2.767   4.304   3.709  0.9082  0.7965 -1.4945
 6323TIP3   OH218932   0.401   5.375   1.857  0.1942 -0.1237  0.1509
 6323TIP3    H118933   0.475   5.358   1.915  1.3880  0.2867 -1.1886
 6323TIP3    H218934   0.426   5.336   1.773 -1.4160 -0.5737 -0.1490
 6324TIP3   OH218935   4.354   4.983   3.399  0.5893  0.4562  0.3238
 6324TIP3    H118936   4.441   4.947   3.381 -0.7298 -2.5319 -0.7069
 6324TIP3    H218937   4.331   5.031   3.320  0.3414 -0.8583 -0.4176
 6325TIP3   OH218938   4.250   4.919   0.659 -0.4493  0.2382  0.0105
 6325TIP3    H118939   4.253   4.915   0.754 -1.2425  0.0104  0.0343
 6325TIP3    H218940   4.162   4.952   0.639 -0.2260  0.4671 -0.6373
 6326TIP3   OH218941   7.085   1.386   2.243  0.4973 -0.0877 -0.2564
 6326TIP3    H118942   7.074   1.433   2.326  0.0140  1.0780 -0.9666
 6326TIP3    H218943   7.171   1.345   2.250  1.2080  1.4235  0.1354
 6327TIP3   OH218944   4.039   5.960   5.740 -0.3468  0.3071 -0.3572
 6327TIP3    H118945   4.011   5.897   5.674 -0.5420  0.9651 -0.9174
 6327TIP3    H218946   4.008   6.045   5.707  0.0112  0.7128  0.3203
 6328TIP3   OH218947   3.967   6.266   1.622  0.6121 -0.0183  0.3249
 6328TIP3    H118948   3.966   6.256   1.526 -2.1655  0.2208  0.2475
 6328TIP3    H218949   3.986   6.358   1.636  0.3281  0.1032 -0.0585
 6329TIP3   OH218950   3.077   3.682   0.006  0.1004 -0.2003  0.4892
 6329TIP3    H118951   3.170   3.662   0.007  0.1092 -0.1565  1.4238
 6329TIP3    H218952   3.043   3.644   0.088 -0.7866 -0.6250 -0.0567
 6330TIP3   OH218953   0.672   6.226   1.361 -0.1723  0.3937  0.3160
 6330TIP3    H118954   0.621   6.149   1.388  0.2721  0.4455  1.3553
 6330TIP3    H218955   0.621   6.300   1.393 -0.0737  0.4900  0.2483
 6331TIP3   OH218956   6.530   1.651   3.924  0.4654  0.2663 -0.7768
 6331TIP3    H118957   6.491   1.734   3.950 -0.7199 -0.1405 -1.1817
 6331TIP3    H218958   6.508   1.641   3.832 -1.7400 -1.6726 -0.1623
 6332TIP3   OH218959   6.007   2.538   1.272 -0.1857 -0.6961  0.6858
 6332TIP3    H118960   6.023   2.600   1.344 -1.0780  1.0412 -0.5254
 6332TIP3    H218961   6.092   2.527   1.231  0.0408 -0.4664  1.0847
 6333TIP3   OH218962   3.975   5.653   1.107  0.2396  0.6067  0.4787
 6333TIP3    H118963   3.883   5.625   1.106 -0.3644  2.3885  1.5206
 6333TIP3    H218964   4.015   5.601   1.177  0.1012 -0.2942 -0.0862
 6334TIP3   OH218965   4.123   2.866   0.744 -0.0020  0.0221 -0.6922
 6334TIP3    H118966   4.132   2.853   0.839 -0.0194  1.1746 -0.5272
 6334TIP3    H218967   4.111   2.777   0.709  0.5701 -0.4722  0.3190
 6335TIP3   OH218968   6.913   4.187   1.693  0.0273 -0.0518 -0.1729
 6335TIP3    H118969   6.995   4.150   1.660 -0.4880 -1.2466 -0.1514
 6335TIP3    H218970   6.845   4.135   1.652 -0.7135  0.5396  0.2865
 6336TIP3   OH218971   1.056   0.174   0.016 -0.1829  0.0705 -0.0189
 6336TIP3    H118972   1.062   0.079   0.018 -1.8645 -0.0696  1.8338
 6336TIP3    H218973   1.113   0.203   0.087 -0.9846  0.3204  0.5331
 6337TIP3   OH218974   5.974   1.203   3.535 -0.0686  0.1790 -0.0621
 6337TIP3    H118975   6.001   1.275   3.478  1.1758  0.1091  0.4062
 6337TIP3    H218976   6.030   1.129   3.509  0.7679  0.2378  1.4342
 6338TIP3   OH218977   2.860   4.297   0.578 -0.5496 -0.8932  0.0912
 6338TIP3    H118978   2.937   4.334   0.622 -0.8078 -2.0341  1.5795
 6338TIP3    H218979   2.843   4.357   0.506  0.0528  0.9539  1.3961
 6339TIP3   OH218980   4.509   4.542   1.342  0.1385  0.2300 -0.3005
 6339TIP3    H118981   4.453   4.517   1.416 -0.4100  0.0469 -0.7693
 6339TIP3    H218982   4.566   4.611   1.377 -0.5530  0.5990  0.1193
 6340TIP3   OH218983   2.922   1.272   0.076  0.3796  0.3000 -0.6252
 6340TIP3    H118984   2.989   1.335   0.104  0.6601 -0.8334  1.4411
 6340TIP3    H218985   2.972   1.201   0.035  0.5402 -0.6214  1.0589
 6341TIP3   OH218986   1.458   3.059   1.261 -0.0098 -0.1652  0.4505
 6341TIP3    H118987   1.394   3.098   1.320 -1.6394 -2.2458  0.1520
 6341TIP3    H218988   1.515   3.008   1.319 -0.3904 -0.6024  0.4482
 6342TIP3   OH218989   3.977   2.178   2.500  0.1064  0.3653 -0.1515
 6342TIP3    H118990   4.029   2.098   2.490  0.7042  0.8325 -0.8623
 6342TIP3    H218991   3.937   2.170   2.587  0.8742 -0.2828  0.1524
 6343TIP3   OH218992   3.115   5.670   5.558 -0.2815 -0.2912 -0.4948
 6343TIP3    H118993   3.207   5.672   5.583 -0.4762 -0.7111  0.2787
 6343TIP3    H218994   3.111   5.721   5.477  0.1591  2.3506  1.0060
 6344TIP3   OH218995   6.424   0.379   0.072 -0.3339  0.3959  0.0300
 6344TIP3    H118996   6.383   0.302   0.111 -0.2859  0.1798 -0.3448
 6344TIP3    H218997   6.509   0.386   0.117  0.9696 -1.4930 -1.9129
 6345TIP3   OH218998   3.056   6.617   2.216 -0.3667  0.0914  0.2763
 6345TIP3    H118999   3.058   6.672   2.295 -0.4197  0.1858  0.2121
 6345TIP3    H219000   3.123   6.655   2.159 -1.0058  0.6351 -0.1307
 6346TIP3   OH219001   3.253   4.358   1.544 -0.1595  0.2767 -0.0282
 6346TIP3    H119002   3.292   4.375   1.630 -0.5536 -0.4657  0.3006
 6346TIP3    H219003   3.236   4.264   1.544 -0.0677  0.2569 -0.9612
 6347TIP3   OH219004   6.049   1.694   3.209 -0.0504  0.7434  0.4988
 6347TIP3    H119005   6.024   1.681   3.118 -2.7554 -0.3893  1.2962
 6347TIP3    H219006   6.024   1.784   3.229  0.9915  1.1546  0.0541
 6348TIP3   OH219007   6.593   4.470   2.085 -0.0491 -0.1715 -0.8048
 6348TIP3    H119008   6.527   4.535   2.059 -1.8280 -0.7366  1.9293
 6348TIP3    H219009   6.557   4.386   2.058 -0.5223 -0.4811  0.6769
 6349TIP3   OH219010   0.332   3.317   3.132  0.5260 -0.0195 -0.0989
 6349TIP3    H119011   0.275   3.393   3.123  1.0160  0.2593 -0.9459
 6349TIP3    H219012   0.278   3.252   3.175  0.3541  1.0871  1.4589
 6350TIP3   OH219013   0.272   4.648   2.668 -0.1895  0.4168 -0.1475
 6350TIP3    H119014   0.365   4.661   2.689  0.1215  0.0450 -1.2544
 6350TIP3    H219015   0.235   4.610   2.748  0.4260  1.2912  0.5902
 6351TIP3   OH219016   0.634   0.786   1.414 -0.8652 -0.4066 -0.4649
 6351TIP3    H119017   0.689   0.850   1.460  1.6093 -2.5261 -0.2038
 6351TIP3    H219018   0.624   0.821   1.326 -0.3404  0.7512 -0.0805
 6352TIP3   OH219019   0.783   0.770   0.289 -0.0902 -0.2146  0.0803
 6352TIP3    H119020   0.708   0.747   0.234 -0.8409 -0.8210  1.3242
 6352TIP3    H219021   0.859   0.739   0.240 -0.6604  0.0909 -1.0364
 6353TIP3   OH219022   4.357   5.956   0.303  0.3636  0.0371  0.0665
 6353TIP3    H119023   4.276   5.961   0.353 -1.1175  1.2124 -2.2665
 6353TIP3    H219024   4.337   5.899   0.229  1.8900 -0.1883 -0.2199
 6354TIP3   OH219025   2.387   2.292   4.182 -0.1601 -0.4625  0.1752
 6354TIP3    H119026   2.453   2.304   4.250 -0.5049  0.6510  0.3408
 6354TIP3    H219027   2.437   2.281   4.101  0.2569  0.9315  0.2103
 6355TIP3   OH219028   3.951   3.237   0.046  0.1747  0.1765 -0.6991
 6355TIP3    H119029   3.894   3.311   0.067 -0.6618 -0.5194 -0.4258
 6355TIP3    H219030   4.036   3.276   0.027  0.9178  1.0065  3.3990
 6356TIP3   OH219031   5.385   6.759   3.553  0.0940  0.6790 -0.0319
 6356TIP3    H119032   5.445   6.830   3.531  0.5101  0.6542  0.9553
 6356TIP3    H219033   5.393   6.697   3.480 -1.8133  2.5517 -1.9588
 6357TIP3   OH219034   4.906   1.965   4.554 -0.3667 -0.4019 -0.5003
 6357TIP3    H119035   4.854   1.922   4.622  0.4119 -1.0810 -0.3255
 6357TIP3    H219036   4.938   2.045   4.597 -0.0663 -0.7134 -0.1354
 6358TIP3   OH219037   6.897   4.672   3.722 -0.6988 -0.2119  0.2701
 6358TIP3    H119038   6.830   4.741   3.724 -0.8951 -0.3903  2.0010
 6358TIP3    H219039   6.977   4.716   3.695 -1.5099 -0.0296 -2.0357
 6359TIP3   OH219040   1.114   0.998   0.608 -0.3640  0.2024 -0.3755
 6359TIP3    H119041   1.032   0.984   0.560  0.0400 -0.1729 -0.9652
 6359TIP3    H219042   1.152   1.076   0.568  0.1558 -0.3261 -0.9356
 6360TIP3   OH219043   0.736   6.255   2.147 -0.0521  0.5664 -0.1553
 6360TIP3    H119044   0.810   6.313   2.130  0.6967 -0.6727 -1.2647
 6360TIP3    H219045   0.773   6.180   2.194 -0.7678  0.3589  0.0981
 6361TIP3   OH219046   6.363   3.719   3.617 -0.3497 -0.3930 -0.2344
 6361TIP3    H119047   6.343   3.782   3.548  0.2561 -0.3713 -0.3930
 6361TIP3    H219048   6.284   3.717   3.671 -0.7000 -0.1573 -0.7330
 6362TIP3   OH219049   0.284   1.685   4.891  0.2355  0.5455 -0.7711
 6362TIP3    H119050   0.334   1.766   4.881  0.1013  0.6859 -0.3060
 6362TIP3    H219051   0.201   1.713   4.929  0.6331  0.0518  0.4988
 6363TIP3   OH219052   1.993   4.505   4.135  0.4379 -0.2492 -0.4054
 6363TIP3    H119053   2.021   4.519   4.226  1.2882 -0.7725 -0.5752
 6363TIP3    H219054   1.898   4.515   4.138  0.5833  1.2518  0.2570
 6364TIP3   OH219055   2.123   2.139   2.249  0.1415 -0.0472 -0.2292
 6364TIP3    H119056   2.069   2.186   2.312 -0.2259 -0.2748 -0.3705
 6364TIP3    H219057   2.062   2.112   2.181 -0.1474 -2.7988  0.9918
 6365TIP3   OH219058   3.862   4.456   3.942 -0.9564 -0.0703 -0.2015
 6365TIP3    H119059   3.908   4.382   3.981 -0.5926  0.3979  0.2915
 6365TIP3    H219060   3.769   4.436   3.953 -0.9370  0.9378  2.8216
 6366TIP3   OH219061   0.461   6.009   5.607  0.0839  0.1117 -0.7566
 6366TIP3    H119062   0.398   6.081   5.615  0.5037  0.5626 -1.4080
 6366TIP3    H219063   0.471   5.997   5.512  1.1838  0.2291 -0.6650
 6367TIP3   OH219064   2.744   5.720   4.113 -0.3082  0.2668  0.6482
 6367TIP3    H119065   2.756   5.803   4.160 -0.4924  1.4155 -1.2308
 6367TIP3    H219066   2.700   5.745   4.032 -0.2156 -1.6690 -0.0407
 6368TIP3   OH219067   1.607   0.800   4.585  0.2065 -0.3639 -0.2092
 6368TIP3    H119068   1.662   0.842   4.652 -0.8534 -0.6668  0.8956
 6368TIP3    H219069   1.605   0.708   4.611  0.4465 -0.6461 -1.1582
 6369TIP3   OH219070   6.620   0.384   5.671 -0.1377  0.4469  0.3063
 6369TIP3    H119071   6.683   0.367   5.601 -0.4679 -0.2519  0.1792
 6369TIP3    H219072   6.535   0.387   5.627 -0.2747  0.7059  0.5804
 6370TIP3   OH219073   5.297   5.732   5.311 -0.3739 -0.0113  0.7630
 6370TIP3    H119074   5.251   5.698   5.235  1.0807  0.3604 -0.3291
 6370TIP3    H219075   5.324   5.654   5.360  0.1847 -0.3342 -0.0370
 6371TIP3   OH219076   1.431   3.050   0.213 -0.0160  0.1769  0.2626
 6371TIP3    H119077   1.378   3.102   0.152 -0.0239 -1.3640 -1.1304
 6371TIP3    H219078   1.522   3.075   0.193 -0.0714  0.6578  0.5863
 6372TIP3   OH219079   6.648   4.168   4.418  0.1401  0.4203  0.2906
 6372TIP3    H119080   6.658   4.234   4.350  1.5278  0.6099  0.6595
 6372TIP3    H219081   6.731   4.169   4.466 -0.6645  0.0500  1.7710
 6373TIP3   OH219082   0.602   3.346   1.014 -0.2886  0.1613 -0.2131
 6373TIP3    H119083   0.628   3.424   0.965 -1.5016  0.0278 -1.1135
 6373TIP3    H219084   0.513   3.328   0.985 -0.5813 -0.6766  1.1269
 6374TIP3   OH219085   6.929   4.269   4.425  0.0490  0.4789  0.2031
 6374TIP3    H119086   7.011   4.290   4.382 -1.6587  2.4377 -2.4374
 6374TIP3    H219087   6.915   4.340   4.487 -0.1900  0.8390 -0.2514
 6375TIP3   OH219088   6.484   4.302   4.652 -0.1729  0.4285  0.0174
 6375TIP3    H119089   6.446   4.363   4.715 -1.1301  0.1945 -0.3217
 6375TIP3    H219090   6.578   4.317   4.659 -0.2311  0.2294  1.6905
 6376TIP3   OH219091   2.906   5.895   0.594 -0.5566 -0.3029  0.0093
 6376TIP3    H119092   2.990   5.924   0.558  0.1848 -0.1792  1.7239
 6376TIP3    H219093   2.848   5.970   0.582  0.0911  0.2755  0.3792
 6377TIP3   OH219094   3.523   0.010   0.654  0.1751  0.5113  0.2655
 6377TIP3    H119095   3.498   0.029   0.564  0.3937  1.8409  0.4586
 6377TIP3    H219096   3.440   0.013   0.703 -0.2635 -2.2471 -0.1496
 6378TIP3   OH219097   2.900   0.461   3.877 -0.2005 -0.0453 -0.0764
 6378TIP3    H119098   2.906   0.549   3.838  0.4634 -0.3329 -0.6287
 6378TIP3    H219099   2.923   0.474   3.969  0.0890  0.3244 -0.2000
 6379TIP3   OH219100   3.650   0.620   5.749 -0.4270  0.2858 -0.0706
 6379TIP3    H119101   3.649   0.547   5.687  0.2956  0.6715 -0.5591
 6379TIP3    H219102   3.643   0.579   5.835  1.2577 -0.4708 -0.2650
 6380TIP3   OH219103   3.662   5.437   2.845 -0.1589  0.2808  0.6249
 6380TIP3    H119104   3.736   5.497   2.836  1.2698 -1.5224 -0.1718
 6380TIP3    H219105   3.604   5.461   2.772  0.9921 -0.0805 -0.4421
 6381TIP3   OH219106   0.984   0.673   4.565 -0.8075 -0.9504  0.4818
 6381TIP3    H119107   0.995   0.732   4.639 -0.5651  0.8353 -0.8898
 6381TIP3    H219108   0.910   0.618   4.588 -0.5637 -0.6261  2.1379
 6382TIP3   OH219109   1.400   5.337   5.000  0.3916  0.4973 -0.3498
 6382TIP3    H119110   1.481   5.291   5.023  0.6600  1.1294 -0.0059
 6382TIP3    H219111   1.428   5.425   4.975 -0.3234  1.3294  1.5742
 6383TIP3   OH219112   4.161   3.775   2.596  0.2184  0.0450  0.0426
 6383TIP3    H119113   4.080   3.725   2.585 -0.8496  1.9904 -1.6035
 6383TIP3    H219114   4.138   3.844   2.658  1.4433 -0.9070  1.6510
 6384TIP3   OH219115   0.090   4.306   3.579 -0.2005 -0.1697 -0.8458
 6384TIP3    H119116   0.036   4.227   3.585  1.0335 -1.0337 -0.7213
 6384TIP3    H219117   0.140   4.294   3.498  1.1288 -0.2816 -0.0351
 6385TIP3   OH219118   0.622   0.585   2.668 -0.1265  0.0169 -0.1325
 6385TIP3    H119119   0.639   0.533   2.746  0.5403 -1.6961 -1.3578
 6385TIP3    H219120   0.553   0.537   2.622  0.2492  0.3956 -1.1266
 6386TIP3   OH219121   4.976   0.981   2.144  0.0724  0.0037 -0.5156
 6386TIP3    H119122   4.985   1.065   2.189  0.9348 -0.6001  0.4966
 6386TIP3    H219123   5.047   0.980   2.080 -1.2718  0.9445 -2.0902
 6387TIP3   OH219124   6.587   1.495   5.140 -0.2141  0.1544 -0.1695
 6387TIP3    H119125   6.621   1.470   5.055 -0.6957  1.9713 -0.9454
 6387TIP3    H219126   6.637   1.573   5.164 -2.2828  1.6050 -0.3423
 6388TIP3   OH219127   0.292   5.554   4.602 -0.0552 -0.2679 -0.6951
 6388TIP3    H119128   0.322   5.597   4.682 -2.5375 -0.0165  0.1870
 6388TIP3    H219129   0.367   5.559   4.543  2.0965 -1.0534  1.7952
 6389TIP3   OH219130   6.790   5.884   5.541 -0.0080 -0.0719  0.4114
 6389TIP3    H119131   6.873   5.876   5.588 -0.3877  0.5283  1.2084
 6389TIP3    H219132   6.781   5.802   5.493  1.7545  0.4271 -0.8596
 6390TIP3   OH219133   2.040   5.927   0.875  0.5453 -0.0360  0.6609
 6390TIP3    H119134   1.946   5.914   0.874  0.7030 -1.3277  0.5013
 6390TIP3    H219135   2.064   5.940   0.783  0.6769 -1.0606  0.5415
 6391TIP3   OH219136   4.736   5.648   4.569 -0.1055  0.2398 -0.3437
 6391TIP3    H119137   4.701   5.663   4.481 -1.2781  1.9198  0.3558
 6391TIP3    H219138   4.661   5.614   4.619  0.7393 -1.4329 -0.1431
 6392TIP3   OH219139   4.814   1.389   2.574  0.1729 -0.6189 -0.1765
 6392TIP3    H119140   4.878   1.339   2.623 -0.0122 -0.8097 -0.1262
 6392TIP3    H219141   4.753   1.422   2.640 -0.4364 -1.3999 -0.3281
 6393TIP3   OH219142   5.350   1.987   1.633 -0.0844  0.2479  0.5207
 6393TIP3    H119143   5.263   2.024   1.615  0.2700  0.4134 -1.0479
 6393TIP3    H219144   5.411   2.056   1.606  0.5473 -0.1308  0.9510
 6394TIP3   OH219145   6.794   0.773   2.225  0.2217  0.3950  0.1241
 6394TIP3    H119146   6.785   0.699   2.285  2.9243 -0.2584 -0.1426
 6394TIP3    H219147   6.764   0.739   2.141  3.1429 -1.1362 -0.4219
 6395TIP3   OH219148   3.471   4.562   3.123 -0.6403 -0.6361  0.4421
 6395TIP3    H119149   3.412   4.621   3.076 -0.8399  0.9114  2.5051
 6395TIP3    H219150   3.493   4.609   3.203  2.8038 -1.4810  0.1345
 6396TIP3   OH219151   2.226   4.846   1.831  0.3193  0.1668 -0.1511
 6396TIP3    H119152   2.203   4.840   1.739 -0.0446 -1.3249  0.0230
 6396TIP3    H219153   2.319   4.826   1.834  0.2223 -0.2776 -0.1368
 6397TIP3   OH219154   6.657   3.321   1.943  0.3654  0.1876 -0.3556
 6397TIP3    H119155   6.695   3.339   1.857 -0.6679  1.7049 -0.5246
 6397TIP3    H219156   6.564   3.303   1.925  0.5799 -1.8208  0.2281
 6398TIP3   OH219157   5.184   2.728   5.449 -0.2316 -0.3188  0.1107
 6398TIP3    H119158   5.119   2.682   5.396  0.1345 -0.4692 -0.2107
 6398TIP3    H219159   5.155   2.715   5.539  0.2900 -1.8412  0.0863
 6399TIP3   OH219160   7.143   4.146   3.767 -0.1788 -0.1953 -0.1255
 6399TIP3    H119161   7.085   4.202   3.818  0.3569  0.3167 -0.0686
 6399TIP3    H219162   7.085   4.100   3.706 -0.6284  0.4062 -0.1607
 6400TIP3   OH219163   3.598   3.401   2.107  0.1900 -0.2315  0.1936
 6400TIP3    H119164   3.662   3.463   2.072 -2.2846  1.0715 -2.5011
 6400TIP3    H219165   3.520   3.455   2.124 -2.2495 -2.4431 -2.7324
 6401TIP3   OH219166   4.973   4.060   2.400 -0.2192  0.0995  0.1676
 6401TIP3    H119167   4.921   4.018   2.469 -0.1404 -0.9920 -0.4109
 6401TIP3    H219168   5.064   4.039   2.422 -0.2106 -0.5903 -0.4461
 6402TIP3   OH219169   3.679   6.750   5.230 -0.6322 -0.2552  0.3489
 6402TIP3    H119170   3.670   6.657   5.250 -1.8664  0.4213  3.5792
 6402TIP3    H219171   3.762   6.775   5.271 -0.1667  0.0528 -0.7409
 6403TIP3   OH219172   3.167   2.605   2.585  0.5653 -0.6250 -0.2535
 6403TIP3    H119173   3.256   2.635   2.600 -0.0135  1.1385 -0.0700
 6403TIP3    H219174   3.159   2.600   2.489  0.6242  0.0017 -0.2925
 6404TIP3   OH219175   0.737   1.890   1.125  1.1107  0.3273 -0.6363
 6404TIP3    H119176   0.686   1.883   1.045 -1.1011 -2.8001  0.8247
 6404TIP3    H219177   0.798   1.816   1.121  0.5538 -0.2505  0.7617
 6405TIP3   OH219178   7.133   5.395   4.514 -0.0509  0.1733  0.6369
 6405TIP3    H119179   7.174   5.315   4.548  1.5640  0.7116  0.0396
 6405TIP3    H219180   7.071   5.364   4.449 -0.5883 -0.6759  1.5275
 6406TIP3   OH219181   2.433   3.996   1.419 -0.4846  0.2329 -0.1799
 6406TIP3    H119182   2.492   4.068   1.395 -1.3355  1.0998  0.2439
 6406TIP3    H219183   2.441   3.933   1.347 -0.1782  1.0323 -0.8617
 6407TIP3   OH219184   0.118   3.515   3.128 -0.3612 -0.1138  0.2181
 6407TIP3    H119185   0.067   3.500   3.049 -0.3945 -0.7310  0.3561
 6407TIP3    H219186   0.112   3.610   3.142  0.9230  0.2558 -1.3868
 6408TIP3   OH219187   6.798   6.525   0.217 -0.4066 -0.2970 -0.3210
 6408TIP3    H119188   6.870   6.498   0.274 -1.1940 -1.1958  0.2783
 6408TIP3    H219189   6.838   6.531   0.130  0.8952  1.4625  0.3300
 6409TIP3   OH219190   3.101   5.358   2.761 -0.2967 -0.2029  0.1870
 6409TIP3    H119191   3.083   5.284   2.702 -0.8805  0.4995 -0.5504
 6409TIP3    H219192   3.193   5.349   2.784 -0.7555 -2.1172  1.4771
 6410TIP3   OH219193   7.125   3.662   2.487 -0.2397  0.0981  0.6137
 6410TIP3    H119194   7.133   3.711   2.405 -0.1115  1.7006  1.5390
 6410TIP3    H219195   7.188   3.591   2.479  0.1666  0.5575 -0.4470
 6411TIP3   OH219196   5.688   5.869   3.902  0.2231 -0.8773 -0.1049
 6411TIP3    H119197   5.756   5.866   3.835 -1.0780 -1.7927 -1.4353
 6411TIP3    H219198   5.649   5.956   3.893  0.9234 -0.5077  0.3768
 6412TIP3   OH219199   2.720   2.862   2.844  0.0470 -0.0871  0.2973
 6412TIP3    H119200   2.739   2.784   2.895  0.2015 -0.4993 -0.3766
 6412TIP3    H219201   2.625   2.873   2.852  0.0559 -0.2195  0.5756
 6413TIP3   OH219202   6.835   3.422   4.083 -0.1914  0.1560 -0.3349
 6413TIP3    H119203   6.914   3.471   4.107  1.0270 -2.3957  1.2027
 6413TIP3    H219204   6.852   3.393   3.993  0.8834 -0.7611  0.1404
 6414TIP3   OH219205   5.443   1.380   0.904  0.0078 -0.1668  0.2858
 6414TIP3    H119206   5.477   1.374   0.814  0.1307 -0.0533  0.3249
 6414TIP3    H219207   5.385   1.304   0.912  0.2401 -0.3549  0.2134
 6415TIP3   OH219208   7.024   2.356   0.964  0.2211 -0.1187 -0.2054
 6415TIP3    H119209   6.939   2.365   1.005  0.1946  1.6910 -0.5828
 6415TIP3    H219210   7.005   2.335   0.872 -0.0075  2.9979 -0.9988
 6416TIP3   OH219211   3.972   2.161   1.690  0.4228  0.2917 -0.2551
 6416TIP3    H119212   4.015   2.088   1.646  1.5710  0.3971  0.6414
 6416TIP3    H219213   4.025   2.238   1.665 -0.6534  0.8021 -1.0329
 6417TIP3   OH219214   6.107   3.890   2.885 -0.3162 -0.2505  0.2134
 6417TIP3    H119215   6.172   3.945   2.929 -0.3989  0.4816 -0.5630
 6417TIP3    H219216   6.026   3.906   2.933 -0.7827  1.8032 -1.1406
 6418TIP3   OH219217   5.100   2.069   0.753  0.5906 -0.0286 -0.0364
 6418TIP3    H119218   5.161   2.130   0.712  0.6896 -1.0931 -1.5591
 6418TIP3    H219219   5.014   2.104   0.733  0.6502 -0.2764 -0.7460
 6419TIP3   OH219220   0.287   5.312   0.613  0.1741 -0.0827  0.0660
 6419TIP3    H119221   0.348   5.355   0.554 -1.3017  1.0020 -0.7481
 6419TIP3    H219222   0.292   5.363   0.694 -0.0136  0.3171 -0.1717
 6420TIP3   OH219223   1.035   2.516   1.738  0.4005 -0.3758 -0.3504
 6420TIP3    H119224   1.073   2.432   1.761  0.2842 -0.5925 -0.9312
 6420TIP3    H219225   0.940   2.502   1.743  0.3738  0.0881  0.8311
 6421TIP3   OH219226   0.490   2.743   3.704 -0.1160  0.1101  0.1713
 6421TIP3    H119227   0.444   2.762   3.622 -0.3716  2.0573  0.7138
 6421TIP3    H219228   0.435   2.678   3.748 -0.4119 -0.3268 -0.8226
 6422TIP3   OH219229   6.018   6.109   0.858  0.5217 -0.1383 -0.3652
 6422TIP3    H119230   5.936   6.067   0.834  0.2445 -0.2475  0.7051
 6422TIP3    H219231   5.991   6.189   0.904  0.9396 -0.9125  1.3378
 6423TIP3   OH219232   2.136   4.667   5.236  0.1184  0.6646 -0.5086
 6423TIP3    H119233   2.222   4.670   5.196  0.6563  1.4210  0.6643
 6423TIP3    H219234   2.113   4.758   5.252 -1.4986  0.5720 -2.0134
 6424TIP3   OH219235   5.210   0.587   3.473  0.0615 -0.0922 -0.0150
 6424TIP3    H119236   5.284   0.590   3.533  0.1139 -1.5939  0.0349
 6424TIP3    H219237   5.142   0.539   3.521 -0.5877  0.3740 -0.4447
 6425TIP3   OH219238   6.645   2.522   0.617  0.3360  0.1845  0.1394
 6425TIP3    H119239   6.640   2.531   0.712  2.2085 -1.6914  0.5067
 6425TIP3    H219240   6.709   2.587   0.590  1.2119 -0.5079  0.4680
 6426TIP3   OH219241   5.570   1.836   5.333 -0.0984 -0.0063  0.1358
 6426TIP3    H119242   5.649   1.787   5.313 -0.8110 -0.6665 -1.2264
 6426TIP3    H219243   5.502   1.769   5.341 -0.6640  0.5982  0.4815
 6427TIP3   OH219244   1.361   0.998   3.250 -0.3213  0.0305 -0.3490
 6427TIP3    H119245   1.267   1.000   3.269 -0.6888 -3.0735 -1.2445
 6427TIP3    H219246   1.366   0.962   3.161  1.7240  0.4344 -0.4299
 6428TIP3   OH219247   3.699   0.268   0.505  0.1866  0.2316 -0.4706
 6428TIP3    H119248   3.622   0.283   0.451  0.5016 -0.9560 -1.2853
 6428TIP3    H219249   3.675   0.193   0.560 -0.7187  2.3302  2.2564
 6429TIP3   OH219250   5.540   1.374   4.827  0.0898  0.2560 -0.0169
 6429TIP3    H119251   5.592   1.453   4.811 -1.1693  1.2157  0.4216
 6429TIP3    H219252   5.598   1.302   4.804  1.0056  1.3313 -1.2438
 6430TIP3   OH219253   1.689   5.382   1.823 -0.4030  0.4343  0.3755
 6430TIP3    H119254   1.649   5.418   1.902  0.2706 -0.0642  0.9530
 6430TIP3    H219255   1.772   5.345   1.853 -0.3740 -0.2163 -0.4781
 6431TIP3   OH219256   0.757   0.978   3.287  0.7882  0.7256 -0.1223
 6431TIP3    H119257   0.721   1.067   3.282 -0.1021  0.4809  1.5188
 6431TIP3    H219258   0.686   0.922   3.258  0.8391  0.4341  0.3220
 6432TIP3   OH219259   0.323   2.812   1.193  0.0334 -0.1213 -0.1483
 6432TIP3    H119260   0.386   2.740   1.201 -0.3735 -0.3555  1.2439
 6432TIP3    H219261   0.286   2.822   1.281 -1.7141  0.1570 -0.8631
 6433TIP3   OH219262   6.181   0.313   3.496  0.0598  0.1129  0.1172
 6433TIP3    H119263   6.119   0.287   3.564  0.9077 -1.8352  0.2326
 6433TIP3    H219264   6.255   0.253   3.508  1.7709  2.0261 -0.3122
 6434TIP3   OH219265   7.081   1.197   3.347  0.3858 -1.0479 -0.0255
 6434TIP3    H119266   7.031   1.146   3.283 -0.9879 -0.6592  0.7186
 6434TIP3    H219267   7.025   1.271   3.368  1.8157  0.1019 -0.1067
 6435TIP3   OH219268   3.848   2.126   0.059 -0.1737 -0.2412  0.3036
 6435TIP3    H119269   3.887   2.213   0.068 -1.0211  0.3377 -1.2597
 6435TIP3    H219270   3.831   2.099   0.150  1.3573  0.6034  0.8898
 6436TIP3   OH219271   2.553   0.769   2.445 -0.0312 -0.1354 -0.3236
 6436TIP3    H119272   2.591   0.690   2.408 -2.4332 -0.7796 -1.6217
 6436TIP3    H219273   2.483   0.737   2.503 -0.1089  1.0194  0.2571
 6437TIP3   OH219274   6.115   0.891   1.379  0.0093  0.3309 -0.3102
 6437TIP3    H119275   6.110   0.890   1.283  1.3251 -0.2434 -0.4068
 6437TIP3    H219276   6.120   0.798   1.403  0.7613  0.4982  0.2200
 6438TIP3   OH219277   1.950   1.142   4.566  0.0886 -0.2596 -0.0799
 6438TIP3    H119278   1.959   1.057   4.608  0.5019 -0.2633 -0.1730
 6438TIP3    H219279   1.859   1.144   4.534  0.3497 -1.0434 -0.9020
 6439TIP3   OH219280   4.240   4.136   1.642 -0.3745 -0.2951 -0.2074
 6439TIP3    H119281   4.228   4.076   1.569 -0.5915 -0.6385  0.1039
 6439TIP3    H219282   4.322   4.108   1.683  0.1480  0.3895 -0.7780
 6440TIP3   OH219283   0.103   2.619   3.759  0.3225  0.1098 -0.3905
 6440TIP3    H119284   0.051   2.580   3.829  0.7565 -2.0408 -1.1544
 6440TIP3    H219285   0.193   2.615   3.791  0.3968  0.2482 -0.5831
 6441TIP3   OH219286   4.794   6.135   2.290  0.0639 -0.2383 -0.1151
 6441TIP3    H119287   4.726   6.110   2.227 -0.7673 -0.3942  0.8299
 6441TIP3    H219288   4.829   6.217   2.255  1.1632 -1.4094 -1.9592
 6442TIP3   OH219289   2.286   2.073   1.962  0.1543  0.2370 -0.3081
 6442TIP3    H119290   2.270   2.165   1.980  0.6999  0.0087  1.5867
 6442TIP3    H219291   2.235   2.054   1.883 -1.2426  1.7682  0.1791
 6443TIP3   OH219292   0.631   5.271   0.611 -0.1363 -0.4524  0.4235
 6443TIP3    H119293   0.726   5.271   0.595  0.2692  1.1827  2.5134
 6443TIP3    H219294   0.614   5.352   0.658 -2.5083 -1.0120  0.6588
 6444TIP3   OH219295   6.712   6.502   0.713 -0.0540 -0.7319 -0.2339
 6444TIP3    H119296   6.740   6.411   0.704  0.7390 -0.4042 -1.2490
 6444TIP3    H219297   6.792   6.553   0.703 -0.4579  0.0821  0.5112
 6445TIP3   OH219298   2.778   0.890   0.858  0.5737  0.1650 -0.6800
 6445TIP3    H119299   2.834   0.815   0.837 -0.4928 -0.4632 -1.3546
 6445TIP3    H219300   2.690   0.855   0.861  0.1426  1.2286 -0.0692
 6446TIP3   OH219301   4.270   3.121   3.741 -0.0205 -0.7448  0.1621
 6446TIP3    H119302   4.356   3.108   3.781 -0.8335 -0.2761  2.1771
 6446TIP3    H219303   4.245   3.033   3.712  1.5875 -0.7073 -1.5323
 6447TIP3   OH219304   3.884   1.349   3.787 -0.2996  0.5914 -0.4372
 6447TIP3    H119305   3.946   1.296   3.836  0.0841  1.1414 -0.3276
 6447TIP3    H219306   3.858   1.293   3.714 -1.4105 -0.5226  0.7384
 6448TIP3   OH219307   1.382   4.120   5.717 -0.0649 -0.0218 -0.8345
 6448TIP3    H119308   1.351   4.056   5.781 -1.5914 -0.1265 -1.6210
 6448TIP3    H219309   1.323   4.195   5.729  0.0707  0.2174 -1.6576
 6449TIP3   OH219310   2.586   4.457   1.333  0.4892  0.1530 -0.6134
 6449TIP3    H119311   2.576   4.363   1.344 -0.6400  0.0462 -2.2770
 6449TIP3    H219312   2.522   4.496   1.392  2.8857  0.0725  2.3106
 6450TIP3   OH219313   4.794   6.624   3.156 -0.0389 -0.8538  0.1967
 6450TIP3    H119314   4.844   6.690   3.204  0.8179  0.2696 -2.0731
 6450TIP3    H219315   4.723   6.600   3.215 -2.0433  4.1086  0.3051
 6451TIP3   OH219316   6.528   4.303   5.747 -0.0975  0.1153  0.1679
 6451TIP3    H119317   6.507   4.353   5.669 -1.3574 -1.1953 -0.3757
 6451TIP3    H219318   6.444   4.267   5.776  0.2285  1.0049  2.4618
 6452TIP3   OH219319   5.464   0.286   1.273  0.2760  0.5981  0.0953
 6452TIP3    H119320   5.443   0.192   1.268  0.7215  0.5416 -0.9408
 6452TIP3    H219321   5.543   0.290   1.327  0.2389  0.3799  0.1681
 6453TIP3   OH219322   3.915   5.054   5.396  0.1727 -0.0155  0.0066
 6453TIP3    H119323   3.820   5.046   5.386  0.3440  0.0030 -2.0551
 6453TIP3    H219324   3.932   5.148   5.390  0.2661  0.0656  1.2707
 6454TIP3   OH219325   4.922   5.866   4.720  0.0610  0.7779  0.6430
 6454TIP3    H119326   4.993   5.802   4.727  0.0031  0.5588 -0.4949
 6454TIP3    H219327   4.864   5.847   4.794 -0.9362 -1.7627 -0.6695
 6455TIP3   OH219328   1.383   5.711   3.389 -0.4030  0.5457  0.2014
 6455TIP3    H119329   1.437   5.745   3.317 -1.0197 -0.5199 -0.7830
 6455TIP3    H219330   1.367   5.788   3.445  2.0972  0.9105  0.5372
 6456TIP3   OH219331   0.734   2.599   4.296 -0.1437 -0.0307 -0.9712
 6456TIP3    H119332   0.706   2.550   4.374  1.3537  1.0170  0.2859
 6456TIP3    H219333   0.672   2.572   4.228 -0.9380 -1.6998  0.3175
 6457TIP3   OH219334   0.533   4.912   3.798 -1.1591  0.3549  0.0227
 6457TIP3    H119335   0.583   4.930   3.719 -1.0193 -0.4244 -0.0652
 6457TIP3    H219336   0.531   4.996   3.844 -1.4007  0.8574 -0.8858
 6458TIP3   OH219337   5.854   2.643   5.671  0.1831 -0.0513 -0.6391
 6458TIP3    H119338   5.926   2.614   5.614  0.8470  0.9350 -0.3256
 6458TIP3    H219339   5.783   2.582   5.652 -0.0111  0.8887 -3.3388
 6459TIP3   OH219340   1.656   3.130   2.436  0.4976 -0.2004 -0.1512
 6459TIP3    H119341   1.609   3.213   2.421 -0.4175 -0.3491  1.6326
 6459TIP3    H219342   1.588   3.069   2.462  1.6997 -0.0271  4.1232
 6460TIP3   OH219343   3.343   4.881   4.985  0.3700  0.3724 -0.0284
 6460TIP3    H119344   3.288   4.843   4.917 -0.0044  0.6736  0.1009
 6460TIP3    H219345   3.300   4.856   5.067  0.0222  1.2015  0.0560
 6461TIP3   OH219346   5.741   0.270   4.797  0.5770 -0.4829 -0.9276
 6461TIP3    H119347   5.801   0.318   4.853  0.1754 -0.9231 -0.1055
 6461TIP3    H219348   5.778   0.279   4.709  1.7197 -0.5753 -0.4732
 6462TIP3   OH219349   1.455   3.528   2.198  0.4403 -0.1368  0.6819
 6462TIP3    H119350   1.379   3.573   2.163  1.0603  0.4434  0.0545
 6462TIP3    H219351   1.428   3.497   2.285  0.1318  1.8402  1.3255
 6463TIP3   OH219352   5.854   0.475   5.754  0.0062 -0.3070 -0.1899
 6463TIP3    H119353   5.805   0.552   5.782  0.6243  0.3609 -0.9181
 6463TIP3    H219354   5.805   0.441   5.679 -0.4887 -0.8767  0.3751
 6464TIP3   OH219355   6.458   5.281   2.002  0.1745  0.1911 -0.3323
 6464TIP3    H119356   6.496   5.323   2.080  0.7876  1.0644 -1.0892
 6464TIP3    H219357   6.518   5.210   1.981 -0.5867 -0.7867  0.6355
 6465TIP3   OH219358   2.698   3.804   0.363 -0.1696 -0.0794  0.2974
 6465TIP3    H119359   2.717   3.898   0.365  1.0616 -0.2721 -1.1023
 6465TIP3    H219360   2.692   3.779   0.455 -0.7425  1.4057  0.6894
 6466TIP3   OH219361   5.736   4.781   1.457 -0.5663  0.2720 -0.0354
 6466TIP3    H119362   5.804   4.724   1.494 -0.6931 -0.2095 -0.5254
 6466TIP3    H219363   5.719   4.845   1.526 -0.7843 -0.5966  0.7446
 6467TIP3   OH219364   0.455   2.582   1.237 -0.5237  0.5007 -0.4189
 6467TIP3    H119365   0.534   2.537   1.269 -0.9002 -0.1487 -0.3849
 6467TIP3    H219366   0.383   2.526   1.265 -1.0961  1.7045  0.6175
 6468TIP3   OH219367   0.797   6.361   5.219  0.3253 -0.3772  0.6352
 6468TIP3    H119368   0.725   6.423   5.210 -1.5183 -2.2215  1.6882
 6468TIP3    H219369   0.847   6.393   5.295 -1.2413 -0.7129  1.8618
 6469TIP3   OH219370   7.184   6.194   3.987  0.3922  0.0439 -0.0252
 6469TIP3    H119371   7.195   6.146   3.905  0.3819 -0.6723  0.3774
 6469TIP3    H219372   7.186   6.126   4.054 -0.3375  0.5376  0.5123
 6470TIP3   OH219373   7.154   2.655   1.949 -0.2962 -0.1441 -0.2278
 6470TIP3    H119374   7.203   2.603   2.012 -1.3037 -1.2477 -0.3208
 6470TIP3    H219375   7.154   2.601   1.869  0.9100  1.1938 -1.1777
 6471TIP3   OH219376   0.051   6.599   2.306  0.4127 -0.4135 -0.4084
 6471TIP3    H119377   0.117   6.534   2.327  0.8550 -0.3645 -1.6045
 6471TIP3    H219378  -0.022   6.579   2.365  1.2229 -0.8737  0.4592
 6472TIP3   OH219379   1.476   0.202   2.590  0.8486  0.1383 -0.5367
 6472TIP3    H119380   1.512   0.168   2.508 -0.1137 -0.1711 -0.8439
 6472TIP3    H219381   1.397   0.150   2.605 -0.9663  2.4859 -1.2660
 6473TIP3   OH219382   6.875   3.790   3.752 -0.1865  0.1275 -0.2874
 6473TIP3    H119383   6.870   3.859   3.686 -0.7055  0.2135 -0.1665
 6473TIP3    H219384   6.950   3.814   3.806 -1.4532  1.6724  0.9181
 6474TIP3   OH219385   6.087   6.575   4.512  0.3049  0.3863 -0.9769
 6474TIP3    H119386   6.129   6.526   4.582 -0.5659  0.7548 -0.1698
 6474TIP3    H219387   6.112   6.666   4.527  0.2612  0.4436 -1.2458
 6475TIP3   OH219388   0.208   2.425   5.867 -0.3782 -0.4215 -0.0207
 6475TIP3    H119389   0.205   2.355   5.933  1.3041 -1.5956 -1.1042
 6475TIP3    H219390   0.121   2.423   5.828 -1.4066  0.2690  2.0637
 6476TIP3   OH219391   3.694   5.698   1.208 -0.0367 -0.3786  0.2700
 6476TIP3    H119392   3.694   5.741   1.123 -0.4048 -0.7949  0.0503
 6476TIP3    H219393   3.647   5.758   1.266  0.4825  0.0434  0.2539
 6477TIP3   OH219394   3.527   5.954   1.098 -0.1689  0.2188  0.3884
 6477TIP3    H119395   3.453   6.006   1.129 -0.9553 -0.2998 -0.5489
 6477TIP3    H219396   3.603   5.989   1.144 -0.5077  2.8229 -0.8648
 6478TIP3   OH219397   2.632   2.912   1.361 -0.3106 -0.3777  0.0348
 6478TIP3    H119398   2.625   2.950   1.273  2.4224  1.8145  0.6073
 6478TIP3    H219399   2.705   2.960   1.401 -0.7167 -2.1168  3.1060
 6479TIP3   OH219400   5.647   6.182   3.782  0.0419 -0.5093 -0.5365
 6479TIP3    H119401   5.631   6.237   3.705 -0.9435 -1.4873 -1.0630
 6479TIP3    H219402   5.714   6.229   3.831 -1.3850  1.6475 -0.4768
 6480TIP3   OH219403   4.717   5.673   1.971 -0.5531 -0.2204 -0.0054
 6480TIP3    H119404   4.622   5.662   1.966 -0.5326 -0.0636 -0.9387
 6480TIP3    H219405   4.745   5.680   1.880  0.5342 -1.6962  0.1798
 6481TIP3   OH219406   1.511   5.991   2.596 -0.6182 -0.0109  0.1191
 6481TIP3    H119407   1.574   6.063   2.601 -0.6819 -0.0008  0.8340
 6481TIP3    H219408   1.542   5.938   2.523  0.0425  0.1661  0.2611
 6482TIP3   OH219409   0.990   4.069   5.794  0.6015  0.0531  0.4485
 6482TIP3    H119410   0.928   4.118   5.849 -0.3292  1.2118 -1.5150
 6482TIP3    H219411   0.934   4.023   5.731  1.6599 -0.6350 -0.0013
 6483TIP3   OH219412   2.099   3.316   5.318 -0.0046 -0.6369 -0.0232
 6483TIP3    H119413   2.079   3.234   5.273  2.3613 -0.5923 -1.3170
 6483TIP3    H219414   2.063   3.384   5.261  1.8436 -0.6441 -1.2915
 6484TIP3   OH219415   5.648   4.586   5.569  0.7261  0.3295  0.3441
 6484TIP3    H119416   5.715   4.626   5.514  1.5344 -0.9766  0.3193
 6484TIP3    H219417   5.568   4.589   5.515  1.7392 -1.9707 -1.4994
 6485TIP3   OH219418   2.273   2.570   0.221 -0.2672 -0.4550 -0.2405
 6485TIP3    H119419   2.257   2.588   0.314  0.5803 -1.8462  0.2020
 6485TIP3    H219420   2.315   2.650   0.189  0.8981 -0.5266  0.9931
 6486TIP3   OH219421   5.943   1.157   0.860  0.0249 -0.0046 -0.2192
 6486TIP3    H119422   5.848   1.147   0.864  0.0772 -0.6945 -0.5281
 6486TIP3    H219423   5.960   1.244   0.896 -0.7173  0.0959 -0.1040
 6487TIP3   OH219424   2.557   3.807   1.720 -0.8748  0.1872  0.4712
 6487TIP3    H119425   2.491   3.783   1.786  0.0466 -0.2684  1.2538
 6487TIP3    H219426   2.640   3.781   1.760  0.0333  2.9285  0.5264
 6488TIP3   OH219427   2.172   2.755   4.245 -0.0506 -0.0922 -0.1075
 6488TIP3    H119428   2.219   2.675   4.266  1.9883  0.9418 -0.4778
 6488TIP3    H219429   2.241   2.821   4.234 -1.7217  2.2497  2.3304
 6489TIP3   OH219430   1.156   4.824   2.086 -0.2017 -0.3491  0.0824
 6489TIP3    H119431   1.200   4.868   2.158 -0.1456  1.1016 -0.7986
 6489TIP3    H219432   1.070   4.865   2.080 -0.9864 -1.8465  0.5735
 6490TIP3   OH219433   3.244   0.694   3.676  0.5379 -0.3429  0.5687
 6490TIP3    H119434   3.313   0.671   3.738 -0.5680  1.3384  2.5646
 6490TIP3    H219435   3.269   0.781   3.643  0.2958 -0.5300 -0.1289
 6491TIP3   OH219436   5.526   4.497   2.310 -0.3931 -0.4557 -0.2878
 6491TIP3    H119437   5.449   4.441   2.300 -1.4292  0.9954 -0.7946
 6491TIP3    H219438   5.572   4.491   2.226 -2.6022  2.3494 -1.8948
 6492TIP3   OH219439   0.771   5.339   2.975  0.4839 -0.0554  0.1325
 6492TIP3    H119440   0.730   5.314   3.058 -0.8171  0.4898 -0.3206
 6492TIP3    H219441   0.706   5.395   2.932  2.1976  1.8407 -0.0890
 6493TIP3   OH219442   5.988   1.271   2.183  0.2279 -0.1121 -0.0804
 6493TIP3    H119443   5.953   1.256   2.271 -0.1431 -1.5624 -0.4465
 6493TIP3    H219444   6.079   1.241   2.189 -0.3191 -2.0162 -0.6360
 6494TIP3   OH219445   0.292   4.599   1.641  0.0482 -0.5617  0.0988
 6494TIP3    H119446   0.214   4.632   1.595 -0.1923 -1.3555 -0.0833
 6494TIP3    H219447   0.347   4.677   1.653 -0.9424  0.0845  0.5853
 6495TIP3   OH219448   1.248   3.926   1.480 -0.1130 -0.1989  0.1395
 6495TIP3    H119449   1.174   3.886   1.527  0.2381 -0.7581  0.2142
 6495TIP3    H219450   1.229   4.020   1.484  0.2856 -0.1517  2.0814
 6496TIP3   OH219451   2.328   2.465   5.333 -0.0916  0.4917  0.2200
 6496TIP3    H119452   2.307   2.543   5.385  3.4911  0.3928  2.1680
 6496TIP3    H219453   2.292   2.393   5.384 -3.3448  0.6710 -1.5468
 6497TIP3   OH219454   0.635   4.910   2.428  0.2990 -0.5895  0.3712
 6497TIP3    H119455   0.726   4.887   2.450 -0.5154 -2.2544  2.3289
 6497TIP3    H219456   0.604   4.961   2.503 -0.0731  1.0019 -0.8194
 6498TIP3   OH219457   0.210   0.517   2.842 -0.6564 -0.1153  0.0459
 6498TIP3    H119458   0.219   0.608   2.814 -0.3324  0.4443  1.8722
 6498TIP3    H219459   0.229   0.466   2.763 -0.5500  1.3832 -0.9364
 6499TIP3   OH219460   6.270   1.916   1.990  0.1248  0.5900 -0.0539
 6499TIP3    H119461   6.179   1.903   1.963 -0.9151  1.4479  2.6434
 6499TIP3    H219462   6.281   1.857   2.065  1.2579  1.6076  0.6169
 6500TIP3   OH219463   5.884   2.990   2.253 -0.3225 -0.4137  0.5712
 6500TIP3    H119464   5.810   2.967   2.196  0.0909  0.2447 -0.2465
 6500TIP3    H219465   5.951   3.023   2.193  0.3528 -0.2921  1.3834
 6501TIP3   OH219466   5.132   3.687   2.000 -0.5128 -0.0897 -0.4291
 6501TIP3    H119467   5.084   3.639   2.068 -0.5966  0.2699 -0.2344
 6501TIP3    H219468   5.222   3.691   2.032 -0.3005 -0.9251 -0.8793
 6502TIP3   OH219469   2.232   6.662   5.664 -0.1845 -0.4539  0.3040
 6502TIP3    H119470   2.292   6.697   5.599  0.8598 -0.8905  1.0140
 6502TIP3    H219471   2.242   6.719   5.740  0.4536 -1.4105  0.9535
 6503TIP3   OH219472   4.596   1.290   5.367  0.8298  0.2629  0.5014
 6503TIP3    H119473   4.668   1.345   5.337  2.0384 -0.5474  1.7577
 6503TIP3    H219474   4.518   1.328   5.327  2.1117  0.0296 -2.5063
 6504TIP3   OH219475   6.160   5.839   4.837  0.4259  0.3229 -0.6474
 6504TIP3    H119476   6.174   5.881   4.922  1.1997 -1.9204  0.4164
 6504TIP3    H219477   6.081   5.880   4.802 -1.4630 -0.4843  2.3589
 6505TIP3   OH219478   4.527   6.259   0.252  0.0315 -0.0675 -0.3279
 6505TIP3    H119479   4.526   6.281   0.345 -1.5400  1.7635 -0.7289
 6505TIP3    H219480   4.542   6.342   0.207  1.1585 -0.9748 -1.7339
 6506TIP3   OH219481   4.458   3.246   0.005 -0.1031  0.3311  0.3830
 6506TIP3    H119482   4.454   3.151   0.020  0.9093  0.4510  1.5169
 6506TIP3    H219483   4.408   3.283   0.078  2.3294  0.7839  1.9482
 6507TIP3   OH219484   3.873   2.764   5.856  0.2644  0.1120  0.4205
 6507TIP3    H119485   3.837   2.846   5.888  1.2083  0.3329  0.9372
 6507TIP3    H219486   3.963   2.784   5.832 -0.3269 -0.0368 -2.3621
 6508TIP3   OH219487   3.996   3.754   3.937 -0.5373  0.3554  0.0053
 6508TIP3    H119488   4.036   3.840   3.924 -0.5996  0.3149 -0.4468
 6508TIP3    H219489   4.060   3.706   3.990  0.1636  0.1787 -0.9858
 6509TIP3   OH219490   1.022   5.346   5.324 -0.3264  0.1077  0.7615
 6509TIP3    H119491   0.973   5.315   5.401  0.4125  0.7008  1.4900
 6509TIP3    H219492   1.096   5.286   5.317 -1.5882 -1.3774 -0.9114
 6510TIP3   OH219493   5.135   3.518   0.846 -0.3494 -0.4706  0.3581
 6510TIP3    H119494   5.198   3.572   0.893  1.2993 -0.4689 -1.7588
 6510TIP3    H219495   5.162   3.428   0.864  0.2768 -0.4700 -0.5596
 6511TIP3   OH219496   0.820   5.956   0.284 -0.0644 -0.0225  0.0395
 6511TIP3    H119497   0.751   5.898   0.316  0.4665 -1.1807 -0.8328
 6511TIP3    H219498   0.844   6.009   0.360 -1.7582  0.2786  0.4112
 6512TIP3   OH219499   4.996   1.514   1.216 -0.4153  0.1642 -0.6582
 6512TIP3    H119500   4.951   1.553   1.141  0.8633 -0.1921 -1.6457
 6512TIP3    H219501   5.087   1.506   1.188 -0.2981 -1.9283  0.1452
 6513TIP3   OH219502   2.774   5.926   1.252  0.6010  0.6385  0.1386
 6513TIP3    H119503   2.774   6.002   1.194 -1.9375  1.3427  0.9141
 6513TIP3    H219504   2.697   5.939   1.308  0.5145 -2.1321  0.7980
 6514TIP3   OH219505   0.073   2.497   1.178 -0.3893 -0.2413  0.3468
 6514TIP3    H119506   0.158   2.503   1.223 -0.1220  0.3644 -0.2180
 6514TIP3    H219507   0.019   2.445   1.237 -0.0510  0.5342  1.3803
 6515TIP3   OH219508   3.642   5.952   4.933  0.1474  0.2326  0.1771
 6515TIP3    H119509   3.700   5.886   4.895 -1.4939 -1.1061 -0.1367
 6515TIP3    H219510   3.623   5.919   5.021 -1.4930 -0.3022 -0.3405
 6516TIP3   OH219511   1.914   2.605   1.634  0.4926  0.7977 -0.0654
 6516TIP3    H119512   1.884   2.518   1.608  3.7369 -1.0351  1.7648
 6516TIP3    H219513   1.847   2.636   1.696 -0.0283 -1.0036  0.3233
 6517TIP3   OH219514   1.510   4.616   3.482  0.0643 -0.0936  0.0386
 6517TIP3    H119515   1.492   4.615   3.388 -1.9993 -0.4868  0.3924
 6517TIP3    H219516   1.572   4.687   3.494  0.0145  0.2516 -1.5647
 6518TIP3   OH219517   4.516   1.632   3.533  0.5117  0.3285  0.5494
 6518TIP3    H119518   4.448   1.682   3.487  0.4185 -1.5655 -1.5782
 6518TIP3    H219519   4.488   1.632   3.624 -1.9986  0.1975 -0.1393
 6519TIP3   OH219520   1.979   3.101   1.565 -0.9434  0.2343  0.0614
 6519TIP3    H119521   1.935   3.126   1.484 -0.3116  3.5418  0.6178
 6519TIP3    H219522   1.908   3.086   1.627 -1.3770 -0.9214 -0.6617
 6520TIP3   OH219523   7.020   0.422   1.322 -0.3657  0.0934 -0.2983
 6520TIP3    H119524   6.952   0.469   1.371  0.7887  0.8403  0.6208
 6520TIP3    H219525   6.999   0.330   1.336 -0.6288  0.3084  0.7913
 6521TIP3   OH219526   5.157   3.294  -0.012 -0.0585 -0.4570  0.0306
 6521TIP3    H119527   5.148   3.318   0.080  0.6784  0.6130 -0.1502
 6521TIP3    H219528   5.150   3.198  -0.013 -1.7543 -0.3815  0.9645
 6522TIP3   OH219529   2.201   0.241   3.691 -0.3747 -0.1459 -0.0173
 6522TIP3    H119530   2.118   0.209   3.727 -0.1151 -1.5085 -0.5559
 6522TIP3    H219531   2.268   0.196   3.742  0.0222  0.0276 -0.3803
 6523TIP3   OH219532   0.335   1.259   1.584  0.0419  0.6577  0.5967
 6523TIP3    H119533   0.404   1.324   1.574 -0.5940  1.4271  1.1273
 6523TIP3    H219534   0.368   1.200   1.652  0.3846  0.7339  0.4994
 6524TIP3   OH219535   3.962   5.995   3.622 -0.0133  0.6825  0.3243
 6524TIP3    H119536   3.867   5.988   3.629 -0.0763  1.2195  0.0537
 6524TIP3    H219537   3.983   5.956   3.537 -0.1044  1.4501 -0.0642
 6525TIP3   OH219538   6.395   4.559   2.615 -0.4992  0.0439  0.3212
 6525TIP3    H119539   6.489   4.562   2.601 -0.5738  1.7250  0.0650
 6525TIP3    H219540   6.357   4.586   2.532 -1.2879 -2.2308 -0.1175
 6526TIP3   OH219541   0.249   6.045   3.566  0.1973 -0.4972  0.3060
 6526TIP3    H119542   0.175   6.019   3.621 -0.0833 -0.6084 -0.1215
 6526TIP3    H219543   0.236   5.998   3.484  1.8899 -2.2259  0.9496
 6527TIP3   OH219544   6.712   2.596   3.355  0.0917  0.4125  0.4722
 6527TIP3    H119545   6.750   2.663   3.412  2.4406  0.1211 -0.6429
 6527TIP3    H219546   6.762   2.602   3.274 -0.1401 -2.1801  0.0594
 6528TIP3   OH219547   4.341   3.323   1.465  0.1118 -0.3927 -0.6190
 6528TIP3    H119548   4.315   3.243   1.511 -2.2886  0.1404 -0.9315
 6528TIP3    H219549   4.424   3.300   1.423  1.2246 -1.6217  2.0311
 6529TIP3   OH219550   6.988   1.294   5.001  0.9418 -0.1044  0.8240
 6529TIP3    H119551   7.036   1.317   5.081  1.8866  3.6116 -0.6208
 6529TIP3    H219552   7.053   1.297   4.931 -0.5095  0.3646 -0.5748
 6530TIP3   OH219553   3.943   4.735   3.795 -0.2462  0.3883 -0.4435
 6530TIP3    H119554   3.856   4.694   3.792 -0.1661  0.2612 -1.2193
 6530TIP3    H219555   3.980   4.705   3.878 -0.6683 -0.1301 -0.4323
 6531TIP3   OH219556   1.909   0.644   4.159 -0.1156  0.2408 -0.2785
 6531TIP3    H119557   1.883   0.562   4.200  0.2540 -0.7381 -1.9351
 6531TIP3    H219558   1.830   0.698   4.159 -0.1582  0.2357  1.5529
 6532TIP3   OH219559   4.464   4.293   0.611  0.3699  0.6931  0.1865
 6532TIP3    H119560   4.457   4.219   0.671  2.2356 -1.7740 -2.3813
 6532TIP3    H219561   4.553   4.327   0.625  0.4719  0.7251 -0.5048
 6533TIP3   OH219562   5.425   3.855   0.261  0.2266  0.5022  0.0504
 6533TIP3    H119563   5.425   3.762   0.283  2.3032  0.6781  0.9478
 6533TIP3    H219564   5.332   3.880   0.262 -0.3185 -1.4265  0.2617
 6534TIP3   OH219565   3.556   6.677   1.958 -0.1721  0.0446 -0.5104
 6534TIP3    H119566   3.521   6.700   1.872 -1.5165  1.5381  0.3833
 6534TIP3    H219567   3.606   6.754   1.985  0.6512 -0.6077 -0.1696
 6535TIP3   OH219568   4.489   4.435   2.632 -0.0240  0.0440 -0.3686
 6535TIP3    H119569   4.582   4.456   2.637  0.3553 -1.6613  0.7018
 6535TIP3    H219570   4.455   4.454   2.719  0.2610 -3.0217  0.5462
 6536TIP3   OH219571   1.367   3.662   2.465 -0.2266 -0.0931 -0.3175
 6536TIP3    H119572   1.400   3.712   2.539  2.3850 -0.5439 -1.0507
 6536TIP3    H219573   1.338   3.579   2.503 -1.5054  0.7142  0.5011
 6537TIP3   OH219574   0.919   2.976   2.974 -0.5250 -0.1774  0.0384
 6537TIP3    H119575   0.887   2.889   2.952 -0.8728 -0.2250  0.7154
 6537TIP3    H219576   0.913   2.981   3.069  0.7845  0.0800  0.1274
 6538TIP3   OH219577   6.040   1.988   5.303 -0.1875 -0.8594 -0.0306
 6538TIP3    H119578   5.962   1.937   5.280 -0.3934 -0.3532 -0.4524
 6538TIP3    H219579   6.012   2.045   5.373 -1.3983  2.3088 -2.8396
 6539TIP3   OH219580   4.985   6.234   4.453 -0.1600  0.0363  0.0393
 6539TIP3    H119581   5.044   6.189   4.514 -1.9122 -0.1264  1.7164
 6539TIP3    H219582   4.898   6.198   4.473 -0.9776  0.9259 -1.7004
 6540TIP3   OH219583   4.278   2.804   0.481  0.2565  0.2231 -0.5068
 6540TIP3    H119584   4.267   2.717   0.519 -0.6927  0.5597  0.0323
 6540TIP3    H219585   4.196   2.822   0.436  0.3089  0.9683 -0.3313
 6541TIP3   OH219586   4.293   3.984   5.085 -0.2614  0.4616 -0.0647
 6541TIP3    H119587   4.380   3.944   5.085 -0.8538 -0.8815  0.2213
 6541TIP3    H219588   4.234   3.912   5.063 -1.4773  0.9510  1.4611
 6542TIP3   OH219589   4.646   2.725   0.163 -0.2346  0.0513  0.4596
 6542TIP3    H119590   4.720   2.776   0.197 -0.6341 -1.0740  3.2871
 6542TIP3    H219591   4.569   2.770   0.198 -0.6387 -1.5881  1.8307
 6543TIP3   OH219592   4.867   2.154   5.307 -0.6093 -0.1912 -0.4037
 6543TIP3    H119593   4.869   2.249   5.320  1.2028  0.2674 -3.1113
 6543TIP3    H219594   4.933   2.120   5.368 -1.8030  0.1545  1.1266
 6544TIP3   OH219595   4.210   5.552   5.695 -0.1229  0.6121 -0.8334
 6544TIP3    H119596   4.247   5.583   5.777  1.2863  0.6508 -1.4487
 6544TIP3    H219597   4.187   5.631   5.647 -2.6767  0.5865  0.2232
 6545TIP3   OH219598   3.506   1.357   0.281  0.3240 -0.7739  0.4130
 6545TIP3    H119599   3.600   1.370   0.288  0.4360 -0.9170 -0.6436
 6545TIP3    H219600   3.496   1.293   0.210 -0.4962 -1.8803  1.4773
 6546TIP3   OH219601   2.478   6.390   3.241 -0.2534  0.8563 -0.2367
 6546TIP3    H119602   2.530   6.450   3.295 -0.1929  0.9999 -0.4514
 6546TIP3    H219603   2.458   6.441   3.162  1.5796 -0.0741 -1.3854
 6547TIP3   OH219604   1.773   2.689   5.435 -0.3312 -0.1000  0.5651
 6547TIP3    H119605   1.787   2.709   5.343 -1.2317 -0.1485  0.4176
 6547TIP3    H219606   1.862   2.677   5.470 -0.0352 -1.4018 -0.5730
 6548TIP3   OH219607   4.216   3.137   0.396  0.1582  0.1959 -0.2427
 6548TIP3    H119608   4.232   3.106   0.485 -0.9883 -0.8663 -0.3737
 6548TIP3    H219609   4.171   3.064   0.353 -2.1912  1.8560 -0.7496
 6549TIP3   OH219610   2.835   6.530   0.696 -0.6091 -0.1469 -0.1928
 6549TIP3    H119611   2.896   6.595   0.729 -0.6061 -0.9408  1.4359
 6549TIP3    H219612   2.880   6.446   0.706 -1.1160 -0.5426 -1.0346
 6550TIP3   OH219613   1.356   4.616   1.449  0.0286  0.3491 -0.1325
 6550TIP3    H119614   1.300   4.569   1.387 -1.3558  0.6422  0.8268
 6550TIP3    H219615   1.303   4.621   1.529  2.2966 -1.3639  1.6013
 6551TIP3   OH219616   4.388   6.307   1.607  0.0370 -0.1981  0.3774
 6551TIP3    H119617   4.352   6.354   1.532  1.5262  1.0633  0.3908
 6551TIP3    H219618   4.441   6.373   1.652 -0.1905 -1.1365  2.0995
 6552TIP3   OH219619   2.957   5.116   1.896 -0.3387 -0.1491  0.1373
 6552TIP3    H119620   2.903   5.103   1.974 -1.2344 -0.4839 -0.5179
 6552TIP3    H219621   2.902   5.170   1.838 -0.4658 -1.4690 -1.0242
 6553TIP3   OH219622   6.608   2.499   5.782 -0.7216 -0.5416  0.7782
 6553TIP3    H119623   6.628   2.589   5.759  2.9761 -1.7049 -1.3291
 6553TIP3    H219624   6.570   2.462   5.702  1.8899 -1.8456  0.0432
 6554TIP3   OH219625   4.356   2.565   0.657 -0.3835 -0.4721  0.0221
 6554TIP3    H119626   4.334   2.486   0.608 -0.8524 -0.2107 -0.1901
 6554TIP3    H219627   4.343   2.540   0.749  0.3223 -0.9059  0.0149
 6555TIP3   OH219628   0.925   2.490   5.578  0.8678  0.3233  0.5464
 6555TIP3    H119629   1.007   2.512   5.622  0.5915  0.7087  0.8760
 6555TIP3    H219630   0.941   2.511   5.486  1.0372  0.7064  0.6590
 6556TIP3   OH219631   1.065   5.955   3.388  0.2612 -0.1928 -0.0794
 6556TIP3    H119632   1.093   5.923   3.302 -0.2781 -1.6701  0.2810
 6556TIP3    H219633   1.022   5.881   3.429 -1.0872  1.0067  0.7775
 6557TIP3   OH219634   4.205   1.381   4.780 -0.0025 -0.2508 -0.1546
 6557TIP3    H119635   4.166   1.298   4.751  1.5463 -0.9385 -0.3478
 6557TIP3    H219636   4.295   1.377   4.750  0.0367  1.6522 -0.4080
 6558TIP3   OH219637   6.002   4.329   5.355 -0.1781 -0.3757 -0.0089
 6558TIP3    H119638   5.919   4.371   5.329 -0.1793 -1.0555 -1.1479
 6558TIP3    H219639   5.987   4.303   5.446 -1.8529 -1.9559 -0.6640
 6559TIP3   OH219640   6.902   1.792   4.941 -0.3819 -0.2039 -0.1774
 6559TIP3    H119641   6.917   1.824   4.852  1.8795  0.1728  0.2622
 6559TIP3    H219642   6.829   1.845   4.973 -0.4397  0.5084 -1.4007
 6560TIP3   OH219643   5.704   4.933   5.370  0.0592  0.2291  0.1185
 6560TIP3    H119644   5.710   4.852   5.319  0.0946 -0.0095  0.5027
 6560TIP3    H219645   5.611   4.940   5.393 -0.0399  0.5823 -0.3761
 6561TIP3   OH219646   3.831   3.154   1.314 -0.5547  0.0287  0.3384
 6561TIP3    H119647   3.844   3.248   1.322 -0.8376 -0.0263  1.8158
 6561TIP3    H219648   3.919   3.117   1.325 -0.3826  0.1304 -0.6553
 6562TIP3   OH219649   2.470   1.447   4.119 -0.1062  0.0176 -0.4236
 6562TIP3    H119650   2.433   1.360   4.105  0.8606 -0.1804 -1.9607
 6562TIP3    H219651   2.403   1.494   4.169 -0.1982 -1.9250  1.4334
 6563TIP3   OH219652   4.564   2.695   3.326 -0.2632 -0.3562  0.1467
 6563TIP3    H119653   4.495   2.761   3.327  0.7924  0.7771  0.2618
 6563TIP3    H219654   4.550   2.645   3.406 -0.5961  0.2519  0.4779
 6564TIP3   OH219655   3.887   5.921   1.081 -0.2366  0.2669  0.3024
 6564TIP3    H119656   3.875   5.939   0.988 -0.5701 -1.2837  0.0146
 6564TIP3    H219657   3.932   5.837   1.083 -1.0911 -0.1876  1.5467
 6565TIP3   OH219658   4.254   2.319   1.264  0.2168  0.0708 -0.1169
 6565TIP3    H119659   4.274   2.372   1.341  0.0181 -1.3563  0.9511
 6565TIP3    H219660   4.200   2.376   1.209 -1.5627  0.4007  1.8505
 6566TIP3   OH219661   1.724   0.141   3.829 -0.2343  0.1732  0.1475
 6566TIP3    H119662   1.686   0.229   3.822  0.0676  0.2339 -1.0659
 6566TIP3    H219663   1.786   0.137   3.756 -1.7750 -1.7932 -1.1455
 6567TIP3   OH219664   3.760   6.027   5.331 -0.0029  0.1809 -0.2748
 6567TIP3    H119665   3.788   5.958   5.271  0.1889  0.7954 -0.9164
 6567TIP3    H219666   3.838   6.082   5.343 -0.1108  0.2047  0.3417
 6568TIP3   OH219667   2.482   6.031   0.959 -0.3635  0.5636 -0.2067
 6568TIP3    H119668   2.394   5.993   0.963 -0.2367  0.1325 -1.1795
 6568TIP3    H219669   2.481   6.102   1.023 -1.6413  0.9876 -0.6697
 6569TIP3   OH219670   0.532   0.545   5.316 -0.2387  0.6564  0.6961
 6569TIP3    H119671   0.585   0.607   5.267 -1.5278  1.4441  0.2568
 6569TIP3    H219672   0.564   0.459   5.289 -0.2467  1.0929 -0.7881
 6570TIP3   OH219673   4.331   0.529   0.309  0.1148  0.2483 -0.3035
 6570TIP3    H119674   4.242   0.563   0.298  0.8704  1.8771 -2.1119
 6570TIP3    H219675   4.352   0.489   0.224  1.2481  0.2962 -0.0608
 6571TIP3   OH219676   3.720   3.808   5.428 -0.3904  0.4581 -0.0012
 6571TIP3    H119677   3.680   3.893   5.409  0.8433  1.0687  0.0637
 6571TIP3    H219678   3.790   3.799   5.365 -0.7407 -0.7061 -0.2574
 6572TIP3   OH219679   3.980   5.860   3.371  0.3780  0.5360 -0.2765
 6572TIP3    H119680   4.003   5.787   3.314  0.7101  0.9389 -0.6686
 6572TIP3    H219681   3.954   5.930   3.310  1.4406  1.2148  0.0354
 6573TIP3   OH219682   4.610   0.153   3.635 -0.4471 -0.1351  0.1112
 6573TIP3    H119683   4.524   0.193   3.625 -0.2741 -0.1940 -1.8016
 6573TIP3    H219684   4.660   0.183   3.560  0.8695 -0.9697  0.6249
 6574TIP3   OH219685   6.878   5.377   5.308 -0.1528 -0.7739  0.3041
 6574TIP3    H119686   6.831   5.427   5.242 -0.9966 -0.1687  1.3527
 6574TIP3    H219687   6.957   5.428   5.324 -0.7008 -0.1013  0.9010
 6575TIP3   OH219688   3.184   6.182   4.747 -0.2609  0.4524  0.0509
 6575TIP3    H119689   3.191   6.156   4.839 -0.0645 -0.7514 -0.2834
 6575TIP3    H219690   3.246   6.126   4.702 -1.9088 -0.5189 -1.1136
 6576TIP3   OH219691   0.888   5.132   4.606  0.8719  0.0019  0.1402
 6576TIP3    H119692   0.969   5.130   4.555 -0.9634 -0.2981 -2.9698
 6576TIP3    H219693   0.835   5.200   4.565 -1.7238 -2.0095 -0.0924
 6577TIP3   OH219694   2.650   4.925   1.865 -0.3250 -0.3338  0.1931
 6577TIP3    H119695   2.716   4.870   1.823 -1.7860 -2.2575  0.2752
 6577TIP3    H219696   2.661   5.011   1.825  1.0056 -1.0734 -1.1235
 6578TIP3   OH219697   1.359   0.291   4.271  0.4226 -0.4940  0.0342
 6578TIP3    H119698   1.428   0.315   4.332  1.6247 -3.2931 -0.0895
 6578TIP3    H219699   1.304   0.370   4.265  2.3882  1.1271  1.7309
 6579TIP3   OH219700   4.208   0.624   1.117  0.8766  0.2196  0.1291
 6579TIP3    H119701   4.200   0.538   1.156  0.0547  0.8064  1.3242
 6579TIP3    H219702   4.300   0.647   1.126  0.7683  0.2112  1.5091
 6580TIP3   OH219703   3.301   6.007   5.534 -0.8472  0.5188  0.4160
 6580TIP3    H119704   3.396   6.004   5.548 -0.9212 -0.8029  0.7698
 6580TIP3    H219705   3.268   6.064   5.603 -0.4219  0.0020  1.0640
 6581TIP3   OH219706   6.055   4.174   3.103  0.1012 -0.3533 -0.4360
 6581TIP3    H119707   6.023   4.088   3.075 -0.4619 -0.0280 -0.8040
 6581TIP3    H219708   6.048   4.229   3.026  1.1894 -0.1662 -0.4106
 6582TIP3   OH219709   4.768   1.202   5.154  0.0257  0.4416  0.8267
 6582TIP3    H119710   4.719   1.157   5.223  1.0023 -0.6346  0.8378
 6582TIP3    H219711   4.846   1.237   5.199 -0.4018  1.6302  0.6915
 6583TIP3   OH219712   2.168   6.772   2.266  0.2365 -0.5789 -0.5208
 6583TIP3    H119713   2.147   6.732   2.181  0.5322 -0.1398 -0.8006
 6583TIP3    H219714   2.093   6.827   2.286 -0.4290 -1.6780  0.1298
 6584TIP3   OH219715   3.312   3.623   0.320 -0.1536 -0.7681 -0.0290
 6584TIP3    H119716   3.284   3.531   0.315 -0.0783 -0.7368 -1.7029
 6584TIP3    H219717   3.332   3.646   0.229 -0.2257  0.9309  0.3649
 6585TIP3   OH219718   4.733   4.801   4.239  0.6016  0.0035  0.0441
 6585TIP3    H119719   4.737   4.831   4.148  2.5709  0.8188  0.3487
 6585TIP3    H219720   4.639   4.801   4.260  0.0897 -0.3866 -2.0199
 6586TIP3   OH219721   0.696   3.287   4.701  0.0216  0.0670 -0.5068
 6586TIP3    H119722   0.766   3.300   4.637  0.9852  1.0483  0.6902
 6586TIP3    H219723   0.696   3.367   4.754  0.4074 -1.3494  1.7837
 6587TIP3   OH219724   2.606   2.917   4.003  0.1785 -0.0903  0.5807
 6587TIP3    H119725   2.650   2.862   4.067 -0.4788 -0.4504  0.7337
 6587TIP3    H219726   2.563   2.855   3.944  1.1124  0.2276 -0.4574
 6588TIP3   OH219727   3.147   0.508   5.443 -0.7261 -0.5181  0.1195
 6588TIP3    H119728   3.146   0.445   5.515  0.0657  1.2800  1.8173
 6588TIP3    H219729   3.199   0.581   5.477 -1.0812  0.7794 -1.9749
 6589TIP3   OH219730   2.919   3.692   0.242 -0.2758 -0.1213  0.0255
 6589TIP3    H119731   2.975   3.770   0.247 -0.3177  0.0978 -2.0902
 6589TIP3    H219732   2.834   3.721   0.274 -0.8770  1.3653 -2.6251
 6590TIP3   OH219733   7.120   6.410   5.391  0.2854 -0.6183 -0.3699
 6590TIP3    H119734   7.176   6.487   5.375  0.0554 -0.1713  0.8796
 6590TIP3    H219735   7.118   6.365   5.306 -0.7534  1.5188 -1.5907
 6591TIP3   OH219736   5.034   4.557   4.085 -0.4215 -0.3012  0.3142
 6591TIP3    H119737   5.061   4.647   4.069 -0.4162 -0.5125 -0.9293
 6591TIP3    H219738   4.975   4.564   4.161 -1.0693  0.8579 -0.2659
 6592TIP3   OH219739   5.516   3.119   0.721 -0.1136 -0.1727 -0.6249
 6592TIP3    H119740   5.505   3.210   0.694 -0.0858 -0.0712 -0.2914
 6592TIP3    H219741   5.546   3.123   0.812 -2.1978 -0.5349  0.1307
 6593TIP3   OH219742   6.479   1.566   1.863  0.1224  0.1477 -0.6311
 6593TIP3    H119743   6.536   1.603   1.797  0.1635  0.2423 -0.5426
 6593TIP3    H219744   6.391   1.570   1.824 -0.1432  2.0084  0.0785
 6594TIP3   OH219745   3.943   3.124   4.561  0.0825 -0.3720 -0.5027
 6594TIP3    H119746   3.879   3.138   4.631  1.3995  1.8188  0.3874
 6594TIP3    H219747   4.009   3.066   4.600  0.4693  0.3064 -0.1262
 6595TIP3   OH219748   4.889   5.100   2.542  0.3044 -0.5043  0.2072
 6595TIP3    H119749   4.804   5.144   2.539  0.2777 -0.4896  1.0976
 6595TIP3    H219750   4.950   5.165   2.576  0.8676 -0.2433 -1.2047
 6596TIP3   OH219751   4.294   1.879   1.943 -0.1284  0.2638  0.0663
 6596TIP3    H119752   4.263   1.880   2.033 -1.1383  1.3655 -0.2677
 6596TIP3    H219753   4.328   1.790   1.930 -1.0899 -0.2792  1.1442
 6597TIP3   OH219754   5.458   2.595   0.126 -0.0710  0.1277  0.3332
 6597TIP3    H119755   5.383   2.568   0.072  1.3819 -0.8005 -1.3269
 6597TIP3    H219756   5.519   2.635   0.065  1.1180  0.2228  1.5288
 6598TIP3   OH219757   6.366   0.917   2.887 -0.5489 -0.0392 -0.2836
 6598TIP3    H119758   6.382   0.974   2.812 -0.0597  0.7330  0.3941
 6598TIP3    H219759   6.331   0.836   2.848 -2.0203  0.9795 -1.2153
 6599TIP3   OH219760   7.169   0.779   2.737 -0.5961  0.5214  0.5199
 6599TIP3    H119761   7.153   0.695   2.779  1.4588  0.0223  0.4238
 6599TIP3    H219762   7.176   0.841   2.809 -0.2268  0.2508  0.7207
 6600TIP3   OH219763   3.120   2.933   4.695 -0.0665 -0.3814  0.1999
 6600TIP3    H119764   3.126   3.008   4.755 -1.6180  0.2703 -0.4197
 6600TIP3    H219765   3.065   2.870   4.741 -0.8680 -0.0767 -0.3333
 6601TIP3   OH219766   2.084   4.134   2.231  0.1271  0.0474  0.0400
 6601TIP3    H119767   2.088   4.053   2.180  0.1807 -0.3891  0.7153
 6601TIP3    H219768   2.133   4.198   2.179  0.0454 -0.3430 -0.5231
 6602TIP3   OH219769   4.080   2.479   1.805 -0.5571 -0.1623  0.1334
 6602TIP3    H119770   4.117   2.528   1.879 -1.2079  1.0032 -0.2828
 6602TIP3    H219771   3.988   2.469   1.826 -0.6244 -0.3457 -0.2421
 6603TIP3   OH219772   6.079   2.029   0.415 -0.3126 -0.2853 -0.9883
 6603TIP3    H119773   6.101   2.089   0.487  2.2438 -2.4252  0.2367
 6603TIP3    H219774   5.996   1.989   0.442 -1.2469  1.4800 -1.0760
 6604TIP3   OH219775   3.702   0.918   4.198 -0.4114  0.0802 -1.0015
 6604TIP3    H119776   3.774   0.887   4.142  1.5513  1.4884  0.5929
 6604TIP3    H219777   3.668   0.995   4.153  1.8501  1.8392  0.0664
 6605TIP3   OH219778   2.922   2.298   3.373  0.2868 -0.2092  0.0169
 6605TIP3    H119779   2.900   2.390   3.386  0.4534 -0.2370  0.5322
 6605TIP3    H219780   3.014   2.298   3.346 -0.0221 -0.1603 -1.0877
 6606TIP3   OH219781   2.286   6.110   4.909 -0.5241 -0.2557 -0.1128
 6606TIP3    H119782   2.271   6.016   4.898 -1.6187  0.1335 -2.6292
 6606TIP3    H219783   2.301   6.142   4.820 -0.4068  1.9951  0.6654
 6607TIP3   OH219784   2.420   5.344   1.768  0.0608  0.1725  0.5122
 6607TIP3    H119785   2.374   5.422   1.737 -0.3173 -0.2199  0.0649
 6607TIP3    H219786   2.442   5.364   1.859  1.3834  1.4429 -0.0315
 6608TIP3   OH219787   3.909   3.447   0.277 -0.1639 -0.3232  0.0209
 6608TIP3    H119788   3.977   3.381   0.289  0.6675  0.5731  0.3755
 6608TIP3    H219789   3.956   3.531   0.281 -1.4568  0.3696  1.5382
 6609TIP3   OH219790   6.772   4.534   5.647  0.0675  0.3352  0.1016
 6609TIP3    H119791   6.695   4.585   5.669 -0.9929 -0.4893 -1.4636
 6609TIP3    H219792   6.829   4.594   5.599 -0.5326  0.4523 -0.4854
 6610TIP3   OH219793   2.079   1.166   1.390 -0.0220 -0.5925  0.2267
 6610TIP3    H119794   2.169   1.197   1.391 -0.3258  0.3047  1.1962
 6610TIP3    H219795   2.079   1.091   1.451 -0.0360 -0.2619  0.6385
 6611TIP3   OH219796   4.206   6.116   0.511 -0.6012  0.1571 -0.9052
 6611TIP3    H119797   4.123   6.086   0.473 -0.4670 -1.7501  0.1728
 6611TIP3    H219798   4.205   6.080   0.600  1.3584  0.1508 -0.8604
 6612TIP3   OH219799   0.761   5.506   1.894  0.1763 -0.2964 -0.0021
 6612TIP3    H119800   0.667   5.522   1.900 -0.0326 -1.7653  1.5934
 6612TIP3    H219801   0.801   5.579   1.940 -0.1499  0.3509 -0.7130
 6613TIP3   OH219802   0.767   6.746   1.269  0.1196 -0.3155 -0.0929
 6613TIP3    H119803   0.804   6.834   1.263  1.5976 -0.9873 -1.5950
 6613TIP3    H219804   0.788   6.718   1.358 -0.9961  1.0591  0.6616
 6614TIP3   OH219805   2.001   3.383   1.190  0.3606 -0.0122 -0.1858
 6614TIP3    H119806   2.075   3.326   1.166  0.0339 -0.1779 -0.8068
 6614TIP3    H219807   1.952   3.394   1.109  1.8129  3.2997 -0.8095
 6615TIP3   OH219808   1.878   3.460   0.954 -0.0947 -0.0981  0.3100
 6615TIP3    H119809   1.833   3.382   0.922 -0.7210 -0.3122  1.6403
 6615TIP3    H219810   1.832   3.533   0.912 -2.0960 -0.2777  2.0072
 6616TIP3   OH219811   5.130   5.824   0.274 -0.0202 -0.6404 -0.4873
 6616TIP3    H119812   5.221   5.843   0.253  0.4538 -2.6375 -0.4160
 6616TIP3    H219813   5.080   5.873   0.208  1.1591 -0.6637 -1.4393
 6617TIP3   OH219814   5.057   3.328   2.641 -0.6932  0.0549 -0.3183
 6617TIP3    H119815   5.002   3.306   2.717 -1.6606  1.5231 -0.5565
 6617TIP3    H219816   5.135   3.274   2.652 -1.4909 -0.9081  0.8911
 6618TIP3   OH219817   2.976   6.095   3.450  0.9825  0.3657  0.5385
 6618TIP3    H119818   2.964   6.102   3.545  0.8728 -1.7296  0.7160
 6618TIP3    H219819   2.897   6.051   3.419  1.3410  0.3827 -0.4330
 6619TIP3   OH219820   2.971   2.080   3.768 -0.4189 -0.1980  0.1253
 6619TIP3    H119821   3.062   2.109   3.769 -0.5255  0.1583 -0.3295
 6619TIP3    H219822   2.973   1.994   3.809  0.4396 -1.1079 -1.6919
 6620TIP3   OH219823   6.302   2.668   0.369  0.2237  0.1977 -0.2769
 6620TIP3    H119824   6.320   2.582   0.407 -0.7010  0.0469 -0.1579
 6620TIP3    H219825   6.352   2.668   0.287 -1.2873 -1.2469 -1.2774
 6621TIP3   OH219826   6.648   3.678   5.346  0.1752 -0.2233 -0.2936
 6621TIP3    H119827   6.651   3.660   5.440 -0.3655 -0.1499 -0.2567
 6621TIP3    H219828   6.705   3.754   5.334 -0.1746  0.0998  0.0587
 6622TIP3   OH219829   6.609   1.126   2.119 -0.3370  0.2228 -0.0337
 6622TIP3    H119830   6.521   1.100   2.145 -0.0262 -0.6104  0.2272
 6622TIP3    H219831   6.624   1.083   2.035 -0.0371  0.0397  0.1113
 6623TIP3   OH219832   1.620   6.235   2.461  0.3112 -0.6440  0.0147
 6623TIP3    H119833   1.629   6.243   2.366 -0.2386 -3.9575 -0.4398
 6623TIP3    H219834   1.539   6.280   2.482 -0.5645 -1.4743 -1.4242
 6624TIP3   OH219835   5.930   4.696   0.387 -0.4772 -0.2201  0.3108
 6624TIP3    H119836   5.856   4.702   0.448 -0.2314 -1.6697  0.7890
 6624TIP3    H219837   5.921   4.609   0.348  0.6249 -0.1596 -0.0995
 6625TIP3   OH219838   2.371   5.666   5.000 -0.2920 -0.3066  0.4460
 6625TIP3    H119839   2.381   5.584   5.048 -0.0944  0.3706  1.6114
 6625TIP3    H219840   2.437   5.725   5.039  0.8809 -0.1312 -1.6296
 6626TIP3   OH219841   2.107   6.016   5.160 -0.0597  0.1380  0.2119
 6626TIP3    H119842   2.173   6.071   5.201 -1.1336  1.5504  0.1324
 6626TIP3    H219843   2.078   6.066   5.084 -1.6256 -0.1546  0.5774
 6627TIP3   OH219844   5.117   1.808   0.643 -0.1692  0.3330 -0.1238
 6627TIP3    H119845   5.170   1.826   0.565 -0.2685 -1.1021 -0.5528
 6627TIP3    H219846   5.094   1.894   0.677 -1.1011  1.0424 -2.3475
 6628TIP3   OH219847   5.253   1.551   1.133  0.0072  0.2380  0.2650
 6628TIP3    H119848   5.229   1.549   1.041  0.7716 -0.3783  0.0708
 6628TIP3    H219849   5.290   1.639   1.146  1.6177 -0.2990 -0.4773
 6629TIP3   OH219850   2.321   4.971   1.040  0.0316  0.4480  0.1035
 6629TIP3    H119851   2.413   4.961   1.066 -0.3160 -1.1154  0.8469
 6629TIP3    H219852   2.325   5.019   0.957  1.5688 -0.1833 -0.2245
 6630TIP3   OH219853   2.708   0.802   1.188 -0.4287 -0.1512  0.0050
 6630TIP3    H119854   2.784   0.783   1.242 -0.9112  0.5716  0.9839
 6630TIP3    H219855   2.708   0.898   1.181 -2.1912  0.0206  1.5077
 6631TIP3   OH219856   1.281   3.400   5.874  0.0809 -0.2089  0.2953
 6631TIP3    H119857   1.234   3.405   5.791  0.7804  1.4938 -0.0380
 6631TIP3    H219858   1.358   3.346   5.856  1.1765  1.5968 -0.6887
 6632TIP3   OH219859   6.650   2.442   4.339  0.1785 -0.2511 -0.3786
 6632TIP3    H119860   6.638   2.489   4.421  0.9674  0.6325 -0.7531
 6632TIP3    H219861   6.727   2.387   4.353  1.8995  1.7725 -1.2870
 6633TIP3   OH219862   4.835   3.781   1.480 -0.4601 -0.2082 -0.5221
 6633TIP3    H119863   4.885   3.857   1.452 -0.7373 -0.3160 -1.3460
 6633TIP3    H219864   4.852   3.715   1.413  0.7546 -1.3090  0.8098
 6634TIP3   OH219865   6.764   5.655   1.047  0.2076 -0.1531 -0.0868
 6634TIP3    H119866   6.744   5.588   0.981  0.7352 -0.2661 -0.1406
 6634TIP3    H219867   6.691   5.652   1.108 -0.9193  0.8266 -1.3441
 6635TIP3   OH219868   1.034   5.601   5.047  0.0150  0.5173  0.0871
 6635TIP3    H119869   1.079   5.663   4.989  0.5883  2.4935  2.4934
 6635TIP3    H219870   1.097   5.584   5.117 -1.2848 -0.4307  1.0667
 6636TIP3   OH219871   5.661   5.731   0.026  0.2333 -0.6977  0.4707
 6636TIP3    H119872   5.676   5.652  -0.025 -0.2159 -0.3043 -0.2999
 6636TIP3    H219873   5.592   5.707   0.088 -0.1673 -0.8179 -0.0109
 6637TIP3   OH219874   6.785   4.491   5.214 -0.0032 -0.7765  0.0437
 6637TIP3    H119875   6.848   4.555   5.245 -0.2197 -0.2990 -0.4900
 6637TIP3    H219876   6.704   4.511   5.261  0.3181 -1.6104  0.9922
 6638TIP3   OH219877   5.084   0.041   2.225  0.0937 -0.2094 -0.2118
 6638TIP3    H119878   4.990   0.043   2.206 -0.0401 -0.5799  0.3748
 6638TIP3    H219879   5.093   0.087   2.308  0.4305 -0.1802 -0.2622
 6639TIP3   OH219880   0.097   5.610   5.802 -0.2891  0.1626 -0.0875
 6639TIP3    H119881   0.106   5.524   5.843 -0.8999  0.7255  1.2858
 6639TIP3    H219882   0.187   5.635   5.780 -0.0356 -0.5424  0.1076
 6640TIP3   OH219883   6.538   0.226   5.415 -0.2505 -0.3891  0.4209
 6640TIP3    H119884   6.561   0.266   5.332 -1.5445 -1.6241 -0.5871
 6640TIP3    H219885   6.478   0.289   5.456  0.7693  0.4416  0.6611
 6641TIP3   OH219886   4.238   6.346   5.665 -0.5981 -0.3461 -0.4796
 6641TIP3    H119887   4.258   6.436   5.689  1.8882 -0.5757 -1.4290
 6641TIP3    H219888   4.257   6.341   5.571 -0.7247 -1.8427 -0.4556
 6642TIP3   OH219889   5.477   0.922   4.080  0.6799  0.2353 -0.0592
 6642TIP3    H119890   5.493   0.835   4.117  1.4234  0.7674  0.9253
 6642TIP3    H219891   5.562   0.967   4.086 -0.2250  1.8318  1.6960
 6643TIP3   OH219892   1.795   1.938   4.568 -0.2066 -0.1357 -0.5302
 6643TIP3    H119893   1.822   1.851   4.600  0.3681 -0.6789 -2.3492
 6643TIP3    H219894   1.876   1.988   4.564 -0.5113  0.4475  0.3329
 6644TIP3   OH219895   2.075   1.373   4.672  0.3109 -0.2030 -0.3779
 6644TIP3    H119896   2.036   1.286   4.670 -0.0499 -0.0228 -1.3216
 6644TIP3    H219897   2.014   1.428   4.624 -0.6437  1.0691  2.1090
 6645TIP3   OH219898   2.879   4.802   5.800 -0.0811  0.2093  0.1571
 6645TIP3    H119899   2.938   4.799   5.724 -0.5724  0.0308 -0.2292
 6645TIP3    H219900   2.832   4.884   5.790 -0.0430  0.2531  0.3462
 6646TIP3   OH219901   5.819   6.393   4.865  0.0608 -0.0597  0.3155
 6646TIP3    H119902   5.762   6.341   4.808 -0.9261 -1.9265  2.8154
 6646TIP3    H219903   5.779   6.385   4.952  2.3110  1.3817  1.5668
 6647TIP3   OH219904   5.322   5.272   0.128  0.1032  0.4760  0.4107
 6647TIP3    H119905   5.373   5.207   0.080  2.5346  1.0715  2.0100
 6647TIP3    H219906   5.318   5.348   0.069 -0.0727 -0.0327 -0.2413
 6648TIP3   OH219907   0.109   2.523   3.111 -0.3793  0.2206  0.4419
 6648TIP3    H119908   0.137   2.497   3.023  0.5493  0.4375  0.6688
 6648TIP3    H219909   0.158   2.466   3.170 -0.6985  0.3511  0.8381
 6649TIP3   OH219910   5.524   4.081   4.246  0.1016 -0.0136  0.6744
 6649TIP3    H119911   5.498   3.993   4.217  1.9910  0.1564 -1.9170
 6649TIP3    H219912   5.442   4.131   4.247 -0.6746 -1.1807 -0.3818
 6650TIP3   OH219913   5.574   1.489   0.134 -0.2754  0.1624 -0.3104
 6650TIP3    H119914   5.519   1.432   0.080  0.6722 -3.0215  1.7948
 6650TIP3    H219915   5.653   1.504   0.082  1.2600 -4.0429  0.4783
 6651TIP3   OH219916   5.287   3.404   4.908 -0.5533 -0.5650  0.5077
 6651TIP3    H119917   5.365   3.439   4.865 -0.9156  0.4757  0.6835
 6651TIP3    H219918   5.292   3.310   4.893 -1.0534 -0.2045 -2.5313
 6652TIP3   OH219919   0.579   2.236   1.586  0.4647 -0.2683 -0.6841
 6652TIP3    H119920   0.553   2.314   1.634  1.0183  0.7850 -2.0140
 6652TIP3    H219921   0.496   2.195   1.561  0.1130  0.8758 -1.4838
 6653TIP3   OH219922   3.013   3.540   2.840  0.2199  0.0605 -0.4361
 6653TIP3    H119923   2.923   3.537   2.807  0.1667  0.7587 -0.3758
 6653TIP3    H219924   3.002   3.555   2.934  0.4047  0.8361 -0.5344
 6654TIP3   OH219925   3.874   3.170   5.448  0.5884 -0.9280  0.1471
 6654TIP3    H119926   3.824   3.088   5.444 -0.6153 -0.1561 -2.0760
 6654TIP3    H219927   3.915   3.178   5.362  0.9997  0.6076  0.4550
 6655TIP3   OH219928   2.581   4.319   0.789 -0.2495 -0.3016  0.2014
 6655TIP3    H119929   2.671   4.345   0.770  0.1562 -0.6924  1.4746
 6655TIP3    H219930   2.590   4.242   0.846 -1.3911 -0.5369  0.0858
 6656TIP3   OH219931   1.442   0.943   0.942  0.1587  0.4819 -0.2804
 6656TIP3    H119932   1.451   0.848   0.937 -0.0829  0.3874  0.7823
 6656TIP3    H219933   1.436   0.962   1.036 -0.4982  1.4808 -0.5018
 6657TIP3   OH219934   1.714   0.116   4.118  0.2323 -0.0473 -0.5179
 6657TIP3    H119935   1.753   0.127   4.031 -0.4861 -0.8559 -0.9575
 6657TIP3    H219936   1.626   0.081   4.100  0.3087 -0.8113  0.5630
 6658TIP3   OH219937   5.532   3.672   3.678  0.0196 -0.2891 -0.4389
 6658TIP3    H119938   5.454   3.665   3.733  1.3625  2.8157  2.1754
 6658TIP3    H219939   5.513   3.744   3.618 -0.0867 -1.3651 -1.7627
 6659TIP3   OH219940   4.797   6.661   2.636  0.5850  0.7087 -0.7693
 6659TIP3    H119941   4.791   6.659   2.732  0.6571  0.4927 -0.7705
 6659TIP3    H219942   4.882   6.623   2.616  0.9375  1.5309 -0.8800
 6660TIP3   OH219943   5.981   4.884   3.258 -0.0915 -0.0517  0.2155
 6660TIP3    H119944   6.016   4.829   3.187 -2.1254 -0.1969 -0.7375
 6660TIP3    H219945   5.889   4.859   3.265 -1.1103  3.0933 -0.1842
 6661TIP3   OH219946   3.798   2.620   0.856 -0.0387 -0.2261  0.1126
 6661TIP3    H119947   3.891   2.600   0.867  0.1426  1.1633  1.4146
 6661TIP3    H219948   3.786   2.705   0.898 -1.7297  0.0554 -0.8267
 6662TIP3   OH219949   3.605   5.263   0.243  0.5182 -0.0516  0.3071
 6662TIP3    H119950   3.619   5.336   0.183  0.1718  0.4445  0.8068
 6662TIP3    H219951   3.586   5.188   0.187 -2.3287  0.9195 -0.2327
 6663TIP3   OH219952   1.389   4.104   4.137  1.0260 -0.4030  0.2336
 6663TIP3    H119953   1.295   4.124   4.137  0.9477 -0.6082  2.0308
 6663TIP3    H219954   1.410   4.088   4.045 -0.5790  0.1815 -0.2733
 6664TIP3   OH219955   1.937   6.154   1.662 -0.0165  0.0759 -0.1924
 6664TIP3    H119956   1.907   6.226   1.718  0.0685  0.8767 -1.1377
 6664TIP3    H219957   1.857   6.118   1.624 -0.0658 -0.3976  0.3491
 6665TIP3   OH219958   3.475   6.675   0.902  0.4086  0.3819  0.2555
 6665TIP3    H119959   3.483   6.763   0.866  0.4078 -0.0112 -0.7249
 6665TIP3    H219960   3.563   6.638   0.896  0.0410 -0.3318 -1.0703
 6666TIP3   OH219961   7.171   4.381   4.053  0.7369  0.0000  0.2583
 6666TIP3    H119962   7.249   4.401   4.001  0.3675 -0.1884 -0.3794
 6666TIP3    H219963   7.102   4.433   4.013 -0.1522 -2.1370 -1.1675
 6667TIP3   OH219964   4.601   4.704   0.787 -0.3395 -0.1589  0.2011
 6667TIP3    H119965   4.530   4.755   0.824 -0.2990 -0.8227  1.2314
 6667TIP3    H219966   4.586   4.615   0.819  1.3594 -0.1785  1.0850
 6668TIP3   OH219967   1.302   1.315   2.557  0.0511 -0.5029 -0.0631
 6668TIP3    H119968   1.390   1.345   2.579 -0.7691  3.6507 -1.4277
 6668TIP3    H219969   1.310   1.281   2.468  0.3686 -0.6891  0.0357
 6669TIP3   OH219970   2.350   4.294   4.918 -0.1346  0.2233 -0.4522
 6669TIP3    H119971   2.404   4.229   4.963  0.5817  0.5364 -0.8347
 6669TIP3    H219972   2.350   4.265   4.827 -1.2826 -0.2126 -0.3226
 6670TIP3   OH219973   3.889   5.393   3.802  0.1815  0.0392 -0.7981
 6670TIP3    H119974   3.833   5.418   3.728 -1.1279 -1.2035 -0.2824
 6670TIP3    H219975   3.879   5.298   3.808  1.0917 -0.0044  0.3344
 6671TIP3   OH219976   6.630   3.102   1.634 -0.7409  0.3957 -1.3515
 6671TIP3    H119977   6.587   3.019   1.611 -0.3695 -0.0084 -0.6322
 6671TIP3    H219978   6.677   3.082   1.715 -0.5048  1.2698 -1.2711
 6672TIP3   OH219979   4.420   3.715   5.269 -0.3470 -0.1199 -0.1675
 6672TIP3    H119980   4.421   3.771   5.346 -1.3757  0.4269 -0.5339
 6672TIP3    H219981   4.327   3.707   5.247  0.0163  2.5352 -3.3633
 6673TIP3   OH219982   5.267   0.160   0.045 -0.2529  0.7366 -0.2666
 6673TIP3    H119983   5.358   0.188   0.052 -0.1608  1.4182 -3.0213
 6673TIP3    H219984   5.230   0.176   0.132  1.9739  1.4318  0.6157
 6674TIP3   OH219985   6.867   2.004   3.448 -0.6579 -0.0705  0.1110
 6674TIP3    H119986   6.946   2.054   3.426 -1.6473  1.0675 -1.0190
 6674TIP3    H219987   6.857   1.943   3.375  1.1893 -2.8921  2.0207
 6675TIP3   OH219988   1.639   1.523   5.338  0.4110 -0.1740  0.8336
 6675TIP3    H119989   1.572   1.530   5.270  0.8404 -1.2392  0.2627
 6675TIP3    H219990   1.716   1.564   5.299  0.5749 -0.5253  0.7804
 6676TIP3   OH219991   0.786   0.111   3.020  0.4329  0.3160 -0.4263
 6676TIP3    H119992   0.700   0.072   3.004  0.8134 -0.5850 -0.3323
 6676TIP3    H219993   0.831   0.106   2.936  0.7423 -0.1112 -0.2382
 6677TIP3   OH219994   7.107   2.425   1.765 -0.4026  0.0296 -0.3145
 6677TIP3    H119995   7.122   2.332   1.783 -0.2769  0.1374  0.1461
 6677TIP3    H219996   7.167   2.445   1.694  1.4538  0.3712  1.2811
 6678TIP3   OH219997   6.488   5.629   2.542 -0.0161  0.1299  0.5955
 6678TIP3    H119998   6.435   5.706   2.563 -0.4745  0.1390 -0.5357
 6678TIP3    H219999   6.530   5.650   2.459  0.0198 -0.7563  0.3766
 6679TIP3   OH220000   5.815   6.716   4.061 -0.4933 -0.3265 -0.3565
 6679TIP3    H120001   5.887   6.688   4.118 -0.3427  0.3794 -0.1875
 6679TIP3    H220002   5.857   6.738   3.978 -0.3892  0.7687 -0.0414
 6680TIP3   OH220003   4.517   4.135   5.263  0.9124  0.2408 -0.3664
 6680TIP3    H120004   4.576   4.064   5.288 -1.8280 -1.5820  1.5248
 6680TIP3    H220005   4.455   4.094   5.202 -0.2453  1.2044  0.1257
 6681TIP3   OH220006   4.828   1.027   1.033  0.2075  0.0202 -0.3012
 6681TIP3    H120007   4.795   1.022   0.943  0.7944 -1.2962 -0.4662
 6681TIP3    H220008   4.749   1.035   1.087 -0.1458  0.9371 -0.9234
 6682TIP3   OH220009   5.704   1.165   4.699  0.5844 -0.2750  0.4192
 6682TIP3    H120010   5.682   1.121   4.616  0.6040 -0.6939  0.6298
 6682TIP3    H220011   5.776   1.223   4.676  1.3513 -1.2193  0.3597
 6683TIP3   OH220012   6.257   4.867   4.454 -0.4847  0.1268  0.2160
 6683TIP3    H120013   6.335   4.815   4.470 -0.2492  0.5156  0.3635
 6683TIP3    H220014   6.214   4.826   4.379  0.1727  0.2491 -0.2313
 6684TIP3   OH220015   2.423   1.278   3.002  0.1595  0.0376  0.3313
 6684TIP3    H120016   2.419   1.358   2.950  1.8033  0.4452  0.7714
 6684TIP3    H220017   2.342   1.279   3.054 -0.8932  0.2607 -1.2549
 6685TIP3   OH220018   0.432   2.365   5.693 -0.3483 -0.1193  0.6863
 6685TIP3    H120019   0.376   2.339   5.619  0.4385 -0.3078  0.1341
 6685TIP3    H220020   0.373   2.406   5.755 -0.7057  2.2482 -1.0866
 6686TIP3   OH220021   4.419   3.528   3.212 -0.1057  0.0396  0.3475
 6686TIP3    H120022   4.369   3.604   3.241 -0.4503  0.3390 -0.9771
 6686TIP3    H220023   4.489   3.519   3.278  1.1503  2.7093 -0.4793
 6687TIP3   OH220024   5.656   3.581   4.947 -0.1754 -0.2579  0.6717
 6687TIP3    H120025   5.748   3.598   4.926  0.1724 -0.3918  1.9910
 6687TIP3    H220026   5.636   3.645   5.016 -0.6672 -1.1352  1.3539
 6688TIP3   OH220027   3.218   4.440   2.976 -0.0005  0.1712  1.0485
 6688TIP3    H120028   3.219   4.514   3.036 -0.6527 -0.4300  1.8254
 6688TIP3    H220029   3.310   4.424   2.955  0.0914  3.5073 -2.1108
 6689TIP3   OH220030   3.824   3.047   0.186  0.2046  0.0125  0.2148
 6689TIP3    H120031   3.805   2.983   0.118  1.9759  0.5290 -0.8214
 6689TIP3    H220032   3.870   3.118   0.141 -1.4432  1.9492  1.3571
 6690TIP3   OH220033   1.508   4.820   1.946 -0.0737 -0.1577 -0.0426
 6690TIP3    H120034   1.529   4.835   1.854 -1.8931  1.7490 -0.2149
 6690TIP3    H220035   1.477   4.905   1.978  1.2757 -0.5532  2.5835
 6691TIP3   OH220036   3.336   3.707   2.332 -0.2053 -0.2479  0.5508
 6691TIP3    H120037   3.313   3.795   2.361 -0.2654 -0.4588  1.1599
 6691TIP3    H220038   3.405   3.679   2.391  0.5171 -0.2327 -0.2688
 6692TIP3   OH220039   6.916   4.296   5.664 -0.3176 -0.2308 -0.0340
 6692TIP3    H120040   6.886   4.387   5.653 -0.7958 -0.3175  0.5228
 6692TIP3    H220041   6.836   4.243   5.655  0.0836 -0.6633 -1.1639
 6693TIP3   OH220042   2.071   0.665   1.925  0.1658  0.3773  1.0113
 6693TIP3    H120043   1.989   0.667   1.973 -0.7970 -1.8559 -0.3847
 6693TIP3    H220044   2.055   0.717   1.847 -0.0171 -0.2314  0.6359
 6694TIP3   OH220045   1.219   6.580   0.814  0.0705 -0.1451 -0.5650
 6694TIP3    H120046   1.207   6.658   0.760  0.4522 -0.3501 -0.9597
 6694TIP3    H220047   1.213   6.507   0.752 -1.5599 -0.5147 -0.0038
 6695TIP3   OH220048   0.180   1.798   0.976  0.4282 -0.2795  0.4667
 6695TIP3    H120049   0.154   1.855   1.048  0.7229  2.2541 -1.3194
 6695TIP3    H220050   0.272   1.818   0.960  0.2380 -0.3734 -0.9311
 6696TIP3   OH220051   5.086   2.738   0.052 -0.4581  0.4894 -0.1112
 6696TIP3    H120052   5.100   2.759   0.144  0.6144  0.0489 -0.1683
 6696TIP3    H220053   5.096   2.822   0.006  0.0794  0.5212  0.0600
 6697TIP3   OH220054   6.643   4.309   3.127  0.2706 -0.0463 -0.6731
 6697TIP3    H120055   6.723   4.300   3.075  0.2064 -0.9183 -0.6327
 6697TIP3    H220056   6.640   4.402   3.149  0.7621  0.1808 -1.4853
 6698TIP3   OH220057   3.589   6.236   0.290  0.3365 -0.1770  0.1821
 6698TIP3    H120058   3.673   6.235   0.244  0.1908 -2.2684 -0.1122
 6698TIP3    H220059   3.545   6.315   0.258  2.6426  1.6811  1.2828
 6699TIP3   OH220060   5.952   2.181   3.316  0.3445 -0.4379  0.3972
 6699TIP3    H120061   5.950   2.131   3.235 -1.2436 -0.1304  0.2151
 6699TIP3    H220062   6.037   2.160   3.356  0.5733 -1.6351 -0.6783
 6700TIP3   OH220063   2.916   1.278   5.021  0.3456 -0.7454  0.2440
 6700TIP3    H120064   2.971   1.258   4.946 -0.4223 -0.3437 -0.4329
 6700TIP3    H220065   2.973   1.263   5.097  1.9566  1.3363 -0.4714
 6701TIP3   OH220066   3.283   6.142   3.760  0.2071  0.2486 -0.1905
 6701TIP3    H120067   3.244   6.207   3.702 -0.3149 -1.3268 -1.6872
 6701TIP3    H220068   3.302   6.190   3.841 -1.0604  1.9990 -0.8802
 6702TIP3   OH220069   6.045   2.449   5.114  0.2958 -0.1678  0.0979
 6702TIP3    H120070   6.078   2.535   5.090  0.0750 -0.3947 -1.1057
 6702TIP3    H220071   5.978   2.466   5.180  1.6466  0.4106  1.3597
 6703TIP3   OH220072   1.437   5.730   1.633 -0.1731  0.3133  0.5581
 6703TIP3    H120073   1.394   5.816   1.631 -1.2785 -0.2377 -0.2169
 6703TIP3    H220074   1.473   5.725   1.721  0.8608  2.0122  0.2843
 6704TIP3   OH220075   5.922   2.290   1.341  0.8561 -0.8469 -0.4958
 6704TIP3    H120076   5.945   2.381   1.324 -1.4698 -0.6617 -3.8276
 6704TIP3    H220077   5.874   2.292   1.424  0.8092  0.9816 -0.5221
 6705TIP3   OH220078   4.478   5.760   2.619  0.1734 -0.0568 -0.2315
 6705TIP3    H120079   4.427   5.693   2.573  0.7394 -0.4808 -0.2552
 6705TIP3    H220080   4.502   5.823   2.550 -1.8817  1.1706  0.0950
 6706TIP3   OH220081   3.493   0.161   1.751 -0.3129 -0.0328  0.6923
 6706TIP3    H120082   3.569   0.209   1.785  0.1313 -0.6029  0.5222
 6706TIP3    H220083   3.492   0.080   1.801 -0.4222 -0.3123  0.2426
 6707TIP3   OH220084   3.087   3.657   2.007  0.3174  0.2670  0.0256
 6707TIP3    H120085   3.083   3.650   2.103  0.0354  1.8740  0.1609
 6707TIP3    H220086   3.176   3.630   1.985 -0.8647 -4.6558  0.2098
 6708TIP3   OH220087   0.171   0.062   3.802 -0.2971 -0.8229 -0.2483
 6708TIP3    H120088   0.146   0.080   3.893  0.9364  1.6593 -0.3250
 6708TIP3    H220089   0.126   0.130   3.751  0.4642 -1.0685 -1.2737
 6709TIP3   OH220090   1.549   1.405   2.608 -0.5815 -0.1893 -0.1952
 6709TIP3    H120091   1.602   1.406   2.529  0.3695  0.9341  0.4127
 6709TIP3    H220092   1.599   1.351   2.670  0.1670  1.2493  0.5323
 6710TIP3   OH220093   5.384   5.078   0.340  0.6730  1.1279 -0.1534
 6710TIP3    H120094   5.353   5.150   0.285 -0.9756  0.9557  0.5161
 6710TIP3    H220095   5.318   5.010   0.331  2.0047 -0.1946 -0.4587
 6711TIP3   OH220096   4.283   1.938   3.145  0.6982  0.2051 -0.2539
 6711TIP3    H120097   4.217   1.876   3.113 -1.4022  1.8442  0.6439
 6711TIP3    H220098   4.257   2.022   3.108  1.1370  1.2407  1.6284
 6712TIP3   OH220099   3.021   4.871   1.538  0.3382  0.5347  0.2818
 6712TIP3    H120100   2.961   4.829   1.600  2.0779  0.1326  1.7598
 6712TIP3    H220101   2.967   4.937   1.494 -1.5399 -0.7712  0.4965
 6713TIP3   OH220102   2.210   1.332   3.794  0.1701 -0.3393 -0.4720
 6713TIP3    H120103   2.280   1.293   3.846 -0.5086 -0.3973  0.4253
 6713TIP3    H220104   2.167   1.392   3.854 -1.5911 -1.5333 -0.4610
 6714TIP3   OH220105   1.814   4.790   4.621  0.3328  0.5578  0.5474
 6714TIP3    H120106   1.866   4.724   4.667 -0.2321  0.5171  1.1556
 6714TIP3    H220107   1.731   4.746   4.601  0.8255  0.3535 -1.1793
 6715TIP3   OH220108   4.272   0.950   5.504  0.1397 -0.1599 -0.2363
 6715TIP3    H120109   4.221   1.031   5.515  0.7919  0.6179 -2.4718
 6715TIP3    H220110   4.358   0.980   5.474  0.2655 -1.6865 -1.4929
 6716TIP3   OH220111   7.177   5.071   4.548  0.8168  0.3099  0.0658
 6716TIP3    H120112   7.184   4.979   4.571  0.8731  0.5806  1.2424
 6716TIP3    H220113   7.208   5.076   4.458  1.3437 -0.7409  0.1692
 6717TIP3   OH220114   6.107   6.634   2.212 -0.2070  0.2098 -0.1963
 6717TIP3    H120115   6.189   6.635   2.262 -0.1809  1.7731 -0.2140
 6717TIP3    H220116   6.046   6.683   2.267 -0.0344  2.4674 -1.8621
 6718TIP3   OH220117   0.973   2.338   5.131  0.1424  0.8856  0.4458
 6718TIP3    H120118   0.958   2.375   5.044  1.5210 -1.5354 -0.9444
 6718TIP3    H220119   0.981   2.414   5.188  0.2487  2.6140 -1.7307
 6719TIP3   OH220120   3.912   6.650   3.754  0.0220 -0.0222  0.4252
 6719TIP3    H120121   3.992   6.601   3.740 -0.2453 -0.8050  1.5391
 6719TIP3    H220122   3.852   6.587   3.794 -0.8261  0.8123  0.4967
 6720TIP3   OH220123   2.056   0.658   2.776 -0.4754  0.4759 -0.0058
 6720TIP3    H120124   2.058   0.725   2.845  0.6250  1.7489 -1.2160
 6720TIP3    H220125   1.978   0.607   2.795  0.4355 -0.0318  2.9223
 6721TIP3   OH220126   2.357   1.262   2.507 -0.7763 -0.1108 -0.3091
 6721TIP3    H120127   2.312   1.295   2.585  0.5932  3.0194 -0.7138
 6721TIP3    H220128   2.422   1.329   2.486  0.8091 -2.1726 -2.5562
 6722TIP3   OH220129   5.578   3.899   4.562  0.2416 -0.1442 -0.6687
 6722TIP3    H120130   5.607   3.877   4.651  1.1644 -0.2369 -0.9791
 6722TIP3    H220131   5.597   3.992   4.552 -1.8678  0.4050 -0.0365
 6723TIP3   OH220132   0.841   4.208   5.118 -0.4707  0.4235 -0.8130
 6723TIP3    H120133   0.796   4.235   5.198 -0.9963  1.4676 -1.4419
 6723TIP3    H220134   0.932   4.235   5.132 -1.2425  4.3161 -2.0755
 6724TIP3   OH220135   4.112   6.695   5.383  0.9843  0.3037  0.0562
 6724TIP3    H120136   4.144   6.752   5.453 -0.5382  1.1621  0.0996
 6724TIP3    H220137   4.120   6.748   5.304  2.5885 -0.6214 -0.4299
 6725TIP3   OH220138   2.190   2.961   2.312 -0.5021 -0.5348 -0.2102
 6725TIP3    H120139   2.103   2.973   2.350 -0.5350  0.3723 -0.5502
 6725TIP3    H220140   2.204   2.866   2.313 -0.8311 -0.5925  1.3159
 6726TIP3   OH220141   2.676   0.312   5.356 -0.0123 -0.0841 -0.4776
 6726TIP3    H120142   2.770   0.312   5.374 -0.5491 -0.0094  3.2191
 6726TIP3    H220143   2.649   0.221   5.367 -0.4867  0.0495 -0.5046
 6727TIP3   OH220144   2.203   3.528   1.624 -0.8917 -0.0001 -0.2283
 6727TIP3    H120145   2.146   3.532   1.547  0.2797 -1.8857 -1.2659
 6727TIP3    H220146   2.164   3.460   1.679 -0.3307 -0.4420 -0.3692
 6728TIP3   OH220147   2.840   1.534   2.565 -0.4631  0.0247 -0.3267
 6728TIP3    H120148   2.852   1.450   2.609 -0.7721 -0.9154 -1.9478
 6728TIP3    H220149   2.804   1.592   2.632 -2.0325 -1.6678  0.3909
 6729TIP3   OH220150   4.286   3.651   3.903  0.3601 -0.4512  0.4670
 6729TIP3    H120151   4.271   3.556   3.905  0.7408 -0.5044  2.0025
 6729TIP3    H220152   4.252   3.679   3.818  1.0818 -2.1009 -0.4059
 6730TIP3   OH220153   5.199   3.346   3.290 -0.8165 -0.4360  0.2589
 6730TIP3    H120154   5.116   3.306   3.265 -0.1745 -0.7300 -1.5517
 6730TIP3    H220155   5.181   3.440   3.290 -1.4483 -0.5406  1.1406
 6731TIP3   OH220156   4.055   3.043   2.283 -0.9372 -0.1936 -0.2339
 6731TIP3    H120157   4.040   3.133   2.253 -0.7737 -0.0653  0.0721
 6731TIP3    H220158   4.149   3.039   2.301 -1.1088 -0.1285  0.7229
 6732TIP3   OH220159   3.582   1.048   4.762 -0.4052  0.2261  0.5687
 6732TIP3    H120160   3.642   1.079   4.694  0.6922 -0.1561  1.3379
 6732TIP3    H220161   3.500   1.096   4.746 -0.4179 -0.3919 -1.4596
 6733TIP3   OH220162   4.895   2.981   2.668  0.9466  0.5082  0.2777
 6733TIP3    H120163   4.900   2.890   2.639 -1.8896  0.4765 -0.3331
 6733TIP3    H220164   4.802   3.000   2.672  1.4598  3.5294 -0.0018
 6734TIP3   OH220165   2.100   1.348   1.688  0.5550  0.0039 -0.1090
 6734TIP3    H120166   2.008   1.328   1.669  0.4340 -0.9656  1.3635
 6734TIP3    H220167   2.148   1.271   1.656  0.9043  0.5885 -1.0496
 6735TIP3   OH220168   0.175   5.570   4.245  0.2985  0.4559  0.4695
 6735TIP3    H120169   0.167   5.623   4.324 -1.7618 -1.2670  1.5213
 6735TIP3    H220170   0.174   5.479   4.277  0.2960 -0.2670 -1.4655
 6736TIP3   OH220171   1.131   1.439   3.924 -0.0518  0.0463  0.3062
 6736TIP3    H120172   1.056   1.498   3.931 -1.0499 -1.1748  0.1214
 6736TIP3    H220173   1.116   1.389   3.844  0.0367 -1.4468  1.1792
 6737TIP3   OH220174   5.628   4.319   5.650 -0.1493  0.7224  0.2563
 6737TIP3    H120175   5.702   4.282   5.697 -1.4345 -0.4456  1.4664
 6737TIP3    H220176   5.665   4.391   5.600  1.5967  0.9463  1.7531
 6738TIP3   OH220177   2.576   1.645   1.619 -0.3832 -0.1720  0.3438
 6738TIP3    H120178   2.515   1.572   1.622 -0.1559 -0.5058 -1.7391
 6738TIP3    H220179   2.522   1.722   1.602 -0.4367 -0.1160  0.7526
 6739TIP3   OH220180   6.271   0.136   2.922  0.2932 -0.3864 -0.0725
 6739TIP3    H120181   6.302   0.046   2.914  1.5156 -0.1624  1.5407
 6739TIP3    H220182   6.256   0.147   3.016 -0.3564  0.9279 -0.3127
 6740TIP3   OH220183   0.280   4.508   0.861  0.0248  0.0226  0.1989
 6740TIP3    H120184   0.196   4.547   0.884  0.0008 -0.1822  0.4723
 6740TIP3    H220185   0.260   4.442   0.795  0.1949  1.1603 -1.0080
 6741TIP3   OH220186   7.237   4.740   0.914  0.1139 -0.3115 -0.7976
 6741TIP3    H120187   7.158   4.691   0.892 -0.4913  0.0512  0.4667
 6741TIP3    H220188   7.206   4.830   0.929  0.4329 -0.5049  1.4164
 6742TIP3   OH220189   2.825   3.951   4.040  0.2127  0.0746 -1.1476
 6742TIP3    H120190   2.893   3.966   3.974 -0.0604 -0.9045 -1.6598
 6742TIP3    H220191   2.859   3.994   4.119  1.4831 -0.5116 -1.3543
 6743TIP3   OH220192   0.827   1.799  -0.004 -0.2331 -0.0289  0.6424
 6743TIP3    H120193   0.758   1.741   0.028  0.0660 -0.2467  0.8989
 6743TIP3    H220194   0.783   1.884  -0.016 -0.2646  0.1841  2.0928
 6744TIP3   OH220195   0.821   0.369   5.564  0.6219 -0.5929 -0.6524
 6744TIP3    H120196   0.812   0.427   5.639  0.0307 -0.3299 -0.9267
 6744TIP3    H220197   0.901   0.399   5.520 -0.1779  0.6356 -1.3251
 6745TIP3   OH220198   3.195   0.142   1.028 -0.0738 -0.4831 -0.1325
 6745TIP3    H120199   3.111   0.188   1.040 -0.8330 -1.7431 -0.3972
 6745TIP3    H220200   3.228   0.130   1.117  1.0243  2.0543 -0.1110
 6746TIP3   OH220201   7.085   2.796   5.422  0.2008 -0.1123  0.2534
 6746TIP3    H120202   7.092   2.717   5.369  0.6832  0.8349 -1.1511
 6746TIP3    H220203   7.161   2.849   5.397  0.8722  0.0677  2.4449
 6747TIP3   OH220204   2.663   6.782   2.855  0.3471  0.1497  0.3722
 6747TIP3    H120205   2.641   6.690   2.868  2.2732 -0.7131 -1.8825
 6747TIP3    H220206   2.619   6.806   2.774 -0.4408  1.3919  1.1199
 6748TIP3   OH220207   3.924   6.488   5.683 -0.3502 -0.1750 -0.3268
 6748TIP3    H120208   3.921   6.543   5.605 -0.4957 -0.8375 -0.7978
 6748TIP3    H220209   4.003   6.516   5.729 -0.0091 -0.0897 -0.9509
 6749TIP3   OH220210   3.090   2.742   4.473 -0.7620  0.0357 -0.0618
 6749TIP3    H120211   3.133   2.807   4.417  0.4744  0.6375  1.5182
 6749TIP3    H220212   3.149   2.666   4.469  0.7006  0.9320  2.2670
 6750TIP3   OH220213   0.702   5.339   4.752  0.3959 -0.2095 -0.0243
 6750TIP3    H120214   0.783   5.314   4.796  0.3641 -0.9727 -0.3717
 6750TIP3    H220215   0.647   5.376   4.821  0.7513 -0.3984  0.3609
 6751TIP3   OH220216   3.105   6.694   4.435  0.3431  0.3009 -0.1851
 6751TIP3    H120217   3.172   6.626   4.428 -1.4704 -1.6828  0.5643
 6751TIP3    H220218   3.109   6.722   4.526 -0.7179 -0.8728  0.2627
 6752TIP3   OH220219   6.543   6.605   1.219 -0.0931  0.2536  0.1975
 6752TIP3    H120220   6.636   6.592   1.236 -0.0347 -0.8050 -0.7996
 6752TIP3    H220221   6.522   6.539   1.153 -1.4320  0.8327  0.0287
 6753TIP3   OH220222   4.072   0.079   3.322  0.3113 -0.1749  0.3289
 6753TIP3    H120223   3.992   0.126   3.299 -0.5915 -0.6494  2.3058
 6753TIP3    H220224   4.141   0.124   3.274 -1.0581  0.5525 -1.0469
 6754TIP3   OH220225   2.174   5.391   0.141 -0.1858  0.1979  0.1525
 6754TIP3    H120226   2.162   5.308   0.187 -0.3283  0.6743  1.0078
 6754TIP3    H220227   2.183   5.367   0.049 -0.9286 -0.7064  0.3028
 6755TIP3   OH220228   5.132   5.530   1.593 -0.1162  0.2766 -0.2834
 6755TIP3    H120229   5.078   5.594   1.545 -0.2109 -0.2180 -0.8420
 6755TIP3    H220230   5.174   5.582   1.662 -0.6462  0.8332 -0.3659
 6756TIP3   OH220231   0.189   4.414   2.159  0.3591 -0.2891  0.2508
 6756TIP3    H120232   0.222   4.503   2.142  1.2887  0.0667  3.2974
 6756TIP3    H220233   0.100   4.414   2.124  0.6116  1.5898 -0.5084
 6757TIP3   OH220234   6.714   5.049   2.801 -0.7485 -0.0749 -0.2982
 6757TIP3    H120235   6.640   4.991   2.819 -0.5010  0.5667  3.7075
 6757TIP3    H220236   6.674   5.136   2.793 -0.5321  0.2520  1.7353
 6758TIP3   OH220237   3.704   6.503   0.881 -0.1591  0.0014 -0.1960
 6758TIP3    H120238   3.734   6.478   0.969 -0.6759 -1.0889 -0.3185
 6758TIP3    H220239   3.762   6.455   0.822  0.6342  1.2614 -0.4787
 6759TIP3   OH220240   1.812   6.683   2.095 -0.2337  0.4208 -0.1373
 6759TIP3    H120241   1.906   6.694   2.078 -0.7201  3.3301 -1.7070
 6759TIP3    H220242   1.791   6.596   2.061  1.7853 -0.0488 -0.2820
 6760TIP3   OH220243   7.015   5.217   1.838 -0.0173  0.1695 -0.0615
 6760TIP3    H120244   7.077   5.148   1.816 -0.5966 -0.8136  1.2384
 6760TIP3    H220245   7.066   5.281   1.887  0.2151 -0.0471 -0.0212
 6761TIP3   OH220246   2.548   1.746   1.323 -0.8530  0.0165 -0.1408
 6761TIP3    H120247   2.579   1.820   1.374  0.3186 -0.1616 -0.5534
 6761TIP3    H220248   2.453   1.746   1.335 -0.6682  0.3543  1.4906
 6762TIP3   OH220249   2.133   1.901   3.209 -0.5046  0.0121 -0.0422
 6762TIP3    H120250   2.203   1.860   3.260 -0.5922  0.9214  0.8356
 6762TIP3    H220251   2.053   1.864   3.245 -0.5489  0.3433  0.2043
 6763TIP3   OH220252   3.709   2.019   0.655 -0.0729 -0.2423 -0.1633
 6763TIP3    H120253   3.624   1.981   0.635  1.3601 -1.7033 -4.4047
 6763TIP3    H220254   3.759   1.947   0.695 -0.8081  0.7491  2.7979
 6764TIP3   OH220255   0.842   5.420   1.403  0.0102  0.0983 -0.6287
 6764TIP3    H120256   0.843   5.505   1.358  0.6300  0.2421 -0.3535
 6764TIP3    H220257   0.749   5.398   1.409 -0.3309  1.6263  0.8655
 6765TIP3   OH220258   4.269   6.540   1.827 -0.1354 -0.2509  0.3433
 6765TIP3    H120259   4.343   6.498   1.782  0.3527  1.3044 -0.3853
 6765TIP3    H220260   4.207   6.470   1.842 -0.2466 -0.9195 -2.6404
 6766TIP3   OH220261   4.723   6.448   1.396  0.0591  0.0348 -0.3350
 6766TIP3    H120262   4.816   6.425   1.404 -0.3032 -1.2096  0.5021
 6766TIP3    H220263   4.712   6.469   1.303  1.3179  0.9002 -0.3113
 6767TIP3   OH220264   0.996   1.800   2.891  0.1660 -0.4608 -0.1370
 6767TIP3    H120265   1.031   1.863   2.828  2.6042 -2.7600 -1.3272
 6767TIP3    H220266   0.945   1.739   2.838 -2.2079  0.4245  0.9975
 6768TIP3   OH220267   2.294   3.351   3.080 -0.2528  0.1587 -0.1424
 6768TIP3    H120268   2.369   3.318   3.030 -0.2263 -0.9784  0.5943
 6768TIP3    H220269   2.331   3.373   3.165 -0.9587 -1.7754  0.7161
 6769TIP3   OH220270   5.208   5.689   1.812 -0.1827 -0.0371 -0.0933
 6769TIP3    H120271   5.292   5.668   1.853  0.0704 -1.6611 -1.3219
 6769TIP3    H220272   5.230   5.756   1.747  0.2396 -0.6969 -0.6397
 6770TIP3   OH220273   2.768   0.614   5.140 -0.2719 -0.1961  0.4897
 6770TIP3    H120274   2.808   0.682   5.086 -1.6001  0.9844  0.9327
 6770TIP3    H220275   2.696   0.580   5.086 -1.6671  1.0550  1.4842
 6771TIP3   OH220276   1.909   5.076   0.921 -0.2377  0.1935 -0.1073
 6771TIP3    H120277   1.956   5.144   0.969 -1.1122 -0.3612  1.5975
 6771TIP3    H220278   1.866   5.024   0.988 -1.3679 -0.7399 -1.4891
 6772TIP3   OH220279   0.771   5.604   0.886 -0.6599  0.3552  0.2096
 6772TIP3    H120280   0.822   5.554   0.822 -0.2817 -1.2995  1.7346
 6772TIP3    H220281   0.720   5.665   0.833 -0.8742 -1.4107 -1.7654
 6773TIP3   OH220282   1.306   3.314   5.120 -0.3615  0.0118 -0.1356
 6773TIP3    H120283   1.245   3.279   5.185  1.8388 -0.0556  2.0669
 6773TIP3    H220284   1.328   3.402   5.153  1.9145 -0.5750  0.1133
 6774TIP3   OH220285   7.087   1.306   1.285  0.2978 -0.5777 -0.2949
 6774TIP3    H120286   7.050   1.388   1.254 -0.6546 -0.8556  0.0737
 6774TIP3    H220287   7.099   1.319   1.379  2.5290  0.0194 -0.6140
 6775TIP3   OH220288   1.786   5.935   1.871  0.2092 -0.4368 -0.0883
 6775TIP3    H120289   1.731   6.009   1.848  1.3440  0.8898  1.2932
 6775TIP3    H220290   1.849   5.928   1.799 -1.0023 -1.2449 -1.1082
 6776TIP3   OH220291   2.521   4.958   5.722 -0.0027  0.0340 -0.5885
 6776TIP3    H120292   2.474   5.040   5.703  1.2422  1.1360  0.8142
 6776TIP3    H220293   2.492   4.934   5.809  2.5152  1.1960  0.6780
 6777TIP3   OH220294   0.941   5.364   3.969 -0.0204 -0.1540  0.0663
 6777TIP3    H120295   0.954   5.351   4.063 -0.8969 -0.3222  0.1789
 6777TIP3    H220296   0.870   5.303   3.947 -0.2042  0.2913 -0.5879
 6778TIP3   OH220297   5.017   0.857   4.404 -0.3307  0.0454 -0.3279
 6778TIP3    H120298   5.083   0.915   4.365  1.1597 -1.6471 -0.4762
 6778TIP3    H220299   4.934   0.904   4.395  0.5605  1.3862 -1.9878
 6779TIP3   OH220300   2.417   2.030   3.423  0.3468 -0.3706 -0.0262
 6779TIP3    H120301   2.405   2.082   3.344  0.9011 -0.4844 -0.1897
 6779TIP3    H220302   2.398   1.940   3.395 -0.3520 -0.3022  0.1936
 6780TIP3   OH220303   0.933   6.551   4.481  0.9863  0.2721 -0.1073
 6780TIP3    H120304   0.998   6.483   4.463  0.8712 -0.2671  1.4200
 6780TIP3    H220305   0.977   6.610   4.543  0.0611 -0.0611  0.8818
 6781TIP3   OH220306   2.729   2.328   4.578 -0.5691 -0.3872  0.3765
 6781TIP3    H120307   2.815   2.329   4.621 -0.8533 -0.2344  0.9562
 6781TIP3    H220308   2.669   2.357   4.646 -0.9723  0.3185 -0.2740
 6782TIP3   OH220309   1.516   4.785   2.335 -0.0599 -0.3321  0.1340
 6782TIP3    H120310   1.597   4.834   2.330  0.0741 -0.5932 -0.3621
 6782TIP3    H220311   1.511   4.738   2.251  0.3516 -2.0095  0.9926
 6783TIP3   OH220312   5.354   4.788   1.476  0.0648 -0.3745 -0.3071
 6783TIP3    H120313   5.402   4.818   1.553 -2.9034  0.8207  1.2297
 6783TIP3    H220314   5.379   4.850   1.407 -0.0978  0.9000  0.7419
 6784TIP3   OH220315   4.095   1.993   0.111  0.4739  0.1378 -0.0773
 6784TIP3    H120316   4.009   2.034   0.115  1.3774  2.0707  0.7800
 6784TIP3    H220317   4.115   1.987   0.017  1.2387  3.8787 -0.2813
 6785TIP3   OH220318   2.338   1.658   0.141  0.3884 -0.3591  0.6805
 6785TIP3    H120319   2.422   1.632   0.179  1.2174  1.6996  0.3657
 6785TIP3    H220320   2.348   1.640   0.047  0.1567 -0.8842  0.7530
 6786TIP3   OH220321   5.857   6.509   5.703 -0.0409  0.4140  0.3263
 6786TIP3    H120322   5.888   6.482   5.617 -1.2715 -0.5495  0.1604
 6786TIP3    H220323   5.930   6.491   5.762  0.1712 -0.6148 -0.2375
 6787TIP3   OH220324   1.395   0.907   4.894 -0.9805  0.3157 -0.2723
 6787TIP3    H120325   1.338   0.831   4.906 -0.3461 -0.3180 -1.0892
 6787TIP3    H220326   1.464   0.895   4.959 -1.1527  0.4678 -0.0601
 6788TIP3   OH220327   3.042   2.896   2.391  0.7559  0.0031 -0.1995
 6788TIP3    H120328   3.036   2.926   2.300  1.9570  2.1333  0.3573
 6788TIP3    H220329   3.116   2.835   2.391  1.2031  0.5325 -0.5446
 6789TIP3   OH220330   4.988   5.899   2.937  0.1958 -0.0714 -0.2433
 6789TIP3    H120331   5.068   5.853   2.964  0.9686  1.8547  0.9915
 6789TIP3    H220332   4.918   5.858   2.987  0.5734 -0.9736 -0.4240
 6790TIP3   OH220333   1.962   4.489   0.458  0.2656  0.0427  0.0518
 6790TIP3    H120334   1.989   4.521   0.544  0.3674 -0.8480  0.3618
 6790TIP3    H220335   1.876   4.450   0.473  1.1294 -1.9259  0.2080
 6791TIP3   OH220336   1.042   5.524   1.128  0.0458  0.8567 -0.0020
 6791TIP3    H120337   1.020   5.610   1.094 -2.2216 -0.2670 -1.7041
 6791TIP3    H220338   0.991   5.516   1.209  1.0014  1.4387  0.6689
 6792TIP3   OH220339   3.425   1.233   1.928 -0.1628  0.2217 -0.0469
 6792TIP3    H120340   3.411   1.195   1.841 -0.3546 -0.1244  0.1352
 6792TIP3    H220341   3.460   1.161   1.980 -0.0615  0.4268  0.1692
 6793TIP3   OH220342   5.054   1.117   3.335  0.0086 -0.0000 -0.1524
 6793TIP3    H120343   5.069   1.032   3.378  0.3698 -0.5101 -1.2499
 6793TIP3    H220344   5.131   1.130   3.280  0.0061  1.1062  0.0837
 6794TIP3   OH220345   5.404   1.431   3.665  0.0788 -0.2971 -0.2484
 6794TIP3    H120346   5.457   1.491   3.613 -1.2535  1.2066  0.0368
 6794TIP3    H220347   5.317   1.472   3.666 -0.3082 -1.0762  1.8673
 6795TIP3   OH220348   3.457   2.650   5.263 -0.0365  0.2480  0.2290
 6795TIP3    H120349   3.443   2.661   5.357  0.5942  1.3401  0.2120
 6795TIP3    H220350   3.494   2.734   5.234 -0.1341 -0.1056 -0.9759
 6796TIP3   OH220351   3.055   0.411   2.328 -0.2244 -0.0989 -0.5398
 6796TIP3    H120352   2.973   0.364   2.345 -0.1725  0.2865  0.9376
 6796TIP3    H220353   3.082   0.382   2.241 -1.2112 -1.2929 -0.4736
 6797TIP3   OH220354   5.142   0.371   4.121 -0.0734 -0.0314 -0.2829
 6797TIP3    H120355   5.084   0.376   4.045 -0.1433  0.1310 -0.2185
 6797TIP3    H220356   5.228   0.397   4.087 -0.0022 -0.4385 -0.4150
 6798TIP3   OH220357   1.739   6.590   0.501 -0.1715  0.3428  0.3062
 6798TIP3    H120358   1.661   6.637   0.529  0.2897  1.9008 -0.8838
 6798TIP3    H220359   1.724   6.570   0.408  0.7161  0.4079  0.1315
 6799TIP3   OH220360   6.826   1.025   5.454 -0.0494 -0.6502 -0.1858
 6799TIP3    H120361   6.914   1.000   5.426 -0.2379 -0.4404 -0.9941
 6799TIP3    H220362   6.815   1.115   5.422 -0.5166 -0.6394 -0.0100
 6800TIP3   OH220363   5.211   4.134   1.650  0.1098  0.0740  0.3885
 6800TIP3    H120364   5.257   4.214   1.675  2.8755 -1.1726 -0.2843
 6800TIP3    H220365   5.182   4.150   1.560  2.3234 -0.2377 -0.4527
 6801TIP3   OH220366   6.284   5.627   3.738 -1.1512  0.3834  0.3137
 6801TIP3    H120367   6.231   5.554   3.707 -2.4645  1.8734 -1.1279
 6801TIP3    H220368   6.370   5.612   3.699 -1.3790 -0.3967  0.0907
 6802TIP3   OH220369   2.440   6.522   3.009 -0.3803  0.0950  0.2025
 6802TIP3    H120370   2.454   6.614   2.986  1.9824  0.1070  1.4524
 6802TIP3    H220371   2.386   6.488   2.937  0.5880  1.8915 -1.4629
 6803TIP3   OH220372   2.445   1.898   2.136 -0.1169  0.0058  0.3801
 6803TIP3    H120373   2.473   1.945   2.214  0.0320  1.9671 -0.7982
 6803TIP3    H220374   2.373   1.950   2.101  0.0456 -0.6509 -0.9805
 6804TIP3   OH220375   7.105   1.547   2.460 -0.2499  0.0799 -0.1187
 6804TIP3    H120376   7.153   1.529   2.540  0.9777 -1.1468 -1.0839
 6804TIP3    H220377   7.071   1.636   2.471  1.0461  0.4393  1.1745
 6805TIP3   OH220378   7.130   5.975   1.525  0.2885 -0.0651 -0.4908
 6805TIP3    H120379   7.157   6.024   1.603 -0.9814  0.3064 -0.2656
 6805TIP3    H220380   7.178   6.016   1.453 -0.6801  1.4681 -0.2937
 6806TIP3   OH220381   6.656   5.800   0.843 -0.6509  0.2943 -0.4905
 6806TIP3    H120382   6.707   5.782   0.922 -1.2686  2.3579  0.4519
 6806TIP3    H220383   6.590   5.732   0.841 -0.0346 -0.3491  0.2325
 6807TIP3   OH220384   5.864   1.712   1.628  0.0328  0.4749 -0.2722
 6807TIP3    H120385   5.894   1.657   1.555  0.1623 -0.8528  0.7375
 6807TIP3    H220386   5.784   1.753   1.596  0.2664  0.1799 -1.2728
 6808TIP3   OH220387   5.247   3.248   0.562  0.1773  0.2189 -0.5207
 6808TIP3    H120388   5.177   3.248   0.497 -1.2351 -0.4151  0.9303
 6808TIP3    H220389   5.210   3.201   0.637  2.3899 -0.6658  0.0707
 6809TIP3   OH220390   0.551   4.688   3.987  0.0748 -0.1053 -0.0728
 6809TIP3    H120391   0.608   4.765   3.991 -0.3616  0.2516 -0.6020
 6809TIP3    H220392   0.467   4.722   3.956 -0.1679 -0.7669 -0.1524
 6810TIP3   OH220393   0.203   1.997   3.484  0.6010 -0.0219 -0.7131
 6810TIP3    H120394   0.151   1.936   3.537  0.4534 -0.7495 -1.6598
 6810TIP3    H220395   0.202   1.959   3.396  2.3806  0.1761 -0.8606
 6811TIP3   OH220396   3.690   5.876   3.722 -0.1836 -0.0331 -0.1915
 6811TIP3    H120397   3.606   5.919   3.709  0.8210  1.9621 -0.4539
 6811TIP3    H220398   3.702   5.875   3.817  0.2483  1.2660 -0.2193
 6812TIP3   OH220399   2.970   4.902   2.255 -0.1732  0.8342 -0.1934
 6812TIP3    H120400   3.011   4.901   2.341 -1.2851  1.4046  0.3710
 6812TIP3    H220401   2.999   4.820   2.214  0.2518  0.4804  0.7787
 6813TIP3   OH220402   0.544   2.092   4.738 -0.2818  0.1376  0.6174
 6813TIP3    H120403   0.534   2.169   4.794 -1.3194 -0.1116  0.7823
 6813TIP3    H220404   0.543   2.018   4.798 -1.1078 -0.1133  0.3091
 6814TIP3   OH220405   1.253   1.712   4.932 -0.3890 -0.2701  0.5205
 6814TIP3    H120406   1.210   1.776   4.988  0.8796  0.0473  1.1807
 6814TIP3    H220407   1.347   1.732   4.940 -0.1054 -0.8889 -0.8945
 6815TIP3   OH220408   5.347   1.804   1.136  0.1302 -0.5362 -0.1937
 6815TIP3    H120409   5.440   1.829   1.132 -0.3132  1.2925 -0.3124
 6815TIP3    H220410   5.308   1.849   1.061 -0.6962 -2.1715 -0.7941
 6816TIP3   OH220411   6.203   4.104   2.203 -0.1596 -0.1567  0.1768
 6816TIP3    H120412   6.279   4.056   2.171  0.1226  0.0184  0.5887
 6816TIP3    H220413   6.237   4.163   2.270 -0.9070 -1.4415  1.7872
 6817TIP3   OH220414   1.088   1.826   1.915  0.1665 -0.3251  0.3645
 6817TIP3    H120415   1.002   1.812   1.954  1.3150  1.3540  3.9220
 6817TIP3    H220416   1.070   1.868   1.831 -2.4780 -0.7352  0.6461
 6818TIP3   OH220417   1.834   2.546   1.886  0.2486 -0.3902 -0.5873
 6818TIP3    H120418   1.929   2.533   1.880  0.1561 -0.9719 -0.8918
 6818TIP3    H220419   1.807   2.483   1.953  0.2928  0.9393  0.7216
 6819TIP3   OH220420   0.679   4.923   1.355  0.1154 -0.0591  0.0788
 6819TIP3    H120421   0.744   4.947   1.289 -0.4005  1.1397 -0.0153
 6819TIP3    H220422   0.662   4.830   1.339  1.0407 -0.1377 -0.5432
 6820TIP3   OH220423   1.115   5.170   4.451 -0.2972 -0.3912 -0.1922
 6820TIP3    H120424   1.170   5.194   4.526 -0.3176 -2.1063  0.4064
 6820TIP3    H220425   1.126   5.243   4.390  1.4964 -0.0007  0.5255
 6821TIP3   OH220426   3.480   0.169   1.178  0.4753  0.5389  0.2020
 6821TIP3    H120427   3.564   0.202   1.210  1.6898  1.0303 -3.0877
 6821TIP3    H220428   3.428   0.247   1.161  0.7261  0.4560 -1.0587
 6822TIP3   OH220429   4.456   3.692   3.534  0.8802  0.2395  0.2542
 6822TIP3    H120430   4.485   3.623   3.594  0.8229  0.2965  0.3479
 6822TIP3    H220431   4.486   3.773   3.574 -1.5283  0.5330  1.6817
 6823TIP3   OH220432   5.400   4.791   5.049  0.4287 -0.0398  0.2412
 6823TIP3    H120433   5.386   4.846   4.972 -0.0554  1.0937  1.1093
 6823TIP3    H220434   5.461   4.723   5.020  0.1766  0.3061 -1.1566
 6824TIP3   OH220435   0.619   1.653   4.701  0.0592 -0.3375 -0.2646
 6824TIP3    H120436   0.590   1.564   4.723  2.5661 -0.9303  0.9898
 6824TIP3    H220437   0.560   1.710   4.750 -0.1173 -1.4052  0.8306
 6825TIP3   OH220438   5.013   2.982   3.370 -0.1158 -0.8063 -0.1708
 6825TIP3    H120439   4.991   2.952   3.458  0.3868 -1.5457 -0.2925
 6825TIP3    H220440   4.928   3.004   3.330 -0.2480  1.0191  1.0064
 6826TIP3   OH220441   6.538   3.863   4.324 -0.4064  0.4110  0.1741
 6826TIP3    H120442   6.554   3.883   4.232  0.7042  0.1822  0.3093
 6826TIP3    H220443   6.501   3.944   4.359 -2.6366 -0.0704 -0.8653
 6827TIP3   OH220444   3.844   0.905   1.075  0.4054  0.8465  0.6388
 6827TIP3    H120445   3.876   0.925   1.164  0.5735 -0.2122  0.8281
 6827TIP3    H220446   3.924   0.893   1.024  0.3182  0.1988  0.6462
 6828TIP3   OH220447   6.866   5.649   0.449 -0.0504 -0.0245  0.7015
 6828TIP3    H120448   6.776   5.665   0.477  0.1524  2.5700  0.1204
 6828TIP3    H220449   6.857   5.615   0.359 -0.4495  0.3263  0.6045
 6829TIP3   OH220450   0.116   5.383   1.620 -0.1137  0.1454 -0.0970
 6829TIP3    H120451   0.143   5.450   1.557 -1.0611  0.6980  0.0709
 6829TIP3    H220452   0.087   5.310   1.565 -0.9925  0.6463 -0.3117
 6830TIP3   OH220453   2.462   4.281   0.177 -0.5988 -0.4816 -0.2083
 6830TIP3    H120454   2.513   4.356   0.146  0.9221 -0.9187  1.1115
 6830TIP3    H220455   2.371   4.306   0.162 -0.0947  1.2481 -0.6231
 6831TIP3   OH220456   1.092   4.662   0.819  0.0405 -0.3236 -0.5332
 6831TIP3    H120457   1.032   4.706   0.758 -1.5592  0.7002  1.6414
 6831TIP3    H220458   1.052   4.576   0.834  0.0197 -0.2867 -0.3730
 6832TIP3   OH220459   1.342   5.564   3.984  0.2794  0.3937 -0.5391
 6832TIP3    H120460   1.259   5.572   4.031  1.2969  2.5680  1.0691
 6832TIP3    H220461   1.318   5.563   3.892 -1.6491 -1.7538 -0.1125
 6833TIP3   OH220462   3.733   1.974   3.511  0.5043  0.2379 -0.5512
 6833TIP3    H120463   3.679   1.896   3.522  0.0615  0.4078 -1.4975
 6833TIP3    H220464   3.695   2.020   3.437  1.0447  1.1251 -0.2920
 6834TIP3   OH220465   6.040   0.351   3.208  0.0511  0.1881  0.0263
 6834TIP3    H120466   6.030   0.281   3.272  0.8084 -0.3157 -0.3881
 6834TIP3    H220467   5.981   0.327   3.137  1.1887 -0.7090 -0.6650
 6835TIP3   OH220468   0.352   2.532   3.915 -0.1945  0.0579 -0.0606
 6835TIP3    H120469   0.401   2.475   3.974  0.8488  0.3056 -0.6652
 6835TIP3    H220470   0.324   2.606   3.970  0.3075  0.0221  0.2453
 6836TIP3   OH220471   3.283   4.723   2.695 -0.4716  0.5433 -0.2488
 6836TIP3    H120472   3.359   4.734   2.752 -1.4216  0.2956  1.1085
 6836TIP3    H220473   3.221   4.672   2.747 -1.2589  0.0558 -1.6271
 6837TIP3   OH220474   4.101   4.425   3.733  0.1691 -0.0530  0.3952
 6837TIP3    H120475   4.118   4.492   3.800 -3.9804  2.7450 -0.9157
 6837TIP3    H220476   4.017   4.387   3.757  0.2019 -1.4369 -1.4278
 6838TIP3   OH220477   1.680   2.906   4.439 -0.3564 -0.3715  0.4388
 6838TIP3    H120478   1.653   2.905   4.347 -2.7007 -0.0532  1.0529
 6838TIP3    H220479   1.623   2.972   4.479  1.8391  0.8071  1.8250
 6839TIP3   OH220480   5.108   1.916   3.120  0.1230  0.2587  0.0798
 6839TIP3    H120481   5.014   1.903   3.119  0.0030  1.0547  0.3966
 6839TIP3    H220482   5.120   2.003   3.158  0.9808  0.1850 -0.0010
 6840TIP3   OH220483   6.797   1.177   5.722  0.0711 -0.1817  0.4384
 6840TIP3    H120484   6.720   1.199   5.671  0.1735 -0.9407 -0.0594
 6840TIP3    H220485   6.762   1.142   5.804 -0.0975  0.3884  0.6149
 6841TIP3   OH220486   1.447   0.870   3.569 -0.0737  0.6135 -0.0686
 6841TIP3    H120487   1.458   0.940   3.505  0.5508  0.1875 -0.4347
 6841TIP3    H220488   1.450   0.915   3.654  0.9976  0.9679 -0.2771
 6842TIP3   OH220489   0.735   1.228   2.062 -0.2992  0.4673 -0.0492
 6842TIP3    H120490   0.742   1.147   2.113 -3.1984 -0.1004 -0.3975
 6842TIP3    H220491   0.710   1.294   2.126 -0.6903  0.4736 -0.2081
 6843TIP3   OH220492   0.480   0.582   1.920 -0.3984  0.7693 -0.1137
 6843TIP3    H120493   0.536   0.656   1.941 -0.2117  0.9928 -1.3301
 6843TIP3    H220494   0.430   0.610   1.843  0.8303 -0.9077 -1.6074
 6844TIP3   OH220495   6.359   4.372   1.982 -0.2867  0.2529 -0.5030
 6844TIP3    H120496   6.344   4.450   1.929 -2.1024 -0.7644 -1.5662
 6844TIP3    H220497   6.272   4.343   2.008  0.4590 -0.4179  1.4199
 6845TIP3   OH220498   3.599   1.733   3.588  0.3491 -0.3579  0.1747
 6845TIP3    H120499   3.665   1.666   3.569  0.0722 -0.7196  0.4746
 6845TIP3    H220500   3.518   1.695   3.555  0.4464  0.5331 -1.1769
 6846TIP3   OH220501   4.939   2.402   0.913  0.3547  0.3222 -0.0920
 6846TIP3    H120502   4.909   2.313   0.932 -0.7081  0.6105 -0.3755
 6846TIP3    H220503   4.949   2.404   0.817 -2.7932  1.4247 -0.5043
 6847TIP3   OH220504   2.541   4.100   4.968 -0.3369  0.3542  0.0998
 6847TIP3    H120505   2.600   4.142   5.030 -0.1552  1.0279 -0.5101
 6847TIP3    H220506   2.595   4.085   4.890 -0.6669 -0.1048 -0.0451
 6848TIP3   OH220507   1.608   0.189   5.159  0.1458 -0.3854  0.3032
 6848TIP3    H120508   1.695   0.181   5.120  0.2877 -0.1670  0.5729
 6848TIP3    H220509   1.589   0.282   5.154 -0.3892 -0.5235 -0.4324
 6849TIP3   OH220510   2.755   1.197   0.787  0.4563  0.1425 -0.3559
 6849TIP3    H120511   2.843   1.234   0.795 -0.6815  2.7910  1.3320
 6849TIP3    H220512   2.760   1.113   0.832  2.0547  0.3570 -0.0734
 6850TIP3   OH220513   3.425   3.049   2.972 -0.4092  0.4542 -0.2983
 6850TIP3    H120514   3.380   3.008   2.899  0.5030 -0.2179 -0.5088
 6850TIP3    H220515   3.477   3.119   2.933 -1.6742  1.6041  0.0135
 6851TIP3   OH220516   0.506   0.092   5.456  0.1973 -0.1646 -0.3161
 6851TIP3    H120517   0.523   0.084   5.550 -2.0925  0.6533  0.2196
 6851TIP3    H220518   0.419   0.055   5.443  0.3742 -0.0806 -2.1139
 6852TIP3   OH220519   6.468   4.205   3.990  0.2163 -0.3141 -0.1255
 6852TIP3    H120520   6.436   4.222   4.078 -0.5275 -2.4509  0.0689
 6852TIP3    H220521   6.389   4.204   3.935  0.6202  0.4911 -0.7455
 6853TIP3   OH220522   6.589   0.229   0.649  0.7805  0.5370 -0.5316
 6853TIP3    H120523   6.551   0.216   0.562  0.1895 -4.3343  0.1657
 6853TIP3    H220524   6.683   0.222   0.635  0.9089  2.5878 -1.0143
 6854TIP3   OH220525   2.711   1.589   4.144  0.1459 -0.4769 -0.4871
 6854TIP3    H120526   2.623   1.572   4.108 -0.6447 -0.2865  1.2691
 6854TIP3    H220527   2.732   1.678   4.114 -1.7803  0.8824  1.7983
 6855TIP3   OH220528   7.153   0.489   2.831  0.3291  0.7039  0.3250
 6855TIP3    H120529   7.247   0.474   2.841  0.2565 -0.3335 -0.3694
 6855TIP3    H220530   7.124   0.420   2.772 -1.1906 -0.1421  1.9619
 6856TIP3   OH220531   3.971   2.272   5.745 -0.1168  0.5877 -0.8076
 6856TIP3    H120532   4.013   2.354   5.771  0.1655  0.8451 -2.0243
 6856TIP3    H220533   4.034   2.230   5.686  0.8154 -1.6794  1.5746
 6857TIP3   OH220534   7.051   1.148   2.647 -0.0763  0.4723  0.2839
 6857TIP3    H120535   7.131   1.195   2.667 -0.6029  2.1898 -1.2799
 6857TIP3    H220536   7.080   1.065   2.609  0.9224  0.4810  0.9959
 6858TIP3   OH220537   6.396   1.860   0.607  0.5475  0.1557 -0.2585
 6858TIP3    H120538   6.462   1.800   0.571  0.6038  1.1338 -1.8673
 6858TIP3    H220539   6.409   1.942   0.559  0.5345  1.5322  1.9418
 6859TIP3   OH220540   3.393   2.437   2.947 -0.1346  0.4878 -0.6200
 6859TIP3    H120541   3.426   2.517   2.905 -0.2989  0.0209 -1.6693
 6859TIP3    H220542   3.327   2.404   2.887  0.0943 -0.5652 -0.3094
 6860TIP3   OH220543   3.459   2.823   4.911 -0.1764  0.2315  0.1875
 6860TIP3    H120544   3.549   2.791   4.901 -0.6757 -0.6955 -1.6030
 6860TIP3    H220545   3.412   2.752   4.955 -0.3801  0.0895 -0.2559
 6861TIP3   OH220546   3.434   4.290   4.702 -0.1974 -0.4991 -0.2019
 6861TIP3    H120547   3.397   4.313   4.617  0.0327  3.1196  0.5289
 6861TIP3    H220548   3.359   4.264   4.755 -0.5131 -1.4142 -1.0620
 6862TIP3   OH220549   2.027   4.125   3.656  0.0750 -0.0603  0.9004
 6862TIP3    H120550   1.983   4.165   3.581 -1.0079 -0.9342  1.0456
 6862TIP3    H220551   2.117   4.113   3.627 -0.1244  0.4237  0.0559
 6863TIP3   OH220552   3.316   2.501   5.513  0.1820  0.4205  0.6631
 6863TIP3    H120553   3.385   2.435   5.505  1.3532  1.4088  2.1686
 6863TIP3    H220554   3.250   2.459   5.569  0.4686  0.1809  0.8247
 6864TIP3   OH220555   6.607   4.713   3.252  0.0305  0.3361  0.3982
 6864TIP3    H120556   6.675   4.659   3.290  0.4988 -0.6544 -1.6768
 6864TIP3    H220557   6.536   4.714   3.316  0.1405 -2.4975  0.6570
 6865TIP3   OH220558   2.842   4.445   5.713 -0.3363  0.1329 -0.4361
 6865TIP3    H120559   2.892   4.502   5.654  1.7134 -0.9237  0.1600
 6865TIP3    H220560   2.845   4.359   5.671 -1.3218 -0.0385 -0.1654
 6866TIP3   OH220561   2.071   3.325   2.907 -0.0110 -0.8940 -0.2354
 6866TIP3    H120562   2.141   3.361   2.961 -0.7427 -0.1236  0.2169
 6866TIP3    H220563   2.042   3.247   2.954  0.0760 -0.8295 -0.0745
 6867TIP3   OH220564   2.671   1.310   1.738 -0.4541  0.0390 -0.3633
 6867TIP3    H120565   2.742   1.372   1.751 -0.6515  0.2990 -0.5127
 6867TIP3    H220566   2.662   1.265   1.822  1.0560 -1.2417 -0.8430
 6868TIP3   OH220567   0.190   5.918   0.159 -0.5339 -0.2229  0.0880
 6868TIP3    H120568   0.152   5.920   0.247 -1.0562  2.1938 -0.1350
 6868TIP3    H220569   0.116   5.939   0.101  0.1097 -0.4129 -0.8201
 6869TIP3   OH220570   5.937   1.590   1.157 -0.3858 -0.3114  0.0518
 6869TIP3    H120571   5.843   1.578   1.174 -0.5115  0.3281 -0.1793
 6869TIP3    H220572   5.968   1.643   1.231 -0.3113 -0.0893 -0.1389
 6870TIP3   OH220573   5.226   6.364   4.740  0.0393  0.5058 -0.3274
 6870TIP3    H120574   5.310   6.320   4.733  0.2517  0.9597 -0.7218
 6870TIP3    H220575   5.161   6.293   4.742  0.3322  0.1800 -1.5557
 6871TIP3   OH220576   4.273   0.066   0.229  0.4677  0.0706 -0.5361
 6871TIP3    H120577   4.362   0.048   0.197  0.5093 -0.8783  0.0555
 6871TIP3    H220578   4.218   0.003   0.183  0.1780  0.3087 -0.5151
 6872TIP3   OH220579   2.935   1.035   3.095  0.6527  0.0568  0.0689
 6872TIP3    H120580   2.974   0.951   3.120  1.7395  0.1687 -1.1289
 6872TIP3    H220581   2.987   1.101   3.140  2.2717  0.2310 -1.9160
 6873TIP3   OH220582   6.698   6.293   1.424  0.3848 -0.1189 -0.8286
 6873TIP3    H120583   6.759   6.236   1.472 -1.0245 -0.0532  1.1740
 6873TIP3    H220584   6.694   6.373   1.476 -1.2399 -0.0612 -0.9892
 6874TIP3   OH220585   1.256   3.698   3.568  0.4311  0.0845 -0.0696
 6874TIP3    H120586   1.209   3.624   3.528  0.1373  0.6399 -0.7634
 6874TIP3    H220587   1.192   3.769   3.571  1.2341  0.8859 -1.1207
 6875TIP3   OH220588   5.895   6.792   4.936 -0.0501  0.4458 -0.1790
 6875TIP3    H120589   5.937   6.716   4.977  1.4972  2.1520  1.5683
 6875TIP3    H220590   5.806   6.793   4.971  0.3638  0.2292  0.9184
 6876TIP3   OH220591   6.073   6.424   4.737  0.1640  0.1882 -0.0221
 6876TIP3    H120592   6.043   6.430   4.827 -0.7616  1.1355 -0.3645
 6876TIP3    H220593   6.081   6.330   4.720 -1.9961 -0.1303  0.3283
 6877TIP3   OH220594   3.935   6.133   4.454 -0.1492  0.2331 -0.5151
 6877TIP3    H120595   3.986   6.213   4.443 -0.5125  0.7021  0.8930
 6877TIP3    H220596   3.932   6.094   4.367  1.7113  0.7164 -0.8426
 6878TIP3   OH220597   3.406   5.689   0.389 -0.4827 -0.4652 -0.8456
 6878TIP3    H120598   3.461   5.699   0.311 -1.4903 -1.1252 -1.6636
 6878TIP3    H220599   3.431   5.763   0.445  0.0299  0.2074 -1.9241
 6879TIP3   OH220600   2.924   2.624   5.498 -0.1853 -0.0625 -0.4118
 6879TIP3    H120601   2.936   2.529   5.501  1.3412  0.1130 -0.4203
 6879TIP3    H220602   2.879   2.640   5.415 -1.0403 -0.8213 -0.1110
 6880TIP3   OH220603   2.875   4.288   0.981  1.1826 -0.4495 -0.0433
 6880TIP3    H120604   2.804   4.228   0.955 -0.9914  0.1851  3.6929
 6880TIP3    H220605   2.856   4.369   0.933  1.1291 -1.1548 -1.2582
 6881TIP3   OH220606   4.261   0.765   3.299 -0.0034 -0.0786  0.0831
 6881TIP3    H120607   4.293   0.812   3.222 -0.6993 -1.0326 -0.8325
 6881TIP3    H220608   4.335   0.712   3.328 -0.0391 -0.4891 -0.5671
 6882TIP3   OH220609   5.608   3.603   1.632  0.0710  0.4476 -0.6742
 6882TIP3    H120610   5.518   3.589   1.602  0.3142 -1.2124 -0.7189
 6882TIP3    H220611   5.660   3.602   1.552  0.0633  2.5139 -0.7684
 6883TIP3   OH220612   1.260   5.204   2.883  0.5006 -0.1440  0.5365
 6883TIP3    H120613   1.288   5.181   2.972  0.3924  1.0067  0.8905
 6883TIP3    H220614   1.174   5.244   2.895 -0.0295 -1.0198 -0.2264
 6884TIP3   OH220615   3.702   2.462   4.117 -0.1137 -0.4055  0.1271
 6884TIP3    H120616   3.698   2.368   4.102 -1.3130 -0.2777 -0.5426
 6884TIP3    H220617   3.794   2.485   4.106 -0.0993 -1.2073 -1.6703
 6885TIP3   OH220618   5.937   1.812   2.627 -0.4864  0.0855  0.6610
 6885TIP3    H120619   5.850   1.793   2.662 -0.0440 -1.0377  1.2226
 6885TIP3    H220620   5.965   1.891   2.673 -1.9238  1.5534 -0.8691
 6886TIP3   OH220621   1.216   2.165   0.964 -0.0771  0.0171 -0.7084
 6886TIP3    H120622   1.215   2.147   1.058 -1.9379 -0.3014 -0.7563
 6886TIP3    H220623   1.272   2.097   0.927  0.3068 -0.1220  0.1177
 6887TIP3   OH220624   3.782   2.505   5.002  0.1434  0.4630 -0.2698
 6887TIP3    H120625   3.854   2.467   5.053 -0.4088 -0.0053  0.1643
 6887TIP3    H220626   3.704   2.491   5.055 -0.3800  0.3607 -1.0389
 6888TIP3   OH220627   5.306   1.447   2.310 -0.1311  0.1207  0.8596
 6888TIP3    H120628   5.312   1.541   2.299 -0.8577  0.0707 -0.1158
 6888TIP3    H220629   5.396   1.416   2.311  0.0937  0.6225 -0.8194
 6889TIP3   OH220630   0.722   3.347   4.040 -0.1343 -0.1462 -0.0525
 6889TIP3    H120631   0.747   3.291   3.966  0.9436  1.7028 -1.1781
 6889TIP3    H220632   0.796   3.407   4.051 -2.2133  2.8185 -0.7344
 6890TIP3   OH220633   1.337   4.223   3.352  0.1174  0.2453 -0.1047
 6890TIP3    H120634   1.405   4.262   3.407 -0.8975  1.6794  0.1832
 6890TIP3    H220635   1.330   4.282   3.277 -0.7970  0.0973 -0.1427
 6891TIP3   OH220636   3.001   2.830   0.036 -0.0204 -0.1391  0.0816
 6891TIP3    H120637   3.046   2.841   0.120 -1.0525  0.2641  0.6011
 6891TIP3    H220638   2.911   2.860   0.053 -0.1237  0.3645 -1.2888
 6892TIP3   OH220639   6.068   2.654   4.023 -0.1160  0.2240  0.3070
 6892TIP3    H120640   6.008   2.666   3.950  2.8007 -3.8531 -3.3449
 6892TIP3    H220641   6.126   2.730   4.020 -0.6387  0.5985 -1.0952
 6893TIP3   OH220642   4.715   6.403   0.009  0.3647 -0.1910 -0.0161
 6893TIP3    H120643   4.804   6.376  -0.014  0.3970  0.1755 -0.3333
 6893TIP3    H220644   4.726   6.484   0.059  0.2187 -0.2314  0.0829
 6894TIP3   OH220645   3.640   2.249   3.607 -0.5102 -0.3860  0.3612
 6894TIP3    H120646   3.653   2.155   3.621  0.3000 -0.1118  1.6518
 6894TIP3    H220647   3.700   2.271   3.536  0.2667 -0.6193  0.9306
 6895TIP3   OH220648   1.697   5.593   2.496 -0.0396  0.0395  0.0684
 6895TIP3    H120649   1.602   5.588   2.485 -0.3556  2.6984  0.9768
 6895TIP3    H220650   1.730   5.612   2.408 -0.5156  0.7261  0.0310
 6896TIP3   OH220651   6.180   5.335   4.810  0.2508  0.1471  0.1144
 6896TIP3    H120652   6.164   5.389   4.888  1.3034  1.2044 -0.3769
 6896TIP3    H220653   6.095   5.334   4.765  0.1069  1.0823  0.3336
 6897TIP3   OH220654   6.713   2.431   4.658 -0.1496  0.0603  0.1221
 6897TIP3    H120655   6.654   2.412   4.731 -0.8883 -1.1315 -0.7449
 6897TIP3    H220656   6.733   2.345   4.621  0.3841  0.6255 -0.9375
 6898TIP3   OH220657   0.873   1.672   2.702  0.1227 -0.0356  0.4307
 6898TIP3    H120658   0.804   1.624   2.747  0.4254 -0.7600  0.1481
 6898TIP3    H220659   0.901   1.613   2.632 -1.6414  1.7850 -1.9728
 6899TIP3   OH220660   1.325   6.302   4.228  0.2400  0.4513  0.0687
 6899TIP3    H120661   1.399   6.344   4.271 -0.4489  1.6338  0.1676
 6899TIP3    H220662   1.319   6.344   4.143 -0.9047  1.1117  0.4447
 6900TIP3   OH220663   0.877   0.964   3.768 -0.5719  0.0479 -0.1567
 6900TIP3    H120664   0.967   0.971   3.736 -0.2442  0.3319  0.7799
 6900TIP3    H220665   0.886   0.930   3.857 -1.4549 -0.7701 -0.3731
 6901TIP3   OH220666   6.211   1.182   1.001  0.1411 -0.2287 -0.2304
 6901TIP3    H120667   6.264   1.263   1.001  0.3887 -0.3857 -0.5005
 6901TIP3    H220668   6.178   1.176   0.911 -1.4215  0.5581  0.2586
 6902TIP3   OH220669   6.921   1.430   1.805  0.4066 -0.3970  0.1088
 6902TIP3    H120670   6.945   1.451   1.895  0.6609 -0.7266  0.1195
 6902TIP3    H220671   6.851   1.492   1.783 -0.0451 -0.6861  0.7185
 6903TIP3   OH220672   2.929   1.398   1.065 -0.4811  0.4042  0.5215
 6903TIP3    H120673   2.953   1.396   1.158 -0.9532 -1.6112  0.6393
 6903TIP3    H220674   2.834   1.411   1.065 -0.5401 -0.0056  0.3487
 6904TIP3   OH220675   0.988   5.911   2.753 -0.0100 -0.0345  0.1235
 6904TIP3    H120676   1.042   5.934   2.678  0.9816  0.0674  0.8515
 6904TIP3    H220677   1.042   5.852   2.805 -0.5761  0.1064  0.8926
 6905TIP3   OH220678   5.738   5.001   3.860 -0.1011 -0.3275 -0.9925
 6905TIP3    H120679   5.738   4.912   3.897  2.3749 -0.1913 -0.5073
 6905TIP3    H220680   5.785   4.992   3.777 -0.0764  0.5032 -1.0697
 6906TIP3   OH220681   2.122   5.769   2.141  0.0523  0.2583  0.0556
 6906TIP3    H120682   2.051   5.824   2.108 -2.3227 -0.7254  2.9986
 6906TIP3    H220683   2.176   5.828   2.194  0.8215  0.7846 -1.2759
 6907TIP3   OH220684   5.738   2.102   0.996 -0.2302  0.0287 -0.0445
 6907TIP3    H120685   5.742   2.117   0.902 -3.6407 -0.6055 -0.4268
 6907TIP3    H220686   5.783   2.018   1.009 -0.6417 -0.3922 -1.2621
 6908TIP3   OH220687   0.787   1.123   2.985  0.9092  0.3165  0.8098
 6908TIP3    H120688   0.838   1.188   2.936  1.4681 -1.8162 -1.7062
 6908TIP3    H220689   0.846   1.048   2.992 -0.8669 -1.1699  0.4476
 6909TIP3   OH220690   2.062   2.066   4.525  0.3691  0.1719  0.0776
 6909TIP3    H120691   2.098   1.987   4.565  1.1393 -0.7605 -2.2404
 6909TIP3    H220692   2.093   2.138   4.579 -0.0873 -1.0575  2.0810
 6910TIP3   OH220693   2.951   0.465   4.159  0.6027  0.3421  0.4039
 6910TIP3    H120694   3.013   0.536   4.172 -0.2311  1.0464  0.6876
 6910TIP3    H220695   2.932   0.432   4.247 -0.4902  1.0920  0.4728
 6911TIP3   OH220696   6.322   4.875   4.111  0.6449 -0.2587 -1.0263
 6911TIP3    H120697   6.335   4.793   4.159  0.9658  0.8959  0.9829
 6911TIP3    H220698   6.253   4.855   4.047 -2.3164 -1.0707  2.1355
 6912TIP3   OH220699   0.333   4.331   3.756  0.1355 -0.8468 -0.0781
 6912TIP3    H120700   0.256   4.343   3.700  0.6103  2.2577 -0.2282
 6912TIP3    H220701   0.407   4.323   3.696  0.2091 -1.6683  0.1031
 6913TIP3   OH220702   6.788   5.985   4.347 -0.7492  0.5777  0.0113
 6913TIP3    H120703   6.804   6.072   4.382  0.7985  1.4171 -2.5738
 6913TIP3    H220704   6.766   5.932   4.424  1.0007  2.5840  2.0161
 6914TIP3   OH220705   6.527   5.823   4.932 -0.0290 -0.1106 -0.0964
 6914TIP3    H120706   6.490   5.911   4.926 -2.4217 -0.9204  1.3516
 6914TIP3    H220707   6.555   5.815   5.023  0.9645 -0.5784 -0.4316
 6915TIP3   OH220708   1.869   1.442   0.320 -0.2493  0.2831  0.0270
 6915TIP3    H120709   1.962   1.456   0.336 -0.6831  0.8175  2.4750
 6915TIP3    H220710   1.846   1.506   0.253  1.2398 -0.3245 -1.1313
 6916TIP3   OH220711   0.707   3.459   2.095  1.1252 -0.1263 -0.6207
 6916TIP3    H120712   0.720   3.491   2.185  1.8900  0.4205 -0.9137
 6916TIP3    H220713   0.613   3.443   2.089  1.3186 -2.2732  0.9765
 6917TIP3   OH220714   0.933   3.484   2.996 -0.0639 -0.1660 -0.0486
 6917TIP3    H120715   0.929   3.576   2.972  1.3981 -0.0329  0.0936
 6917TIP3    H220716   1.020   3.473   3.036  0.8465 -2.0870 -2.2648
 6918TIP3   OH220717   1.940   5.989   2.112 -0.0490 -0.1204  0.8471
 6918TIP3    H120718   1.927   6.083   2.127 -0.2256 -0.1996  1.1882
 6918TIP3    H220719   1.895   5.971   2.030  1.2581  0.3966 -0.0217
 6919TIP3   OH220720   4.546   3.572   2.229 -0.4374 -0.1628  0.4108
 6919TIP3    H120721   4.600   3.536   2.299 -0.6089 -1.3534 -0.0563
 6919TIP3    H220722   4.457   3.569   2.263 -0.3981  0.3117  0.5654
 6920TIP3   OH220723   0.364   5.064   2.972  0.1421  0.0929 -0.2387
 6920TIP3    H120724   0.305   4.991   2.952  0.7267 -0.5166  0.2201
 6920TIP3    H220725   0.435   5.024   3.021  0.2781  1.0515  0.3567
 6921TIP3   OH220726   6.469   2.080   5.153 -0.1992  0.0662 -0.2586
 6921TIP3    H120727   6.385   2.035   5.144  0.1551 -0.2547 -2.8248
 6921TIP3    H220728   6.457   2.163   5.108  0.2090  1.0590  1.3849
 6922TIP3   OH220729   0.283   2.540   0.784 -0.0473  0.2913 -0.7287
 6922TIP3    H120730   0.247   2.623   0.815 -0.4846  1.0317 -3.0383
 6922TIP3    H220731   0.259   2.477   0.851 -0.5192  1.8517  0.6327
 6923TIP3   OH220732   6.789   2.150   2.034  0.2604 -0.6352 -0.6311
 6923TIP3    H120733   6.839   2.216   1.986 -1.2413  1.5443  0.6011
 6923TIP3    H220734   6.707   2.142   1.985  0.9273 -2.6681 -1.5143
 6924TIP3   OH220735   4.177   4.818   1.628  0.0132  0.3637 -0.7396
 6924TIP3    H120736   4.091   4.799   1.666 -0.1286  0.3229 -1.0788
 6924TIP3    H220737   4.224   4.863   1.698  0.4393 -1.4183  0.1775
 6925TIP3   OH220738   3.948   0.154   0.677  0.9135 -0.1181  0.3620
 6925TIP3    H120739   3.980   0.150   0.587  0.1247  3.0064 -0.1819
 6925TIP3    H220740   3.995   0.084   0.722  1.5471 -1.6340 -2.3714
 6926TIP3   OH220741   6.445   1.434   4.337 -0.3434 -0.0344  0.3302
 6926TIP3    H120742   6.433   1.347   4.375 -0.3202 -0.0856  0.2213
 6926TIP3    H220743   6.536   1.434   4.306 -0.6737 -0.3706 -0.6782
 6927TIP3   OH220744   1.238   6.405   5.138  0.0073 -0.9477  0.0301
 6927TIP3    H120745   1.213   6.417   5.046  1.2581  1.2335 -0.0974
 6927TIP3    H220746   1.191   6.475   5.184  1.6378 -0.1377  0.5555
 6928TIP3   OH220747   4.270   3.344   5.208  0.4293 -0.1906  0.1864
 6928TIP3    H120748   4.318   3.403   5.150 -3.2288  0.3720 -2.6202
 6928TIP3    H220749   4.282   3.257   5.168  0.2704 -0.2608  0.2930
 6929TIP3   OH220750   0.523   5.034   5.200  0.4415 -0.0404  0.3552
 6929TIP3    H120751   0.570   5.101   5.149  1.2988 -0.9485 -0.0809
 6929TIP3    H220752   0.561   5.041   5.288 -1.5987  2.0768  1.1782
 6930TIP3   OH220753   1.337   5.082   3.121  0.1798 -0.1290  0.7863
 6930TIP3    H120754   1.380   5.002   3.150 -0.8829 -0.8933  0.3268
 6930TIP3    H220755   1.407   5.148   3.117  1.0418 -1.0015  1.2729
 6931TIP3   OH220756   5.000   5.576   1.958  0.5234 -0.5717  0.0477
 6931TIP3    H120757   4.927   5.638   1.959  0.1401 -1.0005  1.3762
 6931TIP3    H220758   5.074   5.626   1.924  0.6961  1.2347  2.7789
 6932TIP3   OH220759   3.296   3.598   0.578  0.4277  0.7623 -0.1149
 6932TIP3    H120760   3.251   3.682   0.590 -0.0179  0.6351 -0.8209
 6932TIP3    H220761   3.315   3.595   0.484  0.0207 -0.1406 -0.1729
 6933TIP3   OH220762   6.186   1.118   0.314  0.2328  0.1219  0.1874
 6933TIP3    H120763   6.201   1.179   0.242  0.2213 -0.3509 -0.2190
 6933TIP3    H220764   6.272   1.080   0.331 -0.3836 -2.7415 -2.2798
 6934TIP3   OH220765   1.845   5.821   2.304 -0.1150  0.1128  0.3890
 6934TIP3    H120766   1.898   5.872   2.243  0.5367 -0.7607  0.2140
 6934TIP3    H220767   1.866   5.858   2.390 -1.1961  1.4863  0.1027
 6935TIP3   OH220768   1.169   3.777   3.240  0.1431  0.3032  0.2899
 6935TIP3    H120769   1.106   3.849   3.231 -1.4699 -0.8897  1.3877
 6935TIP3    H220770   1.244   3.817   3.285 -0.4870  1.4127  0.4020
 6936TIP3   OH220771   1.249   2.419   3.487  0.2689  0.4306 -0.1157
 6936TIP3    H120772   1.235   2.327   3.466  0.1387  0.6761 -1.2186
 6936TIP3    H220773   1.181   2.440   3.551 -0.6469  0.1091 -0.9570
 6937TIP3   OH220774   0.566   3.910   2.929  0.3303  0.3595 -0.1737
 6937TIP3    H120775   0.547   3.856   3.006  1.2095  0.2022 -0.0602
 6937TIP3    H220776   0.548   3.852   2.855 -2.5343  1.1257 -0.2099
 6938TIP3   OH220777   3.664   5.711   3.005  0.0157 -0.4204  0.0732
 6938TIP3    H120778   3.714   5.792   2.992 -0.6414  0.6039  3.0580
 6938TIP3    H220779   3.714   5.663   3.071 -1.3189 -0.8116  0.8427
 6939TIP3   OH220780   3.568   4.420   0.158  0.0861  0.0848  0.0403
 6939TIP3    H120781   3.604   4.364   0.089  1.4821 -1.0327  1.5945
 6939TIP3    H220782   3.499   4.367   0.198 -1.5488  1.1834 -1.1801
 6940TIP3   OH220783   4.802   0.547   4.333  0.1081  0.2713 -0.7801
 6940TIP3    H120784   4.870   0.486   4.361  0.0096  0.3489 -0.3523
 6940TIP3    H220785   4.805   0.546   4.238  1.0138  0.6124 -0.7565
 6941TIP3   OH220786   1.600   3.189   4.786  0.8302  0.4598 -0.1556
 6941TIP3    H120787   1.676   3.238   4.755 -0.4251  3.4911  1.2193
 6941TIP3    H220788   1.528   3.251   4.783 -1.2349 -1.7696  0.3309
 6942TIP3   OH220789   5.111   3.781   4.975 -0.2081  0.6003 -0.2819
 6942TIP3    H120790   5.142   3.808   4.889 -1.7305 -0.2737 -1.1573
 6942TIP3    H220791   5.069   3.697   4.959 -0.6741  0.5110  1.2966
 6943TIP3   OH220792   4.263   2.039   2.514 -0.6148 -0.1585 -0.3325
 6943TIP3    H120793   4.305   2.126   2.510  0.1516 -0.3894  1.4582
 6943TIP3    H220794   4.335   1.978   2.499 -0.9381 -0.5090 -0.4505
 6944TIP3   OH220795   2.100   4.818   0.472 -0.4198 -0.0264  0.4236
 6944TIP3    H120796   2.183   4.866   0.478 -0.5284  0.2740 -0.3689
 6944TIP3    H220797   2.089   4.802   0.379 -0.2976 -1.7794  0.6869
 6945TIP3   OH220798   0.055   1.277   1.635  0.1514  0.0025  0.2836
 6945TIP3    H120799   0.146   1.276   1.604  0.0513 -0.8952 -0.0051
 6945TIP3    H220800   0.044   1.193   1.678 -1.1137 -0.7073 -1.3524
 6946TIP3   OH220801   7.126   0.213   5.063 -0.7123 -0.7233  0.0194
 6946TIP3    H120802   7.083   0.210   4.978  0.7400 -0.2606 -0.7690
 6946TIP3    H220803   7.213   0.176   5.047  0.1011  0.7020  0.9657
 6947TIP3   OH220804   4.091   1.802   2.711 -0.1737 -0.6007 -0.9815
 6947TIP3    H120805   3.996   1.801   2.718 -0.1645  1.1077 -0.0130
 6947TIP3    H220806   4.114   1.714   2.683 -2.0084 -1.1803 -0.7915
 6948TIP3   OH220807   4.477   3.562   0.661  0.4573  0.3116 -0.1283
 6948TIP3    H120808   4.491   3.605   0.746 -2.5218  0.6460  0.3047
 6948TIP3    H220809   4.438   3.477   0.684  1.5741 -0.5055 -1.1418
 6949TIP3   OH220810   0.623   6.671   1.594  0.2371 -0.2764 -0.0264
 6949TIP3    H120811   0.610   6.689   1.687 -0.7014 -1.8273  0.1895
 6949TIP3    H220812   0.542   6.702   1.553  0.2882 -0.3816 -0.2051
 6950TIP3   OH220813   1.990   2.590   2.586 -0.5563  0.4254 -0.2482
 6950TIP3    H120814   2.064   2.595   2.646  0.9534  0.1907 -2.0186
 6950TIP3    H220815   1.986   2.498   2.560 -1.8359  0.3246  0.2060
 6951TIP3   OH220816   1.416   1.004   1.805  0.2649 -0.2909 -0.3782
 6951TIP3    H120817   1.405   1.066   1.733 -1.1366 -1.0757 -0.8730
 6951TIP3    H220818   1.389   1.051   1.883  1.6816  0.5300 -0.3416
 6952TIP3   OH220819   2.629   5.732   3.812  0.1078 -0.3050 -0.4682
 6952TIP3    H120820   2.549   5.779   3.787  0.6025  0.6413 -0.3261
 6952TIP3    H220821   2.700   5.780   3.768  0.8636  0.5107  1.5284
 6953TIP3   OH220822   0.088   5.380   2.163 -0.5300  0.6094  0.3911
 6953TIP3    H120823   0.020   5.430   2.119  0.7089  1.7435 -0.2975
 6953TIP3    H220824   0.136   5.445   2.214 -0.2311 -0.2496  1.2373
 6954TIP3   OH220825   0.841   0.982   4.525 -0.0453  0.2658 -0.1413
 6954TIP3    H120826   0.921   1.015   4.485  0.6619 -1.4490 -0.1969
 6954TIP3    H220827   0.868   0.945   4.609 -0.6936 -0.7439 -0.3603
 6955TIP3   OH220828   6.850   1.942   2.755 -0.5284 -0.1029  0.2165
 6955TIP3    H120829   6.794   1.866   2.743  0.5576 -0.8085 -0.5157
 6955TIP3    H220830   6.813   1.988   2.830 -2.0590 -0.5583 -0.2394
 6956TIP3   OH220831   1.058   0.398   5.369 -0.2568 -0.0610  0.3461
 6956TIP3    H120832   1.049   0.479   5.320  1.2011  0.0237  0.1811
 6956TIP3    H220833   1.011   0.333   5.316 -0.7862  0.5169  0.0994
 6957TIP3   OH220834   4.657   0.955   1.960  0.2197 -0.5453 -0.0419
 6957TIP3    H120835   4.607   0.876   1.940 -2.0913  0.3113  1.8234
 6957TIP3    H220836   4.700   0.936   2.043 -0.1820  0.0550  0.3108
 6958TIP3   OH220837   5.914   4.645   5.413  0.1046  0.0593  0.4669
 6958TIP3    H120838   5.932   4.617   5.323 -0.6496  0.3508  0.2128
 6958TIP3    H220839   6.000   4.650   5.454  0.7628  2.5555 -1.0227
 6959TIP3   OH220840   4.810   1.880   1.539 -0.0406 -0.1177  0.3400
 6959TIP3    H120841   4.789   1.910   1.450 -2.3345  0.2856  0.9520
 6959TIP3    H220842   4.803   1.959   1.593  0.2610 -0.5621  1.0377
 6960TIP3   OH220843   7.103   2.125   2.684  0.3390 -0.1445 -0.2456
 6960TIP3    H120844   7.162   2.071   2.632  0.0238 -0.0015 -0.7558
 6960TIP3    H220845   7.025   2.136   2.629 -0.1238 -0.2464  0.3722
 6961TIP3   OH220846   0.290   5.428   3.714  0.6251  0.0218  0.4249
 6961TIP3    H120847   0.195   5.417   3.712  0.7663 -1.3314 -1.3438
 6961TIP3    H220848   0.310   5.455   3.804 -1.2991 -0.9282  1.1803
 6962TIP3   OH220849   0.540   0.475   3.159  0.3833 -0.0495 -0.5938
 6962TIP3    H120850   0.456   0.506   3.191  1.6521  0.3146  2.8097
 6962TIP3    H220851   0.604   0.534   3.199  2.3313 -0.7560 -2.4751
 6963TIP3   OH220852   2.183   3.375   0.591  0.3788 -0.6110 -0.2581
 6963TIP3    H120853   2.098   3.397   0.553  1.6680  0.4770 -2.7993
 6963TIP3    H220854   2.183   3.415   0.677 -1.8541 -1.1339  0.0475
 6964TIP3   OH220855   1.613   4.165   0.114  0.2773 -0.2685 -0.0817
 6964TIP3    H120856   1.574   4.145   0.199  1.8640  0.8009  0.9626
 6964TIP3    H220857   1.539   4.171   0.054 -1.1919  1.5831  1.7513
 6965TIP3   OH220858   5.109   0.735   5.408  0.3666 -1.0944  0.3813
 6965TIP3    H120859   5.090   0.827   5.423 -0.8257 -1.4291  0.9729
 6965TIP3    H220860   5.204   0.729   5.417  0.4930  0.1229  0.0344
 6966TIP3   OH220861   0.711   1.516   0.036 -0.0197 -0.3882  0.5611
 6966TIP3    H120862   0.784   1.495  -0.022 -0.7863 -1.3661 -0.0702
 6966TIP3    H220863   0.635   1.474  -0.004 -0.9692  0.7186  1.1339
 6967TIP3   OH220864   6.201   5.924   2.726  0.1208  0.0235  0.3203
 6967TIP3    H120865   6.271   5.864   2.749  0.7777  0.2879 -0.8809
 6967TIP3    H220866   6.134   5.911   2.793  0.6902 -1.2913  0.6512
 6968TIP3   OH220867   0.231   0.026   5.439 -0.1396 -0.9702  0.4305
 6968TIP3    H120868   0.144   0.012   5.402 -0.5630  0.8161  0.6662
 6968TIP3    H220869   0.217   0.024   5.534 -0.5156  2.1243  0.5323
 6969TIP3   OH220870   5.702   1.622   0.657  0.2717 -0.1857 -0.2990
 6969TIP3    H120871   5.792   1.602   0.633  0.2790 -0.9669  0.3345
 6969TIP3    H220872   5.692   1.585   0.745  0.2058  2.3801  0.8724
 6970TIP3   OH220873   4.810   3.832   3.841 -0.4662 -0.5147  0.4398
 6970TIP3    H120874   4.772   3.813   3.927 -1.5156 -0.9213 -0.0951
 6970TIP3    H220875   4.903   3.810   3.850 -0.7341 -1.3871  1.2223
 6971TIP3   OH220876   4.631   5.250   1.345  0.2086  0.6123  0.5263
 6971TIP3    H120877   4.564   5.216   1.405  0.0083 -0.8357 -0.4614
 6971TIP3    H220878   4.685   5.307   1.400 -0.1927 -0.3672  2.0102
 6972TIP3   OH220879   7.176   2.701   4.999  0.4895 -0.1820 -0.3549
 6972TIP3    H120880   7.187   2.634   4.931  1.7396 -0.0444 -0.3288
 6972TIP3    H220881   7.192   2.784   4.953 -0.9022  0.1110 -0.3562
 6973TIP3   OH220882   2.978   0.788   5.603  1.1157  0.2882  0.7278
 6973TIP3    H120883   2.906   0.849   5.587  1.2189  0.7201  1.8396
 6973TIP3    H220884   2.946   0.704   5.571  0.0000  0.4149  1.4533
 6974TIP3   OH220885   2.197   3.835   5.125  0.2720  0.3592 -0.1349
 6974TIP3    H120886   2.120   3.801   5.080  1.1591  0.0099 -1.4246
 6974TIP3    H220887   2.171   3.923   5.154 -1.9326 -1.1169  2.9220
 6975TIP3   OH220888   2.055   6.115   3.671  0.5593 -0.4260 -0.1615
 6975TIP3    H120889   1.959   6.113   3.670  0.5524 -1.0619  0.6039
 6975TIP3    H220890   2.080   6.082   3.585  0.0946  0.4095 -0.6290
 6976TIP3   OH220891   4.189   4.809   3.525  0.0934  0.0070 -0.0018
 6976TIP3    H120892   4.250   4.819   3.598  0.9884 -0.3428 -0.6766
 6976TIP3    H220893   4.208   4.882   3.467 -1.2881  0.8468  0.5533
 6977TIP3   OH220894   2.896   4.062   2.098 -0.3397  0.3325  0.2883
 6977TIP3    H120895   2.949   4.126   2.145 -0.0871  1.7757 -1.8388
 6977TIP3    H220896   2.809   4.101   2.093 -0.6835 -0.3659  0.5515
 6978TIP3   OH220897   1.673   0.412   3.671  0.1544 -0.0623  0.1881
 6978TIP3    H120898   1.665   0.501   3.635 -0.3225 -0.4729 -0.7620
 6978TIP3    H220899   1.621   0.414   3.751 -1.6358 -0.0489 -0.9295
 6979TIP3   OH220900   3.328   5.090   3.196  0.0971 -0.3789  0.1196
 6979TIP3    H120901   3.242   5.111   3.233  0.4536 -0.3859  0.9597
 6979TIP3    H220902   3.308   5.052   3.110 -0.6403  1.6253 -0.6593
 6980TIP3   OH220903   1.905   4.271   3.944  0.2605  0.0865  0.6921
 6980TIP3    H120904   1.893   4.180   3.917  0.3184  0.0745  0.7072
 6980TIP3    H220905   1.822   4.314   3.922 -0.4853 -0.3904  2.3985
 6981TIP3   OH220906   5.980   5.860   1.192 -0.3075 -0.4565  0.3436
 6981TIP3    H120907   5.931   5.903   1.122  0.5302  1.6013  0.9596
 6981TIP3    H220908   5.961   5.912   1.270  1.7791 -0.4026  0.8632
 6982TIP3   OH220909   4.281   4.063   2.801 -0.2033 -0.5470 -0.3363
 6982TIP3    H120910   4.189   4.038   2.791 -0.8872  1.4489  0.4830
 6982TIP3    H220911   4.296   4.059   2.895  0.4273 -0.4987 -0.4346
 6983TIP3   OH220912   3.964   2.441   2.853 -0.3354  0.0315  0.2946
 6983TIP3    H120913   3.884   2.436   2.801 -0.1404 -0.1326  0.0069
 6983TIP3    H220914   4.000   2.352   2.850  0.0085  0.1706  0.1740
 6984TIP3   OH220915   0.340   5.329   2.934 -0.4208  0.1114  0.3385
 6984TIP3    H120916   0.352   5.240   2.967 -0.2757 -0.7844 -1.9875
 6984TIP3    H220917   0.337   5.320   2.839  2.0345  2.8497 -0.1473
 6985TIP3   OH220918   6.380   0.644   2.786  0.4508 -0.4285  0.4074
 6985TIP3    H120919   6.375   0.612   2.696  3.9831  0.1081 -0.1142
 6985TIP3    H220920   6.319   0.588   2.835 -1.3113 -0.9548 -2.1812
 6986TIP3   OH220921   1.505   5.583   4.966 -0.5290  0.0321  0.3046
 6986TIP3    H120922   1.478   5.640   4.894  0.5858  0.0363 -0.1241
 6986TIP3    H220923   1.600   5.593   4.970 -0.2729 -1.9922  0.0543
 6987TIP3   OH220924   4.478   0.659   1.156  0.3610  0.2862  0.2413
 6987TIP3    H120925   4.494   0.722   1.226  2.4693  0.3334 -0.1952
 6987TIP3    H220926   4.555   0.601   1.159  0.1008 -0.1986 -1.5050
 6988TIP3   OH220927   3.062   4.268   2.176 -0.1914  0.5464 -0.1323
 6988TIP3    H120928   3.075   4.299   2.086 -1.5315 -1.0341 -0.9158
 6988TIP3    H220929   3.142   4.219   2.196  0.1393  0.9559 -0.4319
 6989TIP3   OH220930   3.740   0.801   3.885 -0.2192  0.3935  0.4457
 6989TIP3    H120931   3.762   0.734   3.820 -1.7072  0.9058 -0.6289
 6989TIP3    H220932   3.802   0.785   3.957  2.2050  0.4454 -1.4728
 6990TIP3   OH220933   5.134   2.907   1.387 -0.0862  0.0058  0.0546
 6990TIP3    H120934   5.125   2.834   1.447 -1.4743  0.2700  0.1964
 6990TIP3    H220935   5.154   2.866   1.302 -0.1555 -0.4917  0.2745
 6991TIP3   OH220936   5.736   0.709   4.561 -0.2571  0.0746 -0.1761
 6991TIP3    H120937   5.663   0.766   4.538  0.7655  1.5742  0.1312
 6991TIP3    H220938   5.805   0.769   4.591  1.3040 -1.2278 -0.9719
 6992TIP3   OH220939   3.014   1.168   3.627 -0.5676 -0.4718  0.4614
 6992TIP3    H120940   3.089   1.122   3.664 -0.1170  0.7844  1.1939
 6992TIP3    H220941   2.962   1.100   3.584  0.5728 -1.4835  0.6332
 6993TIP3   OH220942   6.557   0.355   4.908 -0.6489 -0.5850  1.1229
 6993TIP3    H120943   6.583   0.433   4.860  1.4380 -1.3456  0.9338
 6993TIP3    H220944   6.522   0.297   4.840 -3.4881  0.6036  1.4370
 6994TIP3   OH220945   1.761   4.844   1.494 -0.4246 -0.5035 -0.1725
 6994TIP3    H120946   1.820   4.778   1.459  0.2389 -0.6948  1.2106
 6994TIP3    H220947   1.806   4.927   1.477 -1.7983 -0.2102 -2.9728
 6995TIP3   OH220948   6.345   5.626   5.681 -0.2989  0.5733 -0.1143
 6995TIP3    H120949   6.436   5.653   5.699  0.0656 -0.0782 -0.9159
 6995TIP3    H220950   6.310   5.600   5.766 -0.0071  1.6245  0.3423
 6996TIP3   OH220951   1.264   2.678   4.726 -0.7972 -0.6306  0.1352
 6996TIP3    H120952   1.306   2.710   4.647 -0.5045 -1.4584 -0.0549
 6996TIP3    H220953   1.190   2.626   4.694 -0.1035 -1.7834  0.3595
 6997TIP3   OH220954   3.292   2.086   0.712  0.4652 -0.1796  0.3196
 6997TIP3    H120955   3.287   2.179   0.732  1.2839 -0.2396  0.8706
 6997TIP3    H220956   3.243   2.075   0.631 -1.2121  0.4205  1.2084
 6998TIP3   OH220957   3.263   5.058   2.415 -0.5341 -0.1278 -0.0861
 6998TIP3    H120958   3.249   5.070   2.321  0.4229 -0.1666 -0.2502
 6998TIP3    H220959   3.336   4.996   2.420 -0.4470  0.0282  0.6804
 6999TIP3   OH220960   0.175   0.377   2.606  0.6039  0.0051  0.2151
 6999TIP3    H120961   0.102   0.425   2.566  1.6006 -0.1650 -1.9398
 6999TIP3    H220962   0.150   0.285   2.599 -0.1039  0.0252  1.9099
 7000TIP3   OH220963   5.921   0.465   4.846  0.3427  0.0220  0.6949
 7000TIP3    H120964   5.901   0.556   4.868  0.8943 -0.0462  1.5141
 7000TIP3    H220965   6.016   0.461   4.843  0.3913 -0.9154  2.4278
 7001TIP3   OH220966   6.022   0.358   2.001  0.5103 -0.0073  0.2427
 7001TIP3    H120967   5.992   0.280   1.954  1.7575 -0.3237 -0.0714
 7001TIP3    H220968   6.109   0.375   1.965  0.5741  1.0726  0.8721
 7002TIP3   OH220969   0.090   1.947   4.809  0.0587  0.0878  0.4609
 7002TIP3    H120970   0.052   1.987   4.731 -0.3541 -0.6427  0.2731
 7002TIP3    H220971   0.151   2.012   4.843  0.4280  0.3194 -0.6165
 7003TIP3   OH220972   1.479   6.712   3.865 -0.4064 -0.2586  0.1497
 7003TIP3    H120973   1.523   6.628   3.876 -1.3268 -0.6132  1.2246
 7003TIP3    H220974   1.388   6.690   3.849 -1.3551  0.5209  3.7748
 7004TIP3   OH220975   0.109   1.162   3.617 -0.5357  0.1581  0.8578
 7004TIP3    H120976   0.141   1.183   3.704 -2.9887 -0.6388  2.0411
 7004TIP3    H220977   0.084   1.247   3.579  0.0647  0.4531  1.1109
 7005TIP3   OH220978   5.748   3.115   4.998 -0.3839  0.0497 -0.1937
 7005TIP3    H120979   5.819   3.075   4.947 -0.1718  0.4333 -0.2034
 7005TIP3    H220980   5.697   3.041   5.030  1.3508 -0.3873  1.7706
 7006TIP3   OH220981   0.354   1.411   1.996  0.3247  0.2545  0.5976
 7006TIP3    H120982   0.394   1.473   2.057 -1.1839  1.4994  0.3612
 7006TIP3    H220983   0.428   1.375   1.947  1.2899  1.4141  1.1580
 7007TIP3   OH220984   5.518   1.678   3.569 -0.0174  0.4824 -0.2278
 7007TIP3    H120985   5.444   1.693   3.511  0.1774 -2.7030 -1.5524
 7007TIP3    H220986   5.592   1.719   3.524 -0.7442  3.1795  0.8265
 7008TIP3   OH220987   1.383   4.013   1.255 -0.0901 -0.2271 -0.1519
 7008TIP3    H120988   1.348   3.968   1.332  0.9952  1.2401  1.2755
 7008TIP3    H220989   1.445   3.951   1.217  2.1436  0.2367  2.3541
 7009TIP3   OH220990   1.537   0.263   5.484 -0.2753  0.3974  0.0813
 7009TIP3    H120991   1.450   0.271   5.445  0.1850 -0.6963 -1.2567
 7009TIP3    H220992   1.558   0.170   5.478  1.0377  0.6554  0.2876
 7010TIP3   OH220993   1.885   4.833   0.789  0.0292 -0.0231  0.0705
 7010TIP3    H120994   1.969   4.796   0.763  0.7941  1.7995 -0.2568
 7010TIP3    H220995   1.908   4.918   0.829 -1.6414  0.4821  0.0349
 7011TIP3   OH220996   3.299   1.797   0.277 -0.1606  0.6226  0.0610
 7011TIP3    H120997   3.331   1.732   0.215  0.5382  0.1762  0.8731
 7011TIP3    H220998   3.229   1.753   0.325 -0.3579  0.8015 -0.0589
 7012TIP3   OH220999   6.237   2.436   4.632  0.2807  0.0348  0.1813
 7012TIP3    H121000   6.205   2.497   4.699  1.8847 -0.4862  1.5077
 7012TIP3    H221001   6.310   2.483   4.591 -0.5008  0.2255 -1.0023
 7013TIP3   OH221002   6.743   6.129   5.202  0.1489  0.3165  0.0816
 7013TIP3    H121003   6.684   6.193   5.242 -2.0419 -1.0704 -0.7790
 7013TIP3    H221004   6.771   6.170   5.120  1.3054  1.4156  0.9757
 7014TIP3   OH221005   6.500   5.367   4.980 -0.0428 -0.5537  0.3908
 7014TIP3    H121006   6.502   5.384   4.885 -0.3052  0.9696  0.6375
 7014TIP3    H221007   6.576   5.311   4.995  0.6730  0.1240 -0.5521
 7015TIP3   OH221008   7.117   0.465   3.097 -0.6498  0.1506 -0.0010
 7015TIP3    H121009   7.101   0.551   3.137 -1.5997 -0.8000  1.7919
 7015TIP3    H221010   7.143   0.485   3.007  0.5790  2.3746  0.7530
 7016TIP3   OH221011   2.787   3.168   4.376 -0.3273  1.1276 -0.0834
 7016TIP3    H121012   2.792   3.109   4.301  0.5748  1.6792 -0.4813
 7016TIP3    H221013   2.743   3.118   4.444  1.4288 -0.4364 -0.0146
 7017TIP3   OH221014   5.054   3.646   5.570 -0.4405  0.5922  0.3675
 7017TIP3    H121015   5.032   3.704   5.643 -0.9658 -0.6366  1.2267
 7017TIP3    H221016   4.973   3.636   5.521 -0.8345 -0.7185  1.2083
 7018TIP3   OH221017   1.585   0.876   1.561 -0.2444  0.0365  0.0150
 7018TIP3    H121018   1.604   0.964   1.528 -1.2955  0.3626  0.2655
 7018TIP3    H221019   1.497   0.856   1.529 -0.5076 -0.4205  0.9996
 7019TIP3   OH221020   3.273   0.105   3.652  0.0251  0.4141 -0.6679
 7019TIP3    H121021   3.288   0.028   3.707  0.4678  1.7092  1.0908
 7019TIP3    H221022   3.343   0.165   3.675 -0.4824  1.4859 -1.7987
 7020TIP3   OH221023   0.609   2.454   3.091  0.8556 -0.3138  0.5900
 7020TIP3    H121024   0.662   2.427   3.016 -0.1889  0.2742 -0.3847
 7020TIP3    H221025   0.547   2.382   3.104  0.6820 -0.1725  0.5464
 7021TIP3   OH221026   3.675   5.799   2.553  0.8873  0.1274 -0.4064
 7021TIP3    H121027   3.740   5.746   2.507  0.2499 -2.9981  1.9501
 7021TIP3    H221028   3.593   5.750   2.543  0.2462  0.6223  1.8760
 7022TIP3   OH221029   6.339   1.338   2.481 -0.0762 -0.8499  0.0849
 7022TIP3    H121030   6.365   1.322   2.572  0.5575 -1.9473 -0.2854
 7022TIP3    H221031   6.385   1.418   2.457  0.1574 -0.8333  0.5691
 7023TIP3   OH221032   3.592   1.140   3.410  0.0561  0.1332  0.9338
 7023TIP3    H121033   3.641   1.174   3.336  2.5789 -1.5103  1.7127
 7023TIP3    H221034   3.575   1.048   3.387  1.1519 -0.4896  2.4553
 7024TIP3   OH221035   2.545   4.072  -0.020 -0.9017  0.2679  1.0820
 7024TIP3    H121036   2.487   4.038   0.048  0.4529  2.1164  3.3108
 7024TIP3    H221037   2.560   4.163   0.004  0.5159  0.7153 -1.1329
 7025TIP3   OH221038   3.959   2.772   4.486 -0.5125 -0.1107 -0.0952
 7025TIP3    H121039   3.887   2.788   4.547 -1.4960 -1.8667 -0.7086
 7025TIP3    H221040   3.915   2.752   4.403  0.5340 -3.2210 -0.0288
 7026TIP3   OH221041   6.190   3.228   5.007  0.0093 -0.1254 -0.6603
 7026TIP3    H121042   6.101   3.222   5.042  0.3516  0.2107  0.2921
 7026TIP3    H221043   6.183   3.288   4.933 -0.1289  1.8547  0.9016
 7027TIP3   OH221044   3.892   2.268   2.078  0.3224  0.4218 -0.0808
 7027TIP3    H121045   3.807   2.243   2.114 -0.0553 -0.6043 -1.6187
 7027TIP3    H221046   3.912   2.352   2.121 -0.7720 -0.0225  1.3726
 7028TIP3   OH221047   1.895   1.624   5.249  0.3076  0.0861  0.8285
 7028TIP3    H121048   1.868   1.637   5.158 -0.9260  0.8337  1.2745
 7028TIP3    H221049   1.956   1.551   5.245  0.8234  0.5562 -0.6900
 7029TIP3   OH221050   5.221   5.432   2.521  0.5523  0.0165 -0.0041
 7029TIP3    H121051   5.163   5.429   2.445  0.9225 -0.4899 -0.2679
 7029TIP3    H221052   5.219   5.524   2.548  0.2062  0.1497 -0.4584
 7030TIP3   OH221053   2.460   0.309   2.016 -0.0835 -0.4715  0.7090
 7030TIP3    H121054   2.365   0.322   2.021 -0.0064  1.2273 -0.9980
 7030TIP3    H221055   2.496   0.398   2.023  1.3445 -1.0334  0.6823
 7031TIP3   OH221056   6.622   3.632   4.824  0.0558 -0.6930  0.6609
 7031TIP3    H121057   6.570   3.704   4.859 -0.1713 -0.2364 -0.5520
 7031TIP3    H221058   6.627   3.569   4.896 -0.0747  0.3454  1.6147
 7032TIP3   OH221059   3.880   0.274   0.119 -0.1553  0.5717 -0.0167
 7032TIP3    H121060   3.906   0.252   0.030 -1.2287  0.6523 -0.3641
 7032TIP3    H221061   3.956   0.321   0.155  0.8410 -0.7005 -0.3900
 7033TIP3   OH221062   0.264   5.083   1.778  0.2357 -0.2512  0.3020
 7033TIP3    H121063   0.260   5.130   1.862  2.0890 -2.6887  1.8963
 7033TIP3    H221064   0.313   5.142   1.720 -1.7347  1.8139  0.5906
 7034TIP3   OH221065   5.276   1.160   1.020 -0.0707  0.3149 -0.2688
 7034TIP3    H121066   5.190   1.154   1.062  0.4879 -1.1618  0.7234
 7034TIP3    H221067   5.273   1.095   0.950  0.2652  0.2053 -0.1820
 7035TIP3   OH221068   3.666   5.294   1.146  0.7255 -0.1993 -0.0474
 7035TIP3    H121069   3.572   5.312   1.139  0.8836  0.2761 -1.4024
 7035TIP3    H221070   3.672   5.216   1.201 -0.6345 -1.6385 -1.7835
 7036TIP3   OH221071   2.459   3.840   5.033  0.1705 -0.6489  0.1696
 7036TIP3    H121072   2.365   3.843   5.049 -0.2274 -0.4716 -1.9091
 7036TIP3    H221073   2.488   3.931   5.044 -0.4737 -0.1233 -1.9121
 7037TIP3   OH221074   3.029   2.041   0.939 -0.1910  0.4140  0.0880
 7037TIP3    H121075   2.970   2.087   0.880  1.6782  0.9175 -1.4831
 7037TIP3    H221076   3.052   1.961   0.892 -0.1376 -0.0995  0.9737
 7038TIP3   OH221077   1.268   0.925   4.176 -0.1045 -0.1911 -1.0652
 7038TIP3    H121078   1.327   0.934   4.251  0.1116 -0.5629 -1.1856
 7038TIP3    H221079   1.189   0.884   4.213 -0.1719  0.0338 -0.9589
 7039TIP3   OH221080   2.225   3.080   4.595 -0.0660 -0.5005 -0.1286
 7039TIP3    H121081   2.303   3.134   4.586 -2.1262  2.4030 -3.6790
 7039TIP3    H221082   2.165   3.133   4.647 -0.9905 -0.8145 -0.8395
 7040TIP3   OH221083   7.187   1.140   4.796 -0.1595 -0.4626 -0.2851
 7040TIP3    H121084   7.151   1.145   4.708  1.1450 -2.0599 -0.9631
 7040TIP3    H221085   7.263   1.198   4.794 -2.3041  2.7095  1.0716
 7041TIP3   OH221086   2.239   1.712   0.851  0.4401  0.7461  0.3133
 7041TIP3    H121087   2.194   1.631   0.875  2.1997 -0.6406 -0.7842
 7041TIP3    H221088   2.305   1.724   0.919 -0.8046  2.1756  1.3310
 7042TIP3   OH221089   5.228   3.261   0.862 -0.3244  0.0436 -0.3606
 7042TIP3    H121090   5.269   3.268   0.948 -0.1151 -0.2249 -0.4369
 7042TIP3    H221091   5.227   3.167   0.843  0.0557  0.1363 -0.8546
 7043TIP3   OH221092   0.567   1.094   4.821 -0.2886  0.3537 -0.6899
 7043TIP3    H121093   0.493   1.066   4.766  0.5411 -1.9030 -0.7793
 7043TIP3    H221094   0.632   1.127   4.759  0.6700 -2.2451 -1.2217
 7044TIP3   OH221095   6.490   1.840   5.369  0.0090 -0.3619 -0.2790
 7044TIP3    H121096   6.464   1.907   5.431  0.6091 -0.8027  0.4709
 7044TIP3    H221097   6.416   1.832   5.309  0.1885  1.4205 -0.7809
 7045TIP3   OH221098   0.944   4.661   4.657  0.0754 -0.1514 -0.0118
 7045TIP3    H121099   0.884   4.733   4.677 -0.4081 -0.9759  1.6772
 7045TIP3    H221100   0.918   4.591   4.717  0.5165 -1.7547 -1.6236
 7046TIP3   OH221101   6.242   5.050   5.709  0.1124 -0.0317  0.2566
 7046TIP3    H121102   6.230   5.084   5.620  1.5876  1.0610  0.4462
 7046TIP3    H221103   6.182   4.975   5.714  1.8649 -1.7923 -2.5479
 7047TIP3   OH221104   4.568   5.083   4.540  0.1637 -0.3716  0.1775
 7047TIP3    H121105   4.484   5.090   4.495  0.2747  0.1277  0.0357
 7047TIP3    H221106   4.633   5.092   4.471  0.3456  1.2705  0.5178
 7048TIP3   OH221107   5.901   3.431   5.844 -0.0486 -0.1860 -0.4924
 7048TIP3    H121108   5.884   3.513   5.797 -1.5239 -0.5752 -0.6897
 7048TIP3    H221109   5.868   3.363   5.786  0.7351 -0.9009 -0.1237
 7049TIP3   OH221110   4.991   0.155   0.462 -0.4957  0.4197  0.2050
 7049TIP3    H121111   4.965   0.245   0.483 -2.1366  0.1252 -0.3889
 7049TIP3    H221112   4.919   0.102   0.496  0.0795 -0.6014 -0.1567
 7050TIP3   OH221113   4.286   0.582   4.755 -0.1205 -0.3777  0.0173
 7050TIP3    H121114   4.352   0.576   4.686  0.9413  2.1582  0.7089
 7050TIP3    H221115   4.271   0.675   4.766 -0.3998 -0.6782  3.0657
 7051TIP3   OH221116   6.598   1.207   0.631  0.1183 -0.4534  0.2084
 7051TIP3    H121117   6.522   1.205   0.574  0.0378  0.9775  0.2489
 7051TIP3    H221118   6.565   1.240   0.715  0.9227  1.0527 -0.0317
 7052TIP3   OH221119   4.853   3.470   4.018  0.1252 -0.3493 -0.0099
 7052TIP3    H121120   4.868   3.391   3.966 -2.2925 -0.3354 -0.8625
 7052TIP3    H221121   4.930   3.525   4.003  0.7482 -1.5501 -1.3119
 7053TIP3   OH221122   6.229   1.486   4.172  0.2241  0.1279 -0.4146
 7053TIP3    H121123   6.312   1.446   4.196 -0.0040 -0.1725 -0.1045
 7053TIP3    H221124   6.209   1.547   4.243  0.0695  0.0333 -0.3755
 7054TIP3   OH221125   4.527   0.918   1.262 -0.4549  0.2968  0.2147
 7054TIP3    H121126   4.619   0.894   1.275 -0.4817 -0.0506 -0.2310
 7054TIP3    H221127   4.506   0.972   1.338  0.5689  1.6995 -0.4544
 7055TIP3   OH221128   3.186   1.011   2.181  0.2343  0.5090 -0.6236
 7055TIP3    H121129   3.260   0.994   2.240  0.6472 -0.2779 -1.3431
 7055TIP3    H221130   3.204   1.097   2.145  0.9945  0.1841 -1.0492
 7056TIP3   OH221131   5.232   3.983   2.539 -0.4875 -0.6504 -0.1512
 7056TIP3    H121132   5.310   3.989   2.483 -1.2828  0.5369 -1.2000
 7056TIP3    H221133   5.266   3.963   2.626  0.9633 -0.5367 -0.6631
 7057TIP3   OH221134   2.582   4.587   2.564 -0.2835  0.2965  0.1115
 7057TIP3    H121135   2.601   4.647   2.637 -1.0182  2.8999 -1.6890
 7057TIP3    H221136   2.500   4.544   2.590 -0.4840  1.0991  0.8760
 7058TIP3   OH221137   3.868   5.911   0.799  0.6555 -0.2166 -0.1647
 7058TIP3    H121138   3.806   5.982   0.811 -0.6991 -1.4362  0.2308
 7058TIP3    H221139   3.839   5.867   0.719  0.0630 -1.7068  0.8288
 7059TIP3   OH221140   1.302   1.509   1.480  0.7011 -0.6029 -0.3013
 7059TIP3    H121141   1.245   1.435   1.457 -1.7376  1.9046 -3.2443
 7059TIP3    H221142   1.377   1.499   1.422  0.6559 -1.0652 -0.2875
 7060TIP3   OH221143   6.454   1.094   0.401 -0.2230  0.5021  0.4369
 7060TIP3    H121144   6.539   1.052   0.385 -0.9906 -0.8320 -0.3212
 7060TIP3    H221145   6.404   1.029   0.450 -1.6591  0.2206 -1.2861
 7061TIP3   OH221146   4.161   4.755   2.165  0.0133  0.3039  0.2685
 7061TIP3    H121147   4.142   4.662   2.171  0.4941  0.0829 -1.2437
 7061TIP3    H221148   4.256   4.760   2.156 -0.0489  0.9000 -0.1402
 7062TIP3   OH221149   2.637   0.287   5.841 -0.5891  0.3668 -0.2389
 7062TIP3    H121150   2.722   0.271   5.799 -1.0572  0.2427 -1.1537
 7062TIP3    H221151   2.654   0.272   5.934 -0.2273 -2.3399 -0.6604
 7063TIP3   OH221152   6.971   0.306   0.385  0.2752 -0.2124  0.0007
 7063TIP3    H121153   6.935   0.358   0.456 -0.5411 -1.7791  0.7959
 7063TIP3    H221154   6.977   0.366   0.311 -2.4499  0.5537  0.2971
 7064TIP3   OH221155   2.210   6.463   3.469 -0.6229 -0.0019 -0.2128
 7064TIP3    H121156   2.284   6.522   3.483 -1.1183  0.5732  0.0266
 7064TIP3    H221157   2.204   6.412   3.550  0.1309 -0.7724 -0.6163
 7065TIP3   OH221158   2.037   4.995   3.439  0.2286  0.3646  0.3634
 7065TIP3    H121159   1.987   4.933   3.493  0.5867 -0.9051 -0.6916
 7065TIP3    H221160   1.972   5.060   3.411 -0.3940 -0.0970  0.6973
 7066TIP3   OH221161   5.781   2.284   1.581 -0.0415  0.1487 -0.8901
 7066TIP3    H121162   5.707   2.344   1.564  0.7055  1.6415  0.7833
 7066TIP3    H221163   5.747   2.223   1.646  0.3564  1.2730  0.4167
 7067TIP3   OH221164   2.336   4.030   3.786  0.2839 -0.2819  0.2718
 7067TIP3    H121165   2.415   4.056   3.833  0.1346  1.2911 -0.2785
 7067TIP3    H221166   2.264   4.054   3.844  0.0892  1.8696 -0.7579
 7068TIP3   OH221167   2.608   6.706   3.257  0.4124 -0.3705  0.3739
 7068TIP3    H121168   2.614   6.619   3.298 -0.5031  0.1662  1.7393
 7068TIP3    H221169   2.515   6.726   3.258  0.5641  0.4044 -0.4253
 7069TIP3   OH221170   3.011   3.754   4.520 -0.8629  0.7391  0.2237
 7069TIP3    H121171   3.091   3.776   4.568 -0.8586  0.2934  0.4246
 7069TIP3    H221172   2.950   3.724   4.588 -0.3205 -1.5061 -0.1874
 7070TIP3   OH221173   0.177   6.118   1.192  0.1891  0.6042 -0.1510
 7070TIP3    H121174   0.260   6.078   1.218 -1.2512 -2.5213  0.0850
 7070TIP3    H221175   0.153   6.072   1.111 -1.7657  0.6930  0.3336
 7071TIP3   OH221176   0.250   2.651   5.400 -0.1869 -0.2975  0.2842
 7071TIP3    H121177   0.340   2.632   5.425  0.1302  2.8304  1.9763
 7071TIP3    H221178   0.198   2.622   5.475 -0.4078 -0.4068  0.0917
 7072TIP3   OH221179   4.011   0.322   1.749 -0.4835 -0.5265  0.0811
 7072TIP3    H121180   4.087   0.291   1.700  0.1593 -1.3457  1.5275
 7072TIP3    H221181   3.948   0.251   1.742  0.0221 -1.1207  1.2921
 7073TIP3   OH221182   3.786   4.502   5.534  0.4185  0.3090 -0.1331
 7073TIP3    H121183   3.821   4.529   5.619 -3.4724 -0.4242  1.9542
 7073TIP3    H221184   3.759   4.411   5.547 -3.7833  1.2504 -0.6470
 7074TIP3   OH221185   4.809   4.255   2.064  0.1571 -0.0095  0.5192
 7074TIP3    H121186   4.761   4.172   2.055 -0.2704  0.2280  0.5934
 7074TIP3    H221187   4.780   4.289   2.148  0.6919 -0.0128  0.7029
 7075TIP3   OH221188   1.110   0.516   0.498  0.0159  0.2158  0.1519
 7075TIP3    H121189   1.192   0.468   0.483 -1.1411 -1.9372  0.3665
 7075TIP3    H221190   1.049   0.479   0.435 -1.2426  0.6131  1.1079
 7076TIP3   OH221191   2.123   0.405   1.293 -0.0550 -0.0446 -0.1179
 7076TIP3    H121192   2.216   0.414   1.270  0.2714  0.1596  1.1926
 7076TIP3    H221193   2.103   0.313   1.275  0.1422  0.1378 -1.2998
 7077TIP3   OH221194   0.626   1.644   5.006  0.7330  0.3976  0.6813
 7077TIP3    H121195   0.578   1.668   5.085 -0.3620 -0.5240  0.3279
 7077TIP3    H221196   0.629   1.549   5.007  1.9931  0.4134  0.3411
 7078TIP3   OH221197   2.193   1.179   5.221  0.0678  0.3171  0.3460
 7078TIP3    H121198   2.171   1.199   5.312  1.5280 -1.1262  1.0688
 7078TIP3    H221199   2.276   1.224   5.206  0.0053  0.2704 -0.1592
 7079TIP3   OH221200   5.978   3.919   3.967 -0.2807 -0.0662  0.0685
 7079TIP3    H121201   5.936   3.954   3.889 -1.4992 -3.2251 -0.8612
 7079TIP3    H221202   5.908   3.912   4.032 -0.4060 -1.8307 -0.2078
 7080TIP3   OH221203   1.619   0.381   3.386 -0.0670 -0.1055  0.1757
 7080TIP3    H121204   1.602   0.465   3.343 -0.0453 -0.3343 -0.2868
 7080TIP3    H221205   1.622   0.402   3.479 -0.3321  0.3616  0.0814
 7081TIP3   OH221206   2.251   0.810   1.400  0.2474 -0.1813  0.5780
 7081TIP3    H121207   2.345   0.795   1.406  0.2074 -0.3196  0.8815
 7081TIP3    H221208   2.227   0.781   1.312  0.6304  0.6466  0.1841
 7082TIP3   OH221209   1.732   4.554   2.985 -0.4355  0.0291  0.0728
 7082TIP3    H121210   1.726   4.469   2.943 -1.4335  0.4712 -0.7370
 7082TIP3    H221211   1.687   4.614   2.925  0.1398  1.1079  0.6717
 7083TIP3   OH221212   5.544   5.541   2.172 -0.0525 -0.8205  0.2883
 7083TIP3    H121213   5.533   5.448   2.151 -1.4305 -0.6303  0.0518
 7083TIP3    H221214   5.617   5.570   2.116 -1.6145 -1.0628 -2.0108
 7084TIP3   OH221215   0.133   0.274   0.353 -0.1288  0.0173 -0.4388
 7084TIP3    H121216   0.137   0.367   0.331  0.2161  0.1109 -0.0007
 7084TIP3    H221217   0.216   0.256   0.397  0.0956 -0.6613 -1.1227
 7085TIP3   OH221218   6.307   3.179   2.321  0.2175  0.2519  0.2183
 7085TIP3    H121219   6.310   3.104   2.261  0.6231  0.7051 -0.3507
 7085TIP3    H221220   6.246   3.153   2.389 -0.1224 -0.3567 -0.3006
 7086TIP3   OH221221   5.031   6.053   0.636  0.1010  0.6836 -0.3615
 7086TIP3    H121222   5.122   6.052   0.606 -0.0120  0.2816 -0.7023
 7086TIP3    H221223   5.021   5.972   0.685 -0.6323 -0.3235 -2.0706
 7087TIP3   OH221224   1.561   4.743   1.300 -0.8228  0.0321  0.2305
 7087TIP3    H121225   1.475   4.708   1.323 -2.1109  1.8610 -1.4772
 7087TIP3    H221226   1.560   4.832   1.333  0.7051 -0.1208  0.7606
 7088TIP3   OH221227   4.891   3.106   5.342 -0.3574 -0.3275  0.4633
 7088TIP3    H121228   4.859   3.113   5.252  0.9979 -0.5660 -0.0697
 7088TIP3    H221229   4.964   3.043   5.336  0.8302  0.9038  1.4164
 7089TIP3   OH221230   2.196   1.560   2.215 -0.0680 -0.2117  0.2849
 7089TIP3    H121231   2.211   1.557   2.120 -0.1202 -0.9359  0.2886
 7089TIP3    H221232   2.277   1.527   2.253 -0.6822 -1.7045  0.4013
 7090TIP3   OH221233   0.004   1.396   4.296  0.0641  0.9124 -0.8836
 7090TIP3    H121234   0.064   1.348   4.239 -1.1642  0.9169 -2.2159
 7090TIP3    H221235   0.057   1.417   4.373  0.6803 -2.4508 -0.2705
 7091TIP3   OH221236   0.349   6.752   1.489 -0.2008  0.2485 -0.3687
 7091TIP3    H121237   0.353   6.717   1.400  0.2096  0.2956 -0.3722
 7091TIP3    H221238   0.258   6.776   1.501 -0.1271  0.9245 -1.0418
 7092TIP3   OH221239   5.786   0.780   0.963 -0.2172  0.1908 -0.1601
 7092TIP3    H121240   5.864   0.725   0.974 -1.3358 -1.6428 -0.9126
 7092TIP3    H221241   5.783   0.833   1.042  1.5253 -0.0382  0.1016
 7093TIP3   OH221242   1.680   6.042   4.877  0.5259 -0.3130 -0.3988
 7093TIP3    H121243   1.624   6.003   4.943 -0.9459  0.3052 -1.2449
 7093TIP3    H221244   1.628   6.112   4.838  1.3652 -0.5848 -2.1451
 7094TIP3   OH221245   2.455   4.774   1.698 -0.5409  0.3011  0.3400
 7094TIP3    H121246   2.496   4.718   1.764 -0.2306  1.5623  1.2550
 7094TIP3    H221247   2.526   4.827   1.663 -0.4742 -1.1309 -1.9129
 7095TIP3   OH221248   5.568   5.477   4.167  0.1303  0.1919 -0.0904
 7095TIP3    H121249   5.545   5.385   4.159 -0.6507  0.1043  2.4353
 7095TIP3    H221250   5.652   5.478   4.213  0.0448  0.7501  0.0691
 7096TIP3   OH221251   4.147   3.840   4.557  0.1315 -0.0288 -0.1128
 7096TIP3    H121252   4.123   3.844   4.464 -2.1939  0.3364  0.4350
 7096TIP3    H221253   4.124   3.926   4.592 -0.2070 -0.5629  1.0449
 7097TIP3   OH221254   1.449   1.205   5.002 -0.4018  0.5026 -0.4946
 7097TIP3    H121255   1.382   1.165   4.946 -0.6813  1.2241 -0.6879
 7097TIP3    H221256   1.532   1.175   4.966 -0.6108 -1.1445  0.2943
 7098TIP3   OH221257   0.460   3.765   1.815  0.4009 -0.3849  0.1914
 7098TIP3    H121258   0.488   3.838   1.870 -2.1614  1.0042 -0.1720
 7098TIP3    H221259   0.484   3.791   1.726 -1.5015  0.6510 -0.0794
 7099TIP3   OH221260   6.910   2.777   5.758 -0.0118  0.7526  0.1719
 7099TIP3    H121261   6.976   2.764   5.827  1.8907 -0.0656 -1.7163
 7099TIP3    H221262   6.827   2.765   5.803  1.1746 -0.8365  2.1284
 7100TIP3   OH221263   3.121   4.464   1.312  0.0398  0.1019  0.5478
 7100TIP3    H121264   3.034   4.425   1.307  0.3934 -0.6852  0.4219
 7100TIP3    H221265   3.157   4.433   1.395  0.0077  0.8434  0.8467
 7101TIP3   OH221266   5.159   2.025   2.561 -0.4662  0.0221  0.5354
 7101TIP3    H121267   5.112   1.941   2.559 -1.8391  0.7509  0.8027
 7101TIP3    H221268   5.241   2.006   2.606 -0.1543 -1.4526 -0.5745
 7102TIP3   OH221269   2.280   2.289   5.076  0.6858  0.2396  0.0731
 7102TIP3    H121270   2.289   2.360   5.140  0.7230  0.6221 -0.3524
 7102TIP3    H221271   2.185   2.280   5.065  0.6911  1.2817 -1.0240
 7103TIP3   OH221272   0.482   5.546   4.416 -0.5308  0.1608  0.8919
 7103TIP3    H121273   0.511   5.455   4.406  0.6391  0.5933  0.1804
 7103TIP3    H221274   0.442   5.568   4.331  0.3668  0.7014  0.5935
 7104TIP3   OH221275   4.874   6.383   4.672 -0.2992 -0.3684 -0.4791
 7104TIP3    H121276   4.937   6.336   4.617 -1.3518 -0.9147 -1.2541
 7104TIP3    H221277   4.917   6.467   4.690  0.0658 -0.1516 -2.1941
 7105TIP3   OH221278   2.822   3.761   3.522 -0.0728 -0.2173  0.0350
 7105TIP3    H121279   2.879   3.686   3.542 -0.0683  0.1122  1.3432
 7105TIP3    H221280   2.749   3.752   3.583  0.0757  0.9939  0.4161
 7106TIP3   OH221281   3.852   0.996   2.547  0.3891 -0.1721  0.0528
 7106TIP3    H121282   3.766   0.953   2.542  0.7975 -1.3027  1.6677
 7106TIP3    H221283   3.897   0.970   2.467  0.1977 -1.8951  0.4511
 7107TIP3   OH221284   0.797   4.418   2.455 -0.5327 -0.1786 -0.3058
 7107TIP3    H121285   0.820   4.409   2.363 -0.4246  1.5833 -0.4824
 7107TIP3    H221286   0.704   4.393   2.459 -0.1058 -1.9374 -0.5499
 7108TIP3   OH221287   1.498   6.762   1.966 -0.1317  0.1753  0.0830
 7108TIP3    H121288   1.482   6.783   2.058 -1.3279  0.1040 -0.0854
 7108TIP3    H221289   1.591   6.778   1.953  0.1314 -0.2010  1.4048
 7109TIP3   OH221290   1.529   6.067   0.618 -0.9302 -0.3315  0.4813
 7109TIP3    H121291   1.542   6.157   0.589  1.1049 -0.7610 -0.1004
 7109TIP3    H221292   1.449   6.039   0.573 -0.8206  0.7568 -0.4456
 7110TIP3   OH221293   6.276   0.373   4.052  1.2885 -0.1953  0.0883
 7110TIP3    H121294   6.286   0.394   4.144  0.8088 -0.7243  0.2693
 7110TIP3    H221295   6.365   0.356   4.021  1.2575 -3.2110  1.2528
 7111TIP3   OH221296   0.858   4.933   1.825  0.2910  0.7320  0.6918
 7111TIP3    H121297   0.816   4.854   1.860 -0.1033  1.0386  0.9310
 7111TIP3    H221298   0.875   4.987   1.903  1.2340  0.5692  0.6090
 7112TIP3   OH221299   6.065   0.857   3.750  0.0105  0.0907 -0.4691
 7112TIP3    H121300   5.977   0.892   3.734 -1.2981 -1.1303  3.1570
 7112TIP3    H221301   6.063   0.768   3.712 -0.3448  0.0361 -0.3196
 7113TIP3   OH221302   5.599   5.135   0.497  0.0859 -0.1230  0.3052
 7113TIP3    H121303   5.667   5.094   0.442 -0.0774  0.4202 -0.3146
 7113TIP3    H221304   5.516   5.104   0.459 -0.0285  0.2282  0.2687
 7114TIP3   OH221305   7.178   1.739   3.115  0.0771  0.3778  0.5076
 7114TIP3    H121306   7.129   1.658   3.098  0.1228  0.2169  1.1225
 7114TIP3    H221307   7.169   1.789   3.034 -0.6365  0.1122  0.4104
 7115TIP3   OH221308   6.144   0.245   1.644  0.2667  0.5336 -0.0930
 7115TIP3    H121309   6.211   0.304   1.609 -0.7941  1.3704 -0.7552
 7115TIP3    H221310   6.194   0.180   1.694  1.7121  0.2438 -1.7973
 7116TIP3   OH221311   5.190   0.138   4.279  0.2284  0.9282  0.0893
 7116TIP3    H121312   5.112   0.160   4.228 -0.5653  0.8867  1.2457
 7116TIP3    H221313   5.242   0.218   4.280  1.4224  0.2986 -2.7052
 7117TIP3   OH221314   2.110   3.749   0.050  0.0147  0.0448 -0.2651
 7117TIP3    H121315   2.033   3.715   0.005  0.7323 -1.7570 -0.2478
 7117TIP3    H221316   2.174   3.763  -0.020  0.5712 -1.1564 -0.0270
 7118TIP3   OH221317   1.734   4.784   4.059  0.0052 -0.5124  0.2429
 7118TIP3    H121318   1.700   4.720   4.122 -0.7441 -0.4553 -0.0979
 7118TIP3    H221319   1.679   4.861   4.071 -0.4767 -0.6740 -0.8384
 7119TIP3   OH221320   3.102   3.230   4.734 -0.0695 -0.3191 -0.0866
 7119TIP3    H121321   3.166   3.301   4.729  0.2121 -0.5049  0.6550
 7119TIP3    H221322   3.021   3.268   4.701 -0.4275  0.9663  2.1144
 7120TIP3   OH221323   2.279   1.031   0.158  0.3004 -0.6408 -0.4166
 7120TIP3    H121324   2.369   1.042   0.127  0.2948 -0.5249 -0.3922
 7120TIP3    H221325   2.243   1.120   0.159  0.7172 -0.4626  1.1968
 7121TIP3   OH221326   6.737   2.285   0.938 -0.2361 -0.4358  0.0954
 7121TIP3    H121327   6.750   2.200   0.981  0.1684 -0.2023  0.4504
 7121TIP3    H221328   6.728   2.264   0.845 -1.6902 -1.0013  0.3458
 7122TIP3   OH221329   7.115   5.790   3.553 -0.0614 -0.1443 -0.2938
 7122TIP3    H121330   7.187   5.845   3.522 -0.4821  0.1530 -0.7742
 7122TIP3    H221331   7.036   5.839   3.529 -0.4508  1.2858  3.3169
 7123TIP3   OH221332   6.137   5.784   3.305  0.1711  0.1088  0.3856
 7123TIP3    H121333   6.101   5.724   3.240 -0.3740  0.5247  0.2928
 7123TIP3    H221334   6.212   5.826   3.261  0.5739 -0.5188  0.4654
 7124TIP3   OH221335   3.203   2.457   1.843 -0.3141 -0.2918 -0.3056
 7124TIP3    H121336   3.131   2.520   1.836 -0.5230 -0.4721  0.1579
 7124TIP3    H221337   3.276   2.506   1.879  0.0454  0.0802 -1.4977
 7125TIP3   OH221338   4.298   0.327   1.687 -0.2160 -0.2665  0.4720
 7125TIP3    H121339   4.355   0.255   1.711  1.3884  0.1360 -1.7647
 7125TIP3    H221340   4.325   0.399   1.744  2.7146  0.3678 -1.5116
 7126TIP3   OH221341   0.239   0.353   0.785  0.0124 -0.3542  0.0515
 7126TIP3    H121342   0.290   0.371   0.707  0.2027 -1.0853 -0.0029
 7126TIP3    H221343   0.201   0.266   0.769  0.4403 -0.7222  0.9635
 7127TIP3   OH221344   6.591   1.535   3.371  0.2467  0.6787 -0.0465
 7127TIP3    H121345   6.640   1.613   3.398  0.3442  0.1773  1.2485
 7127TIP3    H221346   6.501   1.553   3.397  0.6088 -0.4942  2.2552
 7128TIP3   OH221347   2.588   3.058   5.215  0.3921  0.1207  0.1758
 7128TIP3    H121348   2.603   2.993   5.146  0.2539 -0.7493  0.9422
 7128TIP3    H221349   2.494   3.075   5.211  0.1823 -0.7888  0.8727
 7129TIP3   OH221350   1.262   5.468   3.301  0.1934 -0.2638 -0.2532
 7129TIP3    H121351   1.177   5.473   3.258 -0.0567 -1.9817 -0.0271
 7129TIP3    H221352   1.279   5.557   3.331 -0.5769  0.5482 -2.0672
 7130TIP3   OH221353   1.993   6.026   0.229  0.3671  0.2448  0.3097
 7130TIP3    H121354   2.007   5.982   0.146 -1.5971 -0.5758  0.3539
 7130TIP3    H221355   2.003   5.957   0.295 -2.2535 -0.1213  0.4154
 7131TIP3   OH221356   3.836   6.273   2.016 -0.6924 -0.2330  0.3610
 7131TIP3    H121357   3.789   6.322   2.084 -0.1384 -0.4936  0.9416
 7131TIP3    H221358   3.866   6.194   2.060  0.0611 -0.1925 -0.0738
 7132TIP3   OH221359   6.262   5.250   1.113 -0.3426  0.3688 -0.3885
 7132TIP3    H121360   6.266   5.185   1.043 -0.7506 -0.4604  0.3419
 7132TIP3    H221361   6.344   5.299   1.105 -0.4124  0.3340 -1.4739
 7133TIP3   OH221362   4.124   0.809   5.191 -0.0492 -0.4844 -0.5652
 7133TIP3    H121363   4.166   0.788   5.275 -1.9343  0.2389  0.6267
 7133TIP3    H221364   4.164   0.892   5.164  0.8385 -0.9129 -0.5924
 7134TIP3   OH221365   2.312   1.023   2.368  0.2775  0.4342  0.0097
 7134TIP3    H121366   2.355   1.052   2.288 -1.8603  1.7374 -0.7694
 7134TIP3    H221367   2.327   1.094   2.431  1.2578 -0.2140  0.5333
 7135TIP3   OH221368   3.350   4.073   1.279 -0.0883  0.5270 -0.6292
 7135TIP3    H121369   3.315   3.984   1.274 -0.4307  0.5401  0.9535
 7135TIP3    H221370   3.405   4.073   1.357 -2.4076  2.4186  1.1694
 7136TIP3   OH221371   5.785   3.022   3.313 -0.1174 -0.2750  0.6577
 7136TIP3    H121372   5.821   3.073   3.241 -0.0770  0.4827  1.2006
 7136TIP3    H221373   5.690   3.021   3.297  0.0580 -1.8352 -0.4907
 7137TIP3   OH221374   2.656   1.680   3.771 -0.0267  0.8089  0.7205
 7137TIP3    H121375   2.581   1.622   3.757  0.1776  0.6188  0.3893
 7137TIP3    H221376   2.647   1.746   3.702  0.8735 -0.0138 -0.2210
 7138TIP3   OH221377   3.741   2.965   1.486  0.3823 -0.5682 -0.1595
 7138TIP3    H121378   3.674   2.906   1.451  0.4658 -1.3571  0.9734
 7138TIP3    H221379   3.747   3.035   1.420 -1.7308 -0.3378 -0.1957
 7139TIP3   OH221380   2.106   6.276   4.711 -0.3255 -0.4568  0.7636
 7139TIP3    H121381   2.022   6.321   4.713  0.9958  2.2897 -0.1577
 7139TIP3    H221382   2.133   6.280   4.619  1.2267 -0.4200  1.1929
 7140TIP3   OH221383   2.416   5.227   0.397 -0.9054 -0.0670 -0.8243
 7140TIP3    H121384   2.340   5.244   0.452 -0.6823 -1.0372 -0.1967
 7140TIP3    H221385   2.491   5.237   0.456 -0.6020 -0.0331 -1.2151
 7141TIP3   OH221386   4.935   4.759   0.331 -0.3243 -0.0430  0.9348
 7141TIP3    H121387   4.975   4.685   0.378  1.2355  0.6967  0.8519
 7141TIP3    H221388   4.858   4.781   0.382 -0.0839 -0.8959  1.6981
 7142TIP3   OH221389   0.443   4.458   0.502 -0.4906 -0.4457  0.0888
 7142TIP3    H121390   0.422   4.378   0.551  0.0171 -0.9850 -0.5613
 7142TIP3    H221391   0.358   4.495   0.480 -0.7856  0.6090  2.6085
 7143TIP3   OH221392   0.503   4.445   4.424  0.0480  0.5743  0.1284
 7143TIP3    H121393   0.580   4.391   4.404  0.6746  0.4438  2.5473
 7143TIP3    H221394   0.527   4.532   4.393  0.4920  0.1917 -0.6315
 7144TIP3   OH221395   0.585   1.901   0.033 -0.7536 -0.1476 -0.2712
 7144TIP3    H121396   0.616   1.912  -0.057 -0.8652  0.9074 -0.1942
 7144TIP3    H221397   0.582   1.990   0.068 -1.9877 -0.4054  0.3445
 7145TIP3   OH221398   5.413   6.054   4.499 -0.3229 -0.2339  0.0129
 7145TIP3    H121399   5.469   6.014   4.432  0.3198  3.4672 -1.9484
 7145TIP3    H221400   5.325   6.023   4.478 -0.1883  0.9819 -2.9337
 7146TIP3   OH221401   5.636   6.737   0.278 -0.2165  0.1126 -0.1459
 7146TIP3    H121402   5.645   6.654   0.233 -1.2577  0.1121 -0.3932
 7146TIP3    H221403   5.720   6.751   0.321 -0.5572 -1.9176  1.3451
 7147TIP3   OH221404   4.470   6.519   0.552 -0.2210 -0.1049  0.1741
 7147TIP3    H121405   4.378   6.496   0.562 -0.1399 -0.6341 -0.2067
 7147TIP3    H221406   4.517   6.454   0.605 -0.1510  1.3287  1.9287
 7148TIP3   OH221407   3.841   0.963   5.396 -0.0169  1.3125 -0.4472
 7148TIP3    H121408   3.757   0.998   5.428 -1.0829  0.6871 -2.3695
 7148TIP3    H221409   3.894   1.041   5.379  0.5275  1.6849  2.4466
 7149TIP3   OH221410   5.948   3.236   5.152 -0.0655  0.7599 -0.2454
 7149TIP3    H121411   5.861   3.212   5.120 -0.4152  1.6131  0.0367
 7149TIP3    H221412   5.939   3.235   5.247  0.5932 -0.4004 -0.1676
 7150TIP3   OH221413   4.684   1.854   4.708 -0.2180  0.0149  0.4020
 7150TIP3    H121414   4.596   1.888   4.692  0.6047  1.1781 -2.1162
 7150TIP3    H221415   4.676   1.759   4.700 -1.5244 -0.0496  2.0064
 7151TIP3   OH221416   2.066   5.912   5.423 -0.2482 -0.0298 -0.2805
 7151TIP3    H121417   2.062   5.926   5.328  0.5773 -0.7220 -0.4363
 7151TIP3    H221418   2.159   5.899   5.441 -0.5578 -1.5474  0.3594
 7152TIP3   OH221419   1.227   2.547   2.428  0.0352 -0.0192  0.3504
 7152TIP3    H121420   1.315   2.512   2.444  0.4744  1.0881  0.4758
 7152TIP3    H221421   1.237   2.642   2.440 -1.2612  0.0889  0.7263
 7153TIP3   OH221422   3.504   3.446   3.681 -0.2298 -0.3979 -0.8014
 7153TIP3    H121423   3.585   3.426   3.728 -0.5140  0.0421 -0.1077
 7153TIP3    H221424   3.532   3.504   3.610 -0.0173  0.3265 -0.1496
 7154TIP3   OH221425   0.748   1.025   1.564  0.1340  0.3119 -0.1480
 7154TIP3    H121426   0.831   1.037   1.611  0.1930 -1.2877  0.2367
 7154TIP3    H221427   0.758   1.075   1.484  0.8073  1.5146  0.6486
 7155TIP3   OH221428   1.985   0.679   0.442  0.2013 -0.0072  0.4471
 7155TIP3    H121429   1.951   0.601   0.398 -0.7215  0.3035  0.5891
 7155TIP3    H221430   1.968   0.751   0.381 -0.5713  0.3404  1.0582
 7156TIP3   OH221431   5.058   5.758   3.395 -0.0183 -0.7574 -0.2633
 7156TIP3    H121432   4.997   5.758   3.322  0.4993  0.7024 -0.7430
 7156TIP3    H221433   5.002   5.746   3.472 -0.6329 -1.7348 -0.8451
 7157TIP3   OH221434   6.772   3.082   1.163  0.4978  0.1831 -0.3216
 7157TIP3    H121435   6.806   3.135   1.090  1.2086 -2.3397 -1.9759
 7157TIP3    H221436   6.842   3.085   1.228  1.5352 -0.4758 -1.3530
 7158TIP3   OH221437   0.463   6.520   3.616  0.0983 -0.2858 -0.7589
 7158TIP3    H121438   0.453   6.515   3.521 -2.3766  1.7498 -0.7166
 7158TIP3    H221439   0.496   6.609   3.632 -0.6716 -0.1713  0.3025
 7159TIP3   OH221440   5.374   6.798   0.936  0.0195  0.0340  0.0613
 7159TIP3    H121441   5.421   6.731   0.887 -1.5412 -0.7322 -0.4532
 7159TIP3    H221442   5.341   6.859   0.869  0.4194  0.6705  0.4286
 7160TIP3   OH221443   4.814   0.167   4.090 -0.0505 -0.4550 -0.0001
 7160TIP3    H121444   4.723   0.149   4.065 -0.5986  1.7446  0.2492
 7160TIP3    H221445   4.811   0.181   4.184  0.4993 -0.1140 -0.0297
 7161TIP3   OH221446   0.042   4.698   2.894  0.8373 -0.5717 -0.5295
 7161TIP3    H121447  -0.005   4.645   2.830  1.2562 -0.4789 -0.9243
 7161TIP3    H221448  -0.022   4.718   2.962  0.3222 -0.4773 -1.0394
 7162TIP3   OH221449   2.158   5.293   4.829 -0.3943  0.1261  0.3353
 7162TIP3    H121450   2.230   5.315   4.888 -0.4567  0.0917  0.4237
 7162TIP3    H221451   2.201   5.277   4.745 -0.2926  0.0606  0.3989
 7163TIP3   OH221452   4.600   5.203   2.155 -0.1560 -0.7129  0.5813
 7163TIP3    H121453   4.650   5.285   2.151 -0.6270 -0.4280  0.3732
 7163TIP3    H221454   4.538   5.217   2.227  0.9879 -1.6009  1.7571
 7164TIP3   OH221455   7.171   6.249   5.148 -0.4366 -0.9092  0.1799
 7164TIP3    H121456   7.099   6.203   5.192  0.1127 -0.8336  1.1742
 7164TIP3    H221457   7.250   6.204   5.178  0.0927  0.5198  0.9839
 7165TIP3   OH221458   4.106   1.471   5.389 -0.8889 -0.5934  0.0119
 7165TIP3    H121459   4.098   1.552   5.338 -3.3115 -1.9496 -1.9766
 7165TIP3    H221460   4.168   1.493   5.458  0.6512  2.1412 -2.0197
 7166TIP3   OH221461   4.121   2.858   1.748  0.6293 -0.0807 -0.1774
 7166TIP3    H121462   4.103   2.903   1.830  0.1741  0.3475 -0.5025
 7166TIP3    H221463   4.034   2.846   1.708  0.9028  0.3401 -0.9115
 7167TIP3   OH221464   6.736   5.722   4.230  0.1000 -0.2130  0.1027
 7167TIP3    H121465   6.698   5.654   4.286  0.2200  1.5790  2.5026
 7167TIP3    H221466   6.766   5.790   4.291  0.3865  1.8074 -2.1410
 7168TIP3   OH221467   4.646   0.453   2.114  0.6985 -0.3226 -0.2637
 7168TIP3    H121468   4.604   0.374   2.149  1.1476 -0.8230 -0.8362
 7168TIP3    H221469   4.710   0.477   2.181 -0.0442  0.0695  0.3142
 7169TIP3   OH221470   2.621   1.199   0.512 -0.2267  0.4790  0.0303
 7169TIP3    H121471   2.674   1.192   0.592 -1.6725 -2.0346  0.8606
 7169TIP3    H221472   2.551   1.259   0.535  1.6744  3.2470 -0.8461
 7170TIP3   OH221473   6.292   4.288   2.394 -0.0832 -0.6197  0.0514
 7170TIP3    H121474   6.289   4.245   2.479 -2.9212  0.9850  0.8926
 7170TIP3    H221475   6.348   4.365   2.408 -2.2274  0.8330  1.2058
 7171TIP3   OH221476   6.230   0.445   4.862  0.0559 -0.5312  0.1355
 7171TIP3    H121477   6.228   0.476   4.771 -0.4980  1.0533  0.6475
 7171TIP3    H221478   6.238   0.350   4.855  1.3325 -0.3482 -1.5513
 7172TIP3   OH221479   0.254   2.181   1.065 -0.3481  0.0948  0.0158
 7172TIP3    H121480   0.218   2.102   1.105  0.5435 -0.0055  0.6459
 7172TIP3    H221481   0.183   2.215   1.010 -0.4417 -1.6450 -1.0133
 7173TIP3   OH221482   4.687   3.206   0.260 -0.1698 -0.2048  0.7744
 7173TIP3    H121483   4.593   3.190   0.267 -0.2741  0.4267  0.9088
 7173TIP3    H221484   4.707   3.267   0.332 -0.1967  1.9104 -0.9179
 7174TIP3   OH221485   3.368   4.116   5.058 -0.4189 -0.0276 -0.0842
 7174TIP3    H121486   3.382   4.113   5.153  1.6624  1.5692 -0.2609
 7174TIP3    H221487   3.366   4.024   5.031  2.2016 -0.5395  1.1622
 7175TIP3   OH221488   3.823   0.483   3.329 -0.2710 -0.3737  0.2923
 7175TIP3    H121489   3.907   0.493   3.284  0.4177 -0.6372  1.4822
 7175TIP3    H221490   3.786   0.571   3.331  0.4996 -0.0522  0.7511
 7176TIP3   OH221491   4.128   1.200   5.436  0.1657  0.7738 -0.6182
 7176TIP3    H121492   4.036   1.203   5.465 -0.6894  0.4991 -3.0880
 7176TIP3    H221493   4.150   1.291   5.418 -0.6051  0.5785 -2.7416
 7177TIP3   OH221494   1.341   4.091   3.810 -0.1776  0.2146 -0.1806
 7177TIP3    H121495   1.337   4.003   3.848  1.0592  0.8968  1.6844
 7177TIP3    H221496   1.374   4.078   3.722 -2.0011 -1.3464 -0.7028
 7178TIP3   OH221497   0.968   0.093   4.650 -0.1627  0.4578  0.4555
 7178TIP3    H121498   0.997   0.003   4.668 -1.2469 -0.0729 -0.3845
 7178TIP3    H221499   0.966   0.099   4.555 -0.1865  1.3585  0.5060
 7179TIP3   OH221500   5.529   5.180   4.200  0.0765  0.3539 -0.2530
 7179TIP3    H121501   5.570   5.098   4.230  0.2817  0.4946 -0.1491
 7179TIP3    H221502   5.438   5.171   4.226  0.2397  0.4489  0.3746
 7180TIP3   OH221503   5.485   4.043   1.470  0.1723 -0.0917  0.4364
 7180TIP3    H121504   5.395   4.074   1.459  0.3680  0.4080  0.2475
 7180TIP3    H221505   5.505   4.000   1.387 -0.0787 -0.6869  0.6777
 7181TIP3   OH221506   1.224   0.545   3.817  0.3605 -0.2345 -0.0348
 7181TIP3    H121507   1.253   0.535   3.727  0.5575  0.2675 -0.0265
 7181TIP3    H221508   1.296   0.589   3.862 -0.8660  2.1640 -0.2961
 7182TIP3   OH221509   5.922   3.200   3.186 -0.6153 -0.6776  0.7530
 7182TIP3    H121510   6.013   3.221   3.206 -1.4687  1.4113  3.0720
 7182TIP3    H221511   5.912   3.218   3.093  0.4491  3.2345  1.2151
 7183TIP3   OH221512   2.673   2.533   2.118 -0.3665 -0.0628  0.1475
 7183TIP3    H121513   2.683   2.541   2.213  0.8884 -4.1451  0.5387
 7183TIP3    H221514   2.585   2.498   2.106 -0.4068  0.1458 -0.1680
 7184TIP3   OH221515   2.157   4.473   4.926 -0.2652  0.0825 -0.1988
 7184TIP3    H121516   2.208   4.543   4.966  1.4022 -1.4323  0.4368
 7184TIP3    H221517   2.217   4.398   4.923 -1.6291 -1.0163 -1.8569
 7185TIP3   OH221518   5.124   2.748   0.948  0.0189  0.2870 -0.3235
 7185TIP3    H121519   5.034   2.718   0.936 -0.3392  1.2817 -0.1803
 7185TIP3    H221520   5.177   2.669   0.939 -0.7610 -0.1150 -1.7442
 7186TIP3   OH221521   4.774   3.696   5.442  0.1592 -0.1131 -0.1391
 7186TIP3    H121522   4.763   3.641   5.365 -0.9830 -0.4331  0.2430
 7186TIP3    H221523   4.692   3.688   5.490  0.1853  1.4708  0.2236
 7187TIP3   OH221524   5.105   0.223   4.648  0.5067  0.5719  0.1412
 7187TIP3    H121525   5.158   0.260   4.718  0.8793  0.5906 -0.1523
 7187TIP3    H221526   5.136   0.133   4.639  0.7394  0.6916 -0.2771
 7188TIP3   OH221527   3.536   1.206   2.693 -0.2416 -0.4927 -0.4163
 7188TIP3    H121528   3.524   1.122   2.736  0.0386 -0.8097 -0.9363
 7188TIP3    H221529   3.448   1.233   2.668 -0.4561 -0.0614  0.7928
 7189TIP3   OH221530   6.198   3.032   4.674 -0.4319  0.1109  0.6692
 7189TIP3    H121531   6.271   3.092   4.664 -1.0227  0.7366  0.0052
 7189TIP3    H221532   6.129   3.069   4.619 -0.4295 -1.8246 -0.7189
 7190TIP3   OH221533   2.570   3.158   1.542  0.0495  0.4359 -0.3018
 7190TIP3    H121534   2.475   3.152   1.537  0.0469  0.3830 -0.2069
 7190TIP3    H221535   2.587   3.239   1.591  0.0396  0.1475  0.1895
 7191TIP3   OH221536   4.130   1.946   1.647 -0.4959 -0.6094  0.5367
 7191TIP3    H121537   4.145   1.917   1.557  1.1564 -2.0563  1.2130
 7191TIP3    H221538   4.171   1.878   1.701 -0.6560  0.6791  2.3706
 7192TIP3   OH221539   4.552   0.640   3.385 -0.1748 -0.2671 -0.1687
 7192TIP3    H121540   4.617   0.601   3.444 -0.6966 -0.1019  0.5301
 7192TIP3    H221541   4.598   0.649   3.301 -0.1172 -2.6658 -0.4582
 7193TIP3   OH221542   4.887   5.330   1.517  0.0031  0.1867 -0.3456
 7193TIP3    H121543   4.917   5.384   1.590  0.9211  0.1792 -0.7054
 7193TIP3    H221544   4.964   5.281   1.489 -1.0143 -2.1222  0.6213
 7194TIP3   OH221545   5.652   4.118   2.135  0.5823 -0.4248 -0.8724
 7194TIP3    H121546   5.659   4.092   2.043 -1.5307 -1.5877 -0.7771
 7194TIP3    H221547   5.731   4.085   2.176  1.5428  0.0767 -2.2465
 7195TIP3   OH221548   6.472   5.591   0.813  0.8243  0.4281 -0.9063
 7195TIP3    H121549   6.398   5.623   0.762  1.4415  0.6905 -1.6626
 7195TIP3    H221550   6.493   5.506   0.775  1.3016  0.6337 -1.1106
 7196TIP3   OH221551   3.428   1.541   2.115 -0.4691 -0.1087 -0.6141
 7196TIP3    H121552   3.476   1.533   2.032 -0.0099  0.7565 -0.4527
 7196TIP3    H221553   3.476   1.609   2.163 -2.4026  1.4941 -0.8312
 7197TIP3   OH221554   4.318   3.446   4.718 -0.0675  0.0286  0.3487
 7197TIP3    H121555   4.387   3.385   4.693 -0.2990  0.1183 -0.5501
 7197TIP3    H221556   4.239   3.410   4.677 -0.4483  0.2161  0.9169
 7198TIP3   OH221557   4.547   0.604   4.599 -0.0389  0.6227  0.0358
 7198TIP3    H121558   4.488   0.581   4.527  0.6647  2.0433 -1.0375
 7198TIP3    H221559   4.627   0.556   4.580 -0.5174 -0.6104  1.0155
 7199TIP3   OH221560   5.333   2.114   0.348  0.1364  0.5212  0.2805
 7199TIP3    H121561   5.406   2.077   0.298  0.2524  0.4055  0.5323
 7199TIP3    H221562   5.288   2.038   0.385 -0.7308  0.5269 -0.7095
 7200TIP3   OH221563   2.415   0.109   5.916  0.2351  0.1508  0.2330
 7200TIP3    H121564   2.375   0.126   5.831 -0.5354  0.1362  0.5791
 7200TIP3    H221565   2.427   0.015   5.920 -0.8397  0.0188  0.6092
 7201TIP3   OH221566   2.641   3.011   4.539  0.0938 -0.0673 -0.1332
 7201TIP3    H121567   2.669   2.987   4.627 -0.3093 -1.8234 -0.4447
 7201TIP3    H221568   2.580   2.942   4.514 -1.3284  1.4576 -1.0442
 7202TIP3   OH221569   0.903   5.010   3.702 -0.6728 -0.1881  0.0932
 7202TIP3    H121570   0.927   5.090   3.656 -0.3924 -0.0309  0.5098
 7202TIP3    H221571   0.859   5.040   3.781 -0.6690 -0.4508  0.1965
 7203TIP3   OH221572   4.670   2.485   5.109  0.0882  0.0346  0.3643
 7203TIP3    H121573   4.578   2.458   5.113 -0.2151  0.8011 -0.8003
 7203TIP3    H221574   4.695   2.498   5.200 -1.3245  0.9125  0.6654
 7204TIP3   OH221575   2.846   0.952   3.528 -0.0110 -0.9791  0.5717
 7204TIP3    H121576   2.760   0.928   3.493 -0.6501  0.0492  1.3835
 7204TIP3    H221577   2.854   0.900   3.608 -0.1246 -0.6486  0.7967
 7205TIP3   OH221578   2.762   1.161   5.338  0.8695 -0.1460  0.2735
 7205TIP3    H121579   2.785   1.069   5.330 -1.6612 -0.8088 -0.3965
 7205TIP3    H221580   2.754   1.191   5.247 -1.9908 -0.3749  0.3532
 7206TIP3   OH221581   0.918   5.474   0.678 -0.3353 -0.5862  0.0697
 7206TIP3    H121582   1.009   5.500   0.667  0.2361 -1.9547  1.2276
 7206TIP3    H221583   0.915   5.384   0.644 -1.4033 -0.3440 -0.5156
 7207TIP3   OH221584   1.029   3.933   0.179 -0.3295  0.1416  0.1012
 7207TIP3    H121585   0.965   3.876   0.221  0.1514 -0.5702 -0.1237
 7207TIP3    H221586   0.979   3.982   0.114 -0.7046 -0.1634  0.1623
 7208TIP3   OH221587   1.902   6.306   5.878  0.8183  0.3128  0.0058
 7208TIP3    H121588   1.945   6.335   5.798 -1.4850 -0.2222 -1.5132
 7208TIP3    H221589   1.851   6.382   5.907  1.2042  0.3251  0.6856
 7209TIP3   OH221590   3.471   5.058   1.550  0.0409  0.7135 -0.0546
 7209TIP3    H121591   3.508   5.005   1.480  0.6598  0.1055  0.7099
 7209TIP3    H221592   3.548   5.093   1.597 -0.3594  1.1757  0.2658
 7210TIP3   OH221593   1.954   3.040   4.920  0.1932  0.0751 -0.3129
 7210TIP3    H121594   1.880   2.980   4.910 -0.1263  0.5869 -1.1776
 7210TIP3    H221595   1.941   3.080   5.006 -0.0980 -0.4146 -0.1215
 7211TIP3   OH221596   3.669   6.071   4.371 -0.1214  0.0376 -0.1529
 7211TIP3    H121597   3.736   6.111   4.427 -1.2760  2.4872 -0.3948
 7211TIP3    H221598   3.635   5.999   4.423  2.0795 -0.7379  0.3258
 7212TIP3   OH221599   3.312   5.000   2.916  0.4696  0.1452  0.5046
 7212TIP3    H121600   3.405   4.980   2.923  0.0763 -1.5524  1.2687
 7212TIP3    H221601   3.303   5.039   2.829  1.8338  0.0534  0.2984
 7213TIP3   OH221602   1.467   4.161   4.940 -0.3951 -0.3570 -0.4106
 7213TIP3    H121603   1.545   4.108   4.926 -1.0397 -0.9502 -1.9558
 7213TIP3    H221604   1.444   4.146   5.032 -0.0438 -2.0552 -0.5652
 7214TIP3   OH221605   3.274   1.798   4.486 -0.1356  0.0047  0.1127
 7214TIP3    H121606   3.280   1.881   4.437 -1.1019  0.2296  0.3606
 7214TIP3    H221607   3.243   1.824   4.573 -1.0626 -0.6709  0.0015
 7215TIP3   OH221608   4.827   1.703   4.376 -0.0015  0.1749  0.2947
 7215TIP3    H121609   4.849   1.781   4.428 -0.0047  0.4338 -0.0925
 7215TIP3    H221610   4.907   1.651   4.377  0.8522  1.3365 -1.5098
 7216TIP3   OH221611   0.149   5.481   1.872  0.0763 -0.1819  0.0130
 7216TIP3    H121612   0.104   5.469   1.789 -1.7698 -1.2937  1.1045
 7216TIP3    H221613   0.234   5.438   1.861 -0.1015 -0.2138 -1.3060
 7217TIP3   OH221614   3.471   0.027   0.389 -0.0116 -0.0515 -0.0980
 7217TIP3    H121615   3.549   0.003   0.338  0.2620  1.9674 -0.7574
 7217TIP3    H221616   3.415   0.073   0.326  0.0848  2.0340  1.2498
 7218TIP3   OH221617   4.721   0.151   0.264 -0.0110 -0.5408 -0.0316
 7218TIP3    H121618   4.728   0.199   0.347 -2.3018 -0.1525  0.0002
 7218TIP3    H221619   4.670   0.072   0.286  0.5806 -1.1511 -0.8008
 7219TIP3   OH221620   2.659   2.357   1.900  0.9250  0.4115 -1.1279
 7219TIP3    H121621   2.625   2.400   1.822  1.7276  0.2960 -1.5475
 7219TIP3    H221622   2.675   2.428   1.962 -2.9426  0.2839  0.2854
 7220TIP3   OH221623   6.666   1.610   0.904  0.1361  0.3197 -0.3079
 7220TIP3    H121624   6.743   1.566   0.940 -0.6945  0.0031  1.1496
 7220TIP3    H221625   6.637   1.668   0.974 -0.8127  0.6009 -0.9208
 7221TIP3   OH221626   6.065   1.156   5.440 -0.5584  0.2332  0.2215
 7221TIP3    H121627   6.056   1.225   5.374  0.5654 -0.0129 -0.2192
 7221TIP3    H221628   6.042   1.075   5.393  0.8644 -0.0206 -0.0746
 7222TIP3   OH221629   4.290   2.341   5.768  0.0318 -0.6674  0.0003
 7222TIP3    H121630   4.240   2.276   5.818 -2.7409 -0.0156 -1.7187
 7222TIP3    H221631   4.249   2.424   5.789 -1.1876 -0.3440 -3.1278
 7223TIP3   OH221632   0.607   6.770   1.850 -0.3628  0.5621 -0.5362
 7223TIP3    H121633   0.657   6.721   1.916 -1.2764 -0.3533 -0.4957
 7223TIP3    H221634   0.517   6.741   1.863 -1.5121  4.3493  1.3818
 7224TIP3   OH221635   3.992   5.062   0.853  0.3857  0.2643  0.7146
 7224TIP3    H121636   4.013   5.067   0.759 -1.1529  1.3444  0.3904
 7224TIP3    H221637   3.940   4.982   0.861  0.5887  0.1259  0.6712
 7225TIP3   OH221638   6.346   0.398   4.320  0.6243  0.8641 -0.2373
 7225TIP3    H121639   6.379   0.312   4.295  0.7553  1.3225 -1.7022
 7225TIP3    H221640   6.396   0.420   4.399 -0.0727 -0.7777  0.7130
 7226TIP3   OH221641   1.778   5.019   1.915 -0.0712  0.3461  0.0278
 7226TIP3    H121642   1.817   5.085   1.973  1.6633  0.8746 -1.6194
 7226TIP3    H221643   1.842   4.948   1.913  0.0474  0.4610 -1.3996
 7227TIP3   OH221644   6.534   2.797   5.682  0.5402 -0.7288 -0.2129
 7227TIP3    H121645   6.538   2.877   5.629 -0.8275 -1.1632 -1.0440
 7227TIP3    H221646   6.616   2.795   5.730  0.2385  1.6738  0.5429
 7228TIP3   OH221647   2.778   5.898   0.853  0.0150  0.0062 -0.2213
 7228TIP3    H121648   2.709   5.832   0.850  0.1336 -0.1121 -0.4145
 7228TIP3    H221649   2.815   5.897   0.764  1.0295 -0.7497  0.1856
 7229TIP3   OH221650   0.716   2.591   1.576 -0.3026  0.0752 -0.1122
 7229TIP3    H121651   0.803   2.612   1.543  0.2636 -1.2509  0.4562
 7229TIP3    H221652   0.712   2.631   1.663  0.5493 -1.5279  0.7197
 7230TIP3   OH221653   3.447   0.871   0.155 -0.2432 -0.8228  0.0718
 7230TIP3    H121654   3.438   0.960   0.190 -3.0065 -0.2202 -1.7929
 7230TIP3    H221655   3.376   0.822   0.196  0.1499 -1.7046 -0.2739
 7231TIP3   OH221656   5.873   3.938   3.018 -0.2483 -0.2401 -0.2362
 7231TIP3    H121657   5.839   3.884   3.089 -0.3955  0.0202 -0.1112
 7231TIP3    H221658   5.802   3.997   2.995 -0.6358 -1.0979 -1.4009
 7232TIP3   OH221659   4.063   2.673   2.749  0.4477  0.4020 -0.1599
 7232TIP3    H121660   4.032   2.736   2.815  2.3221  0.6824  0.5314
 7232TIP3    H221661   4.039   2.588   2.784 -0.9917  0.6588 -0.4798
 7233TIP3   OH221662   4.406   1.511   4.522  0.5852  0.2561 -0.5766
 7233TIP3    H121663   4.438   1.501   4.611 -2.8980  0.6582  0.8842
 7233TIP3    H221664   4.401   1.422   4.487  0.8693 -0.0154  0.0620
 7234TIP3   OH221665   4.343   5.919   5.867 -0.1457  0.9892 -0.0444
 7234TIP3    H121666   4.250   5.934   5.883 -0.3871 -0.7475  0.3806
 7234TIP3    H221667   4.345   5.850   5.801  0.8219  0.0858  0.8975
 7235TIP3   OH221668   0.577   4.451   5.850  0.1032 -0.1383  0.3521
 7235TIP3    H121669   0.608   4.361   5.860 -0.2538 -0.3150 -0.1218
 7235TIP3    H221670   0.482   4.445   5.857  0.1502  0.4052  1.7999
 7236TIP3   OH221671   6.532   6.709   2.925  0.1293  0.1399  0.8695
 7236TIP3    H121672   6.542   6.619   2.955  0.2258 -0.4437 -0.7724
 7236TIP3    H221673   6.441   6.732   2.943 -0.1219 -0.5928  0.5693
 7237TIP3   OH221674   2.834   6.450   2.150  0.3385 -0.0499 -0.0575
 7237TIP3    H121675   2.854   6.385   2.083  0.4138  0.2207 -0.3002
 7237TIP3    H221676   2.920   6.481   2.180  0.3100  0.8649 -0.8560
 7238TIP3   OH221677   1.171   5.849   3.786  0.0480 -0.3286 -0.4960
 7238TIP3    H121678   1.136   5.844   3.875  1.0543 -0.0540 -0.0581
 7238TIP3    H221679   1.102   5.814   3.730 -0.5599 -0.6077  0.4053
 7239TIP3   OH221680   1.942   0.161   4.283  0.0124  0.8172  0.3077
 7239TIP3    H121681   1.979   0.073   4.278  1.7163  1.5292 -0.2632
 7239TIP3    H221682   1.870   0.160   4.219 -0.4651 -0.3427  0.8227
 7240TIP3   OH221683   4.002   0.787   3.623 -0.1435 -0.4975 -0.6007
 7240TIP3    H121684   3.980   0.877   3.646  0.7762 -0.5649  0.6305
 7240TIP3    H221685   3.933   0.760   3.563 -1.9906  0.1287  1.1343
 7241TIP3   OH221686   6.554   0.827   5.364  0.8507  0.7238  0.5437
 7241TIP3    H121687   6.507   0.910   5.370 -0.8267 -0.2671  2.0001
 7241TIP3    H221688   6.575   0.804   5.454  3.0420  0.4642  0.0225
 7242TIP3   OH221689   0.193   4.872   4.937  0.7740 -0.8523 -0.0383
 7242TIP3    H121690   0.206   4.820   4.857 -1.0885 -0.5284 -0.5848
 7242TIP3    H221691   0.230   4.958   4.916  1.1368 -1.0446 -0.2018
 7243TIP3   OH221692   6.435   3.112   4.139  0.0335  0.0576  0.4597
 7243TIP3    H121693   6.357   3.167   4.129  0.8075  0.9107 -1.3335
 7243TIP3    H221694   6.506   3.174   4.155  0.6055 -0.5741  0.4107
 7244TIP3   OH221695   2.416   4.274   1.513  0.0866  0.2928 -0.0606
 7244TIP3    H121696   2.358   4.318   1.575 -0.0713 -0.0517  0.0400
 7244TIP3    H221697   2.373   4.285   1.428 -0.7165 -0.9022  0.1539
 7245TIP3   OH221698   6.589   0.751   2.570 -0.2044  0.7518 -0.3252
 7245TIP3    H121699   6.570   0.778   2.660 -0.0921  2.9972 -0.9129
 7245TIP3    H221700   6.681   0.775   2.557  0.1088 -0.5928 -0.7102
 7246TIP3   OH221701   5.756   6.174   4.665 -0.5957  0.0219 -0.3927
 7246TIP3    H121702   5.808   6.204   4.590 -0.2449  0.9518  0.1993
 7246TIP3    H221703   5.797   6.092   4.692  1.3573  1.2955  0.7824
 7247TIP3   OH221704   2.341   5.260   2.196 -0.1820 -0.3048  0.0830
 7247TIP3    H121705   2.347   5.329   2.130 -1.3014 -0.1916  0.0743
 7247TIP3    H221706   2.273   5.291   2.257  0.3240 -0.7368  0.8874
 7248TIP3   OH221707   6.608   2.970   3.212 -0.1938 -0.4936 -0.4566
 7248TIP3    H121708   6.524   2.926   3.197 -1.3717  1.6103 -0.3659
 7248TIP3    H221709   6.590   3.034   3.281  2.4280 -2.4468  2.3358
 7249TIP3   OH221710   3.037   2.555   0.537  0.2805  0.3539 -0.2178
 7249TIP3    H121711   2.955   2.572   0.582  0.1989  1.2667 -0.6816
 7249TIP3    H221712   3.102   2.549   0.607 -0.2173 -0.6509  0.1696
 7250TIP3   OH221713   6.177   5.430   3.980  0.4868  0.4897  0.0251
 7250TIP3    H121714   6.240   5.394   3.919  0.6229 -1.4212  1.2215
 7250TIP3    H221715   6.092   5.405   3.944  0.4569  1.3629 -0.5497
 7251TIP3   OH221716   5.835   2.579   4.729 -0.3721 -0.2508  0.0245
 7251TIP3    H121717   5.800   2.567   4.640  1.6436 -3.1320 -0.5322
 7251TIP3    H221718   5.757   2.580   4.785 -1.7422  2.3543 -1.7228
 7252TIP3   OH221719   3.001   0.738   2.029 -0.4269 -0.4589  0.1540
 7252TIP3    H121720   2.988   0.800   2.100  0.0729 -1.0103  0.7393
 7252TIP3    H221721   3.091   0.707   2.040 -0.2527 -0.3541 -0.8792
 7253TIP3   OH221722   6.297   0.979   2.566 -0.3793  0.5060  0.1240
 7253TIP3    H121723   6.352   0.924   2.511 -1.2329 -0.0392 -0.1895
 7253TIP3    H221724   6.354   1.053   2.589  0.4775 -0.0340 -0.2020
 7254TIP3   OH221725   5.944   0.978   4.963 -0.4584  0.0679 -0.1507
 7254TIP3    H121726   6.008   0.907   4.952 -0.8201 -0.4541  0.9569
 7254TIP3    H221727   5.964   1.039   4.892  0.7125 -0.5028 -0.3447
 7255TIP3   OH221728   5.445   0.903   5.832 -0.9150 -0.0227 -0.4517
 7255TIP3    H121729   5.506   0.904   5.906 -1.0871 -2.0932 -0.2303
 7255TIP3    H221730   5.484   0.963   5.768  1.8647 -1.9191 -0.6923
 7256TIP3   OH221731   6.122   4.754   3.075  0.3411 -0.0955 -0.1616
 7256TIP3    H121732   6.084   4.678   3.119 -0.3900 -0.1243 -0.8038
 7256TIP3    H221733   6.167   4.717   2.999  0.6783  0.0440 -0.0308
 7257TIP3   OH221734   0.073   0.998   3.389  0.0315  0.2488 -0.3048
 7257TIP3    H121735   0.078   1.026   3.481 -1.9197 -1.4969  0.4076
 7257TIP3    H221736   0.028   1.069   3.345  0.5964  0.9155  0.1636
 7258TIP3   OH221737   0.651   4.828   3.298  0.3650  0.1303 -0.0687
 7258TIP3    H121738   0.654   4.834   3.394 -1.6850  2.6045 -0.0565
 7258TIP3    H221739   0.601   4.748   3.281 -1.1463  0.7956  1.0301
 7259TIP3   OH221740   4.774   4.042   4.874 -0.3250 -0.8233  0.1859
 7259TIP3    H121741   4.782   4.025   4.780  2.7271 -0.1866  0.2281
 7259TIP3    H221742   4.748   4.134   4.879  2.2108  0.0081 -0.1641
 7260TIP3   OH221743   6.754   1.321   5.345  0.3250 -0.0879  0.3712
 7260TIP3    H121744   6.796   1.401   5.312  0.0643  0.1866  0.7078
 7260TIP3    H221745   6.736   1.269   5.266 -0.4716  0.6527  0.0586
 7261TIP3   OH221746   2.661   3.323   5.470 -0.4153  0.1978  0.5660
 7261TIP3    H121747   2.743   3.281   5.443 -1.2667 -1.2322  0.1124
 7261TIP3    H221748   2.601   3.307   5.398 -1.5988 -0.2732  1.6295
 7262TIP3   OH221749   6.881   5.425   3.724 -0.1660 -0.0594 -0.2206
 7262TIP3    H121750   6.808   5.476   3.757 -3.4283 -1.9441 -3.6796
 7262TIP3    H221751   6.848   5.336   3.717  3.1726 -1.4756 -0.2498
 7263TIP3   OH221752   3.376   0.489   2.301 -0.1188  0.3147  0.4597
 7263TIP3    H121753   3.389   0.458   2.211  2.5345 -0.2346  0.9408
 7263TIP3    H221754   3.308   0.432   2.336 -1.1441  0.4830 -1.1553
 7264TIP3   OH221755   0.443   1.848   0.948 -0.4212 -0.7289 -0.0463
 7264TIP3    H121756   0.489   1.775   0.907 -1.3747 -0.1657 -2.3169
 7264TIP3    H221757   0.499   1.924   0.931 -1.0449 -0.4140 -0.7532
 7265TIP3   OH221758   3.753   4.647   0.963  0.3467  0.0148  0.0027
 7265TIP3    H121759   3.809   4.718   0.932 -1.4181  1.5143  0.0987
 7265TIP3    H221760   3.686   4.638   0.895  0.3722 -1.3963  0.1278
 7266TIP3   OH221761   4.000   5.937   0.135 -0.1055  0.3862  0.4000
 7266TIP3    H121762   4.083   5.960   0.092  0.2931  1.1882  1.5384
 7266TIP3    H221763   3.941   5.914   0.063  0.3346  2.2911 -0.6453
 7267TIP3   OH221764   4.318   5.966   5.418  0.0666 -0.4877  0.0911
 7267TIP3    H121765   4.287   6.026   5.350 -0.0416 -0.7472 -0.0942
 7267TIP3    H221766   4.342   6.022   5.491  0.1463 -0.2072 -0.1492
 7268TIP3   OH221767   2.515   1.641   0.602 -0.2565  1.0716  0.1531
 7268TIP3    H121768   2.564   1.621   0.682 -0.9259 -1.5964  0.0162
 7268TIP3    H221769   2.580   1.635   0.532 -0.0230  1.5912  0.3205
 7269TIP3   OH221770   2.950   3.516   3.118  0.0973 -0.0339  0.0511
 7269TIP3    H121771   2.946   3.428   3.157  1.0513 -0.1603 -0.1132
 7269TIP3    H221772   2.934   3.575   3.191 -0.5121 -0.3377  0.1729
 7270TIP3   OH221773   5.797   6.321   0.940  0.1905 -0.1723  0.0636
 7270TIP3    H121774   5.746   6.257   0.990  1.8752 -0.3234  1.7066
 7270TIP3    H221775   5.794   6.400   0.994 -0.3978  0.6157 -1.0870
 7271TIP3   OH221776   1.955   0.379   3.862 -0.1467 -0.2090  0.4765
 7271TIP3    H121777   1.898   0.390   3.938 -1.2176  0.2549 -0.3587
 7271TIP3    H221778   1.895   0.366   3.789  0.6574  2.5536 -0.8332
 7272TIP3   OH221779   3.998   2.728   1.100 -0.5747 -0.1228 -0.0106
 7272TIP3    H121780   3.945   2.806   1.087 -0.3519  0.2976  1.3606
 7272TIP3    H221781   4.013   2.726   1.195  0.7894 -0.9220 -0.2202
 7273TIP3   OH221782   0.940   5.356   4.238 -0.7069 -0.6077  0.1401
 7273TIP3    H121783   0.906   5.290   4.298 -2.7130  0.1518 -0.0718
 7273TIP3    H221784   0.914   5.440   4.277  2.2101  0.1538  0.6608
 7274TIP3   OH221785   3.250   4.720   3.036 -0.3855  0.5103 -0.0007
 7274TIP3    H121786   3.292   4.781   2.975  0.0493  0.2304  0.0138
 7274TIP3    H221787   3.196   4.776   3.092 -0.3428  0.8333 -0.2768
 7275TIP3   OH221788   0.892   2.978   3.261 -0.2257  0.8224 -0.3936
 7275TIP3    H121789   0.799   2.956   3.269  0.0331 -0.2239 -0.0581
 7275TIP3    H221790   0.904   3.057   3.314 -0.0285 -1.6676  3.7225
 7276TIP3   OH221791   5.227   1.288   3.862 -0.2182  0.2557 -0.4618
 7276TIP3    H121792   5.246   1.379   3.841 -2.0851  0.5154 -1.1975
 7276TIP3    H221793   5.219   1.245   3.777  0.1582 -0.4848 -0.1257
 7277TIP3   OH221794   2.324   2.778   2.614  0.1144  0.0298  0.1168
 7277TIP3    H121795   2.312   2.687   2.643 -0.0815  0.5114  1.6652
 7277TIP3    H221796   2.235   2.809   2.595  0.3237 -0.5969 -2.1563
 7278TIP3   OH221797   0.709   4.069   3.103 -0.2169  0.0880  0.2879
 7278TIP3    H121798   0.666   4.042   3.184  0.2446 -0.5940  0.3140
 7278TIP3    H221799   0.677   4.007   3.037  2.2257 -1.7823  0.7054
 7279TIP3   OH221800   0.840   1.902   5.031 -0.6013  0.2008 -0.1962
 7279TIP3    H121801   0.819   1.859   5.114  0.1125  0.6569  0.2353
 7279TIP3    H221802   0.930   1.931   5.042 -0.4484  0.1270 -1.2011
 7280TIP3   OH221803   3.334   1.578   3.801 -0.0187 -0.0672  0.2795
 7280TIP3    H121804   3.327   1.642   3.731 -0.3142  0.4753  0.7991
 7280TIP3    H221805   3.304   1.496   3.762 -0.4144  0.2837 -0.1559
 7281TIP3   OH221806   5.369   6.265   5.179  0.0536 -0.0661 -0.2814
 7281TIP3    H121807   5.396   6.174   5.190 -0.1123  0.0107  0.9278
 7281TIP3    H221808   5.273   6.262   5.178  0.0499  0.0788 -0.4391
 7282TIP3   OH221809   5.638   0.293   2.001  0.1334  0.4241 -0.2635
 7282TIP3    H121810   5.567   0.345   1.964 -0.8177  1.1829  2.3547
 7282TIP3    H221811   5.714   0.352   2.003 -0.4482  1.1827  1.0153
 7283TIP3   OH221812   2.477   1.835   5.304  0.3093  0.0340 -0.0757
 7283TIP3    H121813   2.540   1.854   5.373  1.3059  1.7406 -1.3645
 7283TIP3    H221814   2.420   1.911   5.302 -1.5323 -1.2484  0.6979
 7284TIP3   OH221815   4.968   1.061   5.020  0.1870  0.1325 -1.1445
 7284TIP3    H121816   5.014   1.138   4.986 -0.8628  1.0741 -0.5378
 7284TIP3    H221817   4.879   1.093   5.037 -0.1854 -1.1463 -0.5876
 7285TIP3   OH221818   4.677   5.270   4.868 -0.9941  0.0998  0.7265
 7285TIP3    H121819   4.755   5.319   4.893 -1.2878  1.0075 -0.0740
 7285TIP3    H221820   4.637   5.243   4.951 -0.0478 -0.0405  1.1460
 7286TIP3   OH221821   2.323   3.343   1.364 -0.1800  0.1646 -0.5090
 7286TIP3    H121822   2.298   3.311   1.451 -2.2439  0.4607 -0.9484
 7286TIP3    H221823   2.284   3.280   1.303  1.8670 -0.4667 -1.2554
 7287TIP3   OH221824   2.585   1.405   2.480  0.0531 -0.1388 -0.3681
 7287TIP3    H121825   2.668   1.368   2.451  0.2008 -0.6973  0.7217
 7287TIP3    H221826   2.593   1.499   2.463  0.8861 -0.1954 -0.3116
 7288TIP3   OH221827   3.782   2.218   5.354 -0.1667 -0.3038  0.0808
 7288TIP3    H121828   3.781   2.249   5.264  0.8898 -0.1413  0.1172
 7288TIP3    H221829   3.807   2.126   5.348 -0.4127 -0.3798  0.1888
 7289TIP3   OH221830   2.052   2.870   2.645  0.3392  0.7573  0.4366
 7289TIP3    H121831   2.042   2.897   2.554  1.6589 -1.6097 -0.5098
 7289TIP3    H221832   1.984   2.804   2.658 -0.0590  1.3175  1.3097
 7290TIP3   OH221833   4.076   6.750   0.455 -0.1280 -0.3529  0.0496
 7290TIP3    H121834   4.081   6.777   0.546  0.6846 -0.7329  0.1263
 7290TIP3    H221835   4.123   6.818   0.406 -1.5402  0.4625 -0.2443
 7291TIP3   OH221836   2.886   0.485   4.433  0.2396  0.2663  0.4300
 7291TIP3    H121837   2.862   0.572   4.403 -2.3575 -0.7180 -0.6524
 7291TIP3    H221838   2.907   0.496   4.526 -2.7174  1.6929  1.0433
 7292TIP3   OH221839   5.480   4.230   2.831 -0.3555  0.5401 -0.0537
 7292TIP3    H121840   5.412   4.162   2.840  0.5026 -0.3968 -0.4903
 7292TIP3    H221841   5.481   4.249   2.737  1.9210 -1.5502 -0.5498
 7293TIP3   OH221842   6.092   0.450   5.128 -0.4711  0.2456  0.2722
 7293TIP3    H121843   6.004   0.438   5.092  0.1927 -3.2245 -0.5176
 7293TIP3    H221844   6.149   0.453   5.051  0.3921 -1.1773  0.8113
 7294TIP3   OH221845   4.304   5.495   2.527  0.4251  0.7908 -0.5017
 7294TIP3    H121846   4.222   5.448   2.510  0.2676  0.2273  1.5441
 7294TIP3    H221847   4.321   5.544   2.446 -1.4283  0.2086 -1.2978
 7295TIP3   OH221848   6.693   3.597   3.838 -0.2753 -0.1606  0.1418
 7295TIP3    H121849   6.657   3.533   3.776  0.0686  0.5283 -0.7932
 7295TIP3    H221850   6.769   3.635   3.793 -0.2858  0.6822  0.7988
 7296TIP3   OH221851   3.253   6.231   2.386 -0.1273  0.1757 -0.4047
 7296TIP3    H121852   3.294   6.311   2.418 -1.0999  0.7703 -0.5965
 7296TIP3    H221853   3.321   6.187   2.335  1.2703 -0.4892  1.8956
 7297TIP3   OH221854   6.173   3.283   4.305 -0.3279 -0.2847  0.1628
 7297TIP3    H121855   6.213   3.309   4.222  0.6878  1.9737  1.2826
 7297TIP3    H221856   6.094   3.338   4.311 -1.5298 -1.8917 -0.1856
 7298TIP3   OH221857   4.983   1.174   4.675 -0.1852 -0.4073 -0.4865
 7298TIP3    H121858   4.934   1.256   4.683 -0.5196 -0.7758  2.4838
 7298TIP3    H221859   4.943   1.130   4.600 -1.8873  0.9241 -0.4417
 7299TIP3   OH221860   5.624   5.353   3.603  0.7329 -0.0812  0.0172
 7299TIP3    H121861   5.592   5.316   3.686 -0.8049 -2.3872 -1.4764
 7299TIP3    H221862   5.624   5.278   3.542  2.3973  1.3998 -1.9210
 7300TIP3   OH221863   2.371   5.479   2.022  0.0437  0.1632  0.2532
 7300TIP3    H121864   2.406   5.531   2.094 -1.4279 -0.8852  1.7727
 7300TIP3    H221865   2.293   5.526   1.994 -0.2124 -0.2142  0.3324
 7301TIP3   OH221866   1.518   6.622   0.789  0.7134  0.0726 -0.1639
 7301TIP3    H121867   1.427   6.594   0.776  0.9553 -1.1942  0.6090
 7301TIP3    H221868   1.511   6.702   0.841  0.0418 -0.3123  0.3634
 7302TIP3   OH221869   1.955   2.129   2.915 -0.2559 -0.0557  0.4141
 7302TIP3    H121870   1.949   2.038   2.887  0.8502 -0.0668  0.1736
 7302TIP3    H221871   1.964   2.124   3.011  1.3701 -0.3015  0.2784
 7303TIP3   OH221872   1.290   3.719   0.506 -0.5195 -0.4196 -0.4297
 7303TIP3    H121873   1.298   3.624   0.496 -0.6297 -0.4849  0.0751
 7303TIP3    H221874   1.286   3.752   0.416  2.3108 -0.6212 -0.7167
 7304TIP3   OH221875   3.746   3.485   5.201 -0.6612  0.2897 -0.7113
 7304TIP3    H121876   3.674   3.484   5.264  0.8454 -0.6872  1.1211
 7304TIP3    H221877   3.722   3.419   5.136 -1.0702 -0.6372  0.3361
 7305TIP3   OH221878   6.097   4.085   4.219 -0.1237  0.0700  0.3233
 7305TIP3    H121879   6.066   4.092   4.129 -0.2431  1.5531  0.4588
 7305TIP3    H221880   6.030   4.032   4.263 -0.7991  0.5277 -0.1326
 7306TIP3   OH221881   2.011   4.429   1.086 -0.4745 -0.0185  0.0594
 7306TIP3    H121882   2.102   4.444   1.059 -1.2234  1.0645 -2.1031
 7306TIP3    H221883   1.973   4.517   1.092 -1.1464 -0.4035  1.9108
 7307TIP3   OH221884   4.081   2.240   3.607  0.3491 -0.3191  0.7282
 7307TIP3    H121885   4.064   2.250   3.513 -1.1319  0.0208  1.0110
 7307TIP3    H221886   4.047   2.154   3.629 -2.1917  0.7680  1.5027
 7308TIP3   OH221887   6.409   3.596   1.635 -0.0649 -0.0686 -0.1522
 7308TIP3    H121888   6.421   3.501   1.636  0.5371  0.0075  0.8903
 7308TIP3    H221889   6.384   3.619   1.724 -1.9219  0.5721 -0.7899
 7309TIP3   OH221890   4.726   0.285   2.676  0.2741  0.1363 -0.1633
 7309TIP3    H121891   4.724   0.207   2.619  0.4348 -1.4282  1.8656
 7309TIP3    H221892   4.819   0.300   2.692  0.1804 -0.9109  1.5461
 7310TIP3   OH221893   5.570   1.596   3.020 -0.2753 -0.2479  0.0084
 7310TIP3    H121894   5.595   1.656   3.091 -0.0971 -1.3802  0.9451
 7310TIP3    H221895   5.497   1.639   2.976 -1.3222 -0.1222  1.7765
 7311TIP3   OH221896   2.334   4.278   0.460 -0.4553  0.4575 -0.0431
 7311TIP3    H121897   2.373   4.341   0.399 -0.7419  2.5746  1.8295
 7311TIP3    H221898   2.365   4.193   0.430  3.9247  1.7878  0.0206
 7312TIP3   OH221899   6.318   5.096   4.833 -0.1967  0.1684 -0.6434
 7312TIP3    H121900   6.412   5.084   4.816 -0.6002 -0.9594 -2.2748
 7312TIP3    H221901   6.302   5.188   4.814  0.5980  0.4200 -0.1710
 7313TIP3   OH221902   1.662   5.074   0.731 -0.3056 -0.9664 -0.4592
 7313TIP3    H121903   1.756   5.064   0.745 -0.3189 -0.4087  0.0939
 7313TIP3    H221904   1.646   5.168   0.743 -0.9841 -1.1113 -0.1935
 7314TIP3   OH221905   6.242   6.219   0.752  0.6197 -0.8870  0.4450
 7314TIP3    H121906   6.171   6.167   0.789 -0.7034 -1.2438 -2.2955
 7314TIP3    H221907   6.310   6.156   0.731 -0.2096 -1.3165 -1.1350
 7315TIP3   OH221908   1.251   0.300   1.787  0.3042  0.7066 -0.0315
 7315TIP3    H121909   1.346   0.288   1.789 -0.0414 -2.9304  1.4277
 7315TIP3    H221910   1.228   0.316   1.879 -0.6688 -0.6326 -0.0305
 7316TIP3   OH221911   2.063   1.936   0.853  0.1611  0.0560 -0.1065
 7316TIP3    H121912   1.981   1.888   0.865  0.0929  0.5478  1.6701
 7316TIP3    H221913   2.127   1.869   0.830 -0.7338 -0.3197 -1.6334
 7317TIP3   OH221914   2.613   3.459   3.087 -0.3095  0.3616  0.2672
 7317TIP3    H121915   2.691   3.512   3.104  2.1744 -2.3484 -1.5257
 7317TIP3    H221916   2.574   3.498   3.009  0.2226  0.7994  0.2161
 7318TIP3   OH221917   2.699   2.660   3.257 -0.3195 -0.3255  0.3164
 7318TIP3    H121918   2.791   2.644   3.279  0.1671  0.7110 -0.8293
 7318TIP3    H221919   2.693   2.755   3.249 -1.1292 -0.4779 -1.0686
 7319TIP3   OH221920   1.895   0.490   5.111 -0.4880 -0.1627  0.1074
 7319TIP3    H121921   1.985   0.467   5.131 -0.6733 -2.6717 -1.4460
 7319TIP3    H221922   1.843   0.443   5.178 -0.7063 -0.9901 -0.6165
 7320TIP3   OH221923   0.789   0.164   0.046 -0.5759  0.4346 -0.2980
 7320TIP3    H121924   0.880   0.185   0.025  0.1460 -1.9576  0.0936
 7320TIP3    H221925   0.773   0.210   0.128  0.1311  1.2057 -0.5673
 7321TIP3   OH221926   4.230   3.841   0.214 -0.1230  0.2860 -0.1430
 7321TIP3    H121927   4.173   3.897   0.162  0.6201  0.7175 -0.5064
 7321TIP3    H221928   4.226   3.756   0.171  0.6419  0.6862 -1.0482
 7322TIP3   OH221929   2.057   0.675   5.313 -0.0174 -0.5709  0.2024
 7322TIP3    H121930   2.038   0.756   5.361 -0.3441 -0.6558  0.2175
 7322TIP3    H221931   1.997   0.677   5.238 -1.3313 -1.6622  1.1707
 7323TIP3   OH221932   4.499   4.216   5.550 -0.4555 -0.2431  0.6720
 7323TIP3    H121933   4.497   4.189   5.458  0.3746  1.2161  0.1943
 7323TIP3    H221934   4.407   4.213   5.577 -0.8390  0.1738 -0.4884
 7324TIP3   OH221935   6.648   1.395   4.604 -0.3707 -0.1356  0.0109
 7324TIP3    H121936   6.727   1.341   4.599 -0.1064  0.3948 -2.9986
 7324TIP3    H221937   6.671   1.476   4.559 -1.9914  0.9350  1.0088
 7325TIP3   OH221938   6.720   1.410   1.289  0.2054 -0.6157 -0.1659
 7325TIP3    H121939   6.774   1.351   1.237  3.1999 -0.7537  2.7866
 7325TIP3    H221940   6.676   1.354   1.353 -0.6705 -0.0938 -0.2873
 7326TIP3   OH221941   4.022   4.002   1.844  0.5866  0.1683 -0.2765
 7326TIP3    H121942   4.040   3.932   1.781  1.3632  1.1663 -1.2050
 7326TIP3    H221943   3.948   3.970   1.895 -0.0262 -0.7105 -1.6608
 7327TIP3   OH221944   4.029   4.138   0.305  0.2729  0.8280 -0.4297
 7327TIP3    H121945   4.034   4.192   0.384  0.9845  2.1713 -1.3524
 7327TIP3    H221946   4.120   4.130   0.276  0.3887 -1.9611  0.3255
 7328TIP3   OH221947   5.873   3.780   2.208  0.7381 -0.1816 -0.3488
 7328TIP3    H121948   5.868   3.808   2.299  2.6721 -1.2253  0.1320
 7328TIP3    H221949   5.881   3.860   2.158 -0.7606  0.4314  0.3340
 7329TIP3   OH221950   5.034   3.332   5.054  0.0752 -0.9804 -0.7135
 7329TIP3    H121951   5.124   3.314   5.080  0.1354  0.0215 -0.1915
 7329TIP3    H221952   5.001   3.248   5.021  1.0643 -1.4485 -0.5352
 7330TIP3   OH221953   2.571   5.859   5.059  0.1260 -0.1063  0.1233
 7330TIP3    H121954   2.564   5.937   5.004 -1.6394  0.5501  1.1869
 7330TIP3    H221955   2.665   5.843   5.066  0.5164  1.7278 -0.3838
 7331TIP3   OH221956   5.659   0.306   2.889 -0.8607  0.0730 -0.5557
 7331TIP3    H121957   5.700   0.351   2.963  0.5962 -1.3913 -0.4326
 7331TIP3    H221958   5.628   0.223   2.925 -1.0340 -0.2277 -1.3755
 7332TIP3   OH221959   3.400   0.554   4.864 -0.0805 -0.0674  0.2395
 7332TIP3    H121960   3.386   0.527   4.955 -1.4496 -0.7517 -0.1514
 7332TIP3    H221961   3.495   0.559   4.855  0.2198 -2.9129  0.8982
 7333TIP3   OH221962   5.851   6.167   0.530 -0.2318 -0.3624 -0.6352
 7333TIP3    H121963   5.883   6.081   0.558 -0.6851 -0.6536 -0.9895
 7333TIP3    H221964   5.927   6.224   0.535 -0.1083 -0.5963  0.3842
 7334TIP3   OH221965   6.131   5.743   1.720 -0.2213 -0.3862  0.1304
 7334TIP3    H121966   6.108   5.676   1.656 -0.2198 -1.1786  0.9294
 7334TIP3    H221967   6.136   5.695   1.803  0.2228  0.5292  0.6451
 7335TIP3   OH221968   6.905   3.889   2.499  0.0214  0.1911 -0.5909
 7335TIP3    H121969   6.933   3.799   2.516 -2.1159 -0.2710  1.0001
 7335TIP3    H221970   6.938   3.939   2.573 -0.2573  0.3499 -0.5709
 7336TIP3   OH221971   0.402   2.488   3.533 -0.0042  0.6306 -0.1431
 7336TIP3    H121972   0.359   2.574   3.538 -1.2613  0.0010  0.3535
 7336TIP3    H221973   0.418   2.475   3.440  1.5399  2.0138 -0.1190
 7337TIP3   OH221974   2.650   1.941   1.492 -0.0795 -0.3765 -0.3923
 7337TIP3    H121975   2.569   1.970   1.534  1.4816  0.7528  2.1135
 7337TIP3    H221976   2.719   1.991   1.536  1.9279 -0.3931 -3.2387
 7338TIP3   OH221977   5.524   0.394   5.001 -0.6448 -0.1770  0.3526
 7338TIP3    H121978   5.474   0.455   5.054 -0.8200 -0.0524  0.0453
 7338TIP3    H221979   5.603   0.376   5.052  0.6631  2.2887 -0.6691
 7339TIP3   OH221980   6.296   5.918   3.111 -0.2372  0.0451 -0.4171
 7339TIP3    H121981   6.378   5.870   3.099  0.1830  1.2441 -3.1507
 7339TIP3    H221982   6.302   5.992   3.049 -3.0906  0.5499 -0.2427
 7340TIP3   OH221983   5.263   2.530   5.750 -0.0265  0.2240 -0.0572
 7340TIP3    H121984   5.350   2.506   5.783  0.5014  1.3110 -0.6272
 7340TIP3    H221985   5.272   2.621   5.723 -1.2051  0.1850 -0.6171
 7341TIP3   OH221986   5.231   0.882   3.261 -0.1113  0.0635  0.3898
 7341TIP3    H121987   5.231   0.800   3.212  0.3512  0.6030 -0.5378
 7341TIP3    H221988   5.193   0.859   3.346 -1.4731 -0.7765 -0.4087
 7342TIP3   OH221989   3.758   4.066   2.767  0.1751 -0.2602  0.7417
 7342TIP3    H121990   3.734   4.108   2.850 -1.2129 -1.9927  1.2805
 7342TIP3    H221991   3.751   4.135   2.702 -0.5136  0.7091  1.8028
 7343TIP3   OH221992   5.508   6.071   0.851 -0.0192  0.0560  0.0078
 7343TIP3    H121993   5.558   6.086   0.932 -2.3019  1.7798  1.2218
 7343TIP3    H221994   5.441   6.007   0.876 -0.9688  0.8749 -0.3674
 7344TIP3   OH221995   1.419   0.039   0.682  0.0409 -0.6662 -0.5524
 7344TIP3    H121996   1.469   0.119   0.700 -0.2069 -0.6980  0.3382
 7344TIP3    H221997   1.336   0.070   0.645  0.4343 -0.5774 -1.3698
 7345TIP3   OH221998   1.618   6.226   3.941 -0.4590  0.2458 -0.1802
 7345TIP3    H121999   1.589   6.175   4.016  0.0439 -0.5619 -0.5173
 7345TIP3    H222000   1.602   6.169   3.865 -0.0266  0.6389 -0.5786
 7346TIP3   OH222001   0.229   4.023   5.040 -0.8875 -0.5907 -0.1595
 7346TIP3    H122002   0.166   4.089   5.067 -0.9708 -0.1369 -1.3976
 7346TIP3    H222003   0.185   3.974   4.972 -0.8681 -2.0370  0.8343
 7347TIP3   OH222004   5.146   0.492   5.864  0.1567 -1.1671  0.3176
 7347TIP3    H122005   5.177   0.542   5.789 -0.0462 -0.1748  0.8826
 7347TIP3    H222006   5.148   0.401   5.834  1.7678 -0.9718 -0.3015
 7348TIP3   OH222007   3.653   2.479   2.063  0.1570 -0.4860  0.1242
 7348TIP3    H122008   3.684   2.566   2.086  0.2252 -0.3381 -0.5198
 7348TIP3    H222009   3.648   2.432   2.147  1.3408 -0.2634  0.3260
 7349TIP3   OH222010   6.413   5.763   5.208 -0.1073 -0.1610  0.1063
 7349TIP3    H122011   6.435   5.848   5.247 -0.2755 -0.6151  1.2120
 7349TIP3    H222012   6.332   5.781   5.160 -0.3280  0.2333  0.6104
 7350TIP3   OH222013   5.942   0.929   5.778 -0.1916 -0.1405  0.1975
 7350TIP3    H122014   5.849   0.907   5.780 -0.2991  0.1017 -1.2689
 7350TIP3    H222015   5.945   1.016   5.740  0.7442 -0.8761 -1.5024
 7351TIP3   OH222016   3.278   4.068   1.862  0.8275 -0.1271  0.0724
 7351TIP3    H122017   3.225   4.071   1.783 -0.0101  1.5835  0.6611
 7351TIP3    H222018   3.226   4.014   1.923  0.9581 -0.5267 -0.1635
 7352TIP3   OH222019   6.967   2.549   4.625 -0.1513 -0.3247 -0.0400
 7352TIP3    H122020   6.882   2.510   4.648 -0.4715 -0.5149 -1.4210
 7352TIP3    H222021   6.962   2.560   4.530  1.4576 -0.5202 -0.1624
 7353TIP3   OH222022   5.727   2.953   0.993 -0.1338 -0.2451 -0.3295
 7353TIP3    H122023   5.691   2.865   0.984  0.0893 -0.3648 -0.0517
 7353TIP3    H222024   5.770   2.953   1.078 -1.5690  0.6497  0.4355
 7354TIP3   OH222025   2.769   6.064   0.000  0.6410  0.0094 -0.4671
 7354TIP3    H122026   2.809   6.050   0.086 -0.2478  0.1544 -0.0252
 7354TIP3    H222027   2.694   6.004  -0.001  0.9881 -0.4266 -1.3791
 7355TIP3   OH222028   1.590   2.910   3.646  0.0239 -0.1407 -0.4224
 7355TIP3    H122029   1.683   2.925   3.661  0.0867 -0.8015 -0.1358
 7355TIP3    H222030   1.553   2.899   3.733 -0.1556 -0.8391 -0.5800
 7356TIP3   OH222031   2.064   0.408   2.252  0.3163  0.9015  0.7613
 7356TIP3    H122032   2.068   0.486   2.307  1.3136  2.1074 -0.9273
 7356TIP3    H222033   1.975   0.407   2.217 -0.4269 -0.0461  2.5397
 7357TIP3   OH222034   7.198   3.280   3.939  0.3672  0.1296 -1.1053
 7357TIP3    H122035   7.249   3.359   3.951  0.3339  0.3343 -2.2518
 7357TIP3    H222036   7.145   3.296   3.861  0.1066 -0.8842 -1.1595
 7358TIP3   OH222037   2.406   3.723   2.610 -0.2449 -0.3820 -0.2688
 7358TIP3    H122038   2.465   3.771   2.667  0.3564 -1.4947  0.0712
 7358TIP3    H222039   2.373   3.789   2.549  0.7473  0.4079  0.0177
 7359TIP3   OH222040   4.561   5.667   5.815  0.7462 -0.1611  0.3775
 7359TIP3    H122041   4.476   5.668   5.859  0.5518 -0.4320  0.0149
 7359TIP3    H222042   4.624   5.679   5.886  0.4133 -0.0654  0.6645
 7360TIP3   OH222043   0.570   1.472   3.864 -0.0144 -0.2479  0.0381
 7360TIP3    H122044   0.592   1.406   3.798  0.9281 -0.9790  1.0480
 7360TIP3    H222045   0.535   1.546   3.813 -0.2879 -1.1814 -1.1820
 7361TIP3   OH222046   6.576   0.914   1.414 -0.0254  0.1898 -0.0656
 7361TIP3    H122047   6.617   0.828   1.402  1.0080  0.0319  3.5123
 7361TIP3    H222048   6.488   0.894   1.446  0.2023  0.4247  0.7275
 7362TIP3   OH222049   1.876   1.333   5.548 -0.4260  0.4293  0.0344
 7362TIP3    H122050   1.811   1.381   5.599 -0.8980  1.3970 -1.3912
 7362TIP3    H222051   1.929   1.401   5.507  1.6004 -0.3410  1.2393
 7363TIP3   OH222052   1.552   2.336   1.890 -0.9067  0.5821  0.2682
 7363TIP3    H122053   1.535   2.422   1.929 -0.0859  0.8117  0.1437
 7363TIP3    H222054   1.643   2.317   1.912 -0.5935  0.4577 -1.0396
 7364TIP3   OH222055   6.572   5.015   4.822  0.1112 -0.2253  0.5317
 7364TIP3    H122056   6.563   4.928   4.783  2.6659 -0.2758 -0.1207
 7364TIP3    H222057   6.667   5.031   4.824 -0.2633  2.4000  0.9581
 7365TIP3   OH222058   5.138   0.208   2.445  0.4324 -0.2010  0.0126
 7365TIP3    H122059   5.179   0.145   2.504  1.5408  0.5280  0.0537
 7365TIP3    H222060   5.208   0.232   2.384 -0.5798 -0.6443 -1.3795
 7366TIP3   OH222061   2.438   1.642   4.505 -0.0200  0.0105  0.3481
 7366TIP3    H122062   2.391   1.712   4.550  1.2602  2.8165 -2.2939
 7366TIP3    H222063   2.526   1.677   4.493  0.4236 -1.6753 -1.8639
 7367TIP3   OH222064   4.344   4.624   0.304 -0.2802  0.2710  0.1905
 7367TIP3    H122065   4.429   4.608   0.346  0.9644 -3.7475 -3.1183
 7367TIP3    H222066   4.285   4.562   0.346  0.5920 -2.6369 -2.4984
 7368TIP3   OH222067   7.163   6.758   4.010  0.2347 -0.5704  0.1520
 7368TIP3    H122068   7.201   6.689   4.064  1.9796  1.5005  1.7807
 7368TIP3    H222069   7.188   6.735   3.920  1.4495 -1.6514  0.7355
 7369TIP3   OH222070   5.552   0.554   3.248 -0.3987  0.4088 -0.2996
 7369TIP3    H122071   5.523   0.645   3.257  0.8079  0.8341 -0.4973
 7369TIP3    H222072   5.525   0.513   3.330  0.4552  1.3755  0.5001
 7370TIP3   OH222073   5.207   0.262   0.304 -0.3970 -0.1785  0.4051
 7370TIP3    H122074   5.240   0.320   0.373 -1.8385  0.5718  0.5046
 7370TIP3    H222075   5.121   0.233   0.335 -0.7827 -0.3720 -0.7703
 7371TIP3   OH222076   2.591   1.836   5.682 -0.2777 -0.0448  0.1011
 7371TIP3    H122077   2.609   1.834   5.776  0.6886  1.6310 -0.0229
 7371TIP3    H222078   2.670   1.801   5.642 -0.4787 -0.2559 -0.1082
 7372TIP3   OH222079   3.391   6.277   4.463  0.2177  0.3047  0.1012
 7372TIP3    H122080   3.449   6.315   4.528  0.1680  0.6162 -0.0354
 7372TIP3    H222081   3.312   6.331   4.466 -0.0689 -0.1111  0.2844
 7373TIP3   OH222082   6.380   6.619   5.070 -0.2499 -0.9741 -0.4922
 7373TIP3    H122083   6.433   6.627   4.992 -0.5493 -0.5409 -0.6585
 7373TIP3    H222084   6.307   6.681   5.056 -0.1712 -0.7039  0.2278
 7374TIP3   OH222085   0.082   0.803   2.121  0.3953 -0.5327  0.3294
 7374TIP3    H122086   0.016   0.781   2.186  0.6681 -2.2824  0.0755
 7374TIP3    H222087   0.113   0.718   2.089 -0.4201  0.2129 -2.7884
 7375TIP3   OH222088   1.039   6.710   3.096  0.9454  0.2899  0.2077
 7375TIP3    H122089   1.111   6.670   3.144  3.4157  1.0536 -2.5809
 7375TIP3    H222090   1.061   6.803   3.093 -0.5628  0.6595 -0.1436
 7376TIP3   OH222091   1.498   3.663   3.273 -0.2276 -0.2367 -0.8416
 7376TIP3    H122092   1.469   3.746   3.309  0.1946 -0.1019 -0.8153
 7376TIP3    H222093   1.446   3.597   3.320  0.0491 -0.0404 -0.2496
 7377TIP3   OH222094   3.810   3.349   2.616  0.4598 -0.1696 -0.0319
 7377TIP3    H122095   3.716   3.358   2.603  0.4149  0.2361  0.5433
 7377TIP3    H222096   3.849   3.395   2.541  0.2000  1.3109  0.7095
 7378TIP3   OH222097   0.104   5.057   4.273  0.0332 -0.1139 -0.0738
 7378TIP3    H122098   0.083   5.090   4.186  0.6183 -0.9951 -0.5618
 7378TIP3    H222099   0.177   4.997   4.259  1.8962  1.6729  1.3632
 7379TIP3   OH222100   5.255   1.713   1.564  0.1671 -0.1604 -0.2886
 7379TIP3    H122101   5.296   1.796   1.587 -1.5140  0.6306  0.0126
 7379TIP3    H222102   5.200   1.733   1.488 -0.3190 -0.9734 -0.1671
 7380TIP3   OH222103   2.115   0.294   0.282 -0.3829  0.2413 -0.5342
 7380TIP3    H122104   2.109   0.385   0.255  2.7584  1.1952  1.5621
 7380TIP3    H222105   2.184   0.257   0.227  1.5420  0.4701  1.5998
 7381TIP3   OH222106   4.748   4.799   0.106 -0.2488 -0.3595 -0.2674
 7381TIP3    H122107   4.822   4.768   0.159 -0.1229 -1.7256 -1.1866
 7381TIP3    H222108   4.692   4.843   0.169  0.8023 -0.2855  0.6631
 7382TIP3   OH222109   4.912   6.259   1.596 -0.1633  0.4202 -0.1619
 7382TIP3    H122110   4.913   6.352   1.571 -0.6910  0.1714 -1.1259
 7382TIP3    H222111   4.981   6.220   1.542 -0.9065 -0.0058 -0.8253
 7383TIP3   OH222112   7.107   0.693   1.298 -0.0308 -0.0694 -0.0409
 7383TIP3    H122113   7.110   0.597   1.303  1.3190 -0.2157 -2.1557
 7383TIP3    H222114   7.043   0.712   1.230 -1.0660  0.6139  1.0867
 7384TIP3   OH222115   2.548   3.498   1.001  0.1230  0.4595  0.3697
 7384TIP3    H122116   2.472   3.441   0.986 -0.7054  1.2911  1.2723
 7384TIP3    H222117   2.556   3.502   1.096 -0.7937  3.0370  0.4011
 7385TIP3   OH222118   5.700   5.090   4.610 -0.1506 -0.0764  0.1434
 7385TIP3    H122119   5.639   5.156   4.642  0.8761  0.5436  0.8917
 7385TIP3    H222120   5.746   5.132   4.537 -2.0858 -1.2939 -1.9060
 7386TIP3   OH222121   4.775   3.967   5.391 -0.3225 -0.2395  0.5925
 7386TIP3    H122122   4.786   3.965   5.296  0.2521  0.8428  0.6184
 7386TIP3    H222123   4.786   3.876   5.418 -0.3205 -0.5337 -0.3578
 7387TIP3   OH222124   3.369   2.748   4.170 -0.3804 -0.4959  0.6771
 7387TIP3    H122125   3.419   2.684   4.220 -0.9450 -0.8117  0.8528
 7387TIP3    H222126   3.407   2.748   4.083  1.0413  0.5211  1.2565
 7388TIP3   OH222127   0.468   0.098   4.434  0.2128  0.4873 -0.0641
 7388TIP3    H122128   0.379   0.123   4.459  0.3430  0.8450  0.0462
 7388TIP3    H222129   0.464   0.003   4.423 -0.3554  0.5797 -0.7395
 7389TIP3   OH222130   6.540   5.682   1.245 -0.1968 -0.1166  0.1770
 7389TIP3    H122131   6.482   5.690   1.170 -1.5759 -0.0888  1.2093
 7389TIP3    H222132   6.498   5.616   1.301  1.2930 -0.8477  0.4876
 7390TIP3   OH222133   1.475   3.748   0.708  0.2112  0.4318 -0.0977
 7390TIP3    H122134   1.434   3.760   0.623 -0.4342  0.0264  0.1486
 7390TIP3    H222135   1.402   3.726   0.767  0.4863  1.7928  0.7930
 7391TIP3   OH222136   0.722   1.569   2.322  0.1023  0.2687 -0.1205
 7391TIP3    H122137   0.657   1.594   2.388  1.2212  1.5475  0.5331
 7391TIP3    H222138   0.728   1.474   2.329  0.2285  0.3839  1.6756
 7392TIP3   OH222139   1.220   1.740   5.887  0.1199 -0.1184 -0.5270
 7392TIP3    H122140   1.125   1.726   5.882  0.2114 -0.5685 -1.1923
 7392TIP3    H222141   1.257   1.669   5.834  0.8458 -0.1383 -0.0067
 7393TIP3   OH222142   2.260   1.603   2.529 -0.9201 -0.4402  0.0427
 7393TIP3    H122143   2.187   1.609   2.467  0.0829  0.3758 -1.0925
 7393TIP3    H222144   2.273   1.693   2.559  0.0814 -0.4445 -0.3359
 7394TIP3   OH222145   0.688   5.722   3.374 -0.6516  0.2051  0.2793
 7394TIP3    H122146   0.661   5.632   3.357 -0.1828 -0.2923  1.9529
 7394TIP3    H222147   0.608   5.766   3.402 -0.5719 -0.1729  1.1503
 7395TIP3   OH222148   0.597   3.308   1.637  0.0917 -0.2725 -0.9823
 7395TIP3    H122149   0.614   3.289   1.545  1.2797 -0.7899 -0.6758
 7395TIP3    H222150   0.587   3.403   1.641  1.9986 -0.0266 -1.3727
 7396TIP3   OH222151   5.580   0.912   1.168  0.0711  0.2534 -0.2275
 7396TIP3    H122152   5.648   0.890   1.232 -0.5798  0.7827  0.6715
 7396TIP3    H222153   5.500   0.872   1.204 -0.4027  0.9812 -0.4475
 7397TIP3   OH222154   0.196   1.100   0.410 -0.3441  0.1154 -0.1694
 7397TIP3    H122155   0.228   1.173   0.464 -0.6024 -0.7410  1.2002
 7397TIP3    H222156   0.272   1.042   0.401 -0.7366 -0.5692  0.7434
 7398TIP3   OH222157   6.963   5.662   4.110  0.3031 -1.0994  0.2154
 7398TIP3    H122158   6.886   5.668   4.166  0.2860 -1.1803  0.1998
 7398TIP3    H222159   7.005   5.748   4.117 -0.4120 -0.6658 -0.6575
 7399TIP3   OH222160   0.773   5.389   1.090 -0.2007 -0.3037  0.1037
 7399TIP3    H122161   0.802   5.467   1.043  1.6939 -0.3761  1.0432
 7399TIP3    H222162   0.764   5.419   1.181 -1.2183 -0.7857  0.1760
 7400TIP3   OH222163   4.159   5.270   2.235 -0.0046  0.1882 -0.5426
 7400TIP3    H122164   4.075   5.240   2.200 -0.5598  0.8084  0.1972
 7400TIP3    H222165   4.200   5.192   2.271 -1.3162  0.2091  1.1471
 7401TIP3   OH222166   5.259   3.306   5.846 -0.4508 -0.0442 -0.3729
 7401TIP3    H122167   5.291   3.247   5.915 -0.2120 -0.3571 -0.7517
 7401TIP3    H222168   5.284   3.264   5.764 -0.9644  0.1983 -0.6616
 7402TIP3   OH222169   4.081   1.701   2.044 -0.1909 -0.0330  0.0552
 7402TIP3    H122170   4.056   1.635   2.108 -1.3244  1.8361  1.6512
 7402TIP3    H222171   4.130   1.766   2.093  0.9565  0.3206 -1.4754
 7403TIP3   OH222172   1.558   4.422   0.287 -0.0850  0.5844  0.8135
 7403TIP3    H122173   1.596   4.394   0.204 -0.7833  0.0647  0.6566
 7403TIP3    H222174   1.528   4.512   0.271 -2.9621 -0.4877 -0.5001
 7404TIP3   OH222175   1.713   1.982   2.345  0.3089  0.1602  0.1231
 7404TIP3    H122176   1.792   1.959   2.395  0.3498  0.4692  0.2028
 7404TIP3    H222177   1.662   1.901   2.343  0.5020  0.0313  0.3035
 7405TIP3   OH222178   5.877   1.030   4.343 -0.0266  0.2028  0.1143
 7405TIP3    H122179   5.904   1.071   4.426 -2.1422 -0.8447  1.4053
 7405TIP3    H222180   5.945   0.965   4.325  0.4994  0.4838  0.9991
 7406TIP3   OH222181   5.666   0.481   4.079 -0.0700 -0.5703 -0.7256
 7406TIP3    H122182   5.668   0.442   4.166 -0.8786  1.3111  0.1820
 7406TIP3    H222183   5.743   0.538   4.077  0.4394 -1.2589 -1.5983
 7407TIP3   OH222184   3.036   5.986   4.116  0.2528 -0.0046  0.0938
 7407TIP3    H122185   3.080   5.906   4.086 -0.0943 -0.0650 -0.2605
 7407TIP3    H222186   3.098   6.026   4.176  1.0784  0.2628 -0.9175
 7408TIP3   OH222187   2.084   1.774   1.807  0.2409  0.5822  0.5583
 7408TIP3    H122188   2.093   1.860   1.767  3.6597 -1.1433 -3.2025
 7408TIP3    H222189   2.002   1.740   1.772  0.5403  1.1566 -0.8000
 7409TIP3   OH222190   3.654   5.344   1.475  1.0800  0.0072 -0.3615
 7409TIP3    H122191   3.571   5.336   1.427  0.4123  0.6837  0.6475
 7409TIP3    H222192   3.637   5.409   1.543  1.4642 -2.0826  1.9092
 7410TIP3   OH222193   4.755   4.730   5.644  0.3401  0.9251  0.2851
 7410TIP3    H122194   4.828   4.670   5.662 -0.0062  0.4878  0.2562
 7410TIP3    H222195   4.698   4.681   5.585  0.4967  1.6249 -0.4607
 7411TIP3   OH222196   3.769   0.045   0.865 -0.7073 -0.3117 -0.1683
 7411TIP3    H122197   3.680   0.081   0.865  0.0643  1.7774  0.9834
 7411TIP3    H222198   3.816   0.099   0.801  0.7876  1.8333  2.4750
 7412TIP3   OH222199   3.166   1.993   1.193  0.0787  0.1560 -0.3175
 7412TIP3    H122200   3.204   2.073   1.228  0.8940 -0.5557  0.4793
 7412TIP3    H222201   3.119   2.021   1.114  1.9982  1.1095 -1.1773
 7413TIP3   OH222202   5.118   1.971   1.828  0.1438 -0.2130  0.2820
 7413TIP3    H122203   5.213   1.969   1.831  0.2658  1.4750 -1.0127
 7413TIP3    H222204   5.093   2.046   1.883 -0.5106 -1.1667  1.3269
 7414TIP3   OH222205   4.197   1.172   2.801 -0.2223  0.4732  0.2993
 7414TIP3    H122206   4.254   1.227   2.747  0.1327 -0.4653 -0.2978
 7414TIP3    H222207   4.113   1.218   2.801 -0.6321 -0.1070 -2.1491
 7415TIP3   OH222208   7.126   3.524   2.882 -0.3627 -0.1870 -0.0778
 7415TIP3    H122209   7.144   3.616   2.861  1.0598 -0.6374 -1.0358
 7415TIP3    H222210   7.080   3.491   2.805  1.4049 -0.8744 -0.9080
 7416TIP3   OH222211   0.715   2.685   5.833 -0.2873  0.5960  0.7397
 7416TIP3    H122212   0.753   2.693   5.746  0.9690 -2.6902  0.8672
 7416TIP3    H222213   0.622   2.666   5.817  0.1696 -1.1862  0.0136
 7417TIP3   OH222214   6.649   1.910   1.907 -0.3404  0.5793 -0.2199
 7417TIP3    H122215   6.686   1.869   1.985 -2.3344  0.1007  0.5473
 7417TIP3    H222216   6.656   1.842   1.839  0.8632  0.7856 -0.3160
 7418TIP3   OH222217   6.249   1.607   4.673  0.2173  0.6275 -0.4192
 7418TIP3    H122218   6.160   1.575   4.657 -0.0665  1.5714 -0.8168
 7418TIP3    H222219   6.236   1.684   4.728  0.6744  1.6659 -1.7257
 7419TIP3   OH222220   2.854   3.050   3.696 -0.6329  0.3965  0.2832
 7419TIP3    H122221   2.789   3.090   3.754 -0.4118 -0.3114  1.0246
 7419TIP3    H222222   2.802   3.007   3.628 -0.9905 -0.7053  1.2188
 7420TIP3   OH222223   4.342   6.388   2.146  0.8481 -0.1544 -0.6538
 7420TIP3    H122224   4.273   6.343   2.196 -0.1915  1.2265 -0.7792
 7420TIP3    H222225   4.345   6.341   2.063 -1.4434  0.9706 -1.4657
 7421TIP3   OH222226   6.652   0.571   4.219  0.1791 -0.1581 -0.3110
 7421TIP3    H122227   6.688   0.561   4.131 -0.1022 -0.9591 -0.3466
 7421TIP3    H222228   6.694   0.650   4.253  0.4580  0.0389 -1.0789
 7422TIP3   OH222229   4.117   2.991   2.001 -0.1116 -0.8175 -0.3618
 7422TIP3    H122230   4.130   3.082   1.975 -0.5844 -0.9656 -1.1322
 7422TIP3    H222231   4.116   2.994   2.097  3.4106 -0.4959 -0.2210
 7423TIP3   OH222232   5.523   3.549   2.384  0.2400 -0.1387 -0.0016
 7423TIP3    H122233   5.568   3.466   2.405 -0.2854 -0.0437  1.6799
 7423TIP3    H222234   5.430   3.529   2.394  0.1549  0.9732  1.8452
 7424TIP3   OH222235   3.985   1.183   1.064  0.3629 -0.3484  0.3381
 7424TIP3    H122236   4.070   1.146   1.086  1.0680  1.3601  0.5923
 7424TIP3    H222237   3.947   1.207   1.149  0.2686  0.2458  0.1286
 7425TIP3   OH222238   4.078   1.499   2.932  0.4333 -0.4578 -0.5294
 7425TIP3    H122239   4.010   1.434   2.941 -0.8674  0.9326  0.1390
 7425TIP3    H222240   4.115   1.484   2.845 -0.2147 -1.6904 -0.6017
 7426TIP3   OH222241   0.932   1.749   3.708  0.1719  0.6985 -0.2712
 7426TIP3    H122242   0.930   1.700   3.790 -0.7216  1.9105  0.4659
 7426TIP3    H222243   1.016   1.727   3.668  0.0608 -0.9061  0.3362
 7427TIP3   OH222244   0.982   6.040   5.515  0.1765 -0.0657 -0.5300
 7427TIP3    H122245   0.971   6.123   5.468  1.1069  0.9837  1.0235
 7427TIP3    H222246   0.894   6.018   5.545  0.1581  1.2073  0.3992
 7428TIP3   OH222247   1.273   0.221   0.158  0.6161 -0.9330  0.6131
 7428TIP3    H122248   1.340   0.161   0.127 -0.4924 -1.3927 -1.0170
 7428TIP3    H222249   1.304   0.307   0.130  0.4514 -1.1588 -0.2699
 7429TIP3   OH222250   5.647   4.905   0.097  0.2833 -0.1597  0.3892
 7429TIP3    H122251   5.559   4.867   0.101 -0.1343  0.6309 -0.6829
 7429TIP3    H222252   5.700   4.838   0.054  0.2526 -0.6972  1.1687
 7430TIP3   OH222253   5.598   4.267   0.693 -0.3383  0.2290 -0.4483
 7430TIP3    H122254   5.612   4.351   0.649  2.7552 -0.1365 -0.3944
 7430TIP3    H222255   5.658   4.207   0.649 -2.1046 -1.8485 -0.1376
 7431TIP3   OH222256   2.595   1.336   4.772  0.1062 -0.2753  0.2332
 7431TIP3    H122257   2.519   1.364   4.721 -0.5471 -2.8253 -0.3438
 7431TIP3    H222258   2.661   1.404   4.756 -1.3080  0.8845 -1.0141
 7432TIP3   OH222259   5.737   0.313   1.400 -0.0777 -0.4899 -0.3775
 7432TIP3    H122260   5.724   0.344   1.490  0.1486 -0.0205 -0.5012
 7432TIP3    H222261   5.829   0.287   1.396 -0.0859 -0.5058 -0.4747
 7433TIP3   OH222262   1.376   0.726   0.275 -0.1559  0.2547  0.0088
 7433TIP3    H122263   1.445   0.696   0.334  0.0519 -1.9150 -1.2337
 7433TIP3    H222264   1.302   0.745   0.333  0.5330 -0.3023  1.1052
 7434TIP3   OH222265   0.022   5.727   1.580 -0.2772  0.4094 -0.1485
 7434TIP3    H122266  -0.021   5.673   1.513 -1.0122 -0.2163  0.8113
 7434TIP3    H222267   0.014   5.816   1.546 -3.2049  0.4509  0.4049
 7435TIP3   OH222268   5.715   6.590   2.155 -0.0152 -0.0976  0.1210
 7435TIP3    H122269   5.794   6.539   2.138 -0.3611 -1.0244  1.2015
 7435TIP3    H222270   5.736   6.642   2.232  0.4348  1.6605 -1.1398
 7436TIP3   OH222271   2.917   4.457   5.275  0.0571 -0.1280 -0.2528
 7436TIP3    H122272   2.944   4.439   5.365 -0.8816 -0.8961 -0.1074
 7436TIP3    H222273   2.920   4.552   5.267  2.8283 -0.1345 -0.2772
 7437TIP3   OH222274   2.058   5.137   0.254  0.4269 -0.0724 -0.5012
 7437TIP3    H122275   1.964   5.144   0.244  0.5695  0.9350 -1.3659
 7437TIP3    H222276   2.073   5.146   0.349 -0.4962 -2.8607 -0.0163
 7438TIP3   OH222277   2.201   4.405   0.670 -0.0421  0.7708  0.2085
 7438TIP3    H122278   2.130   4.346   0.694  0.8416 -0.1593  0.6653
 7438TIP3    H222279   2.227   4.377   0.582  0.0551  0.7920  0.2299
 7439TIP3   OH222280   0.404   0.905   3.626 -0.3134  0.3750  0.3438
 7439TIP3    H122281   0.489   0.922   3.668  0.9727 -0.9892 -1.5482
 7439TIP3    H222282   0.399   0.969   3.555 -0.4641 -0.1079 -0.0842
 7440TIP3   OH222283   4.033   1.721   5.777 -0.1391 -0.2584  0.4375
 7440TIP3    H122284   3.989   1.787   5.722 -0.8740  0.7820  2.2001
 7440TIP3    H222285   4.118   1.761   5.798  1.5798 -2.0107 -2.4611
 7441TIP3   OH222286   5.487   4.209   2.536 -0.6312  0.0109 -0.0313
 7441TIP3    H122287   5.475   4.114   2.527 -2.5486  0.3802 -2.2533
 7441TIP3    H222288   5.573   4.225   2.498 -1.2923 -0.6130 -1.9015
 7442TIP3   OH222289   0.584   0.204   3.234  0.1714  0.2197  0.1281
 7442TIP3    H122290   0.558   0.287   3.195  1.5988  0.8559  0.4472
 7442TIP3    H222291   0.661   0.177   3.184  0.4442 -0.2894  0.7959
 7443TIP3   OH222292   4.060   5.312   1.830 -0.2603  0.1373  0.4463
 7443TIP3    H122293   4.018   5.381   1.882 -0.4725  1.0206 -0.8489
 7443TIP3    H222294   4.096   5.358   1.754  0.8622 -0.9794  0.2654
 7444TIP3   OH222295   6.594   0.369   1.967  0.5168 -0.1099 -0.8563
 7444TIP3    H122296   6.657   0.315   2.015  0.0236 -1.4731 -1.6829
 7444TIP3    H222297   6.523   0.309   1.944 -0.9396  1.3021 -0.2667
 7445TIP3   OH222298   0.829   4.905   1.116 -0.4667 -0.1647 -0.4326
 7445TIP3    H122299   0.767   4.895   1.043 -0.8949  0.9856 -0.2575
 7445TIP3    H222300   0.843   4.817   1.148 -1.3441 -0.5410 -1.0421
 7446TIP3   OH222301   1.638   1.212   0.144 -0.0531 -0.0841  0.3554
 7446TIP3    H122302   1.582   1.169   0.209 -0.9868  1.3940  0.5631
 7446TIP3    H222303   1.717   1.157   0.141 -1.1729 -1.7781  0.6153
 7447TIP3   OH222304   5.026   5.722   4.927  0.4115 -0.0427  0.3566
 7447TIP3    H122305   5.066   5.809   4.936  0.5221  0.1092 -1.2787
 7447TIP3    H222306   5.058   5.673   5.003  1.8567  0.7850  0.3190
 7448TIP3   OH222307   6.206   1.632   5.050 -0.4823 -0.0427  0.6076
 7448TIP3    H122308   6.272   1.589   4.996  0.1272  1.3946  0.1545
 7448TIP3    H222309   6.172   1.703   4.995  0.6350  1.9085  2.2811
 7449TIP3   OH222310   2.095   0.940   3.528  0.0434  0.6284  0.5289
 7449TIP3    H122311   2.137   1.012   3.575  0.3958  0.1971  0.8889
 7449TIP3    H222312   2.076   0.976   3.441  2.3302  0.4608 -0.1082
 7450TIP3   OH222313   6.694   1.401   2.099  0.2222 -0.4502 -0.6088
 7450TIP3    H122314   6.614   1.446   2.126  0.1102 -1.0977  0.1804
 7450TIP3    H222315   6.668   1.308   2.095  1.0856 -0.7396  0.2595
 7451TIP3   OH222316   6.798   0.766   4.330  0.0353  0.1520  0.3595
 7451TIP3    H122317   6.792   0.849   4.378  1.5567  1.7161 -1.9521
 7451TIP3    H222318   6.883   0.730   4.355 -0.0680 -0.0807  0.3851
 7452TIP3   OH222319   6.900   1.444   3.209  0.4791 -0.1343  0.3442
 7452TIP3    H122320   6.854   1.367   3.174 -0.5896  0.3354  0.6573
 7452TIP3    H222321   6.939   1.486   3.133 -0.9535  0.3150 -0.1800
 7453TIP3   OH222322   0.647   1.518   1.073  0.1103 -0.0782  0.2592
 7453TIP3    H122323   0.574   1.456   1.079 -0.4082  0.6481  2.5378
 7453TIP3    H222324   0.632   1.565   0.992 -0.2192 -1.9782 -0.8578
 7454TIP3   OH222325   6.873   5.877   3.833 -0.5252 -0.3216  0.1218
 7454TIP3    H122326   6.951   5.825   3.850 -1.1461 -1.3552 -0.0821
 7454TIP3    H222327   6.860   5.929   3.912  2.0552  2.1918 -0.9271
 7455TIP3   OH222328   3.399   4.515   2.039  0.0401 -0.4162  0.9269
 7455TIP3    H122329   3.327   4.531   1.978 -2.0800 -0.3362  3.2970
 7455TIP3    H222330   3.460   4.588   2.025 -1.0941  0.3647 -0.0645
 7456TIP3   OH222331   4.034   4.654   2.670  0.2370 -0.0170  0.0763
 7456TIP3    H122332   4.078   4.722   2.619 -0.4539 -0.0612 -0.6124
 7456TIP3    H222333   3.993   4.598   2.603 -0.6072 -0.1338  0.6758
 7457TIP3   OH222334   1.454   2.944   2.476  0.3390  0.5607  0.0030
 7457TIP3    H122335   1.413   2.875   2.423  0.7159 -0.7738  1.3813
 7457TIP3    H222336   1.499   2.897   2.546 -0.8437  2.2727  2.0199
 7458TIP3   OH222337   1.277   5.372   2.254 -0.2553 -0.5798 -0.1636
 7458TIP3    H122338   1.234   5.289   2.276 -0.0460 -0.9919 -1.2173
 7458TIP3    H222339   1.302   5.361   2.162 -0.5102  0.7763 -0.4124
 7459TIP3   OH222340   5.479   5.966   2.144 -0.1057  0.3181 -0.0235
 7459TIP3    H122341   5.489   6.034   2.211  0.7924 -0.3134  0.4929
 7459TIP3    H222342   5.421   5.901   2.185 -0.4817  0.4837 -0.2923
 7460TIP3   OH222343   3.315   2.751   3.754  0.0722 -0.1298 -0.1748
 7460TIP3    H122344   3.314   2.707   3.669  2.1254  0.1908 -0.4168
 7460TIP3    H222345   3.251   2.821   3.746  0.3440 -0.0166 -1.5071
 7461TIP3   OH222346   3.795   5.812   0.508  0.0680 -0.2351 -0.3090
 7461TIP3    H122347   3.800   5.757   0.430  0.5662 -0.4952 -0.0910
 7461TIP3    H222348   3.720   5.777   0.557  0.0139 -0.3370 -0.4631
 7462TIP3   OH222349   0.800   4.865   4.744 -0.2878  0.1358  0.2146
 7462TIP3    H122350   0.857   4.942   4.742  0.3181 -0.2542  1.5685
 7462TIP3    H222351   0.720   4.896   4.786 -1.0046  0.6052 -1.4106
 7463TIP3   OH222352   7.213   4.718   3.941  0.5579  0.8886 -0.0612
 7463TIP3    H122353   7.158   4.787   3.905 -0.3018  1.2500  1.8071
 7463TIP3    H222354   7.223   4.655   3.870 -1.4238  1.3127 -0.7841
 7464TIP3   OH222355   1.346   3.179   3.017 -0.9294  0.1349 -0.5976
 7464TIP3    H122356   1.421   3.239   3.019  2.0597 -3.3158  0.7828
 7464TIP3    H222357   1.326   3.169   2.924  0.0800  1.3714 -0.9826
 7465TIP3   OH222358   1.059   2.420   2.958  0.1836 -0.1970 -0.3035
 7465TIP3    H122359   1.101   2.384   2.880 -0.0694  0.1632 -0.6131
 7465TIP3    H222360   1.132   2.453   3.011  0.3374 -0.1455 -0.5427
 7466TIP3   OH222361   0.675   2.499   4.556  0.9101  0.3152 -0.5035
 7466TIP3    H122362   0.734   2.480   4.629 -0.4768 -1.1857  0.2929
 7466TIP3    H222363   0.637   2.584   4.578  2.1748  0.9453 -0.6557
 7467TIP3   OH222364   0.828   6.678   2.916 -0.2081  0.2455 -0.4996
 7467TIP3    H122365   0.895   6.690   2.984 -2.0581  0.3310  1.3964
 7467TIP3    H222366   0.833   6.585   2.894  0.1172  0.1247  0.0663
 7468TIP3   OH222367   1.568   2.319   3.599 -0.3442 -0.4647  0.0945
 7468TIP3    H122368   1.549   2.363   3.682 -1.6910  0.4649 -0.6675
 7468TIP3    H222369   1.486   2.275   3.576 -1.4144  2.5839 -2.6913
 7469TIP3   OH222370   1.430   0.429   5.677  0.5536 -0.4661  0.2688
 7469TIP3    H122371   1.463   0.374   5.606  0.2220  0.0553 -0.3068
 7469TIP3    H222372   1.488   0.505   5.677  0.4634 -0.3970  0.4579
 7470TIP3   OH222373   3.386   0.952   4.993 -0.3942  0.2105 -0.5581
 7470TIP3    H122374   3.464   0.977   4.943  1.0302 -3.9140 -0.7820
 7470TIP3    H222375   3.313   0.963   4.932  0.3492  1.6717 -1.2161
 7471TIP3   OH222376   0.847   0.189   2.777  0.3384 -0.5501  0.2734
 7471TIP3    H122377   0.927   0.238   2.755 -0.6017  0.3342 -1.3871
 7471TIP3    H222378   0.777   0.253   2.765 -0.8828 -2.0733 -1.2648
 7472TIP3   OH222379   5.769   5.813   5.575  0.0125  0.3005 -0.2935
 7472TIP3    H122380   5.719   5.863   5.511  0.3151 -1.5655 -2.1028
 7472TIP3    H222381   5.848   5.866   5.590 -0.9153  1.6534  0.0198
 7473TIP3   OH222382   4.110   1.783   4.043 -0.2836 -0.0996 -0.8053
 7473TIP3    H122383   4.124   1.770   4.137  1.7178 -0.6054 -1.1295
 7473TIP3    H222384   4.034   1.841   4.038  0.2445  0.8436  1.1523
 7474TIP3   OH222385   1.559   5.357   0.700  0.1463  0.3644 -0.0621
 7474TIP3    H122386   1.598   5.444   0.714 -0.1338  0.5683 -0.5294
 7474TIP3    H222387   1.501   5.345   0.775  2.6514 -0.8623  1.8341
 7475TIP3   OH222388   5.473   1.695   5.601 -0.3189 -0.7591 -0.1942
 7475TIP3    H122389   5.563   1.717   5.576 -1.0835  0.9924 -1.6677
 7475TIP3    H222390   5.448   1.765   5.662 -1.1635 -0.3294 -1.0100
 7476TIP3   OH222391   2.662   0.075   1.177  0.2833  0.2766 -0.2305
 7476TIP3    H122392   2.745   0.097   1.219  0.0725  0.4659  0.0885
 7476TIP3    H222393   2.595   0.114   1.233 -0.3914 -3.8916  2.3518
 7477TIP3   OH222394   3.637   1.993   3.237 -0.0988 -0.6234  0.0742
 7477TIP3    H122395   3.618   2.087   3.237 -0.2737 -0.6563  0.4823
 7477TIP3    H222396   3.717   1.985   3.185  0.2220 -0.1846  0.4911
 7478TIP3   OH222397   2.307   6.734   3.283  0.1796  0.7162 -0.0186
 7478TIP3    H122398   2.274   6.823   3.294 -0.8678  0.1720  1.6663
 7478TIP3    H222399   2.229   6.682   3.263  0.4339 -0.1373  1.0940
 7479TIP3   OH222400   6.024   4.848   0.682  0.4123  0.3404 -0.3557
 7479TIP3    H122401   6.026   4.871   0.589  0.9975  2.7465  0.1632
 7479TIP3    H222402   6.020   4.933   0.727  0.7643 -0.7278  1.8286
 7480TIP3   OH222403   1.694   3.643   0.853 -0.4317  0.1910 -0.3449
 7480TIP3    H122404   1.665   3.649   0.944  1.5586  0.5942  0.3039
 7480TIP3    H222405   1.620   3.676   0.802 -1.0595  1.3422  1.2239
 7481TIP3   OH222406   6.246   4.173   3.824 -0.4799 -0.0347  0.0558
 7481TIP3    H122407   6.154   4.194   3.812  0.0169  2.8582  0.6205
 7481TIP3    H222408   6.268   4.115   3.751 -2.8028 -1.1125  0.1488
 7482TIP3   OH222409   5.763   5.095   0.261  0.3437  0.0267 -0.1535
 7482TIP3    H122410   5.751   5.011   0.215  0.8936  0.3895 -0.9858
 7482TIP3    H222411   5.712   5.158   0.209  1.0964  0.4750 -0.3559
 7483TIP3   OH222412   0.405   0.534   0.618  0.4082 -0.0882  0.0137
 7483TIP3    H122413   0.460   0.475   0.566 -0.2894 -0.8285  0.1053
 7483TIP3    H222414   0.456   0.615   0.623 -0.0313  0.5149 -2.9775
 7484TIP3   OH222415   4.579   3.220   1.013  0.1281 -0.2692  0.6087
 7484TIP3    H122416   4.540   3.188   1.094 -0.6056  3.1501  1.7653
 7484TIP3    H222417   4.633   3.294   1.040  0.7195  0.3134 -1.9102
 7485TIP3   OH222418   6.908   4.925   3.101 -0.5293  0.0789 -0.3391
 7485TIP3    H122419   6.928   4.923   3.007 -0.0554  0.4275 -0.2473
 7485TIP3    H222420   6.829   4.980   3.107 -1.2461 -0.8986 -0.6496
 7486TIP3   OH222421   4.105   0.152   0.474 -0.7742  0.8257  0.2682
 7486TIP3    H122422   4.171   0.205   0.519  0.2471 -0.6714  0.5825
 7486TIP3    H222423   4.154   0.109   0.404 -1.3133 -0.6359  0.7702
 7487TIP3   OH222424   1.570   6.713   2.852 -0.1952  0.1335 -0.1854
 7487TIP3    H122425   1.611   6.665   2.780 -0.0993  2.2188 -1.6359
 7487TIP3    H222426   1.638   6.718   2.919  0.4660 -0.0334 -0.8332
 7488TIP3   OH222427   4.693   4.558   2.762 -0.5935  0.0647  0.2806
 7488TIP3    H122428   4.751   4.483   2.746  0.3049  0.3369  1.9865
 7488TIP3    H222429   4.643   4.534   2.840 -0.8425  0.9210  0.3964
 7489TIP3   OH222430   1.609   6.529   1.710  0.2430 -0.4451 -0.1458
 7489TIP3    H122431   1.661   6.504   1.786  0.8826  1.6710  0.1781
 7489TIP3    H222432   1.519   6.531   1.741  0.4489 -0.0599  0.4376
 7490TIP3   OH222433   3.462   5.916   3.027 -0.1108 -0.1823 -0.3215
 7490TIP3    H122434   3.434   5.907   2.936 -2.7292 -2.4260  0.5683
 7490TIP3    H222435   3.525   5.845   3.041 -0.2004 -0.2424 -0.2209
 7491TIP3   OH222436   3.823   0.324   5.786 -0.6484  0.3336 -0.0551
 7491TIP3    H122437   3.877   0.339   5.709 -0.4197 -0.1700 -0.0005
 7491TIP3    H222438   3.792   0.234   5.777 -0.2597  0.1156  0.6564
 7492TIP3   OH222439   5.702   0.090   2.204  0.0947  0.5095  0.3159
 7492TIP3    H122440   5.708   0.011   2.150  0.8230  0.4447  0.4847
 7492TIP3    H222441   5.697   0.161   2.140 -2.5220  0.2404  0.1262
 7493TIP3   OH222442   1.285   1.629   4.018 -0.6342 -0.1590 -0.5359
 7493TIP3    H122443   1.237   1.551   3.988 -2.5798  0.3591  1.0769
 7493TIP3    H222444   1.355   1.594   4.073 -1.7932 -0.8022  0.5828
 7494TIP3   OH222445   3.706   4.893   2.015 -0.0160  0.4234  0.6540
 7494TIP3    H122446   3.798   4.887   2.038  0.2771 -1.9543 -0.8024
 7494TIP3    H222447   3.693   4.986   1.993  1.8712  0.9013  1.3489
 7495TIP3   OH222448   0.927   0.329   4.798  0.1231 -0.5791  0.2396
 7495TIP3    H122449   0.881   0.384   4.734  1.4887  0.5998  0.2294
 7495TIP3    H222450   0.923   0.241   4.761 -0.9309 -0.2721 -0.4158
 7496TIP3   OH222451   0.076   1.525   0.936 -0.4054  0.2312 -0.4430
 7496TIP3    H122452  -0.017   1.548   0.942 -0.9709 -1.6805 -0.9394
 7496TIP3    H222453   0.113   1.588   0.876 -1.4578  0.8430 -0.4796
 7497TIP3   OH222454   6.144   5.086   5.047 -0.1490 -0.3480 -0.3415
 7497TIP3    H122455   6.091   5.008   5.030 -2.1463  0.5539  1.2968
 7497TIP3    H222456   6.216   5.081   4.984  0.2563 -3.8852  0.2002
 7498TIP3   OH222457   2.795   4.812   5.464 -0.4008  0.2066 -0.1760
 7498TIP3    H122458   2.824   4.795   5.375  0.2677  1.8337 -0.3008
 7498TIP3    H222459   2.876   4.816   5.516 -0.7491 -0.1744  0.4193
 7499TIP3   OH222460   4.302   3.179   4.525 -0.3614 -0.4764 -0.2143
 7499TIP3    H122461   4.376   3.150   4.579  0.2526  0.9916 -0.2323
 7499TIP3    H222462   4.314   3.132   4.442  0.1543 -0.7743  0.0185
 7500TIP3   OH222463   4.572   5.305   1.066 -0.1837  0.0376 -0.0740
 7500TIP3    H122464   4.482   5.293   1.098  0.3255  1.5064  2.1333
 7500TIP3    H222465   4.627   5.283   1.141  1.2028  1.4387 -0.6309
 7501TIP3   OH222466   3.814   2.244   3.879 -0.0508  0.5773 -0.0318
 7501TIP3    H122467   3.800   2.177   3.811 -2.0790 -0.7503  1.5944
 7501TIP3    H222468   3.819   2.326   3.830 -1.4088 -0.3250 -1.8162
 7502TIP3   OH222469   2.988   3.939   3.120 -0.2919  0.4981 -0.1343
 7502TIP3    H122470   3.016   3.860   3.167 -1.2443 -0.9070 -1.8096
 7502TIP3    H222471   3.025   4.012   3.170  0.2108 -0.9851  1.7413
 7503TIP3   OH222472   4.087   1.659   1.764  0.0603 -0.0717  0.0755
 7503TIP3    H122473   4.087   1.688   1.855 -2.2599 -1.3542  0.5487
 7503TIP3    H222474   4.090   1.563   1.769 -1.4834 -0.2278 -1.0888
 7504TIP3   OH222475   1.698   6.569   4.988 -0.0336  0.8042 -0.2253
 7504TIP3    H122476   1.731   6.609   5.069  0.7177 -0.6360  0.2277
 7504TIP3    H222477   1.642   6.498   5.018  1.4842 -0.7611 -0.8829
 7505TIP3   OH222478   3.258   4.630   1.820  0.0167  0.3126 -0.0185
 7505TIP3    H122479   3.165   4.640   1.797  0.1601  0.6975 -0.4421
 7505TIP3    H222480   3.305   4.679   1.752  0.5748 -0.5732 -0.2857
 7506TIP3   OH222481   5.510   0.867   0.405  0.1600  0.1738  0.3656
 7506TIP3    H122482   5.448   0.861   0.332 -1.2735  0.2519  1.5520
 7506TIP3    H222483   5.570   0.793   0.391  1.9120  1.9589 -2.6201
 7507TIP3   OH222484   3.439   3.686   1.390 -0.6962 -0.4066 -0.0550
 7507TIP3    H122485   3.427   3.633   1.311  3.6656  1.0099 -1.9930
 7507TIP3    H222486   3.380   3.761   1.378  0.4485  0.1926 -2.5002
 7508TIP3   OH222487   2.649   5.284   0.537 -0.3059  0.3451  0.4406
 7508TIP3    H122488   2.696   5.281   0.620 -0.9634  1.7180  0.8840
 7508TIP3    H222489   2.695   5.351   0.486 -1.3446  1.2048  0.6108
 7509TIP3   OH222490   2.037   3.799   3.988  0.4412 -0.1357 -0.2485
 7509TIP3    H122491   2.115   3.744   3.997 -0.3132 -0.9444  2.6046
 7509TIP3    H222492   1.965   3.742   4.018 -1.4660  0.2843 -3.5489
 7510TIP3   OH222493   1.374   5.414   4.356 -0.4169  0.0501 -0.6165
 7510TIP3    H122494   1.401   5.505   4.350 -1.5800  0.6300  1.9457
 7510TIP3    H222495   1.439   5.372   4.413 -0.8341 -0.3014 -0.3889
 7511TIP3   OH222496   3.892   1.393   5.814  0.1808 -0.5175  0.0923
 7511TIP3    H122497   3.828   1.356   5.874  0.9027 -0.7675  0.7312
 7511TIP3    H222498   3.874   1.487   5.815  0.0836 -0.5391  0.5807
 7512TIP3   OH222499   6.471   3.009   1.160  0.0143  0.2479  0.2858
 7512TIP3    H122500   6.427   3.079   1.208 -0.2193 -0.4077  1.0567
 7512TIP3    H222501   6.562   3.038   1.151 -0.5219  1.6107 -1.3069
 7513TIP3   OH222502   5.283   3.855   1.058 -0.2188 -0.1121 -0.0989
 7513TIP3    H122503   5.320   3.831   0.973 -1.5993  2.7357 -1.6582
 7513TIP3    H222504   5.217   3.788   1.075  1.3435 -1.7847 -0.2540
 7514TIP3   OH222505   0.336   0.817   2.516 -0.3490 -0.3860  0.2003
 7514TIP3    H122506   0.296   0.886   2.463 -0.7913 -1.2226 -0.5731
 7514TIP3    H222507   0.424   0.849   2.533 -1.0912  1.1749  1.3566
 7515TIP3   OH222508   2.451   2.866   2.963 -0.2326 -0.7053  0.6196
 7515TIP3    H122509   2.434   2.883   2.871  2.7141  1.2492  0.3125
 7515TIP3    H222510   2.375   2.904   3.008 -0.8993 -0.1435 -0.9178
 7516TIP3   OH222511   5.805   0.541   0.644 -0.2370  0.3153 -0.4522
 7516TIP3    H122512   5.723   0.531   0.692  0.6548 -0.7317  0.9584
 7516TIP3    H222513   5.833   0.631   0.662 -2.0304  1.4054 -2.6472
 7517TIP3   OH222514   0.484   5.372   5.793  0.2446 -0.1241  0.1836
 7517TIP3    H122515   0.482   5.453   5.844 -0.2157  1.4671 -2.2103
 7517TIP3    H222516   0.395   5.338   5.797  0.6518 -1.0977  1.9738
 7518TIP3   OH222517   3.028   1.775   1.126 -0.0275  0.5597  0.7212
 7518TIP3    H122518   3.082   1.842   1.168 -0.9390  1.3807  0.6158
 7518TIP3    H222519   3.084   1.697   1.124  0.1858  0.5901  3.1048
 7519TIP3   OH222520   5.192   3.139   2.869  0.5132 -0.4406  0.2016
 7519TIP3    H122521   5.229   3.209   2.924 -0.8565 -0.5634  1.3313
 7519TIP3    H222522   5.267   3.082   2.849  1.3011  0.3622  0.7776
 7520TIP3   OH222523   4.475   3.472   0.392 -0.3522 -0.5330 -0.2887
 7520TIP3    H122524   4.563   3.435   0.389  0.7634  1.9879 -1.3668
 7520TIP3    H222525   4.464   3.500   0.483  1.2266  1.7351 -0.6986
 7521TIP3   OH222526   2.920   2.777   1.548 -0.1427 -0.5342 -0.0487
 7521TIP3    H122527   2.881   2.862   1.566 -0.5058 -0.2390 -1.9827
 7521TIP3    H222528   3.009   2.798   1.519  0.6695 -1.0312  1.9429
 7522TIP3   OH222529   3.875   1.210   5.537  0.2675  0.2618  0.3694
 7522TIP3    H122530   3.818   1.271   5.491  1.1402  0.2781 -0.7325
 7522TIP3    H222531   3.818   1.168   5.602 -0.7471  0.9801 -0.0306
 7523TIP3   OH222532   5.533   0.558   2.569  0.2512  0.5142 -0.3240
 7523TIP3    H122533   5.574   0.472   2.577 -0.1771  0.1909 -1.4144
 7523TIP3    H222534   5.580   0.612   2.632  0.4206 -0.5515  0.5042
 7524TIP3   OH222535   4.230   2.964   5.158  0.1868 -0.3211 -0.8784
 7524TIP3    H122536   4.274   2.880   5.169  0.5969  0.1443  1.6578
 7524TIP3    H222537   4.196   2.962   5.069  3.3049 -1.6509 -2.1686
 7525TIP3   OH222538   0.614   5.954   1.467  0.7169  0.2866 -0.4442
 7525TIP3    H122539   0.556   5.901   1.522  1.9474  0.2913  0.8759
 7525TIP3    H222540   0.696   5.905   1.464  0.6515  0.1954 -2.4422
 7526TIP3   OH222541   4.153   3.736   1.775  0.1658  0.4626  0.3608
 7526TIP3    H122542   4.081   3.726   1.712  1.1095  0.2798 -0.7098
 7526TIP3    H222543   4.232   3.718   1.725  1.2598  3.7015  0.6571
 7527TIP3   OH222544   5.121   5.957   5.048 -0.0445 -0.1922 -0.1200
 7527TIP3    H122545   5.100   6.049   5.037  1.8839  0.5432  1.6169
 7527TIP3    H222546   5.084   5.934   5.133  1.8709 -0.1841  0.7576
 7528TIP3   OH222547   1.598   3.869   4.693  0.3176 -0.0151  0.6357
 7528TIP3    H122548   1.601   3.856   4.788 -0.2652 -0.5394  0.5850
 7528TIP3    H222549   1.513   3.835   4.667  0.1789  0.7835  0.0188
 7529TIP3   OH222550   5.779   5.485   4.328  0.0197 -0.4730  0.0512
 7529TIP3    H122551   5.839   5.421   4.366 -0.6983 -1.0058  0.3073
 7529TIP3    H222552   5.836   5.556   4.299  0.6988 -0.5675  1.0816
 7530TIP3   OH222553   3.305   0.738   1.885 -0.1144  0.2829  0.3487
 7530TIP3    H122554   3.380   0.767   1.831  0.5870 -2.4704 -0.3258
 7530TIP3    H222555   3.337   0.743   1.975  1.2661 -1.6376  0.0228
 7531TIP3   OH222556   0.048   4.020   4.067  0.1501  0.3656 -1.0729
 7531TIP3    H122557   0.007   4.093   4.114 -0.0630 -0.9974  0.9451
 7531TIP3    H222558   0.091   4.062   3.992 -0.0608  2.5489 -0.0559
 7532TIP3   OH222559   6.514   5.174   2.558  0.2196  0.3658 -0.0301
 7532TIP3    H122560   6.598   5.145   2.522 -0.1952 -0.7111 -0.1552
 7532TIP3    H222561   6.532   5.260   2.595  1.9782 -0.8465  2.1417
 7533TIP3   OH222562   0.849   4.272   0.133  0.2534  0.5509 -0.4089
 7533TIP3    H122563   0.798   4.251   0.211  1.3880  0.7676  0.4287
 7533TIP3    H222564   0.922   4.325   0.166 -0.2098  2.1834 -1.8685
 7534TIP3   OH222565   4.819   6.665   0.082 -0.3499  0.6163 -0.0521
 7534TIP3    H122566   4.786   6.710   0.160 -4.1881 -1.3095 -0.3332
 7534TIP3    H222567   4.798   6.726   0.010  0.9555  1.3351  0.1504
 7535TIP3   OH222568   4.453   5.001   1.177 -0.0422  0.3937 -0.1811
 7535TIP3    H122569   4.453   5.026   1.270 -0.3393 -1.4894  0.3568
 7535TIP3    H222570   4.369   5.033   1.144 -0.0314  0.8763  0.2374
 7536TIP3   OH222571   1.404   1.866   4.074  0.3475  0.0245 -0.3231
 7536TIP3    H122572   1.364   1.794   4.025 -0.7244 -0.1800  0.8139
 7536TIP3    H222573   1.408   1.835   4.164  1.9819  0.5281 -0.1979
 7537TIP3   OH222574   5.797   1.870   3.606  0.5143 -0.1287 -1.1017
 7537TIP3    H122575   5.816   1.806   3.675  0.0376 -0.1737 -1.0099
 7537TIP3    H222576   5.877   1.921   3.598 -0.1178  1.3151  1.0071
 7538TIP3   OH222577   4.318   4.540   2.832  0.5469 -0.8758  0.5524
 7538TIP3    H122578   4.368   4.510   2.909 -2.3308 -1.3761  2.3677
 7538TIP3    H222579   4.227   4.532   2.858 -0.5351  2.1874 -1.7311
 7539TIP3   OH222580   4.026   5.066   0.563 -0.2103 -0.6654 -0.2568
 7539TIP3    H122581   3.988   5.151   0.586 -1.4341 -0.9804 -1.0380
 7539TIP3    H222582   4.051   5.074   0.471  1.1898 -0.6435  0.0985
 7540TIP3   OH222583   0.886   4.136   3.427  0.4322 -0.0630  0.0881
 7540TIP3    H122584   0.871   4.045   3.453  1.3617 -0.7949 -1.7205
 7540TIP3    H222585   0.976   4.154   3.454  0.9287 -0.3779 -1.2494
 7541TIP3   OH222586   1.610   4.603   1.584  0.1298 -0.1911 -0.1193
 7541TIP3    H122587   1.642   4.689   1.557 -1.0050  0.8498  1.6478
 7541TIP3    H222588   1.522   4.598   1.546 -1.5628  1.3672  3.1569
 7542TIP3   OH222589   1.986   5.418   2.935  0.2340  1.1484 -0.0152
 7542TIP3    H122590   1.928   5.479   2.890 -3.5162 -1.5029  0.7384
 7542TIP3    H222591   2.010   5.354   2.867  0.1405  0.8248  0.2546
 7543TIP3   OH222592   2.858   4.090   2.845 -0.0374  0.6646 -0.0064
 7543TIP3    H122593   2.823   4.166   2.798 -1.5542  2.3012  3.4104
 7543TIP3    H222594   2.914   4.127   2.913 -0.0713 -1.3239  1.1897
 7544TIP3   OH222595   3.634   6.779   2.344  0.5108 -0.7413 -0.6673
 7544TIP3    H122596   3.725   6.804   2.333  1.0228 -1.2259  1.9186
 7544TIP3    H222597   3.605   6.754   2.256  2.9258 -0.8601 -1.4855
 7545TIP3   OH222598   2.834   5.744   4.961 -0.0438  0.2804 -0.0958
 7545TIP3    H122599   2.776   5.746   4.885  0.4228 -1.8803 -0.5770
 7545TIP3    H222600   2.920   5.765   4.926 -0.0718  0.7751  0.1239
 7546TIP3   OH222601   3.500   2.241   3.131  0.1020  0.5062  0.2344
 7546TIP3    H122602   3.451   2.278   3.058 -1.5911  1.3515  1.6963
 7546TIP3    H222603   3.585   2.285   3.128  0.0357  0.5827 -1.1388
 7547TIP3   OH222604   0.244   4.893   3.301  0.3709 -0.1121 -0.1121
 7547TIP3    H122605   0.165   4.840   3.313  2.1320 -2.5337  2.1275
 7547TIP3    H222606   0.278   4.867   3.216 -0.2823 -0.4007 -0.2927
 7548TIP3   OH222607   4.429   4.830   2.170 -0.4011  0.1599 -0.0765
 7548TIP3    H122608   4.497   4.774   2.208  0.7713  1.4662 -0.1804
 7548TIP3    H222609   4.444   4.824   2.075  0.9745  2.1015 -0.0234
 7549TIP3   OH222610   6.489   6.548   2.567 -0.0106  0.2336 -0.2805
 7549TIP3    H122611   6.440   6.497   2.632 -1.3275 -0.4086 -1.7406
 7549TIP3    H222612   6.538   6.482   2.517  2.2258  0.8388  0.9728
 7550TIP3   OH222613   5.009   6.444   1.375 -0.3144 -0.0059  0.3951
 7550TIP3    H122614   5.033   6.536   1.364 -1.0918  0.0662 -0.9958
 7550TIP3    H222615   5.092   6.398   1.381  0.1590  0.5443 -1.2953
 7551TIP3   OH222616   0.964   0.536   1.989  0.3400  0.7393 -0.0030
 7551TIP3    H122617   0.981   0.630   1.991 -0.7742  1.0283 -1.9788
 7551TIP3    H222618   0.922   0.521   1.905 -1.2636 -1.2479  1.0781
 7552TIP3   OH222619   1.222   2.961   1.497  0.0560  0.6234 -0.2456
 7552TIP3    H122620   1.281   2.891   1.522 -0.0487  1.2272  1.8421
 7552TIP3    H222621   1.136   2.934   1.529  0.1592  2.0154  1.3730
 7553TIP3   OH222622   5.539   2.724   2.348  0.3730  0.3086  0.3599
 7553TIP3    H122623   5.499   2.638   2.334  0.2977  0.0347  2.0514
 7553TIP3    H222624   5.469   2.777   2.384  0.9573  0.4496  1.3136
 7554TIP3   OH222625   0.216   0.011   1.221  0.0436  0.2236  0.1983
 7554TIP3    H122626   0.140   0.018   1.164  0.4173  0.4930 -0.2651
 7554TIP3    H222627   0.180  -0.015   1.306 -0.5444  0.1723 -0.0667
 7555TIP3   OH222628   2.969   4.548   3.159 -0.1178  0.2483 -0.1786
 7555TIP3    H122629   2.954   4.454   3.166 -1.1572  0.2271 -1.9367
 7555TIP3    H222630   3.043   4.566   3.216  0.2600 -1.6812 -0.0198
 7556TIP3   OH222631   3.818   1.487   4.043 -0.4330 -0.1889  0.2442
 7556TIP3    H122632   3.739   1.529   4.008  1.4615  1.9709 -1.7726
 7556TIP3    H222633   3.850   1.433   3.971 -0.0844 -1.1501  1.0970
 7557TIP3   OH222634   7.059   1.016   5.283  0.4602  0.0642 -0.5862
 7557TIP3    H122635   7.122   0.952   5.317 -1.1041 -2.0949 -1.5177
 7557TIP3    H222636   7.066   1.010   5.188 -0.0734  0.9246 -0.6969
 7558TIP3   OH222637   4.875   2.108   0.595 -0.4503 -0.2696 -0.0547
 7558TIP3    H122638   4.883   2.081   0.503 -1.7423  1.9819 -0.9262
 7558TIP3    H222639   4.784   2.139   0.602  0.0020  0.7834  1.6291
 7559TIP3   OH222640   5.803   1.563   4.330  0.2297  0.3277 -0.3885
 7559TIP3    H122641   5.845   1.567   4.244  2.6104  1.2485  0.7177
 7559TIP3    H222642   5.818   1.650   4.367  1.8322 -0.8539  2.0199
 7560TIP3   OH222643   3.862   2.932   5.093  0.8023  0.3538 -0.4146
 7560TIP3    H122644   3.879   3.018   5.132 -1.1822  0.8888 -0.6057
 7560TIP3    H222645   3.886   2.869   5.161  0.5253  1.1464  0.4332
 7561TIP3   OH222646   3.618   6.098   4.702  0.2295  0.4447  0.0196
 7561TIP3    H122647   3.627   6.038   4.776  1.2117  0.5024 -0.0397
 7561TIP3    H222648   3.613   6.040   4.626  1.9757  0.4134 -0.1166
 7562TIP3   OH222649   2.269   6.634   4.551 -0.8074 -1.1454 -0.3715
 7562TIP3    H122650   2.295   6.724   4.572 -2.0602 -0.8476 -0.0160
 7562TIP3    H222651   2.295   6.583   4.628 -2.4167 -0.6149  0.5744
 7563TIP3   OH222652   6.976   4.416   1.808 -0.0682 -0.0539 -0.3087
 7563TIP3    H122653   6.946   4.333   1.770 -0.2005 -0.5405  0.8355
 7563TIP3    H222654   7.069   4.421   1.784  0.2522 -1.1314  0.6175
 7564TIP3   OH222655   0.417   1.048   0.639 -0.6052  0.2092  0.0729
 7564TIP3    H122656   0.497   1.048   0.692 -0.0603  0.0559 -0.7289
 7564TIP3    H222657   0.352   1.004   0.693  0.3515 -1.3367  0.0220
 7565TIP3   OH222658   3.016   6.474   0.054  0.0540 -0.0634  0.0413
 7565TIP3    H122659   3.055   6.411  -0.007 -1.0538 -2.6787  1.8330
 7565TIP3    H222660   2.974   6.539  -0.002  1.2151 -0.9160 -1.9293
 7566TIP3   OH222661   3.417   5.471   3.886  0.1463  0.2765  0.5078
 7566TIP3    H122662   3.499   5.519   3.891 -0.0653  0.7172 -0.1245
 7566TIP3    H222663   3.439   5.382   3.915  0.6524  0.6133  1.1594
 7567TIP3   OH222664   5.615   5.467   1.713 -0.0603 -0.2699 -0.3063
 7567TIP3    H122665   5.567   5.511   1.643  1.2815  0.9741 -0.4822
 7567TIP3    H222666   5.655   5.537   1.763  0.3433 -1.2160  0.7428
 7568TIP3   OH222667   0.732   1.059  -0.001  0.2571 -0.2005 -0.8051
 7568TIP3    H122668   0.792   1.034   0.069 -0.0947  0.3615 -0.2946
 7568TIP3    H222669   0.684   1.134   0.034 -0.1975 -0.1560 -1.5032
 7569TIP3   OH222670   4.859   3.663   2.631 -0.1854 -0.0733  0.2189
 7569TIP3    H122671   4.840   3.678   2.724 -0.0039  0.1443  0.2222
 7569TIP3    H222672   4.819   3.738   2.586 -0.2115 -0.1415  0.1292
 7570TIP3   OH222673   1.477   0.283   1.495 -0.4337 -0.0623  0.1847
 7570TIP3    H122674   1.416   0.210   1.510 -0.0663 -0.4921 -0.3730
 7570TIP3    H222675   1.442   0.329   1.419 -0.7841  0.4791  0.6673
 7571TIP3   OH222676   4.910   1.680   2.322  0.1941  0.1762  0.2896
 7571TIP3    H122677   4.951   1.699   2.237 -0.4398 -0.3590 -0.1492
 7571TIP3    H222678   4.822   1.717   2.315  0.1371  0.1191  0.7053
 7572TIP3   OH222679   2.127   4.042   4.017  0.1846 -0.2976  0.0499
 7572TIP3    H122680   2.070   4.071   4.088  0.5072  2.8497 -0.7861
 7572TIP3    H222681   2.090   3.959   3.988 -3.9116  1.4190 -0.2878
 7573TIP3   OH222682   1.126   2.233   5.517  0.3282  0.3221 -0.1555
 7573TIP3    H122683   1.195   2.173   5.491 -0.8663 -0.5520 -1.4419
 7573TIP3    H222684   1.049   2.204   5.468 -1.1584  0.7998  1.7792
 7574TIP3   OH222685   5.187   2.196   5.121 -0.5394  0.3103  0.0063
 7574TIP3    H122686   5.248   2.122   5.116 -0.1660  0.6320 -0.2683
 7574TIP3    H222687   5.100   2.156   5.116 -0.3598 -0.1666  0.5576
 7575TIP3   OH222688   0.371   5.486   3.966  0.2325 -0.8919  0.0244
 7575TIP3    H122689   0.401   5.564   4.012 -1.2430  1.0260 -1.9844
 7575TIP3    H222690   0.389   5.413   4.025 -0.1457  1.1881  2.8856
 7576TIP3   OH222691   1.542   3.225   0.519 -0.0821 -0.3016  0.0625
 7576TIP3    H122692   1.630   3.234   0.556  0.0947 -0.8264 -0.2311
 7576TIP3    H222693   1.537   3.293   0.452  0.0296 -0.1461  0.2105
 7577TIP3   OH222694   2.429   4.397   3.871  0.0409  0.3309  0.0923
 7577TIP3    H122695   2.334   4.398   3.872 -0.0050 -1.1931 -0.5204
 7577TIP3    H222696   2.452   4.313   3.832  1.6427  0.5008  0.5927
 7578TIP3   OH222697   3.657   3.661   4.366 -0.1687  0.1001 -0.1089
 7578TIP3    H122698   3.693   3.736   4.318  0.0904 -0.6252 -1.0768
 7578TIP3    H222699   3.604   3.614   4.301 -0.5816 -0.3935  0.5700
 7579TIP3   OH222700   1.964   5.243   5.283 -0.5849 -0.1685  0.0485
 7579TIP3    H122701   1.953   5.265   5.191  0.9525 -0.7344 -0.2952
 7579TIP3    H222702   1.962   5.328   5.328  0.7955  0.3305 -0.7679
 7580TIP3   OH222703   0.307   6.423   5.830 -0.1857  0.3776  0.1222
 7580TIP3    H122704   0.243   6.456   5.766 -0.2800  0.6814  0.3750
 7580TIP3    H222705   0.374   6.381   5.776 -0.5327  0.1652 -0.1539
 7581TIP3   OH222706   1.842   3.067   0.458 -0.0609  0.2119 -0.1028
 7581TIP3    H122707   1.816   2.975   0.462  0.7390  0.0337  2.2061
 7581TIP3    H222708   1.915   3.069   0.396  0.6823 -0.9296  0.7074
 7582TIP3   OH222709   2.857   0.559   1.868  0.2882  0.0456 -0.6838
 7582TIP3    H122710   2.873   0.629   1.931 -0.9485 -0.8162  0.6532
 7582TIP3    H222711   2.823   0.604   1.790  2.5213  1.1942 -1.0768
 7583TIP3   OH222712   2.941   2.592   2.161 -0.2873  0.5564  0.2270
 7583TIP3    H122713   2.901   2.678   2.145  2.1775  2.1187  1.7475
 7583TIP3    H222714   2.916   2.571   2.251  1.3390  1.0851  0.8443
 7584TIP3   OH222715   2.993   3.259   1.496 -0.2192  0.2335 -0.4979
 7584TIP3    H122716   3.049   3.220   1.563 -0.4821 -0.2042 -0.5237
 7584TIP3    H222717   2.943   3.327   1.543 -1.0327 -0.6514 -0.0340
 7585TIP3   OH222718   5.381   5.452   2.888  0.3995  0.5155  0.1074
 7585TIP3    H122719   5.434   5.532   2.892 -0.2130  0.9740 -0.7477
 7585TIP3    H222720   5.383   5.418   2.978  0.5106  1.5886  0.5299
 7586TIP3   OH222721   0.859   0.878   1.851 -0.7528  0.9594 -0.5747
 7586TIP3    H122722   0.805   0.820   1.796  0.8523  0.0083 -1.2208
 7586TIP3    H222723   0.862   0.961   1.804  0.4356  0.2158 -1.8919
 7587TIP3   OH222724   6.424   1.708   3.563 -0.2559 -0.4367 -0.5405
 7587TIP3    H122725   6.368   1.705   3.485 -0.9292 -0.8846 -0.0545
 7587TIP3    H222726   6.365   1.734   3.633  0.0624 -1.2709  0.0460
 7588TIP3   OH222727   5.783   1.022   0.247  0.0310  0.7637  0.5015
 7588TIP3    H122728   5.750   1.077   0.177 -0.1301  0.6881  0.5184
 7588TIP3    H222729   5.750   1.062   0.327 -0.9172  0.0869  0.4680
 7589TIP3   OH222730   3.859   5.261   2.257 -0.1310  0.7383 -0.4048
 7589TIP3    H122731   3.796   5.216   2.313  0.4657 -1.1895 -1.1762
 7589TIP3    H222732   3.868   5.348   2.295 -0.9961  0.0531  1.4838
 7590TIP3   OH222733   2.345   4.466   2.571 -0.5888 -0.3183 -0.2064
 7590TIP3    H122734   2.304   4.467   2.658 -0.7160  2.2650 -0.2362
 7590TIP3    H222735   2.272   4.477   2.510 -0.5183 -2.2576 -0.7296
 7591TIP3   OH222736   0.410   4.235   3.514  0.1403 -0.1545 -0.7551
 7591TIP3    H122737   0.488   4.261   3.466  0.4572  1.1277  0.4056
 7591TIP3    H222738   0.341   4.232   3.447  0.8272  0.3225 -1.5059
 7592TIP3   OH222739   1.936   2.651   2.248  0.0361 -0.2689  0.4779
 7592TIP3    H122740   1.884   2.624   2.324 -2.4448  1.1792 -0.5510
 7592TIP3    H222741   1.880   2.714   2.202  1.8129 -0.3555 -2.0395
 7593TIP3   OH222742   6.525   6.113   3.587 -0.0417 -0.4158 -0.8794
 7593TIP3    H122743   6.491   6.203   3.593  1.2745  0.0660  0.0854
 7593TIP3    H222744   6.563   6.097   3.674  0.0165 -1.8002 -1.1426
 7594TIP3   OH222745   0.767   3.578   5.365 -0.4103  0.0027  0.1438
 7594TIP3    H122746   0.690   3.567   5.311  0.7042 -0.5334 -1.4003
 7594TIP3    H222747   0.743   3.539   5.449 -2.0265  0.4593 -0.0693
 7595TIP3   OH222748   6.170   0.755   5.904 -0.4857  0.3389 -0.2028
 7595TIP3    H122749   6.088   0.797   5.927  0.3179  1.0974  1.3872
 7595TIP3    H222750   6.174   0.761   5.808 -0.8373  3.0855 -0.1090
 7596TIP3   OH222751   5.387   3.592   0.271  0.6698 -0.6074  0.1576
 7596TIP3    H122752   5.303   3.554   0.297  0.6346 -1.0998 -0.6197
 7596TIP3    H222753   5.386   3.586   0.175  1.6504 -0.7525  0.1496
 7597TIP3   OH222754   3.671   4.065   1.805  0.1712 -0.4068  0.9775
 7597TIP3    H122755   3.707   3.978   1.792 -0.4314 -0.4908 -0.3041
 7597TIP3    H222756   3.636   4.064   1.894  1.9686 -0.7932  1.7155
 7598TIP3   OH222757   5.077   3.653   4.036 -0.0943  0.4663 -0.1629
 7598TIP3    H122758   5.064   3.718   4.105 -0.4155 -1.0414  1.2612
 7598TIP3    H222759   5.134   3.587   4.075  0.1725 -0.1653 -1.5413
 7599TIP3   OH222760   0.024   5.697   0.932 -0.0635 -0.8254  0.0745
 7599TIP3    H122761  -0.040   5.638   0.972 -0.4055  0.5979  1.7266
 7599TIP3    H222762   0.075   5.731   1.005  0.6745  0.2782 -0.9160
 7600TIP3   OH222763   6.575   0.060   5.187 -0.1435  0.2499  0.0674
 7600TIP3    H122764   6.540   0.147   5.166 -1.8646 -0.3624  0.2224
 7600TIP3    H222765   6.662   0.060   5.149 -0.4685  1.7150 -0.7755
 7601TIP3   OH222766   0.334   3.669   3.939 -0.3605 -0.4747  0.1879
 7601TIP3    H122767   0.342   3.762   3.919 -0.4403 -0.2581  1.1124
 7601TIP3    H222768   0.422   3.633   3.924 -0.8545 -0.7935 -2.6115
 7602TIP3   OH222769   6.620   1.039   1.160 -0.2777  0.2258 -0.1705
 7602TIP3    H122770   6.611   0.985   1.239 -2.0896 -2.9865 -2.3127
 7602TIP3    H222771   6.534   1.079   1.149 -0.6237 -0.7720 -1.3575
 7603TIP3   OH222772   5.837   3.195   5.705 -0.5525 -0.3995  0.0054
 7603TIP3    H122773   5.831   3.103   5.728 -0.0034 -0.8019 -1.3688
 7603TIP3    H222774   5.753   3.216   5.665 -1.9348  0.5836  3.1177
 7604TIP3   OH222775   2.293   2.701   4.652 -0.7288 -0.1513  0.0795
 7604TIP3    H122776   2.365   2.734   4.597  0.4352  0.4511  1.8686
 7604TIP3    H222777   2.222   2.763   4.638  0.2951  1.2451  0.8490
 7605TIP3   OH222778   6.122   1.261   4.306  0.1546 -0.2133  0.5024
 7605TIP3    H122779   6.160   1.198   4.246  2.1396 -0.2452  1.7196
 7605TIP3    H222780   6.145   1.347   4.270  1.3998 -0.2326  1.2020
 7606TIP3   OH222781   1.671   4.391   3.865  0.1865  0.1502 -0.1735
 7606TIP3    H122782   1.614   4.382   3.788 -0.0347 -0.8509  0.0947
 7606TIP3    H222783   1.610   4.406   3.938  0.2106 -1.2188  0.1638
 7607TIP3   OH222784   7.070   4.591   4.742  0.5261 -0.2974 -0.1291
 7607TIP3    H122785   7.158   4.554   4.751  0.9401  0.6405 -0.1823
 7607TIP3    H222786   7.085   4.685   4.730 -0.5632  0.1824  1.8707
 7608TIP3   OH222787   3.677   4.151   4.679  0.2713 -0.0491  0.3023
 7608TIP3    H122788   3.594   4.198   4.678  0.2601  0.3716  4.4942
 7608TIP3    H222789   3.660   4.072   4.730  2.1328 -0.6479  0.0860
 7609TIP3   OH222790   2.441   0.062   0.365  0.1031  0.4006  0.0085
 7609TIP3    H122791   2.394   0.136   0.326 -1.1324 -0.3953 -0.0357
 7609TIP3    H222792   2.533   0.083   0.351 -0.1447  2.6655  1.2881
 7610TIP3   OH222793   3.230   3.818   1.203  0.4490 -0.2350 -0.4213
 7610TIP3    H122794   3.230   3.725   1.225 -1.9371 -0.2598 -0.2998
 7610TIP3    H222795   3.211   3.821   1.109 -1.4409  0.1334 -0.0595
 7611TIP3   OH222796   2.903   0.126   3.853  0.3336 -0.4143 -0.3371
 7611TIP3    H122797   2.826   0.131   3.908  0.6052 -1.7866  0.2147
 7611TIP3    H222798   2.930   0.217   3.840  0.2187 -0.0326  1.7388
 7612TIP3   OH222799   0.846   3.204   5.270 -0.2392  0.3877  0.1334
 7612TIP3    H122800   0.752   3.215   5.282  0.0333  2.5632  0.8053
 7612TIP3    H222801   0.873   3.146   5.341 -1.1038 -0.5561 -0.2882
 7613TIP3   OH222802   2.370   1.624   3.791 -0.1818  0.1905  0.2661
 7613TIP3    H122803   2.288   1.603   3.834  0.2773 -2.3214  0.0570
 7613TIP3    H222804   2.421   1.543   3.795  0.9211  0.6218 -2.5991
 7614TIP3   OH222805   5.011   4.740   2.064  0.7339 -0.0404  0.3296
 7614TIP3    H122806   4.975   4.783   2.141  1.5086 -0.6236  1.0263
 7614TIP3    H222807   4.939   4.743   2.000 -1.1920 -2.5085  2.1566
 7615TIP3   OH222808   3.689   1.174   4.082  0.4411  0.5421 -0.4005
 7615TIP3    H122809   3.783   1.193   4.080  0.5609 -0.1142 -1.1634
 7615TIP3    H222810   3.653   1.239   4.143  1.8651 -1.2758  2.6121
 7616TIP3   OH222811   1.276   3.301   1.083 -0.1918  0.4251  0.7205
 7616TIP3    H122812   1.264   3.254   1.166  0.6642  1.5590  1.5141
 7616TIP3    H222813   1.327   3.378   1.106 -1.7649  1.9133 -0.4885
 7617TIP3   OH222814   4.917   0.290   2.301  0.6372  0.0048 -0.1452
 7617TIP3    H122815   4.983   0.301   2.370  0.5564 -0.6822  0.0573
 7617TIP3    H222816   4.869   0.372   2.300  0.1784 -0.2192  1.1185
 7618TIP3   OH222817   1.772   2.820   4.868  1.1709 -0.0706  0.7834
 7618TIP3    H122818   1.820   2.820   4.785 -0.7808 -0.9256 -0.4054
 7618TIP3    H222819   1.709   2.748   4.859 -1.3539  1.9019  1.6127
 7619TIP3   OH222820   3.475   3.155   0.394 -0.2023 -0.4225  0.0745
 7619TIP3    H122821   3.511   3.074   0.358  0.9924 -0.0536  0.3736
 7619TIP3    H222822   3.471   3.140   0.489 -0.8652 -0.4643  0.0409
 7620TIP3   OH222823   6.664   3.481   2.381 -0.0866 -0.1652  0.1982
 7620TIP3    H122824   6.686   3.497   2.473 -1.0869  0.7945  0.2868
 7620TIP3    H222825   6.664   3.385   2.373  1.1318 -0.2506  0.8983
 7621TIP3   OH222826   6.848   1.277   3.826  0.0381  0.3946 -0.3322
 7621TIP3    H122827   6.792   1.294   3.902  0.5555 -0.6443  0.3165
 7621TIP3    H222828   6.831   1.350   3.766 -2.0770  0.0499 -0.2186
 7622TIP3   OH222829   0.230   1.249   4.669  0.1317 -0.5496 -0.1089
 7622TIP3    H122830   0.277   1.167   4.678  0.1388 -0.5449 -0.1039
 7622TIP3    H222831   0.274   1.309   4.729  0.1763 -0.5202 -0.1709
 7623TIP3   OH222832   0.562   3.116   0.796 -0.1050 -0.2525  0.1855
 7623TIP3    H122833   0.575   3.067   0.877 -1.7975 -0.1884  0.5328
 7623TIP3    H222834   0.496   3.182   0.818  2.0161  2.2288 -0.2639
 7624TIP3   OH222835   6.739   1.409   0.235 -0.5948  1.0346  0.4092
 7624TIP3    H122836   6.646   1.387   0.248 -0.2094 -1.2524 -0.2488
 7624TIP3    H222837   6.775   1.413   0.324 -0.1373 -4.3230  0.8112
 7625TIP3   OH222838   0.839   4.783   3.850 -0.2302  0.5008 -0.2170
 7625TIP3    H122839   0.861   4.691   3.841  0.4240  0.7280 -0.9687
 7625TIP3    H222840   0.903   4.830   3.797  0.2510  1.4914  1.1682
 7626TIP3   OH222841   6.151   5.254   2.538  0.0431  0.1945 -0.2056
 7626TIP3    H122842   6.077   5.288   2.588 -0.8811 -0.9474 -0.7625
 7626TIP3    H222843   6.226   5.305   2.569 -0.7341  0.4469  1.3500
 7627TIP3   OH222844   7.177   1.727   4.278  0.0755 -0.0228  0.4087
 7627TIP3    H122845   7.226   1.694   4.353  0.2440 -3.5243 -1.0250
 7627TIP3    H222846   7.218   1.684   4.203 -0.8716  2.3547 -1.5826
 7628TIP3   OH222847   6.061   4.682   2.621  0.2744 -0.1780  0.1654
 7628TIP3    H122848   6.008   4.751   2.662 -1.6309 -2.4339  1.7966
 7628TIP3    H222849   6.097   4.633   2.695  0.0251 -2.0254 -0.8801
 7629TIP3   OH222850   3.086   5.471   3.921 -0.1772 -0.0865 -0.0917
 7629TIP3    H122851   3.001   5.426   3.916 -1.8303  2.3171  2.9801
 7629TIP3    H222852   3.111   5.467   4.013  1.4802  1.9244 -0.3694
 7630TIP3   OH222853   1.275   4.281   4.488  0.2329 -0.4144 -0.6000
 7630TIP3    H122854   1.267   4.189   4.463 -2.9182  0.1467 -2.2387
 7630TIP3    H222855   1.276   4.280   4.583 -0.5999 -2.1486 -0.5666
 7631TIP3   OH222856   4.822   0.047   2.229 -0.1358 -0.4549 -0.1633
 7631TIP3    H122857   4.820   0.137   2.261 -0.1276 -0.6317  0.3322
 7631TIP3    H222858   4.739   0.009   2.259  0.5645 -1.0911  1.0284
 7632TIP3   OH222859   5.335   6.344   2.709 -0.5680 -0.0784  0.4015
 7632TIP3    H122860   5.418   6.297   2.698  1.6273  2.7757  2.7877
 7632TIP3    H222861   5.320   6.387   2.625  0.6653 -0.2978  0.0530
 7633TIP3   OH222862   2.322   0.171   0.142  0.2575  0.0100 -0.0083
 7633TIP3    H122863   2.321   0.082   0.106  1.5195  0.4544 -1.2293
 7633TIP3    H222864   2.347   0.226   0.069 -0.3889  1.3797  0.7650
 7634TIP3   OH222865   2.897   0.032   3.251 -0.0384  0.5331 -0.6369
 7634TIP3    H122866   2.954   0.067   3.320  0.3528 -1.1084 -0.0974
 7634TIP3    H222867   2.940   0.059   3.169  0.5494  0.8233 -0.2417
 7635TIP3   OH222868   2.575   5.642   3.507  0.6345 -0.4255  0.4994
 7635TIP3    H122869   2.487   5.623   3.540  0.0791  0.8953 -0.1732
 7635TIP3    H222870   2.615   5.695   3.575 -0.2339  1.6348 -0.5324
 7636TIP3   OH222871   4.988   6.528   5.330  0.4566  0.4155 -0.2513
 7636TIP3    H122872   5.032   6.608   5.358 -1.7115  1.1884  1.1849
 7636TIP3    H222873   4.952   6.491   5.411 -0.8968 -0.5395 -1.2490
 7637TIP3   OH222874   1.438   5.654   4.223 -0.6765 -0.6836  0.5762
 7637TIP3    H122875   1.414   5.616   4.139  0.1609  1.7289 -0.8519
 7637TIP3    H222876   1.403   5.743   4.220 -0.7319 -0.5698  2.8512
 7638TIP3   OH222877   1.927   0.493   0.229  0.5307  0.1942  0.4409
 7638TIP3    H122878   1.913   0.501   0.135 -0.6268  0.3252  0.6108
 7638TIP3    H222879   1.864   0.427   0.258  0.5791  0.4581  1.1834
 7639TIP3   OH222880   6.962   1.186   0.472 -0.7704  0.4787 -0.0474
 7639TIP3    H122881   7.030   1.208   0.408  0.7358  1.0703  1.6921
 7639TIP3    H222882   6.998   1.112   0.521 -2.4968 -0.8846 -0.7316
 7640TIP3   OH222883   6.037   3.035   1.680 -0.0136 -0.4141 -0.1623
 7640TIP3    H122884   5.975   3.100   1.712 -0.6440 -2.0540  2.1921
 7640TIP3    H222885   5.984   2.956   1.665  1.0628 -1.0278 -0.8778
 7641TIP3   OH222886   2.830   4.549   4.192 -0.4746 -0.4725  0.0733
 7641TIP3    H122887   2.925   4.542   4.197 -0.3130  1.8394  1.7221
 7641TIP3    H222888   2.813   4.581   4.104  0.2236 -1.1245 -0.3146
 7642TIP3   OH222889   5.144   1.345   4.173 -0.1579 -0.0145 -0.4782
 7642TIP3    H122890   5.194   1.425   4.186  2.5668 -1.8452  1.7083
 7642TIP3    H222891   5.197   1.293   4.113 -1.1230 -0.7551 -0.7125
 7643TIP3   OH222892   6.938   5.998   0.635  1.2986  0.0859  1.0391
 7643TIP3    H122893   6.925   5.922   0.579  2.9088 -0.2885  1.1265
 7643TIP3    H222894   6.852   6.041   0.638  0.2663 -1.9032  1.2714
 7644TIP3   OH222895   0.941   0.746   3.124  0.1180 -0.0004 -0.3886
 7644TIP3    H122896   1.000   0.753   3.199 -0.8750 -2.3917  0.7390
 7644TIP3    H222897   0.998   0.750   3.047  1.5310 -0.4093  0.6001
 7645TIP3   OH222898   7.152   1.273   5.873 -0.4433 -0.5073 -0.3299
 7645TIP3    H122899   7.131   1.254   5.782  1.9001  3.2475 -1.9224
 7645TIP3    H222900   7.120   1.363   5.887  1.5506  0.0036  1.6424
 7646TIP3   OH222901   1.151   3.103   2.799 -0.3196  0.6512  0.1153
 7646TIP3    H122902   1.113   3.113   2.711  0.2756  1.0150 -0.1086
 7646TIP3    H222903   1.075   3.092   2.856 -0.6740 -1.1913 -0.6282
 7647TIP3   OH222904   3.781   6.537   4.462 -0.2154 -0.0475  0.1698
 7647TIP3    H122905   3.768   6.524   4.367  3.8505  0.4255 -0.6243
 7647TIP3    H222906   3.813   6.452   4.493  2.4843  0.8885  0.1556
 7648TIP3   OH222907   3.385   5.471   0.546 -0.6335 -0.5199 -0.3826
 7648TIP3    H122908   3.374   5.502   0.636 -3.3453 -0.0603 -0.7678
 7648TIP3    H222909   3.408   5.549   0.496 -2.1463 -0.1127 -0.5055
 7649TIP3   OH222910   6.331   3.666   4.155  0.8045 -0.0065 -0.0612
 7649TIP3    H122911   6.375   3.746   4.125  0.8844 -0.0863 -0.1585
 7649TIP3    H222912   6.401   3.601   4.160  0.7766 -0.0146  0.2240
 7650TIP3   OH222913   1.019   2.611   4.598 -0.6258  0.1388  0.9751
 7650TIP3    H122914   0.947   2.555   4.569  0.3860 -0.3784 -0.6578
 7650TIP3    H222915   1.063   2.637   4.517  1.0638  0.4058  1.9409
 7651TIP3   OH222916   4.118   1.448   4.513 -0.0986  0.2501  0.1969
 7651TIP3    H122917   4.206   1.447   4.551  0.1858  1.3512 -0.3974
 7651TIP3    H222918   4.128   1.401   4.430  0.1827  1.3336 -0.3888
 7652TIP3   OH222919   2.349   5.680   2.497 -0.3370  0.0354 -0.0667
 7652TIP3    H122920   2.373   5.592   2.524  1.1280  0.5864  0.5121
 7652TIP3    H222921   2.349   5.677   2.402 -0.6960 -0.6849 -0.0498
 7653TIP3   OH222922   4.706   1.213   1.603  0.0139  0.1043 -0.0849
 7653TIP3    H122923   4.731   1.283   1.664 -1.3472 -0.3473  1.0441
 7653TIP3    H222924   4.731   1.132   1.647 -0.0205 -0.2009 -0.6144
 7654TIP3   OH222925   2.470   4.470   4.199  0.1176 -0.0293  0.3009
 7654TIP3    H122926   2.483   4.492   4.107 -0.4897 -1.6049 -0.1972
 7654TIP3    H222927   2.555   4.441   4.230  0.0633 -0.6453 -0.1132
 7655TIP3   OH222928   5.384   5.049   5.635 -0.2152 -0.3554  0.0416
 7655TIP3    H122929   5.434   4.968   5.642 -1.0959 -0.8619  0.6085
 7655TIP3    H222930   5.296   5.022   5.611 -0.2786  0.5172 -0.7695
 7656TIP3   OH222931   6.027   5.649   0.461  0.4976  0.6538 -0.6103
 7656TIP3    H122932   6.076   5.567   0.468  0.8922  0.9304 -0.0210
 7656TIP3    H222933   6.045   5.695   0.543 -2.4584 -0.1479  0.5993
 7657TIP3   OH222934   4.410   5.222   4.210  0.0157 -0.5348 -0.1830
 7657TIP3    H122935   4.381   5.165   4.281  2.0648 -2.0266 -0.4679
 7657TIP3    H222936   4.358   5.195   4.134 -0.6565 -0.4091  0.2255
 7658TIP3   OH222937   3.539   6.747   4.307 -0.3289 -0.3368  0.2813
 7658TIP3    H122938   3.633   6.759   4.294  0.0717 -1.7656  1.5143
 7658TIP3    H222939   3.517   6.671   4.253 -1.2791  1.2500 -1.7013
 7659TIP3   OH222940   3.260   2.350   2.731  0.1853  0.0524  0.4793
 7659TIP3    H122941   3.166   2.343   2.712  0.1035  0.5924  0.6502
 7659TIP3    H222942   3.297   2.388   2.651 -0.2315  2.7767  1.4621
 7660TIP3   OH222943   6.273   6.276   3.218 -0.3984  0.3834 -0.2783
 7660TIP3    H122944   6.364   6.250   3.202 -0.6723 -0.4857 -0.4789
 7660TIP3    H222945   6.240   6.211   3.280 -0.6462  1.1871  0.4558
 7661TIP3   OH222946   6.611   3.595   4.250  0.4754  0.0609 -0.7243
 7661TIP3    H122947   6.663   3.604   4.170  0.5116 -0.5258 -0.7730
 7661TIP3    H222948   6.592   3.685   4.277  1.3599  0.2795 -0.8084
 7662TIP3   OH222949   2.491   0.227   1.360  0.8368 -0.2137 -0.0911
 7662TIP3    H122950   2.525   0.308   1.396 -1.5997  0.1432  1.6572
 7662TIP3    H222951   2.488   0.167   1.435  0.5739 -1.2211 -0.8819
 7663TIP3   OH222952   1.550   4.394   4.782  0.0924 -0.0216 -0.1500
 7663TIP3    H122953   1.577   4.319   4.835  0.0444  1.3064  1.8699
 7663TIP3    H222954   1.455   4.399   4.794  0.1398  0.5481  0.0211
 7664TIP3   OH222955   4.545   5.463   4.071 -0.0248  0.0569  0.3523
 7664TIP3    H122956   4.621   5.458   4.014 -0.1364  1.5527  0.0330
 7664TIP3    H222957   4.519   5.372   4.085  0.0223 -0.3581 -1.9562
 7665TIP3   OH222958   1.004   1.700   0.169 -0.5004 -0.1900  0.0710
 7665TIP3    H122959   0.933   1.700   0.234 -2.0636 -1.4659 -1.5340
 7665TIP3    H222960   0.959   1.702   0.084  1.4593  1.0907 -1.0299
 7666TIP3   OH222961   4.677   2.195   3.024 -0.1863  0.7328  0.2369
 7666TIP3    H122962   4.619   2.179   2.950 -0.1305  0.2917  0.2900
 7666TIP3    H222963   4.742   2.125   3.020 -0.7579  0.1151  1.2798
 7667TIP3   OH222964   1.913   1.849   5.397 -1.1848  0.4833 -0.3513
 7667TIP3    H122965   1.912   1.922   5.335  0.7325  0.5385 -0.3912
 7667TIP3    H222966   1.915   1.771   5.343 -0.9992  0.4821 -0.3435
 7668TIP3   OH222967   1.441   6.714   1.360  0.5375  0.0861  0.2852
 7668TIP3    H122968   1.419   6.767   1.283 -0.1996 -0.4510  0.1171
 7668TIP3    H222969   1.357   6.686   1.395  0.8411  0.7002  1.5812
 7669TIP3   OH222970   1.340   6.133   3.897  0.0928  0.2137  0.2120
 7669TIP3    H122971   1.261   6.162   3.852  0.7970  0.0983 -1.1677
 7669TIP3    H222972   1.321   6.044   3.926 -0.0164 -0.1187 -0.8417
 7670TIP3   OH222973   5.761   4.438   4.381  0.7940 -0.1424  0.1590
 7670TIP3    H122974   5.673   4.433   4.417  0.0430  2.1260 -1.1715
 7670TIP3    H222975   5.817   4.455   4.457  0.1192 -1.4832  1.0002
 7671TIP3   OH222976   4.056   3.106   1.089  0.1513  0.2014 -0.0154
 7671TIP3    H122977   4.119   3.045   1.052  1.1437  0.5403  1.0601
 7671TIP3    H222978   4.079   3.112   1.182 -0.4722  1.5253  0.0842
 7672TIP3   OH222979   6.688   6.227   0.798  0.2152 -0.3624 -0.5412
 7672TIP3    H122980   6.618   6.162   0.805  1.5003 -1.9295 -1.4039
 7672TIP3    H222981   6.698   6.240   0.704  0.3009  0.7598 -0.3867
 7673TIP3   OH222982   5.990   3.952   5.649 -0.1179  0.4053 -0.2909
 7673TIP3    H122983   6.052   4.025   5.657  0.1202  0.1351  0.3837
 7673TIP3    H222984   5.964   3.933   5.740 -2.4441  1.5884 -0.6247
 7674TIP3   OH222985   6.648   3.047   2.944 -0.2885  0.3869  0.3838
 7674TIP3    H122986   6.729   2.997   2.936 -1.1305 -0.8695 -0.8747
 7674TIP3    H222987   6.613   3.023   3.030 -0.8401 -1.5371 -0.3192
 7675TIP3   OH222988   1.276   3.550   4.597  0.2657  0.4308  0.4296
 7675TIP3    H122989   1.183   3.569   4.609 -0.0175 -0.8694  0.3490
 7675TIP3    H222990   1.321   3.618   4.648 -0.6831  1.7279 -0.4055
 7676TIP3   OH222991   3.832   4.029   0.498  0.2178 -0.2066  0.0336
 7676TIP3    H122992   3.867   3.998   0.415 -0.8442 -1.6841  0.0999
 7676TIP3    H222993   3.866   3.967   0.563 -0.5944 -0.2766  0.4035
 7677TIP3   OH222994   6.879   0.555   0.202 -0.2169 -0.4849 -0.3985
 7677TIP3    H122995   6.917   0.575   0.117  0.5665  2.8645  0.6098
 7677TIP3    H222996   6.844   0.638   0.233  0.8795 -1.1999  3.1948
 7678TIP3   OH222997   6.020   3.773   1.091  0.5208 -0.0422  0.5736
 7678TIP3    H122998   6.030   3.866   1.074  1.8129 -0.0373  1.2395
 7678TIP3    H222999   6.075   3.730   1.025 -0.3359 -0.3507  0.0541
 7679TIP3   OH223000   5.092   0.341   0.653 -0.2895 -0.3665  0.6224
 7679TIP3    H123001   5.160   0.370   0.713 -0.9862 -1.7282  2.1487
 7679TIP3    H223002   5.056   0.422   0.616  0.6985  0.4658  1.4359
 7680TIP3   OH223003   5.298   4.994   4.555 -0.0697 -0.1567  0.2962
 7680TIP3    H123004   5.214   4.976   4.513 -0.3040 -1.0849  1.1305
 7680TIP3    H223005   5.348   5.042   4.489 -0.7251 -0.8603 -0.7480
 7681TIP3   OH223006   4.121   2.195   5.519  0.1942  0.2307  0.0157
 7681TIP3    H123007   4.193   2.150   5.564  1.6730  1.6108 -0.8423
 7681TIP3    H223008   4.089   2.130   5.456  0.7650 -0.3948  0.3547
 7682TIP3   OH223009   0.517   1.481   1.580 -0.9294 -0.1023 -0.2611
 7682TIP3    H123010   0.504   1.508   1.489 -0.4518 -0.2001 -0.3610
 7682TIP3    H223011   0.580   1.544   1.615 -0.9396 -0.2026 -0.0628
 7683TIP3   OH223012   3.849   0.848   5.795 -0.1779 -0.1446 -0.5047
 7683TIP3    H123013   3.776   0.795   5.763 -1.4672  0.2874  1.5416
 7683TIP3    H223014   3.927   0.799   5.770 -1.2092 -1.3748 -1.4506
 7684TIP3   OH223015   2.296   2.298   1.130 -0.3056 -0.5669 -0.4069
 7684TIP3    H123016   2.286   2.236   1.057  0.6683 -0.0352 -1.0119
 7684TIP3    H223017   2.206   2.318   1.156 -0.6825 -0.6002 -1.6162
 7685TIP3   OH223018   7.063   4.004   2.240  0.2943  0.1373 -0.3978
 7685TIP3    H123019   7.154   4.034   2.243  0.5362 -0.0771  5.0890
 7685TIP3    H223020   7.071   3.909   2.229  0.6243  0.2376 -1.0968
 7686TIP3   OH223021   6.156   2.225   5.230 -0.8508  0.1632  0.3100
 7686TIP3    H123022   6.095   2.283   5.187 -0.4361  1.5262  1.4747
 7686TIP3    H223023   6.110   2.141   5.237 -2.1674  0.8636  0.2203
 7687TIP3   OH223024   2.808   0.478   1.248  0.4807 -0.1898 -0.1834
 7687TIP3    H123025   2.893   0.521   1.247  0.3878  0.0007  0.0090
 7687TIP3    H223026   2.755   0.529   1.186 -0.5038  1.7872  2.1406
 7688TIP3   OH223027   3.508   2.268   0.797 -0.4273  0.0480 -0.0822
 7688TIP3    H123028   3.504   2.216   0.877  2.9964 -0.7062 -0.2683
 7688TIP3    H223029   3.502   2.205   0.726 -0.5685  0.3937 -0.3837
 7689TIP3   OH223030   4.647   6.159   1.556 -0.5086 -0.0640 -0.4632
 7689TIP3    H123031   4.737   6.190   1.548 -0.4905 -0.4049 -1.6935
 7689TIP3    H223032   4.600   6.232   1.597  0.1489  0.4368 -0.5882
 7690TIP3   OH223033   2.578   6.251   0.087 -0.3500  0.0873  0.6337
 7690TIP3    H123034   2.647   6.193   0.052 -1.8595 -0.7485 -1.1203
 7690TIP3    H223035   2.625   6.311   0.144  1.8461 -0.5175 -0.4022
 7691TIP3   OH223036   5.007   4.814   5.344 -0.3684  0.5505  0.0874
 7691TIP3    H123037   4.955   4.734   5.333  1.1080 -0.4808  0.3763
 7691TIP3    H223038   5.010   4.853   5.257 -0.1171 -0.3334 -0.3072
 7692TIP3   OH223039   1.585   6.379   0.601 -0.2101  0.6925 -0.3028
 7692TIP3    H123040   1.548   6.413   0.682  0.6441 -0.6555  0.6994
 7692TIP3    H223041   1.643   6.448   0.570 -2.9709  2.5991 -1.5864
 7693TIP3   OH223042   3.121   6.418   0.988 -0.7404  0.2880  0.2110
 7693TIP3    H123043   3.048   6.479   0.972 -0.3724  0.9043  0.8182
 7693TIP3    H223044   3.177   6.427   0.911 -1.5405 -0.5534 -0.4909
 7694TIP3   OH223045   1.073   1.932   4.728  0.0232  0.3536 -0.3326
 7694TIP3    H123046   1.085   1.849   4.680 -0.4810  0.0638  0.0294
 7694TIP3    H223047   1.084   2.000   4.661  0.7323  0.0080 -0.5744
 7695TIP3   OH223048   6.992   4.881   2.794  0.5789  0.0437  0.1817
 7695TIP3    H123049   6.922   4.942   2.770  1.3793  1.0974  0.4775
 7695TIP3    H223050   7.067   4.910   2.743  0.9002 -0.8913  0.1050
 7696TIP3   OH223051   4.721   6.263   4.866  0.1737 -0.5427  0.0766
 7696TIP3    H123052   4.640   6.313   4.867  0.5667  0.1062  0.8365
 7696TIP3    H223053   4.771   6.299   4.792  0.4627  0.2212  0.6301
 7697TIP3   OH223054   6.075   1.169   5.710  0.2133 -0.2676 -0.1869
 7697TIP3    H123055   6.128   1.242   5.743  0.3742 -0.6531  0.4230
 7697TIP3    H223056   6.082   1.176   5.615  0.2029  0.5272 -0.1342
 7698TIP3   OH223057   2.085   0.929   1.126 -0.3942  0.1340 -0.0950
 7698TIP3    H123058   2.116   1.016   1.150 -0.2683 -0.2649  1.3176
 7698TIP3    H223059   2.164   0.875   1.119 -0.4923  0.0531 -0.6495
 7699TIP3   OH223060   6.391   4.325   1.693  0.0680  0.2975 -0.4089
 7699TIP3    H123061   6.306   4.327   1.737  0.2887  3.2104  0.0938
 7699TIP3    H223062   6.442   4.261   1.742 -0.5633  1.4884  1.9683
 7700TIP3   OH223063   4.494   6.443   4.928 -0.4638  1.2541 -0.1000
 7700TIP3    H123064   4.538   6.408   5.005 -1.0427 -0.0251 -0.3205
 7700TIP3    H223065   4.524   6.534   4.921  0.3011  1.1001  1.0866
 7701TIP3   OH223066   1.280   5.508   4.732  0.0779 -0.3841  0.0677
 7701TIP3    H123067   1.285   5.563   4.810 -2.0806  2.4644 -1.5625
 7701TIP3    H223068   1.351   5.541   4.676 -0.2222 -0.3687 -0.3040
 7702TIP3   OH223069   2.321   6.467   4.764  0.1367  0.1208  0.0703
 7702TIP3    H123070   2.245   6.409   4.765  0.5206 -0.3902  0.4197
 7702TIP3    H223071   2.395   6.408   4.750  0.4587  0.6231 -0.3489
 7703TIP3   OH223072   1.052   5.062   3.131  0.0769 -0.3604 -0.0167
 7703TIP3    H123073   1.144   5.076   3.152  0.0032  0.3286 -0.1083
 7703TIP3    H223074   1.021   5.001   3.197  1.1570 -2.4991 -1.3502
 7704TIP3   OH223075   6.636   1.491   5.716 -0.1442  0.0220 -0.0109
 7704TIP3    H123076   6.651   1.457   5.804  0.8962 -1.7367 -0.8216
 7704TIP3    H223077   6.622   1.413   5.662  0.3587  0.9941 -1.6052
 7705TIP3   OH223078   0.898   5.257   5.545 -0.1332 -0.3132 -0.0889
 7705TIP3    H123079   0.932   5.172   5.518 -1.0414 -0.5011 -0.7051
 7705TIP3    H223080   0.803   5.246   5.544 -0.2696  0.7997 -0.4910
 7706TIP3   OH223081   4.546   2.092   2.827 -0.3725 -0.0412  0.3879
 7706TIP3    H123082   4.472   2.036   2.849 -1.2612  0.9406 -0.0028
 7706TIP3    H223083   4.544   2.098   2.731 -0.1209  0.4171  0.4058
 7707TIP3   OH223084   2.362   4.150   0.730  0.4131 -0.4304  0.6432
 7707TIP3    H123085   2.432   4.200   0.771  0.7180 -0.9878  0.8141
 7707TIP3    H223086   2.325   4.210   0.664 -1.1047  1.0541  2.7267
 7708TIP3   OH223087   4.806   2.730   4.468  0.4796 -0.2018 -0.0734
 7708TIP3    H123088   4.885   2.757   4.515 -0.3484  0.3638  1.0350
 7708TIP3    H223089   4.752   2.809   4.466 -0.9267 -1.0917  1.0166
 7709TIP3   OH223090   3.683   0.517   1.004  0.5105 -0.9914 -0.1633
 7709TIP3    H123091   3.711   0.459   0.933  0.4442 -2.2891  0.8341
 7709TIP3    H223092   3.763   0.561   1.032  0.4142  0.1155 -1.5194
 7710TIP3   OH223093   3.472   3.882   4.446  0.1291 -0.6443 -0.0040
 7710TIP3    H123094   3.548   3.852   4.396 -1.5829 -3.5366 -1.1056
 7710TIP3    H223095   3.455   3.811   4.508 -1.9331 -0.3096 -0.1219
 7711TIP3   OH223096   4.612   4.342   3.560  0.5300  0.2109 -0.0092
 7711TIP3    H123097   4.635   4.418   3.614  0.1214 -0.3572  0.9801
 7711TIP3    H223098   4.519   4.328   3.577  0.4042 -0.0091 -0.8326
 7712TIP3   OH223099   4.016   3.959   2.786  0.2122  0.9100  0.0579
 7712TIP3    H123100   3.923   3.981   2.790 -0.5063 -1.5392 -0.9855
 7712TIP3    H223101   4.027   3.893   2.855  1.1394  1.0436  0.0489
 7713TIP3   OH223102   5.126   4.838   4.147 -0.5576 -0.2282  0.1773
 7713TIP3    H123103   5.072   4.843   4.068  2.2655  2.1525 -1.7944
 7713TIP3    H223104   5.115   4.923   4.190  0.1643 -0.4051  0.7407
 7714TIP3   OH223105   2.289   0.065   1.237 -0.1312 -0.2420 -0.0745
 7714TIP3    H123106   2.344   0.134   1.272 -1.1116  0.4390  0.1700
 7714TIP3    H223107   2.306   0.065   1.143 -0.7403  0.9029 -0.1933
 7715TIP3   OH223108   2.152   0.489   5.495 -0.0544  0.0464  0.0729
 7715TIP3    H123109   2.096   0.528   5.427  1.5556  0.1709 -1.2344
 7715TIP3    H223110   2.223   0.552   5.507  0.0788 -0.3274  1.3681
 7716TIP3   OH223111   0.159   5.913   3.930  0.3209  0.3198  0.3673
 7716TIP3    H123112   0.151   5.818   3.939 -0.3989  0.4866  1.8798
 7716TIP3    H223113   0.094   5.937   3.863 -0.4283 -0.1289  0.9202
 7717TIP3   OH223114   5.658   5.661   5.764  0.4485 -0.1706  0.4261
 7717TIP3    H123115   5.694   5.706   5.688  0.3581  0.7057  0.8887
 7717TIP3    H223116   5.724   5.673   5.833  0.2213 -0.3702  0.6854
 7718TIP3   OH223117   1.137   4.606   1.614  0.4877  0.0761  0.2729
 7718TIP3    H123118   1.049   4.593   1.580  0.5820 -0.4156  0.2142
 7718TIP3    H223119   1.140   4.699   1.635  0.5660  0.5103 -1.4640
 7719TIP3   OH223120   3.860   6.066   1.325 -0.7017 -0.2682  0.2834
 7719TIP3    H123121   3.777   6.115   1.323 -0.0942  0.8091 -1.6576
 7719TIP3    H223122   3.866   6.027   1.238  1.6998  1.3014 -0.3576
 7720TIP3   OH223123   1.349   6.806   2.959  0.4178  0.0150 -0.2342
 7720TIP3    H123124   1.431   6.798   2.911  0.4868  1.1730 -0.3403
 7720TIP3    H223125   1.281   6.794   2.893  0.4805 -1.1168 -0.1161
 7721TIP3   OH223126   4.933   0.038   1.800  0.4270 -0.0321 -0.1191
 7721TIP3    H123127   4.844   0.039   1.834  1.0146  0.9798  1.5088
 7721TIP3    H223128   4.971  -0.043   1.834  0.4857  0.1286  0.2018
 7722TIP3   OH223129   3.048   4.793   3.457 -0.0945 -0.4029 -0.2399
 7722TIP3    H123130   3.093   4.749   3.529 -0.5181  1.1938  1.0793
 7722TIP3    H223131   3.118   4.832   3.406  0.1521  0.7116  0.8855
 7723TIP3   OH223132   5.534   2.124   1.484  0.2145  0.2093 -0.2348
 7723TIP3    H123133   5.458   2.182   1.483 -0.1104 -0.2233 -0.5211
 7723TIP3    H223134   5.529   2.075   1.402 -1.1613 -2.3789  1.2680
 7724TIP3   OH223135   2.087   1.232   3.595 -0.3784 -0.2584  0.0887
 7724TIP3    H123136   2.120   1.286   3.523  1.5200 -1.0809  0.2944
 7724TIP3    H223137   2.129   1.269   3.673 -0.9409 -0.5587  0.5407
 7725TIP3   OH223138   2.223   5.857   4.837 -0.2376 -0.3836  0.0666
 7725TIP3    H123139   2.197   5.819   4.753 -0.8245 -0.5097  0.2988
 7725TIP3    H223140   2.277   5.790   4.878 -0.1641 -0.4260 -0.0985
 7726TIP3   OH223141   0.163   5.668   2.063 -0.6712 -0.6175 -0.8888
 7726TIP3    H123142   0.164   5.751   2.014 -0.1771 -0.8361 -1.2563
 7726TIP3    H223143   0.151   5.601   1.995 -0.7583 -0.8706 -0.6233
 7727TIP3   OH223144   6.078   1.583   2.562  0.4325  0.3579 -0.1323
 7727TIP3    H123145   6.017   1.540   2.621 -1.2504  1.3009 -1.1114
 7727TIP3    H223146   6.048   1.674   2.558  0.7023  0.4058 -2.1154
 7728TIP3   OH223147   3.717   4.259   1.163  0.7257  0.2956  0.4267
 7728TIP3    H123148   3.734   4.294   1.076 -0.6221  0.5647  0.2657
 7728TIP3    H223149   3.642   4.201   1.152  1.0492 -0.2947  1.2622
 7729TIP3   OH223150   4.048   5.293   1.171 -0.5256  0.0242  0.1108
 7729TIP3    H123151   3.988   5.297   1.096 -0.1636 -1.7969 -0.3371
 7729TIP3    H223152   3.991   5.279   1.247 -0.8880  1.7750  0.2030
 7730TIP3   OH223153   0.523   2.758   2.047 -0.2185 -0.0773  0.4060
 7730TIP3    H123154   0.595   2.800   2.001  0.2134  0.1775  1.2811
 7730TIP3    H223155   0.558   2.741   2.135 -1.5607  1.0056  1.1835
 7731TIP3   OH223156   3.579   2.729   2.186 -0.2068  0.2255  0.0828
 7731TIP3    H123157   3.570   2.638   2.215  1.8915 -0.1229 -0.1813
 7731TIP3    H223158   3.610   2.776   2.263 -0.0544  0.4464 -0.1111
 7732TIP3   OH223159   6.056   0.942   1.120  0.1544 -0.6710 -0.2565
 7732TIP3    H123160   6.088   0.901   1.040  1.6296 -0.1551  0.0324
 7732TIP3    H223161   6.055   1.035   1.101 -0.6737 -0.6349 -0.0658
 7733TIP3   OH223162   5.808   6.700   2.597 -0.6885  0.5616 -0.0545
 7733TIP3    H123163   5.857   6.624   2.628 -0.1731  1.4962  1.5433
 7733TIP3    H223164   5.717   6.681   2.620 -0.4436  0.7924  1.1445
 7734TIP3   OH223165   6.742   0.147   2.080 -0.3670  0.0810  0.5687
 7734TIP3    H123166   6.785   0.071   2.039 -0.5553  0.8463 -1.1502
 7734TIP3    H223167   6.781   0.152   2.167  0.8707 -1.0076  0.1226
 7735TIP3   OH223168   3.958   3.704   4.374  0.5195  0.1413  0.2421
 7735TIP3    H123169   3.920   3.741   4.295  0.4364 -0.5103 -0.0286
 7735TIP3    H223170   3.883   3.679   4.428  0.5732  1.0266  0.7469
 7736TIP3   OH223171   0.480   6.274   2.134 -0.5012  0.0793 -0.3244
 7736TIP3    H123172   0.572   6.245   2.130 -0.8092 -1.4649  1.8628
 7736TIP3    H223173   0.485   6.363   2.169  0.1526 -0.9085  2.3412
 7737TIP3   OH223174   1.355   6.493   1.085 -0.1705 -0.3085  0.0150
 7737TIP3    H123175   1.417   6.432   1.045 -2.1155 -2.8133  0.5772
 7737TIP3    H223176   1.362   6.476   1.179 -2.4731 -1.5542  0.0311
 7738TIP3   OH223177   1.848   0.054   1.781  0.1197  0.1902 -0.1806
 7738TIP3    H123178   1.801   0.117   1.725 -3.1811 -2.3667 -0.6165
 7738TIP3    H223179   1.901   0.003   1.720 -1.5382 -0.9532 -0.7548
 7739TIP3   OH223180   1.822   5.983   2.615 -0.3420 -0.6000  0.1265
 7739TIP3    H123181   1.825   6.047   2.686  0.0994 -1.8383  1.2732
 7739TIP3    H223182   1.790   6.032   2.540  3.3843  1.8769 -0.0606
 7740TIP3   OH223183   5.144   3.184   3.741  0.4009 -0.2654 -0.0872
 7740TIP3    H123184   5.053   3.182   3.713 -0.6149 -0.0834  2.8443
 7740TIP3    H223185   5.181   3.261   3.699 -0.3127 -1.1384 -2.4792
 7741TIP3   OH223186   0.697   5.711   1.630  0.2587  0.1767 -0.3219
 7741TIP3    H123187   0.719   5.755   1.713 -0.9821  0.1152  0.0564
 7741TIP3    H223188   0.720   5.619   1.645 -0.2513  0.1090  0.0766
 7742TIP3   OH223189   4.490   4.901   2.518 -0.3775  0.4230 -0.0098
 7742TIP3    H123190   4.444   4.882   2.600 -0.4157 -1.1789 -0.3788
 7742TIP3    H223191   4.562   4.959   2.544 -0.4330  0.0004  1.1417
 7743TIP3   OH223192   2.879   0.535   2.956 -0.6318 -0.0468 -0.5352
 7743TIP3    H123193   2.785   0.522   2.950 -0.3842 -1.4719 -1.8695
 7743TIP3    H223194   2.912   0.457   3.000 -0.1117  0.8208  0.7144
 7744TIP3   OH223195   3.920   2.503   2.258  0.3749  0.1312  0.1861
 7744TIP3    H123196   3.961   2.587   2.236 -0.8098  0.9373  0.9344
 7744TIP3    H223197   3.980   2.462   2.320  1.4634 -0.0496 -0.9683
 7745TIP3   OH223198   1.642   3.716   2.405 -0.6441 -0.0050 -0.3687
 7745TIP3    H123199   1.706   3.648   2.383 -0.7070 -0.5107  0.8828
 7745TIP3    H223200   1.557   3.672   2.399 -0.8374  0.4730 -1.3306
 7746TIP3   OH223201   5.590   4.605   4.932  0.3932  0.1099 -0.3492
 7746TIP3    H123202   5.564   4.626   4.842 -0.6569 -0.5447 -0.2118
 7746TIP3    H223203   5.619   4.514   4.928  2.5237  0.7390 -0.4458
 7747TIP3   OH223204   5.699   3.909   4.821 -0.1096  0.0965 -0.0972
 7747TIP3    H123205   5.768   3.844   4.835 -1.2644 -0.6781  2.4005
 7747TIP3    H223206   5.706   3.968   4.896 -1.8835  0.2874 -0.0557
 7748TIP3   OH223207   2.004   1.456   1.919 -0.0740  0.0189  0.3169
 7748TIP3    H123208   2.014   1.411   1.835 -0.6648  0.2290  0.1279
 7748TIP3    H223209   1.916   1.431   1.949  1.0380 -2.1097  2.1146
 7749TIP3   OH223210   5.576   0.049   1.474 -0.3802  0.0327 -0.2894
 7749TIP3    H123211   5.486   0.023   1.457 -0.1068 -0.0304 -1.7880
 7749TIP3    H223212   5.609   0.078   1.389  1.0553 -0.0992  0.1971
 7750TIP3   OH223213   3.279   3.750   2.633  0.2274  0.6775 -0.2421
 7750TIP3    H123214   3.328   3.808   2.575  1.6972  0.4950  0.7687
 7750TIP3    H223215   3.271   3.798   2.715 -1.0812  0.5920 -0.3058
 7751TIP3   OH223216   4.313   6.400   4.403 -0.1614 -0.5421 -0.1483
 7751TIP3    H123217   4.234   6.348   4.391  0.5584 -1.3782 -1.4075
 7751TIP3    H223218   4.333   6.390   4.496 -2.0936  0.5488  0.4551
 7752TIP3   OH223219   6.933   5.568   2.971 -0.4404 -0.4247  0.0036
 7752TIP3    H123220   7.012   5.527   3.005 -0.4611  0.4209  1.0916
 7752TIP3    H223221   6.947   5.570   2.876  1.6146  1.2332  0.2632
 7753TIP3   OH223222   6.816   5.182   1.064 -0.0133  0.3039 -0.0456
 7753TIP3    H123223   6.894   5.127   1.076  0.3427  0.5673 -0.9936
 7753TIP3    H223224   6.747   5.120   1.041  0.4986  0.2595 -1.5890
 7754TIP3   OH223225   5.930   6.733   3.345  0.2459  0.0165  0.0872
 7754TIP3    H123226   5.938   6.793   3.420  0.9746  0.0498 -0.0107
 7754TIP3    H223227   6.018   6.729   3.308 -0.2210  0.4593 -1.1299
 7755TIP3   OH223228   4.071   4.324   4.317 -0.5236 -0.2723  0.2379
 7755TIP3    H123229   4.039   4.268   4.388 -0.0235 -0.4079  0.3605
 7755TIP3    H223230   4.166   4.323   4.327 -0.5519  1.6351  1.0558
 7756TIP3   OH223231   4.726   0.520   1.217  0.8434 -0.1543  0.3155
 7756TIP3    H123232   4.750   0.515   1.310  0.6828 -1.8110  0.2978
 7756TIP3    H223233   4.802   0.559   1.174  1.2680 -0.1787  1.0296
 7757TIP3   OH223234   3.653   2.856   2.850 -0.4422  0.2436  0.3898
 7757TIP3    H123235   3.692   2.918   2.910 -3.1451  3.1067 -0.5552
 7757TIP3    H223236   3.692   2.877   2.765 -0.5517 -0.1387  0.2415
 7758TIP3   OH223237   4.272   1.544   0.281  0.4013  0.7939  0.3500
 7758TIP3    H123238   4.251   1.611   0.216  1.1417  0.4462 -0.2584
 7758TIP3    H223239   4.250   1.461   0.239  0.6913  0.5776  0.6171
 7759TIP3   OH223240   6.086   3.087   1.351  0.2360 -0.1696  0.5471
 7759TIP3    H123241   6.092   3.122   1.440 -1.7104  0.7707  0.3594
 7759TIP3    H223242   6.112   2.996   1.359 -0.0943 -0.1499  2.1224
 7760TIP3   OH223243   5.320   4.260   4.230  0.1957 -0.0264 -0.2976
 7760TIP3    H123244   5.332   4.307   4.148  0.6582 -0.3281 -0.4090
 7760TIP3    H223245   5.225   4.245   4.236 -0.0084  1.2879 -0.0397
 7761TIP3   OH223246   5.072   1.017   5.443 -0.0961 -0.4835  0.7217
 7761TIP3    H123247   5.077   1.015   5.539 -1.1954 -1.4224  0.7781
 7761TIP3    H223248   5.110   1.102   5.419  0.5039 -0.3762  1.9629
 7762TIP3   OH223249   6.475   0.091   3.810  0.4534 -0.3839  0.0217
 7762TIP3    H123250   6.484   0.021   3.745 -1.2901  0.5955 -1.3790
 7762TIP3    H223251   6.453   0.045   3.891  1.0101 -1.5541 -0.4658
 7763TIP3   OH223252   0.130   4.687   3.594 -0.1610  0.1041  0.0455
 7763TIP3    H123253   0.104   4.727   3.511 -0.6467  0.4953  0.3741
 7763TIP3    H223254   0.051   4.643   3.625 -0.4520  1.2292  1.0176
 7764TIP3   OH223255   0.019   5.541   3.391 -0.3135  0.4905 -0.0075
 7764TIP3    H123256  -0.006   5.598   3.464 -2.1528 -0.6741  0.3229
 7764TIP3    H223257   0.101   5.501   3.421 -0.2276  1.1863  0.7503
 7765TIP3   OH223258   6.049   2.232   4.562  0.6057 -0.1966  0.2157
 7765TIP3    H123259   6.018   2.201   4.647 -0.6801  1.1882  0.2888
 7765TIP3    H223260   6.113   2.300   4.584  1.8002 -1.2210  0.0460
 7766TIP3   OH223261   1.712   1.670   1.487 -0.2753  0.1897  0.1691
 7766TIP3    H123262   1.777   1.735   1.459  0.4076 -1.0840 -1.3377
 7766TIP3    H223263   1.702   1.612   1.412 -1.7512 -0.7704  1.0593
 7767TIP3   OH223264   0.180   6.257   1.800 -0.0476  0.1734  0.5886
 7767TIP3    H123265   0.145   6.199   1.732  0.2359  0.0174  0.5725
 7767TIP3    H223266   0.115   6.252   1.870 -0.3870  0.4070  0.2950
 7768TIP3   OH223267   2.437   1.555   5.201  0.1868 -0.4267  0.2016
 7768TIP3    H123268   2.409   1.575   5.111  0.2000 -0.9400  0.0806
 7768TIP3    H223269   2.497   1.627   5.223 -0.9169  0.4882  0.3348
 7769TIP3   OH223270   7.017   1.577   0.908  0.0952 -0.3120 -0.3623
 7769TIP3    H123271   6.970   1.658   0.890 -1.6899 -1.3532 -0.7581
 7769TIP3    H223272   6.948   1.516   0.935  1.5330 -1.3896  1.0036
 7770TIP3   OH223273   4.422   1.541   5.368  0.1708 -0.4730 -0.1206
 7770TIP3    H123274   4.492   1.514   5.307  1.6421 -0.7862  1.6181
 7770TIP3    H223275   4.411   1.634   5.352  2.1350 -0.0662  0.6005
 7771TIP3   OH223276   6.967   0.706   5.581 -0.4012 -0.2429  0.1255
 7771TIP3    H123277   6.891   0.697   5.638 -1.4050 -1.0622 -1.2618
 7771TIP3    H223278   6.936   0.677   5.495  1.0136  1.0344 -0.8754
 7772TIP3   OH223279   2.753   1.848   1.092 -0.6607 -0.2073  0.4732
 7772TIP3    H123280   2.835   1.882   1.128 -1.0382  1.2043  0.0550
 7772TIP3    H223281   2.780   1.777   1.033  0.2153 -0.0107  0.6237
 7773TIP3   OH223282   0.554   1.356   0.779  0.0700 -0.7364  0.5557
 7773TIP3    H123283   0.618   1.299   0.737  1.0968  1.5047 -1.1184
 7773TIP3    H223284   0.531   1.311   0.860  1.7393 -2.8865 -0.0853
 7774TIP3   OH223285   5.978   6.398   3.698 -0.1020 -0.0211  0.0195
 7774TIP3    H123286   6.018   6.324   3.654  1.5292  1.2547 -0.7304
 7774TIP3    H223287   6.051   6.456   3.720 -1.3467  1.5584  0.2010
 7775TIP3   OH223288   1.481   5.205   1.722  0.4695  0.1928  0.1611
 7775TIP3    H123289   1.532   5.125   1.712  1.0245  0.4093  1.1618
 7775TIP3    H223290   1.541   5.267   1.764 -0.4286  0.6387  0.8243
 7776TIP3   OH223291   7.092   4.890   2.270 -0.0218  0.4964 -0.1432
 7776TIP3    H123292   7.082   4.974   2.225  2.6315  0.9211 -0.1302
 7776TIP3    H223293   7.042   4.828   2.218 -1.4373  1.9327 -0.5717
 7777TIP3   OH223294   1.588   0.638   5.646 -0.0374  0.0850 -0.1625
 7777TIP3    H123295   1.553   0.711   5.596 -0.9668  0.6259  1.2325
 7777TIP3    H223296   1.678   0.628   5.612  0.5211  2.5931  0.3464
 7778TIP3   OH223297   6.434   5.339   3.176 -0.0451  0.5289  0.0627
 7778TIP3    H123298   6.521   5.309   3.200  0.3949  1.8533  0.1557
 7778TIP3    H223299   6.435   5.344   3.081 -0.2161  0.0180  0.0262
 7779TIP3   OH223300   1.310   5.923   4.133 -0.2568  0.3927 -0.1903
 7779TIP3    H123301   1.231   5.976   4.147  0.4952  1.9092 -1.4158
 7779TIP3    H223302   1.380   5.975   4.172  0.1340 -1.1156  1.2117
 7780TIP3   OH223303   0.289   4.174   2.458  0.0510  0.1064 -0.5991
 7780TIP3    H123304   0.213   4.132   2.497  0.7472 -0.2069  0.4973
 7780TIP3    H223305   0.276   4.267   2.474 -0.8385  0.2128 -1.8192
 7781TIP3   OH223306   7.081   4.878   3.653  0.9839  0.7386 -0.1850
 7781TIP3    H123307   7.043   4.865   3.566  0.7915  0.5456 -0.0719
 7781TIP3    H223308   7.161   4.928   3.636  0.1050  2.1427 -0.3167
 7782TIP3   OH223309   6.447   5.853   3.512 -0.8140  0.4682 -0.1055
 7782TIP3    H123310   6.462   5.947   3.505  1.2764  0.1588 -0.6328
 7782TIP3    H223311   6.502   5.825   3.585 -0.1639 -0.5488 -0.9543
 7783TIP3   OH223312   1.188   1.430   3.188  0.0582 -0.8251  0.4250
 7783TIP3    H123313   1.130   1.490   3.142  1.4933  0.0058 -0.3672
 7783TIP3    H223314   1.245   1.395   3.120  1.1718 -0.8217  1.3251
 7784TIP3   OH223315   6.282   1.908   1.343  0.0310  0.0511  0.4010
 7784TIP3    H123316   6.348   1.920   1.411  1.7381 -0.3462 -1.0932
 7784TIP3    H223317   6.320   1.950   1.266 -2.6640  2.1650  0.1102
 7785TIP3   OH223318   0.483   1.998   5.561 -0.2193  0.4747 -0.4867
 7785TIP3    H123319   0.462   2.029   5.650 -2.0940  1.7373 -1.3095
 7785TIP3    H223320   0.450   1.909   5.559  2.5567 -0.7243  0.9662
 7786TIP3   OH223321   4.962   4.539   2.298 -0.2621  0.1274  0.4056
 7786TIP3    H123322   5.027   4.609   2.295  0.1373 -0.2587 -0.9182
 7786TIP3    H223323   4.878   4.583   2.289 -0.0224  0.4739 -0.2439
 7787TIP3   OH223324   3.873   3.141   5.759  0.6400  0.3575  0.9099
 7787TIP3    H123325   3.880   3.052   5.794  0.4407 -0.1327 -0.2480
 7787TIP3    H223326   3.803   3.136   5.694  0.3120  1.4784  1.1515
 7788TIP3   OH223327   5.936   0.193   1.795  0.2256  0.3135  0.0690
 7788TIP3    H123328   5.914   0.101   1.777 -1.4172  0.6694  0.1331
 7788TIP3    H223329   6.024   0.204   1.758  0.6800 -1.4104  0.5173
 7789TIP3   OH223330   1.277   6.030   0.512  0.1677  0.0722  0.4225
 7789TIP3    H123331   1.244   6.117   0.491  0.9997  0.2852 -0.0535
 7789TIP3    H223332   1.199   5.977   0.525 -0.3874  0.2691 -1.7831
 7790TIP3   OH223333   4.712   4.703   1.089  0.4087 -0.0776  0.5689
 7790TIP3    H123334   4.644   4.719   1.024  1.0987  1.1041  0.1227
 7790TIP3    H223335   4.707   4.778   1.149  1.1969 -0.0675  0.6318
 7791TIP3   OH223336   0.295   3.622   4.298  0.0761  0.4494  0.2601
 7791TIP3    H123337   0.377   3.611   4.251 -1.0088  0.5589 -1.7717
 7791TIP3    H223338   0.271   3.714   4.284 -0.1780  0.5381  1.2093
 7792TIP3   OH223339   3.663   4.341   5.874 -0.3888  0.1715  0.0521
 7792TIP3    H123340   3.649   4.286   5.797 -0.3560  0.1964  0.0283
 7792TIP3    H223341   3.625   4.291   5.946  0.0600 -0.0925  0.1058
 7793TIP3   OH223342   0.608   2.988   3.640 -0.6222 -0.0357 -0.2307
 7793TIP3    H123343   0.565   2.904   3.657 -0.9304  0.3891  1.2102
 7793TIP3    H223344   0.701   2.966   3.635 -0.7300 -0.5137 -0.2381
 7794TIP3   OH223345   1.959   5.739   4.211  0.6622  0.9517 -0.0979
 7794TIP3    H123346   1.951   5.789   4.292 -1.6289 -1.5612  1.3751
 7794TIP3    H223347   1.994   5.654   4.238 -2.0978 -0.6941 -1.2775
 7795TIP3   OH223348   6.344   0.773   1.595  0.2768  0.4149 -0.4564
 7795TIP3    H123349   6.281   0.748   1.662  0.7361 -1.0095 -0.5268
 7795TIP3    H223350   6.322   0.864   1.574 -1.2670  0.1889  0.0439
 7796TIP3   OH223351   0.031   0.147   2.524  0.4229  0.1488  0.9904
 7796TIP3    H123352   0.058   0.137   2.433 -0.4368  1.9974  0.4947
 7796TIP3    H223353   0.025   0.057   2.557  0.3875 -0.5726 -0.8655
 7797TIP3   OH223354   0.741   0.763   2.860 -0.4290  0.1972  0.2313
 7797TIP3    H123355   0.707   0.686   2.906  0.0184 -0.1159  0.0417
 7797TIP3    H223356   0.711   0.753   2.770  0.3671 -0.2164  0.0009
 7798TIP3   OH223357   4.683   2.876   1.089  0.3949 -0.9834 -0.2893
 7798TIP3    H123358   4.699   2.793   1.133 -0.0575 -2.0030 -1.9335
 7798TIP3    H223359   4.601   2.908   1.127  0.6559 -1.1889  0.4695
 7799TIP3   OH223360   1.744   5.318   2.810 -0.4345 -0.2216  0.0290
 7799TIP3    H123361   1.731   5.283   2.721 -0.2126  0.1685 -0.1592
 7799TIP3    H223362   1.785   5.403   2.796  0.0996 -0.3969  0.5370
 7800TIP3   OH223363   1.864   0.773   2.343  0.1515  0.0727 -0.0740
 7800TIP3    H123364   1.918   0.852   2.342  1.5075 -0.7890  1.3052
 7800TIP3    H223365   1.908   0.715   2.405 -2.2951 -0.7422  1.0146
 7801TIP3   OH223366   5.438   5.828   0.261 -0.1019  0.3404  0.2278
 7801TIP3    H123367   5.415   5.736   0.246 -3.0260  0.9971  0.1715
 7801TIP3    H223368   5.453   5.834   0.356  0.0277 -0.1591  0.2414
 7802TIP3   OH223369   5.965   5.033   0.039 -0.7649  0.5311  0.2927
 7802TIP3    H123370   6.037   5.095   0.028 -0.8694  0.6380  0.2082
 7802TIP3    H223371   5.978   4.997   0.127 -0.9858  1.0392  0.5405
 7803TIP3   OH223372   5.373  -0.005   0.770  0.5359 -0.1485  0.0837
 7803TIP3    H123373   5.421   0.013   0.688 -0.6349  0.1285 -0.5665
 7803TIP3    H223374   5.411   0.056   0.833  2.0479 -0.9491 -0.0070
 7804TIP3   OH223375   0.436   1.132   1.291 -0.3874  0.3929  0.8478
 7804TIP3    H123376   0.423   1.046   1.252  0.9278  0.3653  0.4090
 7804TIP3    H223377   0.359   1.146   1.345 -2.2229  0.3424 -1.5887
 7805TIP3   OH223378   1.758   2.912   1.273 -0.8421  0.0560  0.0999
 7805TIP3    H123379   1.813   2.838   1.300 -1.1664 -0.4238 -0.5133
 7805TIP3    H223380   1.820   2.984   1.258 -0.5420 -0.0214  0.8951
 7806TIP3   OH223381   3.680   5.432   3.602  0.0705 -0.0126  0.0239
 7806TIP3    H123382   3.740   5.505   3.583 -0.1323  0.1811  0.1334
 7806TIP3    H223383   3.619   5.432   3.528  0.8873 -0.9217 -0.6702
 7807TIP3   OH223384   3.280   3.868   5.004 -0.1894 -0.0704 -0.1301
 7807TIP3    H123385   3.191   3.877   4.972 -0.3183 -2.0732 -0.4239
 7807TIP3    H223386   3.270   3.829   5.091  0.4007 -0.1097 -0.0765
 7808TIP3   OH223387   4.671   3.405   3.021  0.4720 -0.1178  0.3286
 7808TIP3    H123388   4.682   3.436   3.111 -0.4082 -0.0946  0.4369
 7808TIP3    H223389   4.635   3.317   3.030 -2.0086  0.7899  0.0323
 7809TIP3   OH223390   3.748   3.694   1.059 -0.0111 -0.4590  0.7040
 7809TIP3    H123391   3.787   3.747   0.990  1.8215 -2.2066  0.2808
 7809TIP3    H223392   3.722   3.757   1.127  1.3141  1.0160 -0.0984
 7810TIP3   OH223393   3.551   3.553   0.145 -0.4978 -0.1184  0.2068
 7810TIP3    H123394   3.610   3.541   0.220  0.2078 -0.3955 -0.3884
 7810TIP3    H223395   3.573   3.481   0.086 -0.1199  0.8748 -0.8774
 7811TIP3   OH223396   5.066   5.183   0.063  0.5532 -0.3632  0.0792
 7811TIP3    H123397   4.999   5.166   0.129 -0.2215  0.0391 -0.5923
 7811TIP3    H223398   5.146   5.201   0.114  0.0162 -0.2371  0.8953
 7812TIP3   OH223399   5.311   0.967   2.606 -0.6046  1.0561 -0.0390
 7812TIP3    H123400   5.397   0.940   2.574 -0.0272  0.8973  1.5781
 7812TIP3    H223401   5.321   1.059   2.631 -0.8163  0.9617  0.4168
 7813TIP3   OH223402   1.237   0.551   4.569 -0.4241  0.1259 -0.5618
 7813TIP3    H123403   1.174   0.622   4.587 -0.7438 -0.3358  0.2465
 7813TIP3    H223404   1.308   0.566   4.631  0.3464  0.7326 -1.5800
 7814TIP3   OH223405   0.882   6.455   0.213 -0.3743  0.7965  0.3191
 7814TIP3    H123406   0.832   6.440   0.294  0.8334  3.7193  1.7667
 7814TIP3    H223407   0.850   6.540   0.182 -0.5611 -0.1215 -2.1598
 7815TIP3   OH223408   3.153   3.987   2.105 -0.2078 -0.0290  0.0520
 7815TIP3    H123409   3.059   3.976   2.092 -0.6628  2.9982  0.0299
 7815TIP3    H223410   3.167   3.968   2.198 -1.0552  0.5938  0.3207
 7816TIP3   OH223411   1.716   5.355   4.769 -0.1886  0.0181 -0.2403
 7816TIP3    H123412   1.787   5.297   4.738 -0.4203  0.0927 -0.9147
 7816TIP3    H223413   1.698   5.324   4.858  1.6958  0.9355  0.5130
 7817TIP3   OH223414   5.121   5.064   0.555  0.8502  0.3823  0.1574
 7817TIP3    H123415   5.173   4.986   0.534 -1.0694 -0.5053 -1.7831
 7817TIP3    H223416   5.083   5.046   0.640  2.1507  0.2057  0.7209
 7818TIP3   OH223417   2.379   3.286   5.359  0.5314  0.0555 -0.3862
 7818TIP3    H123418   2.299   3.297   5.409  0.3152 -0.6028 -0.5672
 7818TIP3    H223419   2.353   3.233   5.283  1.1858 -0.3984 -0.3080
 7819TIP3   OH223420   6.432   5.427   1.752  0.0045  0.4666  0.0005
 7819TIP3    H123421   6.497   5.361   1.730  1.5656  2.0316 -0.2332
 7819TIP3    H223422   6.430   5.427   1.848 -0.9692 -0.7680  0.0185
 7820TIP3   OH223423   5.147   3.937   0.200  0.3722  0.0879  0.0150
 7820TIP3    H123424   5.175   3.963   0.112  0.5319  1.8796  0.5450
 7820TIP3    H223425   5.100   4.013   0.234  0.1092 -0.6509  1.4001
 7821TIP3   OH223426   5.474   0.256   4.664 -0.0999  0.5430  0.2525
 7821TIP3    H123427   5.499   0.201   4.739 -2.1802 -2.0120 -0.7537
 7821TIP3    H223428   5.501   0.344   4.689  1.5765 -0.5822  2.8957
 7822TIP3   OH223429   0.746   0.254   0.985 -0.2471 -0.2258  0.6908
 7822TIP3    H123430   0.660   0.292   0.969  0.3656  0.9835  0.1354
 7822TIP3    H223431   0.752   0.248   1.081 -1.3225 -1.2682  0.7127
 7823TIP3   OH223432   7.162   0.716   0.985 -0.8136 -0.3763 -0.2353
 7823TIP3    H123433   7.131   0.725   0.895  1.6857 -0.6573 -1.2212
 7823TIP3    H223434   7.160   0.621   1.001 -0.0982 -0.4474 -0.4958
 7824TIP3   OH223435   6.796   0.395   5.464  0.3187  0.1415 -0.3839
 7824TIP3    H123436   6.837   0.333   5.404 -0.8597 -0.4080 -0.6529
 7824TIP3    H223437   6.814   0.481   5.426  2.0493 -0.0039  0.0436
 7825TIP3   OH223438   3.418   5.270   4.412  0.2749  0.5277 -0.2700
 7825TIP3    H123439   3.347   5.334   4.413 -0.2669 -0.0631  1.0661
 7825TIP3    H223440   3.373   5.185   4.418  1.1123  0.1823  1.5858
 7826TIP3   OH223441   3.737   3.873   3.089 -0.3276 -0.5313 -0.0888
 7826TIP3    H123442   3.664   3.827   3.131  0.5719 -1.9579 -0.0077
 7826TIP3    H223443   3.754   3.823   3.010 -1.1234  1.3555 -1.5262
 7827TIP3   OH223444   4.527   2.444   5.894  0.0933 -0.4573 -0.2140
 7827TIP3    H123445   4.553   2.517   5.838  0.8497  0.8532  1.7349
 7827TIP3    H223446   4.515   2.370   5.834  2.0562  0.5393 -1.9496
 7828TIP3   OH223447   0.873   3.260   1.680  0.0471 -1.1357  0.7450
 7828TIP3    H123448   0.923   3.326   1.728 -1.6427 -0.4973  1.7323
 7828TIP3    H223449   0.782   3.285   1.694 -0.5851 -1.0954 -2.5870
 7829TIP3   OH223450   2.277   0.767   2.321 -0.1964 -0.3098  0.7149
 7829TIP3    H123451   2.311   0.764   2.232 -2.3910 -1.0917 -0.1666
 7829TIP3    H223452   2.296   0.855   2.351  0.8205 -0.1201 -0.4160
 7830TIP3   OH223453   7.220   4.066   5.339  0.7948 -0.0556  0.4804
 7830TIP3    H123454   7.206   4.146   5.390  1.9283  0.4900 -0.0264
 7830TIP3    H223455   7.142   4.013   5.356  0.1130  1.0640  0.9913
 7831TIP3   OH223456   1.658   4.018   1.619 -0.3500  0.1205 -0.4080
 7831TIP3    H123457   1.594   4.088   1.629  0.4011  0.8818 -0.7824
 7831TIP3    H223458   1.701   4.037   1.536  1.5421  0.6258  0.6286
 7832TIP3   OH223459   3.274   4.036   0.111  0.4868 -0.3655 -0.2451
 7832TIP3    H123460   3.364   4.004   0.112  0.0945 -1.5088  0.4786
 7832TIP3    H223461   3.243   4.016   0.022  0.9632  0.1558 -0.5421
 7833TIP3   OH223462   3.875   5.668   2.393  0.0321 -0.4605  0.1598
 7833TIP3    H123463   3.912   5.624   2.317  1.2614  0.5541  0.1271
 7833TIP3    H223464   3.936   5.740   2.410 -0.4296 -0.4349  1.8646
 7834TIP3   OH223465   3.073   5.935   4.592 -0.5490 -0.0645 -1.0003
 7834TIP3    H123466   3.016   6.005   4.561 -1.3397 -0.4786 -0.5047
 7834TIP3    H223467   3.019   5.856   4.586 -0.5152 -0.2661  0.7554
 7835TIP3   OH223468   2.547   4.991   2.992  0.5427  1.1765 -0.1976
 7835TIP3    H123469   2.641   4.996   2.976  0.2681 -0.5937 -3.2189
 7835TIP3    H223470   2.514   5.078   2.968  1.1705  1.0672 -1.5426
 7836TIP3   OH223471   3.751   1.183   0.277  0.1393  0.5756 -0.0116
 7836TIP3    H123472   3.785   1.215   0.360  1.5663 -1.5623  0.2986
 7836TIP3    H223473   3.732   1.091   0.292 -0.3714  0.3375 -1.8454
 7837TIP3   OH223474   5.447   1.323   4.561 -0.6022  0.5640 -0.4620
 7837TIP3    H123475   5.371   1.265   4.547 -1.6678  2.2150 -1.8472
 7837TIP3    H223476   5.454   1.329   4.657 -3.2568  1.6120 -0.2440
 7838TIP3   OH223477   6.086   3.938   2.564  0.0668 -0.0876  0.5335
 7838TIP3    H123478   6.060   3.852   2.532  0.8809 -1.5168  3.3897
 7838TIP3    H223479   6.177   3.948   2.535 -0.5524  0.7163 -1.3396
 7839TIP3   OH223480   3.188   1.464   5.690  0.6433 -0.4074 -0.5247
 7839TIP3    H123481   3.233   1.548   5.695  2.9635 -1.5597 -0.9643
 7839TIP3    H223482   3.171   1.451   5.597 -0.4931 -0.0808 -0.3838
 7840TIP3   OH223483   3.751   0.576   2.132 -0.7378  0.3929  0.1930
 7840TIP3    H123484   3.746   0.572   2.228 -1.0163  0.1247  0.1714
 7840TIP3    H223485   3.695   0.503   2.103  0.3663 -0.3391 -0.1565
 7841TIP3   OH223486   6.993   1.835   0.050 -0.5391 -0.2515  0.3321
 7841TIP3    H123487   6.933   1.858  -0.021  2.7040 -1.5072 -3.1203
 7841TIP3    H223488   7.021   1.919   0.087 -0.9600  0.5520 -1.1085
 7842TIP3   OH223489   0.294   3.717   2.427 -0.0062  0.7856  0.5320
 7842TIP3    H123490   0.320   3.760   2.345  0.8657  0.5111  0.6523
 7842TIP3    H223491   0.266   3.790   2.483  1.9978  1.3163  0.9332
 7843TIP3   OH223492   2.970   5.270   0.984  0.1737  0.2514 -0.5767
 7843TIP3    H123493   3.050   5.219   0.971 -0.6433 -0.6173 -2.4275
 7843TIP3    H223494   2.977   5.342   0.921 -1.4359 -1.0210 -2.2898
 7844TIP3   OH223495   1.758   4.870   2.593 -0.1546  0.0596 -0.4167
 7844TIP3    H123496   1.761   4.937   2.662  1.6142 -1.4711  1.1103
 7844TIP3    H223497   1.791   4.915   2.515  0.5731  1.1125  0.4644
 7845TIP3   OH223498   4.070   2.605   0.861 -0.1380 -0.3223  0.1198
 7845TIP3    H123499   4.051   2.633   0.950 -0.5065 -0.1529 -0.0071
 7845TIP3    H223500   4.108   2.517   0.870  0.2461 -0.1220  0.4669
 7846TIP3   OH223501   4.349   4.291   3.625 -0.0944 -0.3054 -0.2832
 7846TIP3    H123502   4.293   4.362   3.657 -0.1553 -0.8146  0.8095
 7846TIP3    H223503   4.293   4.242   3.564 -0.4409 -0.1042 -0.1342
 7847TIP3   OH223504   3.448   0.258   3.419  0.2295 -0.3784  0.3620
 7847TIP3    H123505   3.535   0.286   3.447  0.2908 -0.9105  0.7171
 7847TIP3    H223506   3.393   0.270   3.497  0.0448 -0.3109  0.2223
 7848TIP3   OH223507   5.459   4.737   2.211  0.7980  0.1426 -0.1445
 7848TIP3    H123508   5.500   4.664   2.256  3.7877  2.6078  1.5986
 7848TIP3    H223509   5.378   4.702   2.175  0.2175 -3.0798  3.6626
 7849TIP3   OH223510   4.271   0.502   2.014  0.0198  0.1317 -0.3095
 7849TIP3    H123511   4.192   0.458   2.044 -0.0072 -0.1834 -0.8263
 7849TIP3    H223512   4.282   0.576   2.073 -2.1249  1.7485 -1.8297
 7850TIP3   OH223513   0.445   5.320   2.689  0.0529 -0.0385 -0.1505
 7850TIP3    H123514   0.373   5.315   2.626  1.1785  2.3693 -1.7496
 7850TIP3    H223515   0.489   5.235   2.681 -0.6381 -0.2938 -1.6703
 7851TIP3   OH223516   5.913   5.067   2.870  0.6469 -0.8326 -0.4735
 7851TIP3    H123517   5.960   5.001   2.820  0.9630 -2.4220  1.7769
 7851TIP3    H223518   5.830   5.025   2.894 -0.1289  0.4143 -0.8391
 7852TIP3   OH223519   5.164   1.056   4.295  0.8449  0.1688  0.2815
 7852TIP3    H123520   5.235   1.053   4.231  0.8550  0.7186  0.2601
 7852TIP3    H223521   5.126   1.143   4.285  0.7623  0.2147  0.9337
 7853TIP3   OH223522   4.964   0.277   5.294  0.2847 -0.6637  0.1831
 7853TIP3    H123523   4.946   0.310   5.382  0.2499 -2.5340  0.9218
 7853TIP3    H223524   4.883   0.232   5.269  0.1737  0.1421 -0.9643
 7854TIP3   OH223525   7.151   6.194   4.302  0.3050 -0.3454  1.2858
 7854TIP3    H123526   7.067   6.238   4.319  0.7714  1.1417  0.0269
 7854TIP3    H223527   7.130   6.101   4.305 -2.7310 -0.2839 -4.0436
 7855TIP3   OH223528   1.248   1.839   3.082 -0.4828 -0.0927  0.9375
 7855TIP3    H123529   1.288   1.913   3.127 -1.8663  0.0001  2.0813
 7855TIP3    H223530   1.214   1.876   3.001  1.7643 -0.2002 -0.1301
 7856TIP3   OH223531   5.602   4.030   2.982 -0.9783 -0.3065  0.0064
 7856TIP3    H123532   5.591   4.090   2.908  0.2398 -2.0214 -1.6698
 7856TIP3    H223533   5.545   4.066   3.050  1.4535  4.0922  0.0717
 7857TIP3   OH223534   1.962   3.578   5.590  0.7619 -0.5532  0.3396
 7857TIP3    H123535   1.895   3.581   5.521  1.8409 -0.1840 -0.7297
 7857TIP3    H223536   1.963   3.487   5.619 -2.0013 -0.0789  2.2462
 7858TIP3   OH223537   0.969   6.491   4.178  0.2939 -0.0416  0.0207
 7858TIP3    H123538   0.897   6.474   4.238 -0.7917  0.2421 -1.1527
 7858TIP3    H223539   0.927   6.530   4.101  1.3765 -2.0505 -1.6780
 7859TIP3   OH223540   2.514   5.551   3.991  0.0012 -0.5234 -0.3449
 7859TIP3    H123541   2.559   5.615   3.935  1.0670 -1.1577 -0.2426
 7859TIP3    H223542   2.427   5.543   3.953 -1.0818  2.7895  1.0189
 7860TIP3   OH223543   4.560   1.174   0.591  0.0596 -0.9061  0.0235
 7860TIP3    H123544   4.531   1.098   0.540  0.2595 -0.3584 -0.9156
 7860TIP3    H223545   4.502   1.245   0.564  1.1038 -0.2429 -0.5414
 7861TIP3   OH223546   1.151   1.742   2.300  0.0793  0.2618 -0.3119
 7861TIP3    H123547   1.195   1.817   2.339 -0.7695  1.3816 -1.4023
 7861TIP3    H223548   1.058   1.756   2.318 -0.3458  0.8317 -2.6452
 7862TIP3   OH223549   5.766   1.846   0.297 -0.3024  0.1444  0.6525
 7862TIP3    H123550   5.835   1.780   0.293 -1.6357 -1.2639 -1.0537
 7862TIP3    H223551   5.789   1.910   0.229 -0.9194 -0.6610 -0.3590
 7863TIP3   OH223552   0.103   2.589   5.623  0.5344 -0.0218  0.0595
 7863TIP3    H123553   0.075   2.620   5.709 -0.6519 -1.0845  0.0795
 7863TIP3    H223554   0.063   2.502   5.614  2.0065 -0.6449 -0.8717
 7864TIP3   OH223555   6.574   0.563   4.708 -1.0026 -0.1259 -0.3510
 7864TIP3    H123556   6.536   0.610   4.633  1.6488  1.0943 -1.0281
 7864TIP3    H223557   6.667   0.586   4.706 -0.1272 -3.0875  1.1018
 7865TIP3   OH223558   5.250   5.405   0.620  0.1187  0.1131 -0.3237
 7865TIP3    H123559   5.191   5.453   0.563 -0.2224  0.8169  0.5930
 7865TIP3    H223560   5.232   5.313   0.602  0.5475  0.2975 -1.8648
 7866TIP3   OH223561   3.253   1.130   2.761 -0.7056  0.2856 -0.3293
 7866TIP3    H123562   3.330   1.073   2.761 -0.1167  1.0729 -0.2713
 7866TIP3    H223563   3.178   1.069   2.762 -0.0990 -0.4935 -1.0581
 7867TIP3   OH223564   6.043   4.038   1.195  0.6396  0.5376  0.7385
 7867TIP3    H123565   6.106   4.085   1.250  0.6280  2.5060 -0.7996
 7867TIP3    H223566   5.989   4.108   1.157  0.1736 -0.7884 -1.1558
 7868TIP3   OH223567   2.489   5.604   4.267  0.1100 -0.1198 -0.4580
 7868TIP3    H123568   2.584   5.598   4.283  0.0672 -0.8226 -0.4447
 7868TIP3    H223569   2.480   5.593   4.172  0.1285  1.1860 -0.6382
 7869TIP3   OH223570   4.416   2.885   1.953 -0.3282 -0.5151  0.0068
 7869TIP3    H123571   4.375   2.965   1.920  0.3869 -0.4769 -0.8281
 7869TIP3    H223572   4.481   2.862   1.886  1.9653  0.1363  1.8961
 7870TIP3   OH223573   2.407   3.867   1.159 -1.1151  0.5934  0.3662
 7870TIP3    H123574   2.414   3.775   1.187 -1.8547  0.4399  0.0943
 7870TIP3    H223575   2.378   3.861   1.068  1.4991  1.0784 -0.5660
 7871TIP3   OH223576   1.372   0.589   1.403 -0.6471  0.1015  0.5589
 7871TIP3    H123577   1.383   0.527   1.330 -1.7103  0.4002  0.1339
 7871TIP3    H223578   1.407   0.672   1.369  1.5284 -0.4134  1.4052
 7872TIP3   OH223579   4.868   0.578   1.492  0.1529 -0.2476  0.4648
 7872TIP3    H123580   4.952   0.581   1.447 -0.4653  1.7136 -0.6513
 7872TIP3    H223581   4.864   0.659   1.542 -1.3910  0.0686 -0.1289
 7873TIP3   OH223582   6.878   0.261   5.179 -0.0832  0.1897 -0.1812
 7873TIP3    H123583   6.963   0.243   5.140  0.0487  2.0577 -0.8614
 7873TIP3    H223584   6.817   0.201   5.134  0.3703  1.0175 -1.9793
 7874TIP3   OH223585   2.841   1.366   3.705 -0.1911 -0.5802 -0.5422
 7874TIP3    H123586   2.905   1.437   3.708 -0.3290 -0.4523 -0.6110
 7874TIP3    H223587   2.893   1.288   3.687 -0.0262 -0.5127 -0.3649
 7875TIP3   OH223588   4.674   3.729   2.037 -0.3413  0.4825  0.6048
 7875TIP3    H123589   4.622   3.678   2.099 -1.3030  0.1899 -0.4140
 7875TIP3    H223590   4.727   3.786   2.092  1.4042 -2.1521  1.8130
 7876TIP3   OH223591   2.215   5.228   0.584  0.0012  0.3000 -0.4066
 7876TIP3    H123592   2.133   5.181   0.572  0.5425 -0.9507  0.5553
 7876TIP3    H223593   2.204   5.277   0.665  0.2242  0.0425 -0.2158
 7877TIP3   OH223594   6.989   1.524   3.496 -0.2735  0.6121  0.8614
 7877TIP3    H123595   6.983   1.582   3.420  1.7448  0.1561  0.2945
 7877TIP3    H223596   6.902   1.528   3.536 -1.7025  0.1955 -1.9468
 7878TIP3   OH223597   2.411   2.499   2.059  0.6786  0.2388  0.4189
 7878TIP3    H123598   2.371   2.436   2.119  0.6075 -0.3711 -0.2509
 7878TIP3    H223599   2.353   2.499   1.983  0.8300  0.9111  0.2947
 7879TIP3   OH223600   6.071   1.886   3.576  0.5291 -0.3182  0.3246
 7879TIP3    H123601   6.139   1.941   3.614  0.9770 -1.1303  0.7380
 7879TIP3    H223602   6.071   1.807   3.630 -2.0152  0.3802  1.5202
 7880TIP3   OH223603   1.712   5.042   2.369  0.1271 -0.1273  0.3962
 7880TIP3    H123604   1.683   5.103   2.302  0.2823  1.5786  1.8140
 7880TIP3    H223605   1.807   5.036   2.357 -0.0989 -1.8586 -1.0983
 7881TIP3   OH223606   5.462   2.592   0.392 -0.4337  0.5707  0.2977
 7881TIP3    H123607   5.504   2.588   0.306  0.1232 -0.3973  0.5914
 7881TIP3    H223608   5.427   2.504   0.405  0.2836  0.4359  1.4394
 7882TIP3   OH223609   6.901   4.250   2.173 -0.1850  0.2070  0.2956
 7882TIP3    H123610   6.813   4.235   2.139 -0.4969  2.3463  0.0123
 7882TIP3    H223611   6.959   4.206   2.110 -1.0178 -2.1559  1.0660
 7883TIP3   OH223612   0.414   4.301   4.206  0.2956  0.4264  0.0893
 7883TIP3    H123613   0.448   4.212   4.221  0.8651  0.3357 -1.5577
 7883TIP3    H223614   0.435   4.348   4.287 -1.4346 -1.3043  1.6413
 7884TIP3   OH223615   5.773   2.338   5.679 -0.2609 -0.2683 -0.0107
 7884TIP3    H123616   5.766   2.243   5.684 -2.9624 -0.1147  1.2436
 7884TIP3    H223617   5.781   2.366   5.770 -1.3325  0.7415 -0.1991
 7885TIP3   OH223618   3.803   6.722   4.072  0.4731 -0.4286 -0.0295
 7885TIP3    H123619   3.763   6.804   4.045  0.8363 -0.5436 -0.9524
 7885TIP3    H223620   3.896   6.743   4.083  0.5679 -0.7181 -0.2727
 7886TIP3   OH223621   2.577   2.132   5.207 -1.1197 -0.1303  0.6740
 7886TIP3    H123622   2.592   2.222   5.235 -0.5266  0.4655 -1.3913
 7886TIP3    H223623   2.624   2.079   5.270 -0.3257  1.0955  1.1442
 7887TIP3   OH223624   5.321   5.742   4.086 -0.3378 -0.1709  0.5343
 7887TIP3    H123625   5.258   5.814   4.079 -0.6685 -0.2339  2.3249
 7887TIP3    H223626   5.339   5.736   4.180  0.3917 -1.8346  0.3116
 7888TIP3   OH223627   6.509   1.876   4.087  0.6893 -0.1060 -0.8675
 7888TIP3    H123628   6.566   1.833   4.150  1.6069 -1.0661 -2.2936
 7888TIP3    H223629   6.425   1.886   4.133  1.9270  1.2939  1.2552
 7889TIP3   OH223630   6.999   4.185   0.094 -0.1517 -0.2404 -0.1716
 7889TIP3    H123631   7.069   4.124   0.115  1.1044  0.7101 -1.4039
 7889TIP3    H223632   6.971   4.161   0.005  1.2843  1.7227 -1.2251
 7890TIP3   OH223633   4.739   3.870   2.502  0.2417  0.4220  0.0286
 7890TIP3    H123634   4.716   3.962   2.512  0.9387  0.7972 -1.5628
 7890TIP3    H223635   4.700   3.844   2.419  2.4970  0.1146 -1.0024
 7891TIP3   OH223636   3.494   4.720   2.865 -0.3697 -0.2124 -0.0339
 7891TIP3    H123637   3.570   4.710   2.808 -0.3429 -0.8126  0.1007
 7891TIP3    H223638   3.527   4.764   2.943 -0.7697  2.3759 -1.2327
 7892TIP3   OH223639   5.762   3.903   5.464 -0.2487  0.0561 -0.2606
 7892TIP3    H123640   5.801   3.833   5.411 -0.1438 -0.7779  0.8651
 7892TIP3    H223641   5.825   3.916   5.535 -2.3479 -2.0093  2.1796
 7893TIP3   OH223642   1.262   6.117   5.517 -0.1704  0.1395  0.1969
 7893TIP3    H123643   1.195   6.050   5.515 -0.6353  0.6074 -0.1394
 7893TIP3    H223644   1.278   6.139   5.426  0.0855  0.3832  0.2967
 7894TIP3   OH223645   0.212   6.780   0.771 -0.1652  0.4292  0.4552
 7894TIP3    H123646   0.282   6.807   0.711 -2.5289  4.0184 -1.0386
 7894TIP3    H223647   0.251   6.791   0.858  1.0446  3.0883 -0.2820
 7895TIP3   OH223648   2.365   5.064   4.516 -0.4057 -0.0344  0.2785
 7895TIP3    H123649   2.304   5.038   4.447  0.1163 -0.4994 -0.0126
 7895TIP3    H223650   2.322   5.138   4.559 -0.0184  1.3694 -1.6115
 7896TIP3   OH223651   6.635   3.407   4.512 -0.0380  0.3441  0.1243
 7896TIP3    H123652   6.559   3.428   4.567 -0.3002  1.6915 -0.6990
 7896TIP3    H223653   6.615   3.448   4.428  1.1009 -0.2710 -0.4684
 7897TIP3   OH223654   2.283   3.446   2.481 -0.2208 -0.1168  0.7007
 7897TIP3    H123655   2.349   3.510   2.455 -0.4186 -0.3559 -0.4091
 7897TIP3    H223656   2.202   3.496   2.487 -0.2162 -0.1054  0.6677
 7898TIP3   OH223657   2.246   6.743   3.807  0.2689 -0.1884  0.0342
 7898TIP3    H123658   2.242   6.827   3.761  2.1119 -0.1924 -0.2134
 7898TIP3    H223659   2.337   6.715   3.796 -0.0336 -1.6599  1.1084
 7899TIP3   OH223660   2.619   3.198   0.900  0.4275 -0.0403  0.1764
 7899TIP3    H123661   2.621   3.284   0.858  0.8435  0.8403  1.9002
 7899TIP3    H223662   2.669   3.209   0.981 -2.2970 -0.9468  2.1461
 7900TIP3   OH223663   4.794   0.353   0.779  0.1519  0.1078 -0.1972
 7900TIP3    H123664   4.749   0.285   0.830 -0.8261  0.3325 -0.7353
 7900TIP3    H223665   4.887   0.336   0.793 -0.0810  0.1217  1.6051
 7901TIP3   OH223666   1.247   3.435   2.575  0.2787 -0.0457  0.5990
 7901TIP3    H123667   1.253   3.483   2.658  1.1488  1.0209 -0.0449
 7901TIP3    H223668   1.172   3.378   2.586  0.8764 -0.5627  2.4439
 7902TIP3   OH223669   4.864   3.591   0.914  0.2111  0.0081 -0.0380
 7902TIP3    H123670   4.956   3.578   0.889 -0.1725 -1.0241 -1.0338
 7902TIP3    H223671   4.837   3.669   0.866  1.1770  1.7619  2.1039
 7903TIP3   OH223672   0.403   3.231   5.574  0.3512 -0.1265  0.1663
 7903TIP3    H123673   0.372   3.320   5.592  1.8878  0.0618  2.1831
 7903TIP3    H223674   0.327   3.176   5.589  0.0799  0.6184  1.6852
 7904TIP3   OH223675   2.804   3.058   2.014 -0.4158  0.2964  0.0547
 7904TIP3    H123676   2.798   3.010   2.097 -1.6398  2.5951  1.4123
 7904TIP3    H223677   2.718   3.098   2.004  0.5017  2.1186 -0.9986
 7905TIP3   OH223678   3.253   5.727   3.730 -0.0713 -0.0627 -0.1070
 7905TIP3    H123679   3.246   5.638   3.696  0.3536 -0.4505  0.7673
 7905TIP3    H223680   3.344   5.753   3.712  0.4169 -0.6004  1.4412
 7906TIP3   OH223681   0.739   5.358   2.483 -0.1943  0.1862  0.1376
 7906TIP3    H123682   0.827   5.344   2.520 -0.1050  2.2775  0.8109
 7906TIP3    H223683   0.755   5.408   2.403 -0.6707 -1.1868 -0.8614
 7907TIP3   OH223684   6.352   2.891   3.149 -0.2798  0.4269  0.2443
 7907TIP3    H123685   6.330   2.870   3.058  0.8715 -0.0663  0.0655
 7907TIP3    H223686   6.296   2.833   3.201  1.7143 -2.1036 -0.2222
 7908TIP3   OH223687   3.166   4.730   0.356 -0.5180  0.4371  0.6360
 7908TIP3    H123688   3.093   4.678   0.392 -0.2868 -0.2954  0.0759
 7908TIP3    H223689   3.123   4.793   0.298 -0.6552 -1.1556 -1.1260
 7909TIP3   OH223690   0.126   6.242   0.222 -0.3312  0.2366 -0.0248
 7909TIP3    H123691   0.178   6.212   0.296  0.8026  1.3442 -0.3402
 7909TIP3    H223692   0.061   6.172   0.208 -0.6356  0.0564  2.0468
 7910TIP3   OH223693   3.612   3.598   4.046 -1.0584  0.1262  0.1761
 7910TIP3    H123694   3.642   3.522   3.996 -1.9066 -0.7862  1.0085
 7910TIP3    H223695   3.613   3.670   3.984 -0.1992 -0.5490 -0.6236
 7911TIP3   OH223696   5.923   4.633   3.786 -0.0336 -0.5146  0.0892
 7911TIP3    H123697   5.863   4.588   3.846 -2.0646  1.0642 -0.6437
 7911TIP3    H223698   5.869   4.656   3.711  1.6004  0.7086 -0.7744
 7912TIP3   OH223699   3.110   5.683   0.444 -0.5734  0.2874  0.0304
 7912TIP3    H123700   3.074   5.634   0.519 -2.4583 -0.9003 -1.5482
 7912TIP3    H223701   3.196   5.645   0.430 -1.3727 -1.5533 -0.1693
 7913TIP3   OH223702   6.037   5.434   4.447 -0.1926 -0.2060 -0.7854
 7913TIP3    H123703   6.122   5.475   4.462 -1.0775  1.6228 -0.4473
 7913TIP3    H223704   6.045   5.392   4.361  1.0332 -0.0591 -0.7595
 7914TIP3   OH223705   3.595   5.786   5.530  0.2403  1.1796  0.3828
 7914TIP3    H123706   3.557   5.763   5.445 -2.0517  0.3112  1.5705
 7914TIP3    H223707   3.576   5.879   5.541 -1.4674  0.7961  0.8799
 7915TIP3   OH223708   5.133   5.187   4.831  0.7863  0.8159  0.2527
 7915TIP3    H123709   5.080   5.152   4.760 -0.3219  0.3181  1.2858
 7915TIP3    H223710   5.212   5.221   4.788  0.2939  0.2456 -1.1575
 7916TIP3   OH223711   0.724   4.909   4.468 -0.9145 -0.2746 -0.5007
 7916TIP3    H123712   0.795   4.886   4.407 -1.1771  1.2251 -1.4112
 7916TIP3    H223713   0.769   4.948   4.543 -0.6678 -1.1575 -0.1675
 7917TIP3   OH223714   1.881   4.141   3.143  0.2110  0.2659  0.0489
 7917TIP3    H123715   1.822   4.070   3.116  0.2095  0.2441  0.1085
 7917TIP3    H223716   1.955   4.096   3.183  0.8213  0.2412 -1.0733
 7918TIP3   OH223717   0.611   6.717   4.233 -0.6975 -0.3678  0.6910
 7918TIP3    H123718   0.669   6.704   4.158 -2.4635  0.0911 -0.8346
 7918TIP3    H223719   0.636   6.801   4.269 -0.5689 -0.0515 -0.1158
 7919TIP3   OH223720   4.860   2.786   2.926  0.2408  0.3350 -0.0821
 7919TIP3    H123721   4.839   2.715   2.865 -2.5387 -0.9885  2.1981
 7919TIP3    H223722   4.937   2.754   2.974  1.4667  0.7053 -1.7280
 7920TIP3   OH223723   0.977   0.879   1.436 -0.2332 -0.3859 -0.0305
 7920TIP3    H123724   0.975   0.826   1.516 -1.9071 -1.0652 -0.4937
 7920TIP3    H223725   0.979   0.815   1.365 -0.9298  0.1684 -0.5626
 7921TIP3   OH223726   6.272   0.407   1.077 -0.2489  0.2622  0.4951
 7921TIP3    H123727   6.251   0.400   0.983  0.4999  1.4927  0.2136
 7921TIP3    H223728   6.345   0.469   1.080  0.2594 -0.3727  1.8382
 7922TIP3   OH223729   3.053   6.516   1.302 -0.0389 -0.0251 -0.1654
 7922TIP3    H123730   3.028   6.432   1.264  0.3812  0.2424 -1.0480
 7922TIP3    H223731   3.008   6.518   1.387  0.3164 -1.3396  0.0798
 7923TIP3   OH223732   4.779   6.725   2.911 -0.2458 -0.2413 -0.2996
 7923TIP3    H123733   4.799   6.817   2.926  0.9855 -0.3406 -1.2673
 7923TIP3    H223734   4.795   6.684   2.996 -1.0112  0.4518  0.1974
 7924TIP3   OH223735   2.885   4.756   2.708  0.3908  0.3766 -0.1600
 7924TIP3    H123736   2.867   4.752   2.802 -0.5798  1.1887 -0.2867
 7924TIP3    H223737   2.805   4.721   2.668  0.4290  0.8848 -0.6882
 7925TIP3   OH223738   2.032   0.982   2.277  0.4774 -0.1131 -0.3588
 7925TIP3    H123739   2.114   0.936   2.296  0.8025  0.2885 -0.7924
 7925TIP3    H223740   2.057   1.057   2.224  0.1655  1.5149  1.6764
 7926TIP3   OH223741   0.490   4.105   0.560 -0.2264  0.4401  0.0305
 7926TIP3    H123742   0.449   4.142   0.638  0.5854  1.9515 -0.2278
 7926TIP3    H223743   0.553   4.042   0.594 -0.5296  0.4151  0.5596
 7927TIP3   OH223744   3.325   3.515   3.386  0.0842  0.3272  0.2093
 7927TIP3    H123745   3.255   3.463   3.425 -0.3192  0.6608 -0.0584
 7927TIP3    H223746   3.309   3.509   3.292  0.7344 -0.0320  0.1144
 7928TIP3   OH223747   3.571   2.849   0.030 -0.4290  0.0162  0.3438
 7928TIP3    H123748   3.631   2.775   0.042 -1.9551 -1.2422  0.6681
 7928TIP3    H223749   3.626   2.921   0.000  0.8932 -1.7472 -1.7863
 7929TIP3   OH223750   6.607   5.437   4.729  0.2396 -0.2796 -0.4047
 7929TIP3    H123751   6.664   5.377   4.680  0.5732 -0.0839 -0.2559
 7929TIP3    H223752   6.660   5.514   4.743 -0.2493  0.1305 -0.7548
 7930TIP3   OH223753   1.003   5.276   2.593 -0.7032  0.0508  0.2084
 7930TIP3    H123754   1.089   5.315   2.580 -0.6382 -0.2039 -0.1329
 7930TIP3    H223755   1.017   5.182   2.586 -1.1452  0.0413 -0.6812
 7931TIP3   OH223756   5.077   5.541   5.422  0.3723 -0.2134 -0.4538
 7931TIP3    H123757   5.078   5.629   5.459  4.6009  0.5825 -1.9771
 7931TIP3    H223758   5.078   5.483   5.499  2.1942  1.2223  0.6874
 7932TIP3   OH223759   3.052   0.978   0.285 -0.0124  0.0810  0.1094
 7932TIP3    H123760   3.109   0.951   0.357  1.1556  0.1617 -0.7499
 7932TIP3    H223761   2.972   1.010   0.327  0.2900 -0.7078  1.3141
 7933TIP3   OH223762   5.571   1.686   1.534 -0.7736 -0.0003  0.0119
 7933TIP3    H123763   5.609   1.604   1.502  2.3284  1.1886  0.2971
 7933TIP3    H223764   5.525   1.722   1.458  0.8586 -0.3604 -1.2135
 7934TIP3   OH223765   0.970   4.305   1.118  0.1387  0.3249  0.0719
 7934TIP3    H123766   1.036   4.316   1.049 -0.4265  0.3125 -0.4877
 7934TIP3    H223767   1.004   4.236   1.174 -0.7213 -1.8637 -1.8830
 7935TIP3   OH223768   0.894   1.658   1.073 -0.0452  0.3650  0.7725
 7935TIP3    H123769   0.971   1.610   1.104 -0.0376  0.4449  0.8806
 7935TIP3    H223770   0.821   1.599   1.088 -0.1512  0.7226  1.7326
 7936TIP3   OH223771   7.038   4.014   2.718 -0.8632 -1.0325 -0.0522
 7936TIP3    H123772   7.022   4.029   2.811 -0.6635 -0.3510 -0.1148
 7936TIP3    H223773   7.090   4.090   2.691  0.7552 -2.1724 -0.2809
 7937TIP3   OH223774   5.859   0.597   1.548  0.4543 -0.0579 -0.3870
 7937TIP3    H123775   5.896   0.584   1.461 -1.9798 -0.7662 -1.4059
 7937TIP3    H223776   5.854   0.509   1.585  2.0685  0.3018  0.7930
 7938TIP3   OH223777   2.206   0.491   4.536  0.1314  0.0731  0.2071
 7938TIP3    H123778   2.191   0.442   4.456 -0.0174  3.4672 -2.0609
 7938TIP3    H223779   2.286   0.455   4.573 -1.1454 -3.2509  0.0275
 7939TIP3   OH223780   0.006   2.768   4.358 -0.3275  0.2011  0.0007
 7939TIP3    H123781   0.097   2.785   4.335 -0.4079 -0.2305 -0.6356
 7939TIP3    H223782  -0.043   2.840   4.319 -0.1848  0.8898  1.0340
 7940TIP3   OH223783   1.373   3.148   2.643 -0.0944 -0.4646  0.2707
 7940TIP3    H123784   1.386   3.067   2.594  0.2531  0.2341 -0.8131
 7940TIP3    H223785   1.302   3.128   2.704  0.1305 -1.6395  0.1608
 7941TIP3   OH223786   6.108   3.373   0.764  0.5530  0.1275  0.1837
 7941TIP3    H123787   6.028   3.325   0.745  1.8927 -3.1062  1.9630
 7941TIP3    H223788   6.161   3.364   0.685  0.3390 -0.3943  0.0975
 7942TIP3   OH223789   4.169   5.000   2.592 -0.3878 -0.4333  0.1812
 7942TIP3    H123790   4.114   4.996   2.514  1.1231  0.8376 -1.0135
 7942TIP3    H223791   4.173   4.910   2.623 -0.3751 -1.1126 -1.6803
 7943TIP3   OH223792   1.576   1.782   0.005 -0.2566  0.3508 -0.2006
 7943TIP3    H123793   1.532   1.709   0.049 -1.5247  0.4422 -1.2614
 7943TIP3    H223794   1.516   1.856   0.016 -1.1075  0.1488 -2.8356
 7944TIP3   OH223795   0.199   3.715   1.977 -0.2764 -0.2724  0.1994
 7944TIP3    H123796   0.106   3.695   1.990 -1.2264  2.8706 -0.9192
 7944TIP3    H223797   0.230   3.744   2.063 -0.1367 -1.7853  0.6926
 7945TIP3   OH223798   6.084   5.310   4.210  0.1855 -0.1257 -0.2763
 7945TIP3    H123799   6.123   5.358   4.137  0.9992 -1.7426 -0.9481
 7945TIP3    H223800   6.094   5.218   4.186 -0.0127 -0.6831  1.6369
 7946TIP3   OH223801   0.893   3.711   2.163 -0.4462 -0.0622  0.1772
 7946TIP3    H123802   0.847   3.747   2.087  0.7049 -0.4832 -0.7420
 7946TIP3    H223803   0.985   3.732   2.148 -0.2292  0.0987  1.6079
 7947TIP3   OH223804   2.162   6.180   5.604 -0.3249  0.0261 -0.0048
 7947TIP3    H123805   2.176   6.274   5.621 -0.7048  0.3990 -1.5754
 7947TIP3    H223806   2.095   6.178   5.535 -0.9866 -1.4405  0.6517
 7948TIP3   OH223807   1.630   1.064   4.186  0.7232 -0.3876  0.6662
 7948TIP3    H123808   1.568   1.133   4.163  1.2299  0.6590  2.2411
 7948TIP3    H223809   1.680   1.101   4.259  2.9573 -1.3226 -0.2935
 7949TIP3   OH223810   3.785   5.061   1.370  0.4510  0.3330 -0.0909
 7949TIP3    H123811   3.798   5.006   1.447 -1.7160 -1.1321 -0.6979
 7949TIP3    H223812   3.832   5.142   1.391 -0.8210  0.3789  3.1697
 7950TIP3   OH223813   3.578   0.928   5.493 -0.1597 -0.6656 -0.3349
 7950TIP3    H123814   3.571   0.915   5.398 -3.0304  0.3340 -0.3519
 7950TIP3    H223815   3.547   1.017   5.507 -0.1150 -0.9231  1.5906
 7951TIP3   OH223816   6.434   0.405   0.818 -0.1645 -0.1395  0.0703
 7951TIP3    H123817   6.451   0.468   0.888 -2.0450  1.8082 -1.1072
 7951TIP3    H223818   6.521   0.380   0.787  0.6617  0.5011  1.7671
 7952TIP3   OH223819   7.113   0.442   1.616  0.1309 -0.3200  0.1807
 7952TIP3    H123820   7.166   0.365   1.596 -0.6106 -1.1629  1.3158
 7952TIP3    H223821   7.060   0.456   1.538  0.3280 -0.9229 -0.0616
 7953TIP3   OH223822   2.448   1.101   3.606  0.4344  0.0739 -0.0115
 7953TIP3    H123823   2.472   1.168   3.541 -2.1301  1.2052  0.0993
 7953TIP3    H223824   2.368   1.062   3.572 -0.3252 -0.1278  1.8911
 7954TIP3   OH223825   2.887   0.382   3.330  0.5707  0.2489 -0.0487
 7954TIP3    H123826   2.842   0.465   3.313  1.3254  0.8223  0.6519
 7954TIP3    H223827   2.931   0.360   3.248 -0.2562  0.1269 -0.4735
 7955TIP3   OH223828   4.195   6.370   0.322 -0.1559 -0.1566  0.2769
 7955TIP3    H123829   4.220   6.358   0.414  0.8233  0.5904  0.1241
 7955TIP3    H223830   4.120   6.429   0.326 -0.4608 -0.5619  0.6252
 7956TIP3   OH223831   5.110   1.755   2.482 -0.2876 -0.2307  0.2339
 7956TIP3    H123832   5.036   1.739   2.424  0.2314 -1.1757 -0.1883
 7956TIP3    H223833   5.185   1.718   2.436  0.4209  0.5446  0.7366
 7957TIP3   OH223834   3.994   4.874   4.780 -0.1324  0.2434 -0.1008
 7957TIP3    H123835   3.945   4.871   4.697 -1.2259  2.3476  0.3950
 7957TIP3    H223836   3.929   4.902   4.845  0.6659 -1.4905  1.5449
 7958TIP3   OH223837   4.787   5.910   0.093  0.2726  0.1234  0.3851
 7958TIP3    H123838   4.743   5.825   0.095  0.2979  0.0367 -1.3129
 7958TIP3    H223839   4.731   5.967   0.146  0.2410 -0.9295  1.5253
 7959TIP3   OH223840   6.029   6.592   1.359  0.1473 -0.2933  0.1731
 7959TIP3    H123841   6.038   6.500   1.333  0.0556 -0.5493  0.9896
 7959TIP3    H223842   5.939   6.598   1.394 -0.3140  0.4328 -1.0767
 7960TIP3   OH223843   6.804   1.727   2.536  0.3628 -0.2050 -0.5846
 7960TIP3    H123844   6.887   1.763   2.505  0.4925 -0.3692 -0.4304
 7960TIP3    H223845   6.737   1.784   2.497  0.5434 -0.1147 -0.7674
 7961TIP3   OH223846   5.705   1.247   5.128 -0.3331 -0.3485  0.0978
 7961TIP3    H123847   5.733   1.187   5.196 -1.3030 -0.1580  0.6932
 7961TIP3    H223848   5.672   1.191   5.057  0.7412 -0.5481 -0.2572
 7962TIP3   OH223849   0.099   0.311   5.599  0.2321  0.3880  0.1542
 7962TIP3    H123850   0.185   0.349   5.616  0.0919  0.2066  1.3780
 7962TIP3    H223851   0.080   0.335   5.509  2.7020 -1.8111 -1.0787
 7963TIP3   OH223852   1.545   5.245   5.877 -0.0437 -0.4975  0.1731
 7963TIP3    H123853   1.548   5.234   5.782 -1.9688  1.7330 -0.2398
 7963TIP3    H223854   1.598   5.322   5.894  0.6890 -1.1697  1.0057
 7964TIP3   OH223855   4.618   6.678   4.838  0.2210 -0.4217  0.0525
 7964TIP3    H123856   4.593   6.642   4.753  0.0348 -1.3726  0.4962
 7964TIP3    H223857   4.714   6.680   4.835  0.2048 -0.0554 -0.3313
 7965TIP3   OH223858   3.004   2.247   1.288  0.3131 -0.0852 -0.0305
 7965TIP3    H123859   2.920   2.291   1.298  1.3799  1.8864  0.7621
 7965TIP3    H223860   3.020   2.206   1.374  0.5620  0.2873  0.1012
 7966TIP3   OH223861   4.397   1.288   3.506  0.2369 -0.1771 -0.1353
 7966TIP3    H123862   4.454   1.339   3.449 -1.6784  0.5543 -1.5261
 7966TIP3    H223863   4.411   1.324   3.593 -1.0055  2.8095 -1.0535
 7967TIP3   OH223864   1.313   6.153   5.235  0.1626  0.5728  0.0581
 7967TIP3    H123865   1.293   6.229   5.181 -1.3555 -0.1271 -0.4152
 7967TIP3    H223866   1.381   6.107   5.187 -1.6546 -0.4221 -1.6976
 7968TIP3   OH223867   1.439   3.748   5.733  0.0824  0.3268 -0.1937
 7968TIP3    H123868   1.474   3.702   5.656 -0.5684  1.1044 -0.9815
 7968TIP3    H223869   1.514   3.759   5.791  0.2468 -1.7710  0.0573
 7969TIP3   OH223870   5.975   3.100   0.437  0.4406  0.0708 -0.4403
 7969TIP3    H123871   5.908   3.068   0.376 -0.1438  0.9759 -0.2904
 7969TIP3    H223872   6.029   3.023   0.456 -1.3904 -1.0173  0.5464
 7970TIP3   OH223873   3.520   2.088   2.404  0.1926  0.4766  0.2302
 7970TIP3    H123874   3.464   2.126   2.336 -0.0253  1.5687  0.9972
 7970TIP3    H223875   3.461   2.030   2.453  0.3806 -0.4122 -0.5677
 7971TIP3   OH223876   7.081   0.715   3.177  0.2126 -0.5789  0.6984
 7971TIP3    H123877   6.988   0.720   3.201  0.4824  0.8821  1.5602
 7971TIP3    H223878   7.088   0.771   3.100  0.3165 -1.0255  0.3791
 7972TIP3   OH223879   1.021   3.437   5.369 -0.0080 -0.2289  0.1819
 7972TIP3    H123880   0.943   3.482   5.335  0.1712 -0.4748 -0.5705
 7972TIP3    H223881   0.999   3.344   5.366  0.2696 -0.2925  0.0890
 7973TIP3   OH223882   4.691   1.857   0.153  0.1145  0.1375 -0.2450
 7973TIP3    H123883   4.759   1.872   0.219 -0.7858  1.8911  0.3252
 7973TIP3    H223884   4.636   1.788   0.191  1.0067 -0.6382 -0.3055
 7974TIP3   OH223885   6.597   1.220   1.460  0.7796  0.0454 -0.2438
 7974TIP3    H123886   6.578   1.210   1.553  0.2397  0.7492 -0.2655
 7974TIP3    H223887   6.606   1.130   1.427  0.7711 -0.2116  0.4467
 7975TIP3   OH223888   3.550   2.089   4.565 -0.3162 -0.1657 -0.3571
 7975TIP3    H123889   3.494   2.141   4.508  0.3030  0.4062 -0.4637
 7975TIP3    H223890   3.610   2.152   4.604 -1.0618 -0.4671  1.3578
 7976TIP3   OH223891   1.075   1.743   5.418 -0.2786  0.9531  0.2615
 7976TIP3    H123892   1.049   1.777   5.504 -1.2915  0.0836  0.3253
 7976TIP3    H223893   1.156   1.695   5.436  0.1375  1.7353  0.5107
 7977TIP3   OH223894   5.745   6.200   5.525 -0.1768 -0.5445 -0.5175
 7977TIP3    H123895   5.740   6.279   5.473 -0.0071 -1.2893 -1.7045
 7977TIP3    H223896   5.714   6.131   5.467 -0.5925 -1.3126  0.5798
 7978TIP3   OH223897   2.085   2.587   3.184 -0.4524  0.2770 -0.0044
 7978TIP3    H123898   2.148   2.646   3.141 -1.7129  0.7059 -1.3400
 7978TIP3    H223899   2.139   2.513   3.213  0.6061  0.2768 -1.7592
 7979TIP3   OH223900   3.597   3.829   2.728 -0.3704  0.0104  0.1218
 7979TIP3    H123901   3.622   3.917   2.755  0.6877 -0.5384  1.0233
 7979TIP3    H223902   3.582   3.782   2.810 -1.5583 -0.4895 -0.3539
 7980TIP3   OH223903   5.012   0.067   1.547  0.5210  0.2827  0.8473
 7980TIP3    H123904   4.923   0.093   1.522  1.4552  2.9825 -0.1621
 7980TIP3    H223905   5.016   0.081   1.641  0.5296  2.8139  0.5550
 7981TIP3   OH223906   3.091   2.763   5.649 -0.2775  0.4240  0.0268
 7981TIP3    H123907   3.125   2.707   5.719 -2.4980  0.4780  1.2466
 7981TIP3    H223908   3.042   2.704   5.593  1.1283  0.4602 -1.3088
 7982TIP3   OH223909   3.170   1.485   4.501  0.2461  0.3434  0.2214
 7982TIP3    H123910   3.165   1.567   4.453 -0.2096 -0.3460 -0.9467
 7982TIP3    H223911   3.197   1.510   4.589  0.9027  1.6581 -0.3330
 7983TIP3   OH223912   3.550   2.017   5.868 -0.3576 -0.0434  0.3480
 7983TIP3    H123913   3.567   1.966   5.789  0.7238 -0.5034  0.8533
 7983TIP3    H223914   3.539   2.107   5.838  0.1094 -0.2076 -0.3181
 7984TIP3   OH223915   5.882   4.914   5.035 -0.0859 -0.0810 -0.0838
 7984TIP3    H123916   5.849   4.848   5.096 -0.1704  1.3740  1.5487
 7984TIP3    H223917   5.871   4.875   4.948 -0.8017 -1.8864  0.7688
 7985TIP3   OH223918   4.146   0.346   1.395 -0.4161 -0.2449  0.0199
 7985TIP3    H123919   4.167   0.277   1.459 -1.1251 -3.8533 -3.2429
 7985TIP3    H223920   4.223   0.403   1.396  1.7002 -2.9090  0.7353
 7986TIP3   OH223921   3.047   3.601   5.036  0.0017  0.0787  0.2802
 7986TIP3    H123922   3.121   3.555   5.075 -0.9488 -1.1818  0.6427
 7986TIP3    H223923   3.085   3.648   4.961  1.2435 -0.1374  0.7495
 7987TIP3   OH223924   0.792   3.245   5.653  0.5846 -0.5849 -0.0507
 7987TIP3    H123925   0.721   3.210   5.599 -0.9946  0.3923  1.2982
 7987TIP3    H223926   0.849   3.170   5.669 -1.4266 -2.0269  0.8128
 7988TIP3   OH223927   3.731   5.540   0.968  0.3416 -0.0179  0.3183
 7988TIP3    H123928   3.656   5.532   0.910 -0.0172  0.1147  0.7555
 7988TIP3    H223929   3.710   5.483   1.042  0.4493  0.3925  0.6697
 7989TIP3   OH223930   3.065   4.222   3.009  0.4165  0.6705 -0.1695
 7989TIP3    H123931   3.096   4.196   3.096 -0.9912  2.8380  1.0619
 7989TIP3    H223932   3.123   4.293   2.983  2.0822 -1.2230 -1.9809
 7990TIP3   OH223933   4.884   2.740   2.375 -0.0527  0.2682  0.4964
 7990TIP3    H123934   4.808   2.794   2.394  0.7883  1.2309  1.2854
 7990TIP3    H223935   4.911   2.767   2.287  0.3782  1.1992  0.8929
 7991TIP3   OH223936   2.998   1.252   4.521  0.3225 -0.3239  0.4393
 7991TIP3    H123937   2.913   1.292   4.500  0.4325 -1.1739 -1.9287
 7991TIP3    H223938   3.062   1.306   4.476  0.8709 -0.7272  0.7201
 7992TIP3   OH223939   5.484   2.417   0.737 -0.6330  0.2438 -0.0783
 7992TIP3    H123940   5.551   2.462   0.686 -0.6102 -0.5682 -0.7944
 7992TIP3    H223941   5.436   2.487   0.781  0.7758  0.8413  0.5801
 7993TIP3   OH223942   6.258   6.752   1.609 -0.0724  0.0492 -0.4566
 7993TIP3    H123943   6.193   6.799   1.558 -0.5501 -1.4064 -1.2367
 7993TIP3    H223944   6.339   6.762   1.560  0.0458  0.8162 -0.1272
 7994TIP3   OH223945   1.149   1.931   4.442  0.3343  0.1876 -0.3433
 7994TIP3    H123946   1.223   1.982   4.409 -0.0686  0.6368 -0.5579
 7994TIP3    H223947   1.189   1.858   4.489  0.9083  0.9999  0.4374
 7995TIP3   OH223948   5.466   0.900   5.093  0.1269 -0.0819 -0.2556
 7995TIP3    H123949   5.520   0.963   5.045 -0.7297  1.3449  0.5560
 7995TIP3    H223950   5.377   0.934   5.083 -0.1791 -0.3241  1.4432
 7996TIP3   OH223951   3.938   6.036   0.410 -0.2398  0.0456  0.4670
 7996TIP3    H123952   3.864   5.991   0.450 -0.0185  0.0035  0.8319
 7996TIP3    H223953   3.952   5.990   0.328 -1.6350  1.0410 -0.3805
 7997TIP3   OH223954   1.709   2.094   0.939 -0.0205  0.4836 -0.0079
 7997TIP3    H123955   1.646   2.165   0.926  0.3775  0.8269 -0.0827
 7997TIP3    H223956   1.750   2.114   1.023 -0.2979  0.0353  0.2393
 7998TIP3   OH223957   4.734   6.392   4.191  0.0495  0.0297 -0.6822
 7998TIP3    H123958   4.666   6.419   4.252  0.8893  1.4715 -0.3411
 7998TIP3    H223959   4.693   6.322   4.140 -1.7906  1.0358 -0.6916
 7999TIP3   OH223960   5.548   3.624   1.295 -0.5797  0.1639 -0.3954
 7999TIP3    H123961   5.587   3.710   1.279 -0.7780  1.2075  3.4943
 7999TIP3    H223962   5.622   3.567   1.316 -0.5106  1.6078  4.8310
 8000TIP3   OH223963   4.483   3.638   4.074 -0.0320 -0.3413  0.5249
 8000TIP3    H123964   4.414   3.674   4.019  0.6695 -2.4149 -1.8941
 8000TIP3    H223965   4.437   3.590   4.143 -0.9443  0.6060  0.6021
 8001TIP3   OH223966   5.977   3.539   4.555 -0.2381 -0.5354  0.1718
 8001TIP3    H123967   6.052   3.599   4.558 -0.9995  0.4229  1.8664
 8001TIP3    H223968   5.972   3.510   4.464  1.8207 -0.1677 -0.0933
 8002TIP3   OH223969   4.609   2.047   5.317  0.0357  0.3713 -0.7642
 8002TIP3    H123970   4.616   1.959   5.354  1.7190  1.0453  0.6552
 8002TIP3    H223971   4.699   2.079   5.316 -0.7682  2.9372  1.0014
 8003TIP3   OH223972   6.322   0.810   1.161  0.1222  0.4068  0.3590
 8003TIP3    H123973   6.320   0.789   1.067  0.1323 -0.0154  0.4541
 8003TIP3    H223974   6.316   0.726   1.205 -2.3983  0.7356  0.7752
 8004TIP3   OH223975   2.500   3.207   2.964 -0.0843  0.3175 -0.5648
 8004TIP3    H123976   2.565   3.215   3.034  0.2709  0.5810 -0.9210
 8004TIP3    H223977   2.551   3.197   2.884 -0.4910 -0.2104 -0.7648
 8005TIP3   OH223978   3.449   5.180   4.084 -0.3931 -0.8469 -0.1874
 8005TIP3    H123979   3.440   5.129   4.164 -0.0040 -0.2365  0.2525
 8005TIP3    H223980   3.399   5.131   4.019 -2.3169 -0.3735  0.8641
 8006TIP3   OH223981   4.200   3.857   0.504  0.0415  0.1582 -0.2005
 8006TIP3    H123982   4.190   3.888   0.414 -1.4405 -2.1037 -0.9097
 8006TIP3    H223983   4.290   3.822   0.507  0.3212  0.8280 -0.5958
 8007TIP3   OH223984   6.946   6.091   3.692  0.0510  0.4109  0.2045
 8007TIP3    H123985   6.921   6.003   3.721  0.8436 -0.3271 -1.1959
 8007TIP3    H223986   6.873   6.147   3.720  0.2328 -0.3837  2.4938
 8008TIP3   OH223987   2.941   5.475   4.202 -0.6952  0.0398 -0.4276
 8008TIP3    H123988   2.923   5.487   4.109 -1.7082  0.7877 -0.1556
 8008TIP3    H223989   2.915   5.385   4.220  1.9719 -1.0281 -1.3785
 8009TIP3   OH223990   4.654   3.575   5.222 -0.0601  0.0026  0.6470
 8009TIP3    H123991   4.698   3.626   5.154  0.7706 -0.2398  0.9897
 8009TIP3    H223992   4.564   3.606   5.220  0.1703  0.6698  0.0750
 8010TIP3   OH223993   2.786   6.103   1.045  0.0346 -0.3473  0.2168
 8010TIP3    H123994   2.708   6.154   1.025  0.4750  0.5478  0.6825
 8010TIP3    H223995   2.805   6.055   0.965 -0.8139 -0.3306 -0.0006
 8011TIP3   OH223996   4.348   1.886   0.623 -0.6554 -0.3504  0.5573
 8011TIP3    H123997   4.315   1.893   0.713 -2.2437  0.4096 -0.0495
 8011TIP3    H223998   4.298   1.813   0.585 -0.3295 -0.3670  0.1571
 8012TIP3   OH223999   5.713   5.365   0.138  0.0095 -0.1796 -0.1984
 8012TIP3    H124000   5.672   5.348   0.053 -2.1081  0.2653  0.6510
 8012TIP3    H224001   5.777   5.434   0.120  0.6229 -1.0842 -1.6607
 8013TIP3   OH224002   7.052   4.409   3.105  0.4305 -0.0151  0.0418
 8013TIP3    H124003   7.005   4.352   3.044  2.7073 -0.7505 -1.1470
 8013TIP3    H224004   7.072   4.352   3.179 -0.8549  0.4118  0.7381
 8014TIP3   OH224005   3.783   2.881   3.413 -0.7230  0.2439 -0.1903
 8014TIP3    H124006   3.821   2.802   3.374 -0.6651  0.5286 -0.7161
 8014TIP3    H224007   3.694   2.854   3.438 -0.9157  0.1819 -0.9300
 8015TIP3   OH224008   5.113   4.626   0.117  0.2367  0.2617  0.6084
 8015TIP3    H124009   5.108   4.623   0.212  2.4268 -1.6400  0.7624
 8015TIP3    H224010   5.025   4.601   0.088 -0.5036  0.9875  2.0969
 8016TIP3   OH224011   2.348   4.675   5.047 -0.0204  0.1070 -0.2803
 8016TIP3    H124012   2.330   4.761   5.009 -0.6432  0.8610  1.5709
 8016TIP3    H224013   2.442   4.676   5.066  0.1295  0.0497 -1.0022
 8017TIP3   OH224014   4.644   5.893   0.916  0.1369 -0.2712  0.2880
 8017TIP3    H124015   4.692   5.962   0.961  1.7559 -0.4045 -1.1653
 8017TIP3    H224016   4.649   5.817   0.975 -0.1454  0.3342  1.0994
 8018TIP3   OH224017   0.198   1.056   2.427 -0.2932  0.3342 -0.0143
 8018TIP3    H124018   0.213   1.146   2.457 -0.8951  0.1068  1.0217
 8018TIP3    H224019   0.209   1.060   2.332  0.8146  1.2652  0.1364
 8019TIP3   OH224020   6.607   1.405   2.681 -0.2768  0.4813  0.0417
 8019TIP3    H124021   6.621   1.426   2.589 -1.2540 -0.7278 -0.4105
 8019TIP3    H224022   6.571   1.316   2.680  0.1672  0.2492  1.6233
 8020TIP3   OH224023   4.767   0.026   0.598  0.3791 -0.5155  0.8912
 8020TIP3    H124024   4.695   0.073   0.641  0.7731 -0.0246  1.0284
 8020TIP3    H224025   4.775  -0.056   0.647  0.5551 -0.1420  1.5148
 8021TIP3   OH224026   4.111   3.552   5.496  0.2283  0.3093 -0.1168
 8021TIP3    H124027   4.181   3.551   5.561 -0.3042 -1.0390  0.4618
 8021TIP3    H224028   4.131   3.628   5.441  1.4133  0.7066  0.8176
 8022TIP3   OH224029   0.575   5.502   2.890 -0.4007  0.2386 -0.7707
 8022TIP3    H124030   0.502   5.463   2.842 -0.0224  1.1390 -2.1350
 8022TIP3    H224031   0.555   5.595   2.893 -0.6999  0.1729  1.4011
 8023TIP3   OH224032   5.258   0.170   1.818  0.2236  0.2607 -0.2326
 8023TIP3    H124033   5.193   0.240   1.815 -0.1881 -0.1222 -0.2948
 8023TIP3    H224034   5.232   0.115   1.891  0.1699 -0.1901 -0.5817
 8024TIP3   OH224035   4.472   6.050   4.596  0.7243  0.6586 -0.3240
 8024TIP3    H124036   4.461   6.120   4.660 -2.0429  0.2249 -0.1987
 8024TIP3    H224037   4.462   5.969   4.646  0.8997  0.2557 -0.9186
 8025TIP3   OH224038   1.229   6.650   3.790  0.8331 -0.2287 -0.4566
 8025TIP3    H124039   1.187   6.589   3.728 -0.7877 -0.2403  0.6043
 8025TIP3    H224040   1.202   6.736   3.760  0.5836 -0.2023 -0.1616
 8026TIP3   OH224041   0.141   6.533   5.622 -0.0622 -0.2528  0.3951
 8026TIP3    H124042   0.061   6.567   5.663  0.0192  0.9593 -0.3789
 8026TIP3    H224043   0.113   6.505   5.534  0.1732 -0.8002  0.4899
 8027TIP3   OH224044   0.467   0.391   4.621  0.6752 -0.1177  0.3459
 8027TIP3    H124045   0.485   0.477   4.583 -1.7327  0.3424  0.0798
 8027TIP3    H224046   0.510   0.392   4.706  1.3460  1.0402  0.0050
 8028TIP3   OH224047   2.196   2.208   0.879  0.0647  0.3743 -0.3954
 8028TIP3    H124048   2.277   2.231   0.833  0.4300 -1.1024 -0.5298
 8028TIP3    H224049   2.129   2.264   0.839  0.3987 -0.7042 -2.6320
 8029TIP3   OH224050   0.594   2.944   4.168 -0.2017 -0.3016 -0.0356
 8029TIP3    H124051   0.573   3.035   4.188 -0.7774 -0.4749  0.1743
 8029TIP3    H224052   0.608   2.903   4.253 -0.4031 -0.5170 -0.1058
 8030TIP3   OH224053   3.922   6.644   5.019  0.2758 -0.0855 -0.3004
 8030TIP3    H124054   3.855   6.699   5.062  0.3551 -0.4450  0.2888
 8030TIP3    H224055   3.893   6.640   4.928 -0.4204 -0.0884 -0.0924
 8031TIP3   OH224056   1.299   4.401   1.717 -0.0862  0.0319 -0.2027
 8031TIP3    H124057   1.343   4.416   1.801  0.2974  0.6570 -0.5098
 8031TIP3    H224058   1.246   4.479   1.704 -1.7263 -0.9361  0.4124
 8032TIP3   OH224059   5.500   4.871   0.503 -0.1252 -0.2590 -0.8737
 8032TIP3    H124060   5.448   4.929   0.448 -0.7207  0.6630  0.6244
 8032TIP3    H224061   5.442   4.846   0.574  0.8114 -0.9637 -0.3349
 8033TIP3   OH224062   0.702   6.398   5.806 -0.6480 -0.3091  0.1085
 8033TIP3    H124063   0.742   6.483   5.787  1.4440 -1.1721  0.4236
 8033TIP3    H224064   0.639   6.385   5.735  0.3193  0.6993 -0.9701
 8034TIP3   OH224065   3.541   5.380   3.341 -0.4701  0.0072 -0.2913
 8034TIP3    H124066   3.497   5.310   3.389 -0.2687  0.7038  0.9658
 8034TIP3    H224067   3.560   5.342   3.255 -0.9115 -1.2665  0.1468
 8035TIP3   OH224068   4.538   0.211   2.954 -0.6397  0.0157 -0.4219
 8035TIP3    H124069   4.443   0.212   2.958 -0.6261 -0.0673 -0.0523
 8035TIP3    H224070   4.562   0.290   2.905 -0.8740  0.3267 -0.0396
 8036TIP3   OH224071   1.809   0.602   1.699  0.6854  0.2188 -0.9852
 8036TIP3    H124072   1.753   0.575   1.626 -0.7836  1.4359 -0.3602
 8036TIP3    H224073   1.887   0.637   1.657  1.5536 -2.5120 -1.8572
 8037TIP3   OH224074   6.458   5.334   4.367  0.0762 -0.2079 -0.1070
 8037TIP3    H124075   6.410   5.386   4.431  0.5247 -1.2459  1.1030
 8037TIP3    H224076   6.454   5.244   4.400  0.3306 -0.7734 -1.5295
 8038TIP3   OH224077   0.553   4.428   2.657 -0.0064 -0.0005 -0.1459
 8038TIP3    H124078   0.536   4.334   2.669  0.1515  0.1706  1.7166
 8038TIP3    H224079   0.525   4.446   2.567  1.9694 -2.2593 -1.3171
 8039TIP3   OH224080   3.370   4.933   1.861  0.0595  0.0415 -0.6507
 8039TIP3    H124081   3.450   4.981   1.879 -0.2139  0.1900  0.2083
 8039TIP3    H224082   3.387   4.887   1.779  0.8117  0.5230 -0.7697
 8040TIP3   OH224083   6.865   4.310   2.662  0.5424 -0.2734  0.2961
 8040TIP3    H124084   6.920   4.333   2.587  0.5530 -1.6189 -0.1428
 8040TIP3    H224085   6.776   4.327   2.633  0.6753  2.0804  1.0700
 8041TIP3   OH224086   2.808   4.117   4.531 -0.5340  0.4350  0.3260
 8041TIP3    H124087   2.819   4.210   4.553  0.2553  0.7310 -1.1748
 8041TIP3    H224088   2.851   4.108   4.446 -1.1378 -1.1891  0.1728
 8042TIP3   OH224089   4.126   5.786   0.843 -0.1568  0.0499 -0.1238
 8042TIP3    H124090   4.147   5.831   0.925 -0.8869  0.1644  0.0062
 8042TIP3    H224091   4.210   5.753   0.812  0.3549  1.2260 -0.0603
 8043TIP3   OH224092   2.237   4.115   3.016 -0.6242  0.0235 -0.0503
 8043TIP3    H124093   2.219   4.063   2.937 -1.5096  0.9857 -0.5056
 8043TIP3    H224094   2.234   4.206   2.986 -1.0331  0.4075  1.1084
 8044TIP3   OH224095   0.677   2.447   1.327  0.4087 -0.2955 -0.1004
 8044TIP3    H124096   0.735   2.393   1.272  0.5076 -1.7946  1.4060
 8044TIP3    H224097   0.726   2.462   1.407  0.7172  2.8364 -0.7445
 8045TIP3   OH224098   2.374   0.070   2.321  0.5563  0.1980  0.5649
 8045TIP3    H124099   2.382  -0.025   2.329 -0.3604  0.0687  0.0883
 8045TIP3    H224100   2.286   0.090   2.353  0.7661  0.8969  0.7271
 8046TIP3   OH224101   1.641   6.654   1.183  0.0967 -0.7976 -0.0761
 8046TIP3    H124102   1.640   6.558   1.186  0.3655 -0.7647  1.3936
 8046TIP3    H224103   1.552   6.679   1.208  0.0825 -0.6495 -0.2713
 8047TIP3   OH224104   2.527   3.887   5.567 -0.1548 -0.0137 -0.1210
 8047TIP3    H124105   2.519   3.819   5.499  0.1752 -0.1602 -0.0115
 8047TIP3    H224106   2.533   3.838   5.649  1.2049  0.1079 -0.1355
 8048TIP3   OH224107   1.299   0.873   1.417  0.4581 -0.3209 -0.7123
 8048TIP3    H124108   1.212   0.849   1.384  0.1114 -1.9790  1.1854
 8048TIP3    H224109   1.281   0.921   1.498  1.3085  2.4295 -2.0265
 8049TIP3   OH224110   2.003   3.158   0.932  0.0982  0.4665  0.2589
 8049TIP3    H124111   2.015   3.076   0.979 -0.7158 -0.6789 -1.4160
 8049TIP3    H224112   2.054   3.147   0.851  0.1617  1.7026  0.1093
 8050TIP3   OH224113   6.605   4.584   3.001 -0.4637  0.8608 -0.1150
 8050TIP3    H124114   6.676   4.604   2.941 -0.3372  1.4346  0.2148
 8050TIP3    H224115   6.606   4.656   3.064 -1.3571  0.8953 -0.1266
 8051TIP3   OH224116   0.985   0.399   0.971 -0.4784  0.2242 -0.6906
 8051TIP3    H124117   1.054   0.348   0.929 -2.0944  0.7394 -4.3245
 8051TIP3    H224118   0.908   0.341   0.970 -1.3251  1.3203 -1.2864
 8052TIP3   OH224119   4.083   0.527   3.213 -0.8145  0.1719  0.2957
 8052TIP3    H124120   4.050   0.552   3.127  0.7092 -0.1529 -0.4047
 8052TIP3    H224121   4.152   0.590   3.233 -0.7661 -0.0953  1.0352
 8053TIP3   OH224122   6.452   5.177   2.298 -0.3579  0.4988  0.0302
 8053TIP3    H124123   6.533   5.135   2.271 -0.3021  0.2579  0.5563
 8053TIP3    H224124   6.461   5.188   2.393 -0.2785  1.8961 -0.1180
 8054TIP3   OH224125   5.689   5.150   2.344  0.2429  0.5607 -0.2112
 8054TIP3    H124126   5.605   5.112   2.369  1.0119 -0.5125  0.8988
 8054TIP3    H224127   5.749   5.076   2.343  1.8548  1.7117  2.2310
 8055TIP3   OH224128   7.105   5.481   1.949  0.1870  0.9719 -0.5923
 8055TIP3    H124129   7.197   5.480   1.923  0.5280 -0.0104  0.5574
 8055TIP3    H224130   7.071   5.563   1.914  1.1667  0.7618 -2.1279
 8056TIP3   OH224131   3.622   2.594   3.313  0.0414  0.0421  0.4447
 8056TIP3    H124132   3.597   2.671   3.261 -0.4063  1.1101  2.1652
 8056TIP3    H224133   3.542   2.543   3.321  0.5231 -1.1072 -1.4066
 8057TIP3   OH224134   3.273   6.672   2.019 -0.2512 -0.7755 -0.0190
 8057TIP3    H124135   3.364   6.645   2.007  0.5031  0.9409  1.4191
 8057TIP3    H224136   3.223   6.618   1.957  1.6380 -2.2694 -0.3173
 8058TIP3   OH224137   4.743   4.049   1.632  0.2784  0.5096  0.3266
 8058TIP3    H124138   4.779   4.130   1.670  1.3915  0.3059 -0.2490
 8058TIP3    H224139   4.820   4.002   1.600 -0.3157 -0.9555  0.9662
 8059TIP3   OH224140   4.336   4.813   3.065 -0.4659 -0.0013  0.0971
 8059TIP3    H124141   4.250   4.770   3.063 -0.2313 -0.4671 -0.2720
 8059TIP3    H224142   4.319   4.899   3.102 -0.7357 -0.9252  2.3009
 8060TIP3   OH224143   1.079   6.757   4.580 -0.1721 -0.2827  0.2354
 8060TIP3    H124144   1.043   6.817   4.515 -0.3430  0.8376  1.3291
 8060TIP3    H224145   1.128   6.813   4.641 -1.6254 -0.9935  2.1787
 8061TIP3   OH224146   1.115   6.119   4.137  0.6289 -0.3726  0.2051
 8061TIP3    H124147   1.033   6.138   4.091 -0.8652  0.1717  2.8841
 8061TIP3    H224148   1.163   6.201   4.135 -0.6228  0.4524  1.8003
 8062TIP3   OH224149   1.354   3.732   4.778 -0.0673  0.2819 -0.0434
 8062TIP3    H124150   1.282   3.768   4.830 -0.3931  0.4027 -0.5680
 8062TIP3    H224151   1.424   3.715   4.842 -0.0684  1.4281  0.2806
 8063TIP3   OH224152   0.657   0.183   1.524 -0.6182 -0.1033 -0.5712
 8063TIP3    H124153   0.737   0.139   1.556 -1.0368 -0.8617 -0.5389
 8063TIP3    H224154   0.613   0.213   1.604  0.7318  2.3651 -0.6621
 8064TIP3   OH224155   1.850   5.584   4.719 -0.7757  0.6810  0.1405
 8064TIP3    H124156   1.801   5.521   4.772  1.1599 -1.0863 -0.0674
 8064TIP3    H224157   1.891   5.642   4.783  0.9071 -0.9650  0.6462
 8065TIP3   OH224158   2.261   1.699   0.576 -0.6163  0.1650 -0.5629
 8065TIP3    H124159   2.351   1.666   0.569 -0.3714  1.1104 -2.6787
 8065TIP3    H224160   2.250   1.720   0.669  0.9534 -0.9791 -0.0656
 8066TIP3   OH224161   7.093   0.670   0.035 -0.1543 -0.2621  0.0734
 8066TIP3    H124162   7.109   0.665  -0.059  3.0894  0.0416  0.4948
 8066TIP3    H224163   7.041   0.749   0.047 -2.4723 -1.4136 -1.5596
 8067TIP3   OH224164   2.822   0.585   5.825  0.3207  0.0583 -0.0660
 8067TIP3    H124165   2.780   0.552   5.745 -1.2385  2.3381 -0.2789
 8067TIP3    H224166   2.796   0.677   5.829 -0.9158 -0.3064  3.8723
 8068TIP3   OH224167   1.950   1.157   0.397  0.6236 -0.5142 -0.0585
 8068TIP3    H124168   1.906   1.239   0.374  1.8183 -0.4064 -2.2733
 8068TIP3    H224169   1.882   1.090   0.393  0.0292  0.0906 -0.1679
 8069TIP3   OH224170   6.681   4.229   2.448 -0.7573 -0.4194 -0.1199
 8069TIP3    H124171   6.701   4.152   2.395  0.4132 -0.5441  0.4815
 8069TIP3    H224172   6.622   4.196   2.516  0.7805 -1.1007  0.9276
 8070TIP3   OH224173   5.799   2.368   4.965 -0.1252  0.8626  0.4240
 8070TIP3    H124174   5.883   2.382   5.009  0.2049  1.3019 -0.3255
 8070TIP3    H224175   5.758   2.454   4.963 -1.3272  0.4026  2.1667
 8071TIP3   OH224176   3.168   0.935   0.558 -0.6726 -0.2462  0.2147
 8071TIP3    H124177   3.149   0.844   0.581 -0.7232 -0.5688 -0.9981
 8071TIP3    H224178   3.101   0.985   0.604 -0.1407 -0.7233  1.5672
 8072TIP3   OH224179   3.834   1.483   4.947 -0.2521  0.1592 -0.0837
 8072TIP3    H124180   3.872   1.567   4.975 -1.5033  0.8224 -0.2960
 8072TIP3    H224181   3.851   1.479   4.853  0.1846 -0.0358  0.0011
 8073TIP3   OH224182   0.495   0.424   4.297 -0.1811  0.2448 -0.1206
 8073TIP3    H124183   0.476   0.432   4.391 -0.5171  0.2329 -0.1858
 8073TIP3    H224184   0.506   0.331   4.283 -1.8041  0.0675 -0.4026
 8074TIP3   OH224185   7.135   4.478   2.061  0.2732 -0.5266  0.6258
 8074TIP3    H124186   7.066   4.411   2.066  0.1513 -0.3575  1.2292
 8074TIP3    H224187   7.173   4.466   1.974 -0.8166 -0.3353  0.0951
 8075TIP3   OH224188   6.875   1.023   2.825 -0.1329  0.1775 -0.3045
 8075TIP3    H124189   6.944   0.960   2.847 -1.2664 -1.4641 -1.1476
 8075TIP3    H224190   6.921   1.095   2.781  1.1310 -0.4413 -0.0533
 8076TIP3   OH224191  -0.014   1.060   0.644  0.1236 -0.0955  0.0932
 8076TIP3    H124192   0.054   1.070   0.578  1.8135 -0.0604  1.7631
 8076TIP3    H224193  -0.020   1.146   0.686 -1.4059  0.0796 -0.4058
 8077TIP3   OH224194   4.717   5.646   3.696 -0.2678 -0.6025 -0.2043
 8077TIP3    H124195   4.781   5.713   3.719 -1.4541  0.5911 -0.2611
 8077TIP3    H224196   4.718   5.644   3.600  0.8346 -1.7632 -0.1936
 8078TIP3   OH224197   0.056   6.334   4.565  0.3120  0.1247  0.4378
 8078TIP3    H124198   0.120   6.272   4.601  0.8528  0.8373  0.7385
 8078TIP3    H224199   0.015   6.286   4.493  1.6575 -0.1359 -0.2004
 8079TIP3   OH224200   5.668   0.215   5.794 -0.0054  0.2538  0.1211
 8079TIP3    H124201   5.636   0.147   5.854  0.6340 -0.6190 -0.5004
 8079TIP3    H224202   5.682   0.291   5.850 -1.0875 -0.0055  0.7743
 8080TIP3   OH224203   3.051   4.951   2.804 -0.0281  0.4722 -0.1863
 8080TIP3    H124204   3.134   4.923   2.842  0.3277  0.4344 -0.9808
 8080TIP3    H224205   3.019   4.874   2.757 -1.1542  0.0714  1.1600
 8081TIP3   OH224206   4.382   2.084   3.446  0.1841 -0.2990  0.1159
 8081TIP3    H124207   4.314   2.035   3.494 -0.6610  1.1086  0.4299
 8081TIP3    H224208   4.374   2.053   3.356 -1.0594  0.0036  0.1009
 8082TIP3   OH224209   7.019   3.684   5.884  0.2536  0.2835  0.0263
 8082TIP3    H124210   6.970   3.611   5.847  0.7991 -0.4157  0.6664
 8082TIP3    H224211   7.002   3.757   5.824 -0.4100 -0.3204 -0.5381
 8083TIP3   OH224212   2.529   1.946   5.021  0.4018  0.0978  0.2331
 8083TIP3    H124213   2.481   1.904   5.093  1.2199  0.0925  0.7972
 8083TIP3    H224214   2.577   2.018   5.063 -1.3907  2.0078 -0.7967
 8084TIP3   OH224215   6.299   6.109   2.895  0.3311 -0.1377  0.2281
 8084TIP3    H124216   6.239   6.179   2.920 -0.4339 -0.4889 -0.5476
 8084TIP3    H224217   6.260   6.072   2.815  2.0978  0.2682 -0.8763
 8085TIP3   OH224218   6.965   5.152   1.417  0.2897  0.3694 -0.1302
 8085TIP3    H124219   6.969   5.061   1.446 -1.8434  0.4648  0.6213
 8085TIP3    H224220   6.906   5.194   1.478 -0.2656  1.8178 -1.5893
 8086TIP3   OH224221   0.659   6.422   2.800 -0.1471 -0.7268 -0.0842
 8086TIP3    H124222   0.685   6.370   2.876  0.0578 -0.8771 -0.2573
 8086TIP3    H224223   0.721   6.397   2.731 -1.6355 -2.1590 -0.9539
 8087TIP3   OH224224   1.859   2.758   3.546  0.2506  0.0036 -0.0555
 8087TIP3    H124225   1.862   2.666   3.520  0.3532  0.0581 -0.2353
 8087TIP3    H224226   1.902   2.759   3.632  1.2767  0.0530 -0.5540
 8088TIP3   OH224227   1.491   1.604   3.669 -0.0509 -0.3210 -0.4647
 8088TIP3    H124228   1.489   1.508   3.669 -0.5176 -0.3268  0.6563
 8088TIP3    H224229   1.513   1.627   3.579 -0.1369 -1.4763 -0.8031
 8089TIP3   OH224230   0.827   5.245   2.042 -0.1690 -0.5639  0.0910
 8089TIP3    H124231   0.854   5.325   1.996 -0.5350 -0.5288 -0.0673
 8089TIP3    H224232   0.732   5.254   2.051 -0.1245 -0.6597  0.6907
 8090TIP3   OH224233   4.031   4.448   1.294  0.2570  0.3499 -0.1747
 8090TIP3    H124234   4.030   4.456   1.389 -3.1367  0.9564 -0.1222
 8090TIP3    H224235   3.998   4.359   1.277 -1.2808  0.9978 -0.7385
 8091TIP3   OH224236   7.202   4.862   5.495 -0.4730 -0.3801  0.1030
 8091TIP3    H124237   7.201   4.903   5.408  0.8627 -0.7729 -0.1165
 8091TIP3    H224238   7.151   4.921   5.550  0.4500  0.9959 -0.4667
 8092TIP3   OH224239   3.204   4.969   4.285  0.4418 -0.0087  0.5743
 8092TIP3    H124240   3.227   4.882   4.251  0.1916 -0.3316  1.2095
 8092TIP3    H224241   3.244   4.972   4.372  2.2894  1.3511 -0.2547
 8093TIP3   OH224242   1.344   4.951   3.424  0.3281 -0.3745  0.7306
 8093TIP3    H124243   1.400   4.915   3.355  0.3648  0.8711  0.0727
 8093TIP3    H224244   1.357   5.046   3.418 -1.9005 -0.0278  0.5109
 8094TIP3   OH224245   4.139   6.077   0.774 -0.3488 -0.5166 -0.0258
 8094TIP3    H124246   4.117   6.167   0.748 -0.4516 -0.2310  0.9794
 8094TIP3    H224247   4.065   6.049   0.828  0.9276 -0.1463  2.0368
 8095TIP3   OH224248   4.904   6.099   3.878 -0.6530 -0.3275 -0.1687
 8095TIP3    H124249   4.960   6.022   3.893 -0.3403 -0.1163 -0.2533
 8095TIP3    H224250   4.965   6.169   3.854 -0.9219 -0.0029  0.0879
 8096TIP3   OH224251   6.301   4.903   3.833  0.0867 -0.1240  0.3133
 8096TIP3    H124252   6.285   4.808   3.834 -1.1857  0.0164  2.8596
 8096TIP3    H224253   6.213   4.941   3.833  0.5825  1.1255 -1.5840
 8097TIP3   OH224254   3.606   5.541   1.659  0.1616 -0.4705  0.5334
 8097TIP3    H124255   3.513   5.555   1.641  0.0587 -0.0998  1.3062
 8097TIP3    H224256   3.609   5.522   1.752  0.5772 -3.2189  0.0243
 8098TIP3   OH224257   5.779   0.385   1.672  0.3059 -0.1708 -0.3684
 8098TIP3    H124258   5.850   0.328   1.700 -0.7221 -1.2779  0.0751
 8098TIP3    H224259   5.702   0.327   1.667 -0.5577  0.9750 -0.8709
 8099TIP3   OH224260   2.418   2.262   4.650  0.5435  0.1845  0.2660
 8099TIP3    H124261   2.464   2.300   4.725 -0.5828 -1.6640  1.9918
 8099TIP3    H224262   2.433   2.168   4.657 -1.7218 -0.2845 -0.2819
 8100TIP3   OH224263   2.673   6.459   1.118 -0.6224 -0.0992  0.1349
 8100TIP3    H124264   2.727   6.532   1.149 -0.9953 -0.2603  1.1830
 8100TIP3    H224265   2.698   6.448   1.026 -0.4407  1.2445  0.0023
 8101TIP3   OH224266   2.693   5.026   0.460 -0.3177  0.3524  0.0851
 8101TIP3    H124267   2.678   5.120   0.457 -0.6692  0.3210  0.6472
 8101TIP3    H224268   2.786   5.018   0.482 -0.6137  0.5889  1.5207
 8102TIP3   OH224269   2.252   1.219   4.488 -0.2975 -0.0862  0.0202
 8102TIP3    H124270   2.194   1.237   4.562  0.7519 -2.4386  1.5309
 8102TIP3    H224271   2.235   1.128   4.465  1.8288 -0.4605 -0.3318
 8103TIP3   OH224272   4.577   1.119   3.735 -0.0556 -0.7579  0.0548
 8103TIP3    H124273   4.576   1.088   3.644  0.3345  0.3264 -0.3365
 8103TIP3    H224274   4.526   1.053   3.783  0.4041 -1.7718 -0.8023
 8104TIP3   OH224275   3.647   1.621   0.522  0.1200 -0.4153  0.0925
 8104TIP3    H124276   3.616   1.690   0.464 -1.1572  0.2049  1.4543
 8104TIP3    H224277   3.672   1.666   0.602  0.5953 -1.3876  0.5073
 8105TIP3   OH224278   1.430   1.253   3.606 -0.0737  0.2909  0.3178
 8105TIP3    H124279   1.460   1.224   3.520 -0.2403  1.5289 -0.1831
 8105TIP3    H224280   1.466   1.189   3.667  1.6857  0.4519 -0.4801
 8106TIP3   OH224281   2.160   1.184   1.092 -0.0323 -0.2092  0.1236
 8106TIP3    H124282   2.200   1.230   1.018 -3.0210  3.0310  0.2389
 8106TIP3    H224283   2.209   1.215   1.168  1.5315 -1.7302 -0.1898
 8107TIP3   OH224284   5.341   5.808   2.328 -0.0138  0.0713  0.3606
 8107TIP3    H124285   5.328   5.749   2.402  2.3366 -1.2983 -0.1999
 8107TIP3    H224286   5.339   5.751   2.251  3.0480  0.4343 -0.1445
 8108TIP3   OH224287   0.600   1.364   4.940  0.2402  0.2394 -0.1729
 8108TIP3    H124288   0.605   1.269   4.947  1.5193  0.3977  1.6007
 8108TIP3    H224289   0.668   1.387   4.876 -0.5139 -0.0491 -1.1088
 8109TIP3   OH224290   1.245   5.992   2.595 -0.2219  0.2443  0.3294
 8109TIP3    H124291   1.225   5.956   2.509  0.9809  0.7084 -0.1719
 8109TIP3    H224292   1.338   6.016   2.590 -0.2399  0.6755  1.6134
 8110TIP3   OH224293   7.138   1.262   1.923  0.0355 -0.0845 -0.0115
 8110TIP3    H124294   7.161   1.186   1.870 -0.3277 -0.6129  0.5688
 8110TIP3    H224295   7.069   1.306   1.873 -2.0081 -1.8738  1.0454
 8111TIP3   OH224296   2.629   6.597   4.257 -0.5107 -0.5380 -0.2271
 8111TIP3    H124297   2.704   6.554   4.215  0.2664  0.8036 -0.2654
 8111TIP3    H224298   2.552   6.557   4.216  0.1505 -2.0935 -0.0386
 8112TIP3   OH224299   2.543   2.559   2.714  0.1540 -0.8414  0.5071
 8112TIP3    H124300   2.635   2.538   2.699  0.1231 -0.7957  0.2403
 8112TIP3    H224301   2.512   2.593   2.629 -0.2776 -1.4657  0.4095
 8113TIP3   OH224302   0.013   5.068   5.238 -0.1624 -0.0850 -0.6278
 8113TIP3    H124303   0.034   5.007   5.167 -0.7335  0.0376 -0.9074
 8113TIP3    H224304   0.096   5.081   5.284 -0.2988 -2.1582  0.3126
 8114TIP3   OH224305   0.852   5.591   3.018  0.4591  0.0880 -0.0954
 8114TIP3    H124306   0.884   5.553   3.100  0.9597  0.3788 -0.1481
 8114TIP3    H224307   0.865   5.522   2.954  0.0442 -0.1491  0.0750
 8115TIP3   OH224308   4.688   2.804   5.525 -0.1765 -0.1098 -0.0978
 8115TIP3    H124309   4.681   2.826   5.432 -1.3108  0.3117  0.0704
 8115TIP3    H224310   4.766   2.850   5.555  0.6562 -0.8725 -1.0000
 8116TIP3   OH224311   5.166   5.135   2.918  0.7146  0.4415  0.0888
 8116TIP3    H124312   5.222   5.067   2.955  1.3702  1.5212  1.1968
 8116TIP3    H224313   5.169   5.206   2.983 -2.5354  0.2792  0.5793
 8117TIP3   OH224314   6.659   3.085   4.467  0.3103 -0.0898 -0.2486
 8117TIP3    H124315   6.687   3.175   4.485  2.1694 -0.5819 -0.3781
 8117TIP3    H224316   6.581   3.073   4.521  1.0450  1.0660  1.1688
 8118TIP3   OH224317   4.979   2.113   1.179  0.1117 -0.2940 -0.1843
 8118TIP3    H124318   4.950   2.140   1.092 -0.3382 -1.4899 -0.4165
 8118TIP3    H224319   4.999   2.020   1.170  0.4355 -0.3417  0.9038
 8119TIP3   OH224320   3.977   2.288   4.886 -0.2491 -0.2254 -0.5104
 8119TIP3    H124321   4.056   2.320   4.928  2.1852 -0.7391 -4.2065
 8119TIP3    H224322   3.924   2.367   4.870 -1.1105  0.0118  2.8365
 8120TIP3   OH224323   6.331   3.899   0.064 -0.2073  0.6279  0.2178
 8120TIP3    H124324   6.415   3.855   0.077  0.4553  2.0644  1.0255
 8120TIP3    H224325   6.281   3.839   0.008  1.6819  0.1323 -1.0500
 8121TIP3   OH224326   1.003   6.582   4.802  0.0482 -0.6817 -0.4260
 8121TIP3    H124327   1.076   6.531   4.837  1.4581  3.0029  2.6539
 8121TIP3    H224328   1.045   6.647   4.745 -0.9674  0.4196  0.0369
 8122TIP3   OH224329   3.411   2.609   1.602  0.7272  0.5215  0.0146
 8122TIP3    H124330   3.343   2.547   1.574 -0.0881  1.9613 -1.4187
 8122TIP3    H224331   3.409   2.606   1.697 -0.4526 -0.4112 -0.0170
 8123TIP3   OH224332   2.413   2.875   0.581  0.0247  0.1072 -0.0413
 8123TIP3    H124333   2.478   2.933   0.619 -0.0943  0.8836 -0.9813
 8123TIP3    H224334   2.371   2.927   0.512 -1.0435 -0.6312  0.0134
 8124TIP3   OH224335   0.230   5.305   4.375 -0.3323  0.0554  0.5290
 8124TIP3    H124336   0.242   5.299   4.470 -2.6546 -0.2062  0.8542
 8124TIP3    H224337   0.183   5.226   4.352 -0.8289  0.6812 -0.6588
 8125TIP3   OH224338   2.366   0.055   4.499  0.2178  0.2181 -0.4316
 8125TIP3    H124339   2.344   0.060   4.406  1.8868 -0.0822 -0.8664
 8125TIP3    H224340   2.371   0.147   4.527 -1.3087  0.3080 -0.3480
 8126TIP3   OH224341   5.089   4.624   4.623  0.1417 -0.1051  0.2751
 8126TIP3    H124342   5.104   4.686   4.695  0.5848 -0.0878  0.1717
 8126TIP3    H224343   5.158   4.644   4.560  0.9448 -1.4031  0.7048
 8127TIP3   OH224344   6.907   4.706   5.369  0.0627  0.2910  0.2007
 8127TIP3    H124345   6.880   4.755   5.447 -3.4010  0.1284 -0.7276
 8127TIP3    H224346   6.915   4.773   5.301 -0.1593  0.0917 -0.0236
 8128TIP3   OH224347   7.021   5.540   1.479 -0.5642  0.2411 -0.8363
 8128TIP3    H124348   6.962   5.601   1.435 -1.9671 -1.0355 -0.7970
 8128TIP3    H224349   6.995   5.543   1.571  1.4995  1.9246 -0.2164
 8129TIP3   OH224350   2.438   2.472   5.677 -0.0797 -0.2038 -0.1957
 8129TIP3    H124351   2.400   2.489   5.763 -1.2768  0.4082 -0.8123
 8129TIP3    H224352   2.506   2.539   5.668 -0.2713  0.0336  0.0875
 8130TIP3   OH224353   5.810   2.875   1.830  0.7218  0.0433  0.1536
 8130TIP3    H124354   5.806   2.837   1.743  1.7875  2.9372 -1.2879
 8130TIP3    H224355   5.865   2.814   1.880  2.2902 -0.3744 -1.9657
 8131TIP3   OH224356   5.625   1.772   2.284 -0.2175  0.0249 -0.7991
 8131TIP3    H124357   5.640   1.770   2.189 -0.8194  1.3030 -0.9382
 8131TIP3    H224358   5.665   1.854   2.312 -1.7573  0.6214 -0.2658
 8132TIP3   OH224359   0.335   0.919   1.882 -0.0108 -0.0152  0.2981
 8132TIP3    H124360   0.397   0.958   1.820  0.9208 -1.3294  0.3744
 8132TIP3    H224361   0.290   0.851   1.831 -0.5233  0.1010  0.5866
 8133TIP3   OH224362   1.430   1.497   4.700  0.8246 -0.5514  1.1531
 8133TIP3    H124363   1.481   1.447   4.636  0.6641  0.5397  0.1420
 8133TIP3    H224364   1.496   1.531   4.762  1.1069 -0.7025  0.9377
 8134TIP3   OH224365   3.030   6.705   4.177  0.0825  0.3262 -0.8457
 8134TIP3    H124366   3.053   6.702   4.269  2.1757 -0.5142 -1.3464
 8134TIP3    H224367   2.971   6.630   4.165 -1.2882  1.2266  0.0365
 8135TIP3   OH224368   4.322   0.897   1.607  0.5040  0.1207 -0.6922
 8135TIP3    H124369   4.398   0.848   1.638 -0.4641 -0.7045  0.4841
 8135TIP3    H224370   4.358   0.965   1.550  2.1191 -0.1689 -0.0550
 8136TIP3   OH224371   5.127   4.254   2.896 -0.3363  0.4477  0.1808
 8136TIP3    H124372   5.148   4.311   2.822 -0.2276  0.2828  0.0854
 8136TIP3    H224373   5.186   4.180   2.888  1.7501  1.7599  2.0718
 8137TIP3   OH224374   3.360   2.462   5.005  0.7996  0.2711 -0.1197
 8137TIP3    H124375   3.307   2.498   4.934  0.3586 -0.0840  0.0204
 8137TIP3    H224376   3.298   2.410   5.057  1.4528 -0.8968 -0.4627
 8138TIP3   OH224377   1.928   1.959   2.503 -0.2025 -0.3156 -0.0922
 8138TIP3    H124378   1.946   2.053   2.503 -1.0679 -0.1357 -0.7147
 8138TIP3    H224379   1.865   1.946   2.573 -0.9268 -0.2444 -0.7162
 8139TIP3   OH224380   3.631   2.930   4.251  0.2524  0.3775 -0.6763
 8139TIP3    H124381   3.701   2.899   4.194  1.6815 -0.3885  1.3903
 8139TIP3    H224382   3.562   2.865   4.242  1.9625 -1.8964  1.1832
 8140TIP3   OH224383   6.013   0.734   2.001  0.0475 -0.2300 -0.1887
 8140TIP3    H124384   6.051   0.700   2.082  1.5350 -0.3903 -0.9159
 8140TIP3    H224385   5.996   0.826   2.020 -0.5919 -0.5065  0.6303
 8141TIP3   OH224386   6.055   3.260   0.074  0.4837 -0.9955 -0.0621
 8141TIP3    H124387   6.001   3.181   0.075 -1.4704  0.2579  1.0075
 8141TIP3    H224388   6.096   3.262   0.161  0.9115 -1.0626 -0.2587
 8142TIP3   OH224389   5.672   6.617   3.209 -0.0846  0.4994 -0.2394
 8142TIP3    H124390   5.698   6.654   3.293 -0.1691 -0.8958  0.4354
 8142TIP3    H224391   5.709   6.677   3.144  0.2811  1.4158  0.7751
 8143TIP3   OH224392   5.204   4.759   1.143  0.1451  0.1438 -0.2585
 8143TIP3    H124393   5.120   4.712   1.138  0.6536 -0.6979 -1.2715
 8143TIP3    H224394   5.252   4.714   1.213 -0.1326  0.4468  0.1319
 8144TIP3   OH224395   6.371   5.859   2.496  0.4811  0.4432 -0.2114
 8144TIP3    H124396   6.310   5.884   2.566 -0.4634 -2.5472  0.1665
 8144TIP3    H224397   6.455   5.898   2.522 -0.2155  0.7376  1.7470
 8145TIP3   OH224398   0.774   6.758   2.127  0.5012  0.5032 -0.5696
 8145TIP3    H124399   0.713   6.761   2.200 -0.4651 -0.4743 -1.2912
 8145TIP3    H224400   0.762   6.841   2.081 -2.4676 -0.7567 -2.3425
 8146TIP3   OH224401   1.293   6.752   1.785  0.2626  0.2573  0.1569
 8146TIP3    H124402   1.369   6.759   1.843  0.0183  0.7282  0.4239
 8146TIP3    H224403   1.218   6.770   1.842  0.0291  0.8241 -0.3285
 8147TIP3   OH224404   0.443   6.592   1.280 -0.0358 -0.1618 -0.1496
 8147TIP3    H124405   0.420   6.524   1.216 -0.4644  1.5169 -1.8673
 8147TIP3    H224406   0.538   6.594   1.280 -0.0201  0.7850 -1.8723
 8148TIP3   OH224407   6.806   2.957   2.663 -0.1617  0.0194 -0.4392
 8148TIP3    H124408   6.881   3.011   2.690 -0.5795  1.4459 -2.0149
 8148TIP3    H224409   6.844   2.892   2.604 -0.0616  0.3962 -0.7974
 8149TIP3   OH224410   4.816   2.657   0.727  0.1881 -0.1406  0.4630
 8149TIP3    H124411   4.735   2.669   0.678 -1.4159  0.9844  3.1709
 8149TIP3    H224412   4.859   2.582   0.686 -1.9786 -0.4556 -1.3614
 8150TIP3   OH224413   0.619   4.217   4.697 -0.4381 -0.2899 -0.0143
 8150TIP3    H124414   0.606   4.134   4.651 -2.4239  0.3831 -0.8040
 8150TIP3    H224415   0.560   4.213   4.772  2.1209 -1.0067  2.1121
 8151TIP3   OH224416   0.563   6.408   1.527  0.2319 -0.5388 -0.2680
 8151TIP3    H124417   0.469   6.394   1.536 -0.2133  0.6039 -2.3304
 8151TIP3    H224418   0.576   6.500   1.551  0.3182  0.0980 -2.5053
 8152TIP3   OH224419   1.862   2.790   4.609  0.0854 -0.2121 -0.6344
 8152TIP3    H124420   1.948   2.825   4.584  0.0187  0.1783 -0.3268
 8152TIP3    H224421   1.800   2.840   4.556 -0.0481  0.5385  0.1954
 8153TIP3   OH224422   3.561   4.482   0.724  0.6273  0.0739  0.5035
 8153TIP3    H124423   3.527   4.401   0.686 -0.2611  1.2748 -1.4332
 8153TIP3    H224424   3.621   4.516   0.658 -0.6542  2.0449  0.2795
 8154TIP3   OH224425   3.222   4.588   3.296  0.1203  0.1759  0.0400
 8154TIP3    H124426   3.305   4.613   3.257  0.4185 -1.5957 -0.5353
 8154TIP3    H224427   3.246   4.541   3.376 -0.2068 -1.8599 -1.0030
 8155TIP3   OH224428   1.691   5.050   3.663  0.0099 -0.1125  0.2810
 8155TIP3    H124429   1.605   5.033   3.703 -0.1558  0.9252  0.3862
 8155TIP3    H224430   1.746   4.978   3.695 -0.9584 -1.1517 -0.2765
 8156TIP3   OH224431   5.143   5.575   3.629 -0.0787  0.0790 -0.1004
 8156TIP3    H124432   5.161   5.650   3.571  1.3398 -1.0160 -1.1715
 8156TIP3    H224433   5.190   5.596   3.710  0.9381  0.0480 -0.6599
 8157TIP3   OH224434   4.946   3.012   1.103  0.5909 -0.8580 -0.2725
 8157TIP3    H124435   5.008   2.940   1.090 -1.6988 -3.0684  0.1272
 8157TIP3    H224436   4.867   2.969   1.137 -0.3027  2.1223  1.8119
 8158TIP3   OH224437   4.028   6.383   4.350 -0.4318 -0.0078 -0.2861
 8158TIP3    H124438   4.035   6.361   4.257  0.2563 -1.4941  0.0911
 8158TIP3    H224439   4.058   6.474   4.356  0.1014 -0.0991 -1.4306
 8159TIP3   OH224440   0.474   0.995   0.130 -0.5801 -0.2531  0.6659
 8159TIP3    H124441   0.456   1.087   0.150 -1.8525 -0.6305  1.3490
 8159TIP3    H224442   0.491   0.994   0.036 -0.2087  0.7255  0.7104
 8160TIP3   OH224443   7.021   5.182   5.082  0.4084  0.1161 -0.3040
 8160TIP3    H124444   7.088   5.143   5.138 -0.6673 -0.5630  0.5607
 8160TIP3    H224445   7.047   5.274   5.073  0.3736  0.3573  1.7119
 8161TIP3   OH224446   6.243   4.160   4.747  0.3332  0.5716  0.1538
 8161TIP3    H124447   6.227   4.129   4.836  1.0728 -0.4368 -0.0510
 8161TIP3    H224448   6.321   4.215   4.754  1.9135 -1.5115 -0.2361
 8162TIP3   OH224449   1.876   0.153   1.402  0.9757  0.3965 -0.2511
 8162TIP3    H124450   1.920   0.143   1.317  0.7002  1.0465 -0.4735
 8162TIP3    H224451   1.829   0.235   1.395  3.4843  2.1408  1.6647
 8163TIP3   OH224452   7.084   4.534   2.721 -0.5487  0.7943 -0.6172
 8163TIP3    H124453   7.027   4.458   2.726 -0.7894  0.9474 -1.0575
 8163TIP3    H224454   7.087   4.558   2.628 -0.3992  1.2644 -0.4991
 8164TIP3   OH224455   1.068   2.073   5.090 -0.0268 -0.0710  0.2057
 8164TIP3    H124456   1.030   2.073   5.178  0.3104 -0.6657  0.3589
 8164TIP3    H224457   1.041   2.157   5.053 -1.1036 -0.2759  0.4682
 8165TIP3   OH224458   4.411   1.642   3.002 -0.4185  0.6291 -0.5799
 8165TIP3    H124459   4.439   1.722   3.046 -1.0124  0.0970  0.8278
 8165TIP3    H224460   4.474   1.576   3.030 -0.7305  0.3073 -0.6269
 8166TIP3   OH224461   6.561   1.068   4.712 -0.0757 -0.6963 -0.0394
 8166TIP3    H124462   6.533   1.110   4.793 -1.3896  1.0486 -1.3166
 8166TIP3    H224463   6.656   1.061   4.721 -0.1683 -0.3803  1.5607
 8167TIP3   OH224464   1.895   6.214   2.474  0.0723  0.3784  0.1900
 8167TIP3    H124465   1.923   6.239   2.386  0.0826 -0.0496  0.0689
 8167TIP3    H224466   1.800   6.229   2.474  0.1660  0.9802  0.3114
 8168TIP3   OH224467   0.834   5.740   5.575 -0.9840 -0.0781 -0.1216
 8168TIP3    H124468   0.798   5.660   5.613 -0.4771  0.5549  1.8672
 8168TIP3    H224469   0.839   5.801   5.649 -0.2599  1.3946 -1.3236
 8169TIP3   OH224470   0.308   1.202   3.007  0.0368  0.4754  0.1801
 8169TIP3    H124471   0.402   1.198   3.027  0.1959  0.5000 -0.5228
 8169TIP3    H224472   0.269   1.134   3.061  0.7223 -0.8150 -0.8836
 8170TIP3   OH224473   3.094   4.390   3.765 -0.6496 -0.3309  0.0706
 8170TIP3    H124474   3.060   4.316   3.816  2.2550 -1.4312  0.6018
 8170TIP3    H224475   3.105   4.355   3.677  0.4598 -0.4609  0.2534
 8171TIP3   OH224476   5.323   1.521   4.317 -0.0399  0.1663  0.5943
 8171TIP3    H124477   5.274   1.597   4.347 -0.5765 -0.4554  1.3478
 8171TIP3    H224478   5.380   1.498   4.391  0.3718  0.0498  0.2420
 8172TIP3   OH224479   4.641   1.976   4.071  0.0313 -0.2294 -0.1573
 8172TIP3    H124480   4.736   1.971   4.081  0.2690 -0.6879 -2.2595
 8172TIP3    H224481   4.609   2.001   4.158  2.0446 -0.2350  0.6317
 8173TIP3   OH224482   4.008   0.510   5.331  0.5278 -0.7154  0.0585
 8173TIP3    H124483   4.086   0.566   5.333 -0.4975  0.8929 -1.7086
 8173TIP3    H224484   3.936   0.571   5.346 -0.4059 -2.3000  2.5640
 8174TIP3   OH224485   2.386   0.298   4.640 -0.4783 -0.2942  0.2386
 8174TIP3    H124486   2.357   0.312   4.730 -0.4523 -0.7607  0.3252
 8174TIP3    H224487   2.479   0.322   4.640 -0.2157 -1.2603  0.5890
 8175TIP3   OH224488   2.113   2.640   1.855  0.5723 -0.5072 -0.2322
 8175TIP3    H124489   2.187   2.583   1.833 -0.3746 -1.9402  0.1978
 8175TIP3    H224490   2.051   2.629   1.783  0.0246 -0.6530  0.2564
 8176TIP3   OH224491   6.632   6.337   5.359  0.1958  0.3826  0.4599
 8176TIP3    H124492   6.556   6.327   5.416 -0.3812 -1.1375 -0.5027
 8176TIP3    H224493   6.708   6.325   5.417 -0.3765 -1.8533  0.8578
 8177TIP3   OH224494   4.313   4.371   3.996 -0.1733  0.2059 -0.1185
 8177TIP3    H124495   4.359   4.414   4.068  1.4499  1.6465 -1.8992
 8177TIP3    H224496   4.265   4.442   3.952 -0.2168 -0.4119 -1.1093
 8178TIP3   OH224497   3.954   5.244   3.480 -0.2927 -0.0613  0.0254
 8178TIP3    H124498   4.032   5.300   3.481  1.2496 -2.0681  1.6821
 8178TIP3    H224499   3.900   5.274   3.553  0.1517 -0.2013  0.4171
 8179TIP3   OH224500   0.262   1.606   1.671  0.7686 -0.0357 -0.6142
 8179TIP3    H124501   0.215   1.553   1.736 -0.1040  0.8434 -0.4989
 8179TIP3    H224502   0.319   1.544   1.626 -0.5497 -1.1540 -0.7940
 8180TIP3   OH224503   5.287   0.403   2.241 -0.3290  0.3616 -0.8505
 8180TIP3    H124504   5.375   0.383   2.270 -0.4348 -0.4726 -1.0491
 8180TIP3    H224505   5.263   0.484   2.286  0.9899  1.2812 -1.7547
 8181TIP3   OH224506   4.606   4.067   3.993  0.5480  0.5128 -0.2190
 8181TIP3    H124507   4.517   4.097   3.973  0.6061  0.6417 -0.2833
 8181TIP3    H224508   4.599   4.030   4.081  0.4812  0.7409 -0.1271
 8182TIP3   OH224509   0.374   6.441   3.349 -0.0603 -0.6088  0.2125
 8182TIP3    H124510   0.400   6.464   3.260 -0.1943  0.9597  0.5385
 8182TIP3    H224511   0.316   6.513   3.376  1.0441 -0.3278  2.0244
 8183TIP3   OH224512   2.089   5.631   0.678 -0.0983 -0.1337  0.2394
 8183TIP3    H124513   2.104   5.540   0.703  1.0770 -0.0794 -0.2055
 8183TIP3    H224514   2.022   5.662   0.738  0.3325 -0.9598  1.1662
 8184TIP3   OH224515   7.172   4.604   5.536  0.3561 -0.3065 -0.2320
 8184TIP3    H124516   7.199   4.695   5.519 -1.5450  0.4263  0.3820
 8184TIP3    H224517   7.079   4.603   5.514  0.3404 -2.1276 -0.1963
 8185TIP3   OH224518   5.320   5.784   0.670 -0.1921 -0.4041 -0.1043
 8185TIP3    H124519   5.224   5.777   0.671 -0.2289 -0.0143  1.7829
 8185TIP3    H224520   5.344   5.798   0.761  1.5660  0.9971 -0.7335
 8186TIP3   OH224521   3.705   3.588   1.322  0.0816  0.1626 -0.6786
 8186TIP3    H124522   3.642   3.644   1.366  0.0302 -0.2694 -0.1917
 8186TIP3    H224523   3.777   3.647   1.298 -1.3288  1.0618 -2.9925
 8187TIP3   OH224524   5.302   4.325   4.614 -0.0511  0.3465  0.2175
 8187TIP3    H124525   5.219   4.357   4.578  0.4957  1.7078  0.1120
 8187TIP3    H224526   5.306   4.361   4.702  0.3249  0.1122  0.3002
 8188TIP3   OH224527   2.237   6.404   5.726  0.0441  0.5608 -0.3881
 8188TIP3    H124528   2.225   6.499   5.718 -0.4812  0.6518  1.1718
 8188TIP3    H224529   2.272   6.392   5.814 -0.4541 -0.7454 -0.3586
 8189TIP3   OH224530   6.921   3.112   0.561  0.0483 -0.2162  0.4190
 8189TIP3    H124531   6.832   3.089   0.534  0.3896  1.6604 -2.7769
 8189TIP3    H224532   6.917   3.206   0.576  1.7692  0.1522 -1.1895
 8190TIP3   OH224533   1.015   4.638   4.968 -0.4836 -0.2429  0.1635
 8190TIP3    H124534   0.921   4.656   4.960 -0.3388  0.2925 -0.4128
 8190TIP3    H224535   1.035   4.582   4.893  0.0994  1.5617 -1.0965
 8191TIP3   OH224536   5.342   2.129   2.988 -0.2076 -0.3606 -0.1946
 8191TIP3    H124537   5.383   2.201   2.940 -0.7600 -0.7718 -1.3321
 8191TIP3    H224538   5.252   2.158   3.002  0.0575 -0.0795  0.9645
 8192TIP3   OH224539   6.343   4.359   0.396  0.3855 -0.2745  0.1681
 8192TIP3    H124540   6.358   4.275   0.352  1.0079  0.0084 -0.1767
 8192TIP3    H224541   6.409   4.360   0.466  1.0158  0.3351 -0.4230
 8193TIP3   OH224542   1.155   1.105   1.083 -0.0844 -0.3172 -0.2426
 8193TIP3    H124543   1.152   1.014   1.053 -1.4179  0.4925 -2.8694
 8193TIP3    H224544   1.095   1.108   1.157 -0.0301 -1.5512 -0.1290
 8194TIP3   OH224545   1.544   6.757   5.533  0.0902  0.0905  0.2954
 8194TIP3    H124546   1.523   6.715   5.616 -0.3155  2.2930  1.3808
 8194TIP3    H224547   1.615   6.818   5.554  0.0118  0.6463 -0.9779
 8195TIP3   OH224548   3.028   5.808   3.160 -0.2768 -0.3242 -0.0066
 8195TIP3    H124549   3.085   5.870   3.205  0.5958 -0.9487 -0.2213
 8195TIP3    H224550   3.084   5.767   3.094 -0.6637 -1.7985  0.5466
 8196TIP3   OH224551   7.177   3.772   4.290  0.0750  0.3323  0.3360
 8196TIP3    H124552   7.107   3.835   4.308 -0.3720 -0.5303  1.7511
 8196TIP3    H224553   7.258   3.818   4.312 -0.1594  0.8074  0.2029
 8197TIP3   OH224554   5.113   3.520   0.571  0.5642 -0.3344  0.2861
 8197TIP3    H124555   5.098   3.531   0.664 -0.0753 -0.1983  0.1674
 8197TIP3    H224556   5.196   3.471   0.566  0.5637 -0.4058  0.9207
 8198TIP3   OH224557   4.251   6.376   0.585  0.2075 -0.0080 -0.0945
 8198TIP3    H124558   4.239   6.283   0.565 -1.3957  0.3753 -1.0335
 8198TIP3    H224559   4.173   6.400   0.635 -0.0046  1.1200 -0.9363
 8199TIP3   OH224560   5.956   4.475   2.131 -0.1480  0.6051 -0.2114
 8199TIP3    H124561   5.945   4.433   2.045  1.8832 -0.7120  0.0996
 8199TIP3    H224562   5.990   4.562   2.111 -0.7748  0.7273 -0.7742
 8200TIP3   OH224563   1.185   0.552   5.701 -0.6686  0.0054  0.0476
 8200TIP3    H124564   1.148   0.537   5.788  0.5631 -1.2125  0.4016
 8200TIP3    H224565   1.261   0.494   5.697 -0.6910  0.0479 -1.8477
 8201TIP3   OH224566   5.805   2.069   5.647  0.8333  0.0539  0.5397
 8201TIP3    H124567   5.825   1.999   5.586 -0.7466  0.2652 -0.2715
 8201TIP3    H224568   5.765   2.024   5.722 -1.1167  0.1038 -0.4032
 8202TIP3   OH224569   2.108   2.858   0.669 -0.6539  0.4434  0.6758
 8202TIP3    H124570   2.097   2.862   0.574 -0.1028 -0.6463  0.5525
 8202TIP3    H224571   2.190   2.811   0.682 -0.4003  1.1415  1.6893
 8203TIP3   OH224572   1.699   5.889   5.859  0.6790  0.3714  0.4914
 8203TIP3    H124573   1.662   5.967   5.816  0.5260 -0.8897 -1.8673
 8203TIP3    H224574   1.671   5.816   5.803 -0.8741 -1.6763  3.6793
 8204TIP3   OH224575   5.685   0.686   2.196 -0.8055  0.1260  0.2319
 8204TIP3    H124576   5.722   0.625   2.132 -0.3919 -0.1571  0.7329
 8204TIP3    H224577   5.753   0.694   2.263 -1.0254  0.8218  0.3749
 8205TIP3   OH224578   4.446   3.406   4.989 -0.1387  0.7699  0.0532
 8205TIP3    H124579   4.536   3.404   5.022 -0.3523  1.0617  0.6721
 8205TIP3    H224580   4.456   3.404   4.894  0.6052  2.7581  0.0370
 8206TIP3   OH224581   1.975   3.123   3.581  0.4272 -0.0230 -0.4323
 8206TIP3    H124582   1.907   3.176   3.540 -0.4043 -1.4236 -0.9223
 8206TIP3    H224583   1.927   3.054   3.628  1.4797 -2.1969 -2.3748
 8207TIP3   OH224584   1.039   4.392   0.847  0.1563 -0.1757  0.2435
 8207TIP3    H124585   1.019   4.323   0.784 -0.6943 -0.1290  0.4512
 8207TIP3    H224586   1.132   4.379   0.868 -0.2182 -1.9200  1.0591
 8208TIP3   OH224587   6.267   3.241   2.883 -0.2197 -0.3598 -0.5077
 8208TIP3    H124588   6.185   3.193   2.894 -0.0318 -0.1315  3.0326
 8208TIP3    H224589   6.263   3.312   2.946  2.7176 -0.4123 -0.0801
 8209TIP3   OH224590   0.229   6.716   3.166  0.0256 -0.6060  0.0614
 8209TIP3    H124591   0.140   6.725   3.198  0.5591 -1.7818  2.0738
 8209TIP3    H224592   0.284   6.741   3.240  1.4004  0.4311 -1.2370
 8210TIP3   OH224593   0.367   4.797   0.937  0.0874  0.1063 -0.1377
 8210TIP3    H124594   0.318   4.879   0.930  0.8890  0.6210  0.1135
 8210TIP3    H224595   0.333   4.742   0.866 -2.2887 -0.3492  1.2787
 8211TIP3   OH224596   0.818   5.808   5.118  0.7364  0.0811  0.0437
 8211TIP3    H124597   0.912   5.807   5.137  0.6723  0.1750  0.3740
 8211TIP3    H224598   0.778   5.767   5.195  0.3837  1.4963  0.6395
 8212TIP3   OH224599   3.125   4.108   1.635  0.5911  0.5379 -0.3534
 8212TIP3    H124600   3.053   4.163   1.605  0.0964  0.6545  0.9751
 8212TIP3    H224601   3.118   4.028   1.583 -0.4634  0.5805 -0.3016
 8213TIP3   OH224602   3.181   6.356   2.109  0.3805  0.3084 -0.0254
 8213TIP3    H124603   3.132   6.283   2.148  1.0817 -1.8305 -2.8672
 8213TIP3    H224604   3.167   6.429   2.170 -1.6404 -1.7318  2.1664
 8214TIP3   OH224605   2.517   4.562   4.627 -0.3035  0.6541 -0.1924
 8214TIP3    H124606   2.432   4.533   4.595  0.8634 -1.0964 -1.9080
 8214TIP3    H224607   2.522   4.654   4.603 -1.2740  0.4908 -1.0712
 8215TIP3   OH224608   1.857   4.727   1.804 -0.5241 -0.0531  0.2557
 8215TIP3    H124609   1.794   4.659   1.829  0.9101 -1.1127  1.0992
 8215TIP3    H224610   1.908   4.687   1.734  0.8973 -0.2022  1.3478
 8216TIP3   OH224611   2.845   1.553   5.084  0.2576 -0.0746 -0.6995
 8216TIP3    H124612   2.863   1.466   5.049  0.0421  0.1806 -1.4797
 8216TIP3    H224613   2.853   1.611   5.008 -0.3613  0.4857 -0.3490
 8217TIP3   OH224614   2.694   5.643   2.094 -0.2988 -0.0202 -0.0314
 8217TIP3    H124615   2.740   5.599   2.022 -0.5986 -0.9728  0.3471
 8217TIP3    H224616   2.738   5.727   2.102  0.2586 -0.2212 -0.8047
 8218TIP3   OH224617   4.025   0.870   3.238  0.4900  0.4162 -0.1565
 8218TIP3    H124618   4.111   0.832   3.253  0.5223 -0.2000 -1.7122
 8218TIP3    H224619   4.019   0.880   3.143 -0.7418  1.4385  0.0002
 8219TIP3   OH224620   1.617   4.952   1.711 -0.0729 -0.2281 -0.2148
 8219TIP3    H124621   1.674   4.911   1.646  0.8540  1.0003 -0.2018
 8219TIP3    H224622   1.676   4.986   1.777 -0.8085  1.0649 -0.1897
 8220TIP3   OH224623   0.706   1.678   0.543  0.1073 -0.0222  0.1410
 8220TIP3    H124624   0.771   1.743   0.569  0.1252  0.3080 -0.6769
 8220TIP3    H224625   0.720   1.666   0.449 -0.6689 -0.3341  0.0518
 8221TIP3   OH224626   5.666   4.923   2.999  0.1863  0.7846  0.2831
 8221TIP3    H124627   5.667   4.859   2.928 -0.2121  1.7160 -0.5886
 8221TIP3    H224628   5.728   4.890   3.063  0.7159  0.0344 -0.6069
 8222TIP3   OH224629   6.749   2.519   2.341 -0.1951  0.0252  0.0463
 8222TIP3    H124630   6.827   2.465   2.359  1.8463  1.9614 -2.2930
 8222TIP3    H224631   6.677   2.456   2.341  1.6405 -2.2444  0.2760
 8223TIP3   OH224632   0.224   2.090   0.513  0.0323  0.2883 -0.3878
 8223TIP3    H124633   0.312   2.065   0.486  0.5311  0.5984  0.8978
 8223TIP3    H224634   0.177   2.006   0.520  0.3813  0.0801 -0.5141
 8224TIP3   OH224635   6.864   5.552   1.705 -0.2711 -0.0868  0.5872
 8224TIP3    H124636   6.915   5.604   1.766  0.4654  0.5778 -0.5704
 8224TIP3    H224637   6.793   5.610   1.677  0.5613  0.3260 -0.7197
 8225TIP3   OH224638   3.651   4.131   3.308  0.0025  0.5080 -0.2052
 8225TIP3    H124639   3.742   4.105   3.320 -0.1601  0.2165  0.4518
 8225TIP3    H224640   3.655   4.224   3.284  0.4175  0.9073  1.2854
 8226TIP3   OH224641   1.711   5.252   2.537 -0.6392  0.1650  0.1039
 8226TIP3    H124642   1.689   5.318   2.471 -0.3629 -0.0790 -0.2422
 8226TIP3    H224643   1.671   5.171   2.504 -0.8568  0.1273  0.4526
 8227TIP3   OH224644   4.927   4.242   5.341  0.1077  0.2342  0.3159
 8227TIP3    H124645   5.022   4.229   5.337 -0.0141 -0.6446  0.0232
 8227TIP3    H224646   4.891   4.166   5.295 -0.7562  0.0892  1.2042
 8228TIP3   OH224647   6.740   1.671   1.332  0.6590  0.4127 -0.1723
 8228TIP3    H124648   6.727   1.585   1.292 -0.4640  0.1716  0.6581
 8228TIP3    H224649   6.655   1.693   1.371  0.8277  2.0530 -0.6439
 8229TIP3   OH224650   4.334   6.066   1.684 -0.1123  0.2438  1.1041
 8229TIP3    H124651   4.390   6.007   1.633  0.8267 -1.7135  4.0994
 8229TIP3    H224652   4.362   6.154   1.657  0.7459 -0.6451 -1.1905
 8230TIP3   OH224653   0.422   2.787   5.652 -0.3861 -0.2134 -0.0899
 8230TIP3    H124654   0.387   2.740   5.728  3.2044  0.9470  2.5434
 8230TIP3    H224655   0.462   2.719   5.598 -1.7841 -0.8989 -0.3058
 8231TIP3   OH224656   6.328   2.326   1.348  0.0986 -0.3831 -0.3323
 8231TIP3    H124657   6.415   2.322   1.307  0.0584  0.2755 -0.4925
 8231TIP3    H224658   6.288   2.406   1.312  0.0356  0.1735  0.9316
 8232TIP3   OH224659   0.878   0.125   3.728  0.9573 -0.1045  0.1283
 8232TIP3    H124660   0.871   0.129   3.633  1.8480  0.8511  0.0885
 8232TIP3    H224661   0.955   0.178   3.749  1.3018 -1.0193  1.3195
 8233TIP3   OH224662   0.958   0.760   5.069  0.2419  0.6930 -0.0122
 8233TIP3    H124663   0.932   0.838   5.118  1.4063  1.0760  0.0210
 8233TIP3    H224664   1.016   0.712   5.129 -2.0041 -1.2721  0.7735
 8234TIP3   OH224665   1.156   3.002   0.179 -0.7043  0.2534  0.1765
 8234TIP3    H124666   1.251   2.994   0.174 -0.8892 -1.1840 -2.4931
 8234TIP3    H224667   1.136   3.085   0.135 -0.7414  0.3454  0.3620
 8235TIP3   OH224668   3.151   4.340   0.504  0.6284 -0.3552  0.0728
 8235TIP3    H124669   3.132   4.320   0.596  1.1904 -1.7187 -0.0873
 8235TIP3    H224670   3.223   4.402   0.508 -1.7951  2.6982  0.6118
 8236TIP3   OH224671   5.079   6.135   1.073 -0.3765  0.1221  0.0063
 8236TIP3    H124672   5.141   6.066   1.095  1.2134  1.9390  1.6746
 8236TIP3    H224673   5.131   6.216   1.076 -2.9419  1.8747  2.4472
 8237TIP3   OH224674   0.509   6.769   5.227  0.3933 -0.3851 -0.0885
 8237TIP3    H124675   0.569   6.713   5.178  1.9749 -0.4035  1.7539
 8237TIP3    H224676   0.471   6.711   5.293  0.4826  0.2387  0.5235
 8238TIP3   OH224677   3.638   1.136   1.285 -0.4151  0.2111 -0.5859
 8238TIP3    H124678   3.647   1.176   1.199  0.1150 -0.8391 -1.0412
 8238TIP3    H224679   3.716   1.164   1.333 -1.5185  2.1689  0.1669
 8239TIP3   OH224680   2.835   2.424   4.334 -0.7307 -0.4024 -0.5863
 8239TIP3    H124681   2.790   2.378   4.404 -0.8621 -0.6884 -0.8573
 8239TIP3    H224682   2.857   2.509   4.372  1.8846 -1.5963  0.8485
 8240TIP3   OH224683   0.736   2.642  -0.017 -0.3499 -0.2936  0.0942
 8240TIP3    H124684   0.755   2.664   0.075  1.7173 -0.0700 -0.3264
 8240TIP3    H224685   0.783   2.559  -0.031 -0.7126 -0.3636 -0.7360
 8241TIP3   OH224686   2.308   3.267   0.350  0.1082  0.5220  0.1509
 8241TIP3    H124687   2.274   3.322   0.421 -0.5174 -0.5010  0.6639
 8241TIP3    H224688   2.329   3.329   0.280 -0.4586  1.4283  0.7600
 8242TIP3   OH224689   5.857   2.051   0.126  0.7382 -0.9326 -0.1113
 8242TIP3    H124690   5.945   2.034   0.094  0.5790  0.0311 -1.1573
 8242TIP3    H224691   5.829   2.129   0.077 -0.0334 -0.1652  1.4781
 8243TIP3   OH224692   0.961   0.630   0.718  0.0563 -0.3224 -0.1891
 8243TIP3    H124693   0.929   0.560   0.776 -1.0170 -1.8655 -2.5068
 8243TIP3    H224694   0.992   0.584   0.640  1.3523  1.6850 -0.9158
 8244TIP3   OH224695   3.772   4.227   3.016 -0.1814  0.0389 -0.0220
 8244TIP3    H124696   3.840   4.294   3.027 -0.6115  0.3168  1.1466
 8244TIP3    H224697   3.735   4.216   3.104 -1.2177 -0.5607 -0.5122
 8245TIP3   OH224698   6.282   0.109   5.314  0.1774 -0.1926  0.2741
 8245TIP3    H124699   6.262   0.196   5.349  1.3010 -0.5237  1.8601
 8245TIP3    H224700   6.372   0.115   5.283 -0.1733 -0.4520 -0.8669
 8246TIP3   OH224701   2.109   0.320   2.953 -0.0983  0.1251  0.0467
 8246TIP3    H124702   2.062   0.374   3.016  1.2242  0.5438  0.7103
 8246TIP3    H224703   2.043   0.297   2.887 -1.5960 -0.5849  1.7215
 8247TIP3   OH224704   1.506   4.277   2.475  0.1727 -0.2933 -0.2327
 8247TIP3    H124705   1.443   4.275   2.547  0.0315 -1.2960 -0.3636
 8247TIP3    H224706   1.473   4.344   2.415 -0.8706 -0.9229 -0.3818
 8248TIP3   OH224707   6.704   1.431   4.246 -0.1403 -0.4455  0.5418
 8248TIP3    H124708   6.790   1.411   4.283  0.3958  0.3441 -0.2299
 8248TIP3    H224709   6.723   1.485   4.169 -1.3452 -0.0390  0.5112
 8249TIP3   OH224710   3.912   0.425   4.909 -0.3207  0.3102  0.0033
 8249TIP3    H124711   3.941   0.514   4.926  1.0824 -0.2141  0.5844
 8249TIP3    H224712   3.986   0.384   4.863 -0.9499 -0.5422 -0.2940
 8250TIP3   OH224713   4.838   0.837   5.111  0.0131 -0.1826  0.1541
 8250TIP3    H124714   4.876   0.752   5.130 -0.1124 -0.6921 -1.6766
 8250TIP3    H224715   4.908   0.885   5.066 -0.6545 -0.2072 -0.9458
 8251TIP3   OH224716   0.967   6.155   5.132 -0.1534 -0.1361  0.0191
 8251TIP3    H124717   0.900   6.215   5.164  2.1709  1.5020  2.3063
 8251TIP3    H224718   1.041   6.211   5.111  0.8234 -1.9202 -1.5868
 8252TIP3   OH224719   2.232   1.029   4.995  0.2789  0.9289  0.2053
 8252TIP3    H124720   2.324   1.006   5.007  0.0675  0.1647  0.3815
 8252TIP3    H224721   2.209   1.077   5.075  0.6947  1.7122 -0.1289
 8253TIP3   OH224722   0.732   0.587   4.301 -0.5897 -0.3347 -0.3496
 8253TIP3    H124723   0.658   0.532   4.277  0.0880 -1.7840  0.7474
 8253TIP3    H224724   0.808   0.530   4.295  0.1737  0.5344  0.5989
 8254TIP3   OH224725   3.263   4.044   1.013 -0.1593  0.8804  0.3150
 8254TIP3    H124726   3.170   4.030   0.994 -0.0463  1.0400 -0.4047
 8254TIP3    H224727   3.266   4.130   1.056 -0.3908  0.6654  0.7631
 8255TIP3   OH224728   1.305   4.239   2.714 -0.2042 -0.3314  0.4707
 8255TIP3    H124729   1.258   4.183   2.776  0.4690  0.2645  1.5612
 8255TIP3    H224730   1.397   4.215   2.726 -0.1663 -1.3495 -1.4962
 8256TIP3   OH224731   5.794   3.879   4.164  0.2994  0.1272  0.1696
 8256TIP3    H124732   5.755   3.898   4.250  2.2815 -0.2610  1.2241
 8256TIP3    H224733   5.829   3.791   4.173  2.5525  0.9195 -0.2074
 8257TIP3   OH224734   7.124   1.283   0.784  0.1132 -0.0190 -0.7507
 8257TIP3    H124735   7.036   1.275   0.747  0.1226  0.1603 -0.8107
 8257TIP3    H224736   7.126   1.371   0.822  0.2014 -0.0936 -0.5795
 8258TIP3   OH224737   1.152   6.527   5.652  0.1644 -0.0909  0.6437
 8258TIP3    H124738   1.212   6.516   5.725  0.1139 -2.0229  0.4466
 8258TIP3    H224739   1.196   6.487   5.577 -0.2532  0.8555 -0.1363
 8259TIP3   OH224740   6.062   1.019   2.399 -0.1088 -0.4517 -0.4177
 8259TIP3    H124741   6.114   1.006   2.478  0.3319 -1.0740 -0.7977
 8259TIP3    H224742   6.113   0.976   2.330 -0.6906 -0.2835 -0.9608
 8260TIP3   OH224743   1.581   0.684   0.425  0.2274  0.0012 -0.6347
 8260TIP3    H124744   1.671   0.687   0.394 -0.0644  1.6300 -1.4176
 8260TIP3    H224745   1.587   0.709   0.517  0.5931 -0.0793 -0.6351
 8261TIP3   OH224746   5.034   0.294   2.750 -0.1398  0.4682  0.1671
 8261TIP3    H124747   5.012   0.287   2.843  1.5974  1.9435  0.7384
 8261TIP3    H224748   5.116   0.343   2.748 -0.7915  1.6004 -2.2118
 8262TIP3   OH224749   5.808   0.377  -0.003  0.0478 -0.0948  0.0835
 8262TIP3    H124750   5.868   0.450   0.008  0.8133 -0.5287 -0.9685
 8262TIP3    H224751   5.860   0.299   0.015 -0.5533 -0.4276  0.4455
 8263TIP3   OH224752   3.070   5.399   5.666  0.0899 -0.0001  0.4099
 8263TIP3    H124753   3.117   5.352   5.597 -2.3507 -2.5315  0.2611
 8263TIP3    H224754   3.073   5.490   5.640  1.5079 -0.5620 -1.6069
 8264TIP3   OH224755   3.283   4.379   5.248  0.1327 -0.4322  0.5602
 8264TIP3    H124756   3.373   4.377   5.216 -0.1529 -0.0518 -0.2867
 8264TIP3    H224757   3.271   4.294   5.290 -0.2177 -1.9518 -2.3918
 8265TIP3   OH224758   5.703   2.593   1.912 -0.0198  0.7494  0.1493
 8265TIP3    H124759   5.704   2.498   1.902  0.2318  0.7606  0.0633
 8265TIP3    H224760   5.792   2.620   1.890 -0.9698  1.3720 -3.4461
 8266TIP3   OH224761   0.738   1.078   2.703 -0.1705  0.0530 -0.1571
 8266TIP3    H124762   0.650   1.075   2.664 -0.9840 -2.0254  1.5995
 8266TIP3    H224763   0.723   1.096   2.796  1.2540 -0.2055  0.1546
 8267TIP3   OH224764   4.458   0.643   5.223 -0.2682 -0.3995 -0.2580
 8267TIP3    H124765   4.379   0.636   5.277 -0.3493  0.7053 -0.2192
 8267TIP3    H224766   4.430   0.612   5.137 -0.8532  0.3140 -0.3381
 8268TIP3   OH224767   7.059   6.469   3.693  0.6087  0.1980  0.3190
 8268TIP3    H124768   7.067   6.475   3.788 -2.4621 -2.0134  0.8859
 8268TIP3    H224769   7.003   6.542   3.669 -0.3037 -0.4082  0.5554
 8269TIP3   OH224770   6.259   0.274   1.937 -0.3063 -0.4476  0.2088
 8269TIP3    H124771   6.310   0.345   1.897  0.6240 -1.4056 -0.3476
 8269TIP3    H224772   6.289   0.271   2.028 -0.5518  0.0415  0.3105
 8270TIP3   OH224773   6.429   0.448   3.069 -0.8207 -0.0664 -0.2501
 8270TIP3    H124774   6.453   0.376   3.127 -2.0746  0.4461  0.9606
 8270TIP3    H224775   6.476   0.430   2.988 -0.0617 -1.5185  0.4706
 8271TIP3   OH224776   2.023   1.608   1.446 -0.2953 -0.0601 -0.9897
 8271TIP3    H124777   2.076   1.569   1.515 -0.1098  2.1693  0.2456
 8271TIP3    H224778   1.965   1.538   1.418  0.1231 -1.2678  0.9406
 8272TIP3   OH224779   4.487   2.757   4.661  0.1088  0.3413  0.4005
 8272TIP3    H124780   4.395   2.758   4.634  0.3643 -1.6793 -0.8127
 8272TIP3    H224781   4.532   2.805   4.592  0.2009 -0.7272 -0.3148
 8273TIP3   OH224782   1.432   6.242   3.231  0.0197 -0.4033  0.0249
 8273TIP3    H124783   1.509   6.294   3.253  0.8949 -1.7907  0.3679
 8273TIP3    H224784   1.406   6.202   3.314 -1.8857  1.0262  0.1919
 8274TIP3   OH224785   2.939   1.649   3.674 -0.1526 -0.0947  0.0018
 8274TIP3    H124786   2.992   1.635   3.752 -0.0166  0.0327 -0.0675
 8274TIP3    H224787   2.850   1.658   3.706 -0.3054 -1.4764  0.0294
 8275TIP3   OH224788   3.407   1.660   5.715  0.0511 -0.3962 -0.4801
 8275TIP3    H124789   3.440   1.650   5.804 -0.6374 -1.1246 -0.2871
 8275TIP3    H224790   3.483   1.689   5.664  0.5144 -0.2224  0.2884
 8276TIP3   OH224791   1.893   3.232   4.454 -0.0845  0.5390  0.1981
 8276TIP3    H124792   1.918   3.166   4.390  1.8636 -0.2302  1.6784
 8276TIP3    H224793   1.960   3.300   4.447 -0.7131  1.1934  0.3660
 8277TIP3   OH224794   4.023   3.629   4.672  0.1707 -0.4012  0.1461
 8277TIP3    H124795   4.078   3.555   4.647  0.7943 -0.5022  1.6774
 8277TIP3    H224796   4.069   3.706   4.639  0.3220 -0.6000 -0.1099
 8278TIP3   OH224797   0.956   3.573   1.050  0.8432 -0.0269  0.9396
 8278TIP3    H124798   1.010   3.535   0.980  1.5461  0.0749  1.4210
 8278TIP3    H224799   0.870   3.586   1.009  1.0689 -0.5525  0.2786
 8279TIP3   OH224800   2.635   1.499   0.797  0.0597 -0.6862  0.2785
 8279TIP3    H124801   2.612   1.411   0.767 -2.0770 -0.4761  1.0846
 8279TIP3    H224802   2.674   1.486   0.883  0.8874 -0.8991 -0.1165
 8280TIP3   OH224803   1.686   1.691   1.055  0.1514  0.0593  0.0405
 8280TIP3    H124804   1.641   1.622   1.006  2.3626 -0.9147 -0.7581
 8280TIP3    H224805   1.735   1.740   0.988  0.0137  1.3046  0.8200
 8281TIP3   OH224806   2.312   2.275   5.546 -0.0810  0.2737 -0.4170
 8281TIP3    H124807   2.341   2.211   5.610 -1.6014 -0.0339 -0.0045
 8281TIP3    H224808   2.360   2.355   5.569  0.0759 -0.0773  0.5228
 8282TIP3   OH224809   4.877   2.586   2.742 -0.5088  0.0791  0.3937
 8282TIP3    H124810   4.811   2.597   2.673 -0.9985  0.4183  0.9134
 8282TIP3    H224811   4.959   2.578   2.694 -1.0485 -1.5787 -0.3177
 8283TIP3   OH224812   7.144   2.958   2.644  0.7906  0.1734  0.3020
 8283TIP3    H124813   7.142   3.032   2.705  2.1981  0.2560  0.2734
 8283TIP3    H224814   7.163   2.998   2.559  0.1100 -0.0818  0.0179
 8284TIP3   OH224815   6.096   6.437   5.022 -0.0542 -0.1816  0.1719
 8284TIP3    H124816   6.019   6.389   5.054 -0.0002  0.5716  1.4603
 8284TIP3    H224817   6.091   6.522   5.065  0.4323  0.6028 -1.2720
 8285TIP3   OH224818   4.349   5.587   1.035  0.1510 -0.3947 -0.3818
 8285TIP3    H124819   4.330   5.495   1.051  1.5855 -0.3601  1.8816
 8285TIP3    H224820   4.341   5.597   0.940 -0.9192 -2.6169 -0.5730
 8286TIP3   OH224821   1.700   4.484   1.819  0.5781  0.2311 -0.0766
 8286TIP3    H124822   1.620   4.455   1.863  0.5715  1.7963  1.0358
 8286TIP3    H224823   1.669   4.544   1.751  0.8136  2.4149  1.6263
 8287TIP3   OH224824   3.026   5.426   3.028  0.1903  0.1180 -0.1928
 8287TIP3    H124825   3.047   5.424   2.935 -1.9707 -1.6741 -0.7300
 8287TIP3    H224826   3.108   5.403   3.072  1.2682  1.1122 -1.6076
 8288TIP3   OH224827   6.340   2.693   4.310  0.1181  0.4295 -0.2929
 8288TIP3    H124828   6.424   2.706   4.353 -0.4265 -1.4038  1.4904
 8288TIP3    H224829   6.288   2.770   4.336  0.4414  0.3105  0.7571
 8289TIP3   OH224830   5.312   0.680   5.687 -0.1040 -0.5290  0.1124
 8289TIP3    H124831   5.367   0.746   5.729 -0.4793 -0.7012  0.9027
 8289TIP3    H224832   5.319   0.698   5.593  1.6523 -0.8222  0.1586
 8290TIP3   OH224833   0.375   3.062   3.375  0.3714  0.7597  0.4116
 8290TIP3    H124834   0.356   3.055   3.468  2.7893  1.3884  1.0122
 8290TIP3    H224835   0.290   3.055   3.333 -0.6469 -1.0720  2.5548
 8291TIP3   OH224836   6.320   2.677   1.974 -0.4791 -0.5306  0.2453
 8291TIP3    H124837   6.293   2.757   2.020 -1.2765 -0.6619  0.0091
 8291TIP3    H224838   6.374   2.708   1.901  1.4010 -0.3453  1.6253
 8292TIP3   OH224839   1.296   4.171   4.733 -0.1953 -0.0931  0.3754
 8292TIP3    H124840   1.223   4.204   4.785 -1.6570 -2.0435 -0.2937
 8292TIP3    H224841   1.362   4.145   4.798  0.2909  2.3663  0.9602
 8293TIP3   OH224842   4.124   3.108   3.031 -0.4972 -0.1906 -0.8021
 8293TIP3    H124843   4.194   3.164   3.064 -0.4549 -0.0388 -1.1522
 8293TIP3    H224844   4.052   3.121   3.094  0.0062 -0.8482 -0.0730
 8294TIP3   OH224845   4.412   1.063   4.144  0.0306  0.3917 -0.2115
 8294TIP3    H124846   4.389   1.147   4.105 -1.5134 -0.4480 -1.2311
 8294TIP3    H224847   4.351   1.001   4.104  2.5276 -1.6034 -1.1584
 8295TIP3   OH224848   5.526   1.640   4.119 -0.3274  0.3147 -0.0693
 8295TIP3    H124849   5.527   1.730   4.154  2.1517  0.1781  0.3703
 8295TIP3    H224850   5.465   1.594   4.175 -1.0920  1.5501  0.1633
 8296TIP3   OH224851   0.967   6.274   4.665  0.2920 -0.1260 -0.4265
 8296TIP3    H124852   1.014   6.333   4.606 -1.4597  2.2922  0.4414
 8296TIP3    H224853   0.901   6.233   4.610 -0.6201  1.2852 -0.4420
 8297TIP3   OH224854   6.928   4.721   1.842 -0.2738 -0.0155 -0.2888
 8297TIP3    H124855   6.864   4.656   1.869 -0.6185  1.3041  2.3430
 8297TIP3    H224856   6.918   4.726   1.747 -3.9264 -0.0687 -0.0492
 8298TIP3   OH224857   5.680   3.542   4.557 -0.0148  0.0085 -0.1302
 8298TIP3    H124858   5.768   3.578   4.562  0.0485  0.0099 -1.0886
 8298TIP3    H224859   5.693   3.448   4.542 -0.1673  0.1873 -1.4238
 8299TIP3   OH224860   6.041   3.140   4.474 -0.6439 -0.1194  0.1105
 8299TIP3    H124861   5.988   3.207   4.516  1.8841  2.1849 -0.1230
 8299TIP3    H224862   6.080   3.184   4.399  1.5087 -1.6895  0.2209
 8300TIP3   OH224863   1.842   4.908   0.490 -0.0792  0.3443 -0.2623
 8300TIP3    H124864   1.934   4.882   0.480 -0.3819 -0.3003 -1.7700
 8300TIP3    H224865   1.820   4.886   0.580  0.2971 -2.8427 -0.8336
 8301TIP3   OH224866   2.342   5.071   0.785  0.5980  0.2141  0.3164
 8301TIP3    H124867   2.395   5.002   0.745 -1.1850 -0.2017 -1.4952
 8301TIP3    H224868   2.289   5.106   0.713  0.3701  2.4796  1.4875
 8302TIP3   OH224869   4.118   2.163   1.954  0.0337  0.1209 -0.2290
 8302TIP3    H124870   4.078   2.120   1.879 -0.3955  0.1266 -0.0077
 8302TIP3    H224871   4.044   2.197   2.005  0.2650 -0.5557  0.5991
 8303TIP3   OH224872   4.965   0.123   1.230  0.2891  0.2611  0.0290
 8303TIP3    H124873   5.009   0.190   1.281 -1.2074  0.9239  0.4983
 8303TIP3    H224874   4.906   0.081   1.292 -1.0442  0.6107 -0.9734
 8304TIP3   OH224875   1.286   5.953   0.206 -0.3779 -0.4338  0.3888
 8304TIP3    H124876   1.347   5.967   0.279  1.0964  1.0344 -1.0429
 8304TIP3    H224877   1.341   5.920   0.135 -1.1125  1.4085 -1.1129
 8305TIP3   OH224878   5.309   1.142   4.071  0.1435 -0.1437 -0.4624
 8305TIP3    H124879   5.304   1.185   3.986 -1.9450 -1.9562 -1.3605
 8305TIP3    H224880   5.356   1.060   4.055  2.3440  0.7731  0.8116
 8306TIP3   OH224881   2.958   0.431   1.600  0.0130  0.5473  0.5337
 8306TIP3    H124882   3.039   0.478   1.582  0.5383  0.1616  1.7951
 8306TIP3    H224883   2.901   0.497   1.640 -0.4408  0.9061 -0.6688
 8307TIP3   OH224884   4.657   5.844   0.635 -1.1091  0.5596 -0.1116
 8307TIP3    H124885   4.625   5.851   0.725  0.2872  1.0847  0.3842
 8307TIP3    H224886   4.612   5.914   0.588 -3.3153 -0.9154 -0.3371
 8308TIP3   OH224887   2.849   3.153   0.486  0.1266 -0.1488 -0.4727
 8308TIP3    H124888   2.846   3.116   0.574 -0.1893 -1.9669 -1.2104
 8308TIP3    H224889   2.928   3.117   0.447  0.6822  1.2590 -0.7075
 8309TIP3   OH224890   3.748   2.300   4.615 -0.0972  0.3182  0.3262
 8309TIP3    H124891   3.683   2.305   4.685  1.6675 -0.5079  2.1104
 8309TIP3    H224892   3.796   2.383   4.621  0.8789 -0.2817  0.9540
 8310TIP3   OH224893   0.955   1.284   1.905  0.6391  0.5375 -0.4995
 8310TIP3    H124894   0.888   1.226   1.942  1.8966 -0.5681  0.1680
 8310TIP3    H224895   0.975   1.346   1.975  0.3761  0.8101 -0.6658
 8311TIP3   OH224896   6.315   5.545   0.553  0.0896 -0.3616  0.4931
 8311TIP3    H124897   6.376   5.485   0.595  1.3911 -0.0967 -0.9466
 8311TIP3    H224898   6.261   5.490   0.496  0.1277 -0.3747  0.4703
 8312TIP3   OH224899   2.643   2.806   4.944 -0.1414 -0.3030  0.4750
 8312TIP3    H124900   2.590   2.869   4.895 -1.9332 -0.1774  2.4393
 8312TIP3    H224901   2.586   2.731   4.957  1.3563 -1.6322 -0.2435
 8313TIP3   OH224902   0.957   0.136   2.437  0.1110  0.4667  0.4875
 8313TIP3    H124903   0.964   0.091   2.520  0.3792  0.8719  0.6858
 8313TIP3    H224904   0.881   0.096   2.394  0.8210 -0.7299  0.3053
 8314TIP3   OH224905   5.663   3.827   3.900  0.2412 -0.1832  0.1199
 8314TIP3    H124906   5.617   3.764   3.844  2.0629  0.7170 -2.5742
 8314TIP3    H224907   5.738   3.778   3.934  1.5210  0.3682 -1.7777
 8315TIP3   OH224908   3.646   6.577   0.464 -0.0910  0.0102 -0.0929
 8315TIP3    H124909   3.694   6.628   0.530 -0.4249 -0.2156  0.3275
 8315TIP3    H224910   3.576   6.534   0.513 -1.5026  1.3049 -0.8726
 8316TIP3   OH224911   1.867   6.755   3.497 -0.3914  0.1168 -0.2994
 8316TIP3    H124912   1.799   6.774   3.432 -0.7932 -2.1014 -0.6302
 8316TIP3    H224913   1.825   6.767   3.581  0.3514  3.8029 -0.2946
 8317TIP3   OH224914   4.677   2.907   2.434 -0.3256  0.1591  0.6237
 8317TIP3    H124915   4.604   2.883   2.377  0.3004  1.8340 -0.9761
 8317TIP3    H224916   4.635   2.933   2.516 -1.4166 -0.2942  0.2235
 8318TIP3   OH224917   2.632   6.555   1.509  0.0018 -0.1266  0.3866
 8318TIP3    H124918   2.569   6.605   1.458  0.4570  1.1383  1.0298
 8318TIP3    H224919   2.608   6.570   1.600  0.5302 -0.5830  0.6112
 8319TIP3   OH224920   3.750   4.963   3.681 -0.3484 -0.0569  0.0691
 8319TIP3    H124921   3.809   5.019   3.732  0.1833  0.0640 -0.6681
 8319TIP3    H224922   3.808   4.903   3.634 -0.7564  0.5160 -1.2058
 8320TIP3   OH224923   6.943   0.250   3.011  1.0790  0.0157  0.5271
 8320TIP3    H124924   6.956   0.180   3.075  1.7447  0.9568  1.4630
 8320TIP3    H224925   7.016   0.311   3.027  0.7194  0.7447 -0.4978
 8321TIP3   OH224926   2.255   0.451   3.529 -0.1015  0.0167 -0.0885
 8321TIP3    H124927   2.343   0.428   3.498 -0.2773 -0.9307  0.1092
 8321TIP3    H224928   2.232   0.382   3.591 -1.1014  0.1034 -0.3507
 8322TIP3   OH224929   4.776   5.903   3.287  0.7989  0.2773 -0.0218
 8322TIP3    H124930   4.719   5.957   3.342  0.9807 -0.7189  1.1863
 8322TIP3    H224931   4.719   5.872   3.216  0.1454  0.2709  0.5016
 8323TIP3   OH224932   3.147   6.528   5.417  0.8447  0.0517 -0.0724
 8323TIP3    H124933   3.134   6.580   5.496  2.5094  1.1343 -0.4448
 8323TIP3    H224934   3.069   6.544   5.364  0.4745  0.6581  0.6447
 8324TIP3   OH224935   0.702   4.872   3.579  0.3506  0.3867  0.2107
 8324TIP3    H124936   0.723   4.782   3.604 -0.4112  0.3170  0.6464
 8324TIP3    H224937   0.777   4.924   3.609  0.5255 -0.0223  0.4880
 8325TIP3   OH224938   7.031   2.163   1.787 -0.0372 -0.0569  0.4029
 8325TIP3    H124939   6.971   2.104   1.742 -0.9739  0.0194  1.5062
 8325TIP3    H224940   7.112   2.159   1.736 -1.1428  0.2988 -1.4892
 8326TIP3   OH224941   2.985   5.716   3.597 -0.1971  0.3810  0.1602
 8326TIP3    H124942   3.040   5.783   3.637 -0.4668  0.8772 -0.2953
 8326TIP3    H224943   2.911   5.764   3.559  1.3408  0.2885 -3.2865
 8327TIP3   OH224944   2.828   3.544   3.922  0.2558  0.4016  0.1520
 8327TIP3    H124945   2.890   3.593   3.975 -0.6104 -0.2022  1.7792
 8327TIP3    H224946   2.832   3.454   3.956 -0.1670 -0.0664 -0.9623
 8328TIP3   OH224947   0.002   6.231   1.386  0.1983  0.1004  0.3574
 8328TIP3    H124948   0.037   6.312   1.422  2.0286 -1.1045  1.4909
 8328TIP3    H224949   0.064   6.207   1.317 -0.1689 -0.4571  0.2190
 8329TIP3   OH224950   1.288   3.200   1.631  0.1738 -0.0795 -0.0557
 8329TIP3    H124951   1.210   3.251   1.653 -0.2229  0.3623 -2.2321
 8329TIP3    H224952   1.255   3.124   1.583  1.0426 -0.0912 -0.6661
 8330TIP3   OH224953   5.667   3.764   5.161  0.6137 -0.6528  0.2341
 8330TIP3    H124954   5.632   3.705   5.228 -1.2092  0.5545  0.4116
 8330TIP3    H224955   5.627   3.849   5.180  0.5123 -0.1294 -2.0002
 8331TIP3   OH224956   3.915   3.772   1.355  0.7525  0.2056  0.1050
 8331TIP3    H124957   3.937   3.786   1.263  0.5064 -2.1441 -0.3648
 8331TIP3    H224958   3.865   3.851   1.379 -0.5673  0.1863 -2.2329
 8332TIP3   OH224959   5.375   5.328   3.388 -0.4906  0.0214  0.0388
 8332TIP3    H124960   5.412   5.417   3.390 -2.9074  1.2594 -2.7390
 8332TIP3    H224961   5.289   5.337   3.429 -0.9601 -0.9071 -0.6999
 8333TIP3   OH224962   6.797   4.206   5.194 -0.1497 -0.5994 -0.4687
 8333TIP3    H124963   6.711   4.165   5.203  0.3655 -1.3929  1.3682
 8333TIP3    H224964   6.779   4.300   5.200 -0.8841 -0.7753  0.3766
 8334TIP3   OH224965   3.579   6.616   4.636  0.0038  0.5185  0.2326
 8334TIP3    H124966   3.653   6.608   4.576 -0.1227 -2.0819  0.3001
 8334TIP3    H224967   3.588   6.541   4.695 -2.1775  0.6492  0.8257
 8335TIP3   OH224968   5.510   6.506   4.811  0.6056  0.3919  0.5277
 8335TIP3    H124969   5.499   6.426   4.760 -1.8974  0.2822  1.1049
 8335TIP3    H224970   5.482   6.576   4.752  0.2500  0.5579  0.8935
 8336TIP3   OH224971   4.035   2.604   0.350  0.1218  0.3750 -0.0182
 8336TIP3    H124972   4.007   2.651   0.429 -0.2355  1.2445 -0.6538
 8336TIP3    H224973   3.997   2.516   0.361 -1.1746  0.9209  0.1020
 8337TIP3   OH224974   2.869   5.968   5.285 -0.2290  0.2064  0.3783
 8337TIP3    H124975   2.922   6.018   5.346  0.8016 -0.8113  0.3669
 8337TIP3    H224976   2.894   6.000   5.199  0.4163 -0.2757  0.3722
 8338TIP3   OH224977   5.470   3.324   1.969 -0.2330 -0.2550 -0.9540
 8338TIP3    H124978   5.534   3.395   1.960 -1.0481  0.6873  0.4174
 8338TIP3    H224979   5.386   3.364   1.949 -0.6182 -1.0591 -1.0036
 8339TIP3   OH224980   1.553   0.445   3.045 -0.3604  0.4313  0.2820
 8339TIP3    H124981   1.529   0.509   2.978 -1.6588  0.6440  0.9092
 8339TIP3    H224982   1.565   0.497   3.124  1.2096  0.1884  0.2404
 8340TIP3   OH224983   4.237   1.028   2.238  0.1131  0.3854 -0.0045
 8340TIP3    H124984   4.322   0.996   2.269  0.4044  0.1430 -1.0334
 8340TIP3    H224985   4.251   1.049   2.146 -1.1305 -0.3484 -0.3836
 8341TIP3   OH224986   7.167   4.798   4.576 -0.0658  0.1004  0.5476
 8341TIP3    H124987   7.132   4.762   4.495 -1.9649 -0.5187  1.6030
 8341TIP3    H224988   7.254   4.759   4.584 -0.1837 -0.4682 -0.7550
 8342TIP3   OH224989   4.499   2.903   0.350 -0.4701  0.1620  0.7798
 8342TIP3    H124990   4.551   2.960   0.406 -0.3051  0.7859  0.0193
 8342TIP3    H224991   4.430   2.869   0.406  0.1789  0.1088  1.5584
 8343TIP3   OH224992   6.775   5.021   3.931 -0.0450 -0.0359 -0.4853
 8343TIP3    H124993   6.759   4.986   3.844 -0.8419 -0.9764  0.0280
 8343TIP3    H224994   6.697   4.999   3.981  0.3531  0.5887  0.4484
 8344TIP3   OH224995   1.866   2.447   4.543  0.2056 -0.3422 -0.0481
 8344TIP3    H124996   1.839   2.384   4.476  2.6738 -0.8377 -0.6454
 8344TIP3    H224997   1.802   2.519   4.534 -1.0812 -1.5546 -1.1372
 8345TIP3   OH224998   7.044   0.307   2.622 -0.1365  0.2774  0.3430
 8345TIP3    H124999   7.041   0.384   2.566  1.3488  0.4842  0.5012
 8345TIP3    H225000   7.116   0.254   2.587  0.7856  0.3843  1.9567
 8346TIP3   OH225001   5.735  -0.013   3.773 -0.0605 -0.3378  0.0096
 8346TIP3    H125002   5.711  -0.063   3.850  0.0271 -1.1441 -0.4807
 8346TIP3    H225003   5.744   0.077   3.805 -0.4162 -0.5933  0.8520
 8347TIP3   OH225004   3.469   2.586   1.884  0.0380 -0.0854  0.4600
 8347TIP3    H125005   3.471   2.675   1.919  0.7945  0.0437  0.0979
 8347TIP3    H225006   3.528   2.537   1.941 -2.2222 -0.9578  2.2056
 8348TIP3   OH225007   3.150   3.493   3.775  0.3084  0.6120 -0.3047
 8348TIP3    H125008   3.140   3.398   3.766 -1.9614  0.7669 -0.0352
 8348TIP3    H225009   3.221   3.516   3.716  2.1875 -1.4629  0.9841
 8349TIP3   OH225010   5.397   4.456   0.433 -0.2507  0.1065  0.4262
 8349TIP3    H125011   5.382   4.428   0.523  1.6328  1.7448  1.3319
 8349TIP3    H225012   5.487   4.489   0.433 -0.5365  1.0723 -1.8106
 8350TIP3   OH225013   0.585   4.077   3.898  0.0156 -0.1461  0.0945
 8350TIP3    H125014   0.675   4.046   3.909  0.0346  0.2587  1.1429
 8350TIP3    H225015   0.594   4.169   3.874 -0.0537 -0.7707 -2.7176
 8351TIP3   OH225016   4.933   5.201   0.795  0.2357 -0.1320 -0.3698
 8351TIP3    H125017   4.988   5.161   0.863  1.3812  0.7181 -0.7526
 8351TIP3    H225018   4.889   5.273   0.839  0.1402 -0.2411 -0.2845
 8352TIP3   OH225019   6.382   4.127   5.488 -0.2047 -0.0100  0.6313
 8352TIP3    H125020   6.418   4.049   5.530  0.5107  0.7707  1.4859
 8352TIP3    H225021   6.330   4.170   5.555 -0.6020  0.2596  0.1631
 8353TIP3   OH225022   5.079   2.619   3.477 -0.3676 -0.2022  0.0908
 8353TIP3    H125023   5.001   2.588   3.523 -0.1873  1.0145  1.2557
 8353TIP3    H225024   5.104   2.700   3.522  1.4948 -0.4877 -0.3375
 8354TIP3   OH225025   0.664   6.447   3.126 -0.7438 -0.3129 -0.6817
 8354TIP3    H125026   0.589   6.478   3.074 -0.8203  0.6057 -0.0260
 8354TIP3    H225027   0.641   6.467   3.216 -0.4031 -1.4920 -0.3120
 8355TIP3   OH225028   0.310   3.605   0.208 -0.6648  0.4576  0.2361
 8355TIP3    H125029   0.394   3.608   0.160 -0.6528 -0.1776  0.2065
 8355TIP3    H225030   0.333   3.627   0.298 -0.4555  0.2384  0.2380
 8356TIP3   OH225031   2.570   0.975   0.095  0.0065 -0.2494  0.0919
 8356TIP3    H125032   2.634   0.942   0.032  2.1235 -0.1862  2.0587
 8356TIP3    H225033   2.616   1.043   0.144 -1.7961  0.2810  1.1806
 8357TIP3   OH225034   2.335   4.150   4.374 -0.2330 -0.3124 -0.2148
 8357TIP3    H125035   2.253   4.108   4.399  0.2092  0.1475  2.2904
 8357TIP3    H225036   2.393   4.138   4.450  0.9479  2.0399 -0.6286
 8358TIP3   OH225037   6.033   3.094   2.878  0.4401 -0.8132 -0.1004
 8358TIP3    H125038   6.017   3.066   2.787 -1.8202 -0.4036  0.1198
 8358TIP3    H225039   6.023   3.015   2.930  1.5616 -1.0134 -0.1712
 8359TIP3   OH225040   4.587   0.549   0.722  0.0049  0.6666  0.3192
 8359TIP3    H125041   4.640   0.475   0.752 -0.7891  0.1009  0.3566
 8359TIP3    H225042   4.634   0.583   0.647 -0.3779 -0.8476 -0.6555
 8360TIP3   OH225043   6.828   0.019   3.476  0.4772  0.6884  0.3183
 8360TIP3    H125044   6.775  -0.054   3.444  0.1066  0.0278  2.3064
 8360TIP3    H225045   6.783   0.097   3.442  0.3302  0.0530 -1.0254
 8361TIP3   OH225046   1.341   0.435   2.621 -0.2643 -0.2546  0.0240
 8361TIP3    H125047   1.373   0.354   2.581 -0.2369 -1.4747  2.2919
 8361TIP3    H225048   1.255   0.450   2.582  0.3815 -0.4919 -1.5498
 8362TIP3   OH225049   4.898   5.947   4.461 -0.6555  0.2558  0.2370
 8362TIP3    H125050   4.883   5.901   4.544 -2.5062 -0.9757 -0.7063
 8362TIP3    H225051   4.845   6.026   4.469 -2.1877 -0.6605 -0.3460
 8363TIP3   OH225052   1.797   3.413   4.752 -0.1517  0.2281 -0.1208
 8363TIP3    H125053   1.861   3.482   4.774 -0.2505  0.1514  0.4392
 8363TIP3    H225054   1.722   3.432   4.808 -1.0950  0.9954 -1.6009
 8364TIP3   OH225055   4.008   5.338   2.670  0.0750 -0.0153 -0.2248
 8364TIP3    H125056   3.971   5.360   2.584 -0.3127  2.7009  0.5601
 8364TIP3    H225057   4.043   5.421   2.703 -0.3656 -0.8547  2.5382
 8365TIP3   OH225058   6.023   0.810   4.241  0.1092  0.0876 -0.0003
 8365TIP3    H125059   6.106   0.771   4.213  0.3190 -0.9855  1.9528
 8365TIP3    H225060   5.956   0.754   4.202  0.3003  0.3731 -0.7629
 8366TIP3   OH225061   6.093   5.029   4.211 -0.2314  0.6783  0.1379
 8366TIP3    H125062   6.069   5.011   4.120  1.0164 -0.9034  0.0778
 8366TIP3    H225063   6.185   5.001   4.217 -0.4440  0.2924  2.0099
 8367TIP3   OH225064   3.880   0.167   3.775 -0.3163 -0.0664  0.3658
 8367TIP3    H125065   3.794   0.154   3.734 -0.1000  0.4541 -0.2678
 8367TIP3    H225066   3.916   0.079   3.783 -0.0845 -0.1394 -1.1919
 8368TIP3   OH225067   4.840   1.733   5.201  0.1479  0.2453  0.6066
 8368TIP3    H125068   4.872   1.655   5.156  0.5933  0.9061 -0.2432
 8368TIP3    H225069   4.919   1.772   5.240 -0.0544  0.3423  0.9217
 8369TIP3   OH225070   0.104   1.019   1.136 -0.3745 -0.0598 -0.3236
 8369TIP3    H125071   0.145   1.083   1.194  0.5267 -0.8239 -0.0825
 8369TIP3    H225072   0.131   1.046   1.048  1.3988 -1.0187 -0.1165
 8370TIP3   OH225073   5.426   2.984   1.021 -0.5835  0.1517  0.0378
 8370TIP3    H125074   5.499   2.932   0.990 -0.9079 -0.1339 -0.2522
 8370TIP3    H225075   5.465   3.068   1.046 -0.1407 -0.0465  0.0166
 8371TIP3   OH225076   6.840   1.212   4.643  0.4403 -0.6848 -0.0223
 8371TIP3    H125077   6.931   1.235   4.623  0.1474  1.1793  0.6022
 8371TIP3    H225078   6.846   1.149   4.715  1.2216 -0.2732  0.2786
 8372TIP3   OH225079   6.418   4.470   5.585  0.2640 -0.4395  0.7110
 8372TIP3    H125080   6.390   4.560   5.599  0.4576 -0.5191  1.6656
 8372TIP3    H225081   6.343   4.417   5.612 -0.4674 -0.5515 -1.3906
 8373TIP3   OH225082   5.485   1.687   1.790 -0.0542 -0.2093 -0.0011
 8373TIP3    H125083   5.530   1.616   1.835 -1.9778 -1.6833 -0.2745
 8373TIP3    H225084   5.522   1.686   1.701 -0.2470 -1.0523 -0.0776
 8374TIP3   OH225085   2.179   2.117   3.826  0.4666 -0.0227  0.4030
 8374TIP3    H125086   2.164   2.173   3.902  0.4995 -0.5720  0.8190
 8374TIP3    H225087   2.258   2.068   3.848  0.5464 -0.0946 -0.0396
 8375TIP3   OH225088   5.673   1.819   3.363  0.2422  0.3492 -0.0944
 8375TIP3    H125089   5.714   1.848   3.444 -0.6432  1.1496  0.0805
 8375TIP3    H225090   5.641   1.899   3.321  0.3152 -0.0902 -1.0356
 8376TIP3   OH225091   1.647   4.252   5.725 -0.2438 -0.5418 -0.1374
 8376TIP3    H125092   1.563   4.273   5.686 -0.6605 -0.1794  0.9184
 8376TIP3    H225093   1.687   4.189   5.665 -0.3342  0.8744 -1.7393
 8377TIP3   OH225094   1.490   5.896   5.286  0.2965 -0.0234  0.3087
 8377TIP3    H125095   1.502   5.837   5.212  1.9456 -0.6911  1.0561
 8377TIP3    H225096   1.451   5.842   5.355 -0.3319  0.3499  0.2526
 8378TIP3   OH225097   1.593   5.364   1.108  0.1265 -0.0140 -0.1173
 8378TIP3    H125098   1.608   5.403   1.194 -0.0323  0.8617 -0.4696
 8378TIP3    H225099   1.647   5.416   1.049  0.2502 -0.6210 -0.5427
 8379TIP3   OH225100   3.398   1.310   4.972  0.0824  0.1491 -0.4443
 8379TIP3    H125101   3.369   1.247   5.038 -0.3913 -0.5770 -1.3330
 8379TIP3    H225102   3.484   1.339   5.004 -0.1551 -0.1604  0.5070
 8380TIP3   OH225103   1.362   2.149   4.026  0.0624  0.5336  0.6819
 8380TIP3    H125104   1.398   2.062   4.007  2.7946  1.9649 -1.3472
 8380TIP3    H225105   1.289   2.160   3.965 -0.2188 -0.2731  0.8672
 8381TIP3   OH225106   6.737   2.066   2.284  0.4617 -0.6933  0.0733
 8381TIP3    H125107   6.663   2.108   2.327  1.1345 -0.6689  1.2481
 8381TIP3    H225108   6.741   2.108   2.197 -0.2784  0.0148  0.3676
 8382TIP3   OH225109   4.558   1.125   5.815  0.0440  0.1559 -0.6819
 8382TIP3    H125110   4.561   1.035   5.849 -0.3671  0.2234 -0.4661
 8382TIP3    H225111   4.465   1.144   5.806  0.0814  1.0062  0.4913
 8383TIP3   OH225112   6.772   4.037   0.291  0.0373 -0.0123  0.2473
 8383TIP3    H125113   6.716   4.084   0.229  0.6563 -0.3018 -0.5554
 8383TIP3    H225114   6.846   4.096   0.306 -0.2929  0.2142  1.0123
 8384TIP3   OH225115   4.834   6.165   1.836 -0.1106  0.3660 -0.1876
 8384TIP3    H125116   4.886   6.199   1.763  0.9461  1.1821  0.8963
 8384TIP3    H225117   4.784   6.241   1.866 -0.2042  0.1472  0.2089
 8385TIP3   OH225118   4.573   0.761   1.665 -0.6440 -0.0229 -0.2073
 8385TIP3    H125119   4.653   0.746   1.614 -0.9634 -0.6514 -0.5457
 8385TIP3    H225120   4.571   0.690   1.729 -1.1934 -0.3203 -0.5447
 8386TIP3   OH225121   2.161   6.207   0.432  0.3090  0.9792  0.0411
 8386TIP3    H125122   2.140   6.118   0.402 -0.1994  1.5763 -1.4343
 8386TIP3    H225123   2.164   6.199   0.528  1.3812 -0.8466 -0.0985
 8387TIP3   OH225124   6.375   0.790   2.391  0.4442 -0.1709  0.1285
 8387TIP3    H125125   6.320   0.725   2.434  0.3890  1.1540  2.1776
 8387TIP3    H225126   6.465   0.764   2.413  0.4439  0.1574  0.5204
 8388TIP3   OH225127   4.721   3.719   4.163  0.2003  0.2170  0.2742
 8388TIP3    H125128   4.636   3.718   4.119  0.4387  0.3542 -0.1913
 8388TIP3    H225129   4.748   3.627   4.165  0.6520  0.3155 -0.7774
 8389TIP3   OH225130   1.534   6.024   2.113  0.5416 -0.6375  0.3561
 8389TIP3    H125131   1.582   6.024   2.030 -1.1363  0.3610 -0.6715
 8389TIP3    H225132   1.526   6.116   2.136  0.2150 -0.8598  1.1542
 8390TIP3   OH225133   5.623   4.441   1.277  0.0171  0.6178 -0.4803
 8390TIP3    H125134   5.591   4.486   1.356 -2.6246  0.1099 -1.1567
 8390TIP3    H225135   5.692   4.498   1.244  0.7519  1.1718  1.8098
 8391TIP3   OH225136   1.417   0.631   0.888  0.4557  0.6816  0.4899
 8391TIP3    H125137   1.408   0.574   0.811 -0.7249 -0.5486  1.4858
 8391TIP3    H225138   1.340   0.610   0.942  0.9171  1.9864  1.7009
 8392TIP3   OH225139   6.714   5.182   1.918 -0.3507  0.0587 -0.2571
 8392TIP3    H125140   6.658   5.192   1.840  0.2332 -1.9175 -0.9704
 8392TIP3    H225141   6.802   5.206   1.887 -0.1491 -0.5614 -0.1782
 8393TIP3   OH225142   0.737   4.278   1.586  0.1737  0.0831  0.0575
 8393TIP3    H125143   0.691   4.281   1.670 -0.3939  0.1864 -0.2560
 8393TIP3    H225144   0.677   4.232   1.527  1.8312 -2.9036  0.4934
 8394TIP3   OH225145   5.247   2.829   2.874  0.4824  0.2868 -0.0614
 8394TIP3    H125146   5.178   2.775   2.913 -0.8157  2.0449  0.1920
 8394TIP3    H225147   5.315   2.833   2.941  1.2456 -2.0602 -0.5886
 8395TIP3   OH225148   4.944   0.296   3.004 -0.5299  0.2752  0.4497
 8395TIP3    H125149   4.885   0.361   3.043 -1.6580 -0.8656  0.7500
 8395TIP3    H225150   4.994   0.262   3.079  1.0022  1.6667  0.1110
 8396TIP3   OH225151   3.618   5.444   4.278  0.2269  0.2340  0.0766
 8396TIP3    H125152   3.598   5.444   4.184  0.7036  1.0697 -0.0399
 8396TIP3    H225153   3.540   5.406   4.319  0.6219 -1.5684 -0.7616
 8397TIP3   OH225154   0.881   1.544   3.295 -0.6194  0.8284  0.3770
 8397TIP3    H125155   0.920   1.595   3.224 -0.6702 -1.4030 -1.3643
 8397TIP3    H225156   0.943   1.472   3.311 -1.5384  0.1883  1.2207
 8398TIP3   OH225157   6.014   4.634   5.153  0.2675  0.4878  0.2371
 8398TIP3    H125158   6.068   4.702   5.111 -0.1584  0.6561 -0.0470
 8398TIP3    H225159   6.062   4.553   5.137  1.8872  0.9203  2.3848
 8399TIP3   OH225160   4.866   5.267   3.262  0.4238  0.5365 -0.5545
 8399TIP3    H125161   4.805   5.296   3.329 -1.3751 -1.2094 -1.3443
 8399TIP3    H225162   4.833   5.306   3.181  1.3861  0.9684 -0.7559
 8400TIP3   OH225163   6.512   4.225   1.444 -0.6095 -0.4786  0.1174
 8400TIP3    H125164   6.494   4.243   1.536 -3.0194 -0.5952 -0.2615
 8400TIP3    H225165   6.426   4.222   1.403  0.4067  0.0192 -2.2459
 8401TIP3   OH225166   1.277   3.802   0.244  0.2610 -0.1916  0.1366
 8401TIP3    H125167   1.218   3.854   0.189 -0.8167 -2.0497 -0.5366
 8401TIP3    H225168   1.362   3.809   0.201  0.2223  1.2551  0.2489
 8402TIP3   OH225169   0.342   3.327   1.220 -0.3690  0.3993 -0.0720
 8402TIP3    H125170   0.417   3.267   1.219  0.5574  1.5046 -1.2980
 8402TIP3    H225171   0.339   3.359   1.310  1.1052  0.8718 -0.1570
 8403TIP3   OH225172   1.775   3.300   3.451 -0.0561 -0.0319 -0.0462
 8403TIP3    H125173   1.846   3.343   3.403  1.6517 -1.7299  0.8030
 8403TIP3    H225174   1.718   3.264   3.383  1.8684 -1.7050 -0.8436
 8404TIP3   OH225175   3.659   0.569   2.386  0.0583  0.2762 -0.4051
 8404TIP3    H125176   3.653   0.660   2.415  0.1315  0.1111  0.1512
 8404TIP3    H225177   3.568   0.542   2.372 -0.0998 -0.0815  1.1223
 8405TIP3   OH225178   4.972   3.993   0.764  0.1140  0.1681 -0.0380
 8405TIP3    H125179   5.046   3.988   0.704 -0.5162  0.5250 -0.8642
 8405TIP3    H225180   5.001   4.051   0.834  1.0210 -0.6207  0.2558
 8406TIP3   OH225181   3.463   6.741   3.055  0.7497  0.6375 -0.3709
 8406TIP3    H125182   3.381   6.754   3.008  0.5312  0.6474  0.0077
 8406TIP3    H225183   3.472   6.820   3.108 -1.4569 -1.2540  3.2780
 8407TIP3   OH225184   0.148   1.173   0.901 -0.0694  0.1390  0.4036
 8407TIP3    H125185   0.065   1.213   0.874 -0.5981 -0.9307  0.4052
 8407TIP3    H225186   0.180   1.231   0.970 -1.1465  0.2203  0.8656
 8408TIP3   OH225187   2.305   0.976   4.737 -0.6454  0.0212 -0.4934
 8408TIP3    H125188   2.394   0.997   4.710 -0.7740  1.0625 -0.1743
 8408TIP3    H225189   2.312   0.961   4.831 -1.1237  2.3564 -0.0113
 8409TIP3   OH225190   0.350   5.641   5.434  0.2874 -0.3413  0.3368
 8409TIP3    H125191   0.298   5.627   5.355  1.5614  0.0128 -0.6018
 8409TIP3    H225192   0.410   5.712   5.410  1.8718 -1.4047  1.0364
 8410TIP3   OH225193   2.440   0.325   0.736  0.7776  0.0202 -0.0206
 8410TIP3    H125194   2.461   0.240   0.697 -1.0807 -0.9280  0.8781
 8410TIP3    H225195   2.369   0.359   0.681  0.1098 -0.0072  0.7916
 8411TIP3   OH225196   6.452   3.932   3.455  0.0435 -0.0245 -0.4135
 8411TIP3    H125197   6.514   3.969   3.392  0.5157 -0.7395 -0.3805
 8411TIP3    H225198   6.405   4.008   3.490 -0.6388  0.3440 -2.0421
 8412TIP3   OH225199   2.750   1.511   5.826  0.9273 -0.1794 -0.6500
 8412TIP3    H125200   2.737   1.581   5.890 -1.8431 -1.3363  0.2218
 8412TIP3    H225201   2.795   1.442   5.875  0.8795 -0.1889 -0.6194
 8413TIP3   OH225202   6.327   1.037   1.905  0.2783 -0.2971  0.2136
 8413TIP3    H125203   6.369   1.114   1.867  1.0404 -1.7722 -2.1544
 8413TIP3    H225204   6.359   0.964   1.853 -0.9740 -2.1643  1.9081
 8414TIP3   OH225205   3.105   3.310   5.322  0.6936 -0.3892  0.2727
 8414TIP3    H125206   3.163   3.383   5.344 -0.3953  1.0604 -1.3883
 8414TIP3    H225207   3.149   3.233   5.357  1.7772  1.0654  2.3247
 8415TIP3   OH225208   4.449   6.557   5.351 -0.4865  0.1817  0.1703
 8415TIP3    H125209   4.478   6.620   5.285 -0.8900 -0.4899 -0.6733
 8415TIP3    H225210   4.518   6.557   5.417  1.0632 -0.7550 -1.3632
 8416TIP3   OH225211   7.052   3.911   0.409  0.6417  0.2036 -0.8257
 8416TIP3    H125212   7.047   3.837   0.469  1.1895  1.4974  0.9157
 8416TIP3    H225213   6.976   3.965   0.432  1.3466  1.1554 -0.6601
 8417TIP3   OH225214   1.182   6.428   3.572  0.2685 -0.0181  0.1089
 8417TIP3    H125215   1.121   6.355   3.556 -0.5834  0.8014 -0.4916
 8417TIP3    H225216   1.260   6.386   3.609 -0.5033 -1.1444  0.5190
 8418TIP3   OH225217   6.050   2.956   4.036  0.4453  0.5948 -0.2847
 8418TIP3    H125218   6.021   3.038   3.996 -0.2785  0.4677 -0.0312
 8418TIP3    H225219   6.119   2.924   3.978  0.4532  1.1773 -0.6024
 8419TIP3   OH225220   7.087   1.269   4.001  0.2300 -0.1510  0.8431
 8419TIP3    H125221   7.025   1.239   3.935  0.7492  2.0595 -0.7440
 8419TIP3    H225222   7.158   1.204   3.998  0.2281 -0.1124 -0.7679
 8420TIP3   OH225223   4.606   2.121   1.236 -0.1179 -0.2812 -0.0574
 8420TIP3    H125224   4.553   2.054   1.281 -1.6047 -0.8275 -2.3952
 8420TIP3    H225225   4.668   2.070   1.183  1.1559  0.3168  0.8282
 8421TIP3   OH225226   2.037   4.715   1.333 -0.1012  0.1651  0.2944
 8421TIP3    H125227   2.126   4.727   1.299  1.3997 -2.0778  3.0039
 8421TIP3    H225228   1.990   4.673   1.261  1.3831  0.2369 -0.7908
 8422TIP3   OH225229   5.385   4.102   2.198  0.4008  0.0695 -0.2249
 8422TIP3    H125230   5.470   4.144   2.214 -0.4914  1.8605  0.0925
 8422TIP3    H225231   5.404   4.008   2.199  1.9523  0.3121  2.4685
 8423TIP3   OH225232   6.604   2.091   3.502  0.0295 -0.1854  0.4388
 8423TIP3    H125233   6.691   2.053   3.516  1.0892  1.5682 -0.9158
 8423TIP3    H225234   6.581   2.065   3.412 -0.2193  0.4906  0.3003
 8424TIP3   OH225235   1.987   6.354   1.136 -0.4733  0.2875 -0.3740
 8424TIP3    H125236   1.941   6.433   1.163  1.2094  1.5241 -0.9211
 8424TIP3    H225237   2.079   6.374   1.151 -0.0003 -1.5932 -0.5298
 8425TIP3   OH225238   3.061   6.708   2.487  0.3845  0.0756  0.5785
 8425TIP3    H125239   2.968   6.725   2.497  0.0144  0.4506 -2.5250
 8425TIP3    H225240   3.104   6.779   2.535 -0.9610  0.9514  0.5432
 8426TIP3   OH225241   1.885   6.176   0.031 -0.0377 -0.4945 -0.1482
 8426TIP3    H125242   1.852   6.109   0.091 -0.4093 -2.0165 -1.9539
 8426TIP3    H225243   1.870   6.258   0.077 -2.2620 -1.4366  0.9943
 8427TIP3   OH225244   1.679   0.799   4.238 -0.1103  0.1109 -0.1206
 8427TIP3    H125245   1.611   0.731   4.241 -1.5192  1.4935  0.8217
 8427TIP3    H225246   1.632   0.880   4.256  1.7399  1.1822  0.0812
 8428TIP3   OH225247   5.793   0.811   0.698 -0.1906 -0.1937 -0.3742
 8428TIP3    H125248   5.719   0.872   0.699 -0.3916 -0.4353  0.1670
 8428TIP3    H225249   5.820   0.805   0.790 -0.3154 -1.0844 -0.3871
 8429TIP3   OH225250   0.319   0.210   5.163 -0.0819 -0.0244 -0.6853
 8429TIP3    H125251   0.395   0.183   5.112 -0.4704  0.8611 -1.7899
 8429TIP3    H225252   0.324   0.159   5.244  1.6405 -0.0310 -0.7648
 8430TIP3   OH225253   0.502   2.337   4.411 -0.5451 -0.3194  0.3362
 8430TIP3    H125254   0.562   2.394   4.460 -2.1024  0.4844  1.4375
 8430TIP3    H225255   0.559   2.280   4.360  1.1236  1.0320  0.5737
 8431TIP3   OH225256   2.612   1.893   3.546  0.2083 -0.2416  0.1549
 8431TIP3    H125257   2.687   1.952   3.539 -0.5708  0.8068  0.3092
 8431TIP3    H225258   2.542   1.938   3.497 -0.6423 -0.6379  0.9752
 8432TIP3   OH225259   4.353   0.146   0.635  0.6911  0.2082  0.4540
 8432TIP3    H125260   4.340   0.125   0.728  1.3916 -1.5442  0.1780
 8432TIP3    H225261   4.340   0.241   0.631 -1.8673  0.0129  1.8971
 8433TIP3   OH225262   4.220   4.049   0.921 -0.0969  0.6464  0.6532
 8433TIP3    H125263   4.147   4.110   0.930 -1.0473 -0.3836  0.0585
 8433TIP3    H225264   4.215   3.993   0.997  0.5445  1.0467  0.9989
 8434TIP3   OH225265   1.624   4.216   0.912 -0.0751 -0.1869  0.4340
 8434TIP3    H125266   1.588   4.212   1.000 -0.3575  1.2400  0.4038
 8434TIP3    H225267   1.657   4.305   0.903 -0.6019 -0.1061 -1.1056
 8435TIP3   OH225268   1.040   1.523   4.462  0.7964  0.0807 -0.3756
 8435TIP3    H125269   1.026   1.438   4.504  0.3904 -0.0016 -0.6746
 8435TIP3    H225270   1.120   1.556   4.503  1.9210 -1.1894 -1.4494
 8436TIP3   OH225271   6.633   2.549   0.957  0.3376  0.2155  0.1408
 8436TIP3    H125272   6.667   2.460   0.951 -0.5553 -0.1021 -0.3186
 8436TIP3    H225273   6.621   2.564   1.051 -2.0885 -1.1720  0.1279
 8437TIP3   OH225274   4.691   2.998   4.907 -0.0092 -0.0208 -0.4301
 8437TIP3    H125275   4.610   3.028   4.947  0.0736 -0.9145  0.4560
 8437TIP3    H225276   4.693   2.903   4.924  0.5069 -0.2694 -1.7247
 8438TIP3   OH225277   5.052   2.530   4.177  0.3811  0.2649 -0.1619
 8438TIP3    H125278   5.006   2.550   4.096  2.5965  0.7422 -1.3793
 8438TIP3    H225279   5.124   2.593   4.180  0.8940 -0.3447  1.7259
 8439TIP3   OH225280   2.027   3.709   1.776 -0.1643  0.2314 -0.1000
 8439TIP3    H125281   2.048   3.710   1.869  0.5607  2.1629 -0.2365
 8439TIP3    H225282   1.982   3.626   1.762 -0.1170 -0.1760  1.9265
 8440TIP3   OH225283   5.470   5.777   3.508 -0.1095  0.3110 -0.3456
 8440TIP3    H125284   5.525   5.737   3.575 -0.6842 -0.3901 -0.2752
 8440TIP3    H225285   5.514   5.755   3.425  0.7361  1.3944 -0.2016
 8441TIP3   OH225286   7.230   4.184   5.091  0.3433 -0.2450  0.1619
 8441TIP3    H125287   7.148   4.197   5.042  0.3371  0.8863  0.4442
 8441TIP3    H225288   7.202   4.147   5.175  0.2310 -0.8676 -0.1396
 8442TIP3   OH225289   4.181   4.830   0.221  0.3447 -0.2295  0.5831
 8442TIP3    H125290   4.109   4.788   0.268  0.2329 -0.7225 -0.0128
 8442TIP3    H225291   4.234   4.757   0.188  0.1816  0.0864 -0.4275
 8443TIP3   OH225292   5.991   6.091   2.551  0.2323  0.1657  0.1675
 8443TIP3    H125293   6.021   6.010   2.511 -0.0741 -1.5427  3.1307
 8443TIP3    H225294   5.903   6.071   2.582 -0.4726  2.1773 -0.3600
 8444TIP3   OH225295   0.666   3.774   3.715  0.1363  0.2707 -0.1460
 8444TIP3    H125296   0.731   3.707   3.696 -0.2273 -0.3724  0.8057
 8444TIP3    H225297   0.673   3.836   3.642  2.3214  0.6264  0.3125
 8445TIP3   OH225298   4.491   0.967   2.264  0.2990  0.1608 -0.1867
 8445TIP3    H125299   4.494   0.913   2.185 -0.8969 -0.1831 -0.0195
 8445TIP3    H225300   4.537   1.048   2.240 -1.8341  0.9494 -1.9583
 8446TIP3   OH225301   0.874   6.333   1.205 -0.1762 -0.5175 -0.0953
 8446TIP3    H125302   0.821   6.285   1.270  0.2074  0.4735  0.9833
 8446TIP3    H225303   0.894   6.416   1.247 -0.1299  0.2720 -1.6098
 8447TIP3   OH225304   4.521   0.742   2.127  0.7378 -0.1081 -0.5153
 8447TIP3    H125305   4.485   0.670   2.180 -0.2784  0.5530 -0.2782
 8447TIP3    H225306   4.613   0.748   2.154  1.0619 -1.8112 -1.0938
 8448TIP3   OH225307   1.942   5.157   0.522  0.0473 -0.0062 -0.7625
 8448TIP3    H125308   1.882   5.083   0.514 -1.8744  1.6722 -3.8794
 8448TIP3    H225309   1.885   5.232   0.535  1.6134  1.4086 -1.6940
 8449TIP3   OH225310   6.999   4.396   1.429  0.5030 -0.0567  0.6106
 8449TIP3    H125311   7.032   4.306   1.438  1.0303 -0.2500 -2.3821
 8449TIP3    H225312   6.904   4.386   1.420  0.6218 -0.3696 -0.3086
 8450TIP3   OH225313   4.772   1.448   3.120 -0.5949  0.8097  0.2521
 8450TIP3    H125314   4.788   1.467   3.028  0.3546 -3.1328 -0.5637
 8450TIP3    H225315   4.857   1.461   3.162  0.2557 -1.8228 -0.4468
 8451TIP3   OH225316   2.878   4.645   1.057 -0.4069 -0.3361  0.2334
 8451TIP3    H125317   2.816   4.632   1.129  1.9077 -2.9197  1.9776
 8451TIP3    H225318   2.827   4.624   0.978 -2.2009 -0.5584  1.3892
 8452TIP3   OH225319   0.512   3.166   3.003  0.6714  0.2997  0.3653
 8452TIP3    H125320   0.430   3.214   3.000  0.5108  0.0196  0.1645
 8452TIP3    H225321   0.578   3.231   3.027  0.2893  0.3869  1.1823
 8453TIP3   OH225322   0.454   0.322   0.958 -0.6070 -0.1181 -0.1437
 8453TIP3    H125323   0.399   0.342   0.883 -0.2526 -0.5005 -0.5092
 8453TIP3    H225324   0.410   0.364   1.032 -0.6286  0.7921 -0.6544
 8454TIP3   OH225325   6.022   4.387   2.382 -0.0549 -0.4203 -0.0499
 8454TIP3    H125326   5.994   4.405   2.293  1.8265 -0.2015 -0.6310
 8454TIP3    H225327   6.111   4.353   2.374  0.2981 -0.0603  1.7564
 8455TIP3   OH225328   6.460   5.834   4.582  0.0800 -0.2746 -0.4975
 8455TIP3    H125329   6.447   5.753   4.631 -0.3524 -1.3003 -2.2184
 8455TIP3    H225330   6.548   5.827   4.545 -0.0782 -0.1263 -0.9175
 8456TIP3   OH225331   1.247   4.256   0.994 -0.0284 -0.3376 -0.4647
 8456TIP3    H125332   1.287   4.263   0.907  0.6210  0.4364 -0.1103
 8456TIP3    H225333   1.253   4.162   1.015  1.3017 -0.2939 -0.5660
 8457TIP3   OH225334   5.884   6.310   1.934 -0.1417 -0.5325  0.2386
 8457TIP3    H125335   5.911   6.356   2.014 -1.0911 -2.4781  1.7771
 8457TIP3    H225336   5.908   6.219   1.950 -0.5690 -1.0005 -1.6201
 8458TIP3   OH225337   0.086   2.493   2.130  0.7054 -0.1309  0.7756
 8458TIP3    H125338   0.023   2.425   2.105  1.1188 -0.7297  1.3406
 8458TIP3    H225339   0.161   2.445   2.164  1.0585  0.6102  1.0619
 8459TIP3   OH225340   1.746   0.762   0.917  0.1010 -0.1537 -0.8822
 8459TIP3    H125341   1.741   0.750   1.011 -0.2881  1.9043 -0.5906
 8459TIP3    H225342   1.800   0.840   0.906 -1.8897  1.1304 -2.2053
 8460TIP3   OH225343   5.506   0.516   5.356 -0.1922  0.0269 -0.1476
 8460TIP3    H125344   5.492   0.547   5.267 -2.1405  0.9002  0.3934
 8460TIP3    H225345   5.446   0.442   5.365 -0.9342  0.7177  0.7897
 8461TIP3   OH225346   4.666   6.400   4.470 -1.0847 -0.5853 -0.2145
 8461TIP3    H125347   4.605   6.463   4.508 -0.7830  0.4518 -1.3973
 8461TIP3    H225348   4.735   6.391   4.536 -1.4745 -0.2250  0.2546
 8462TIP3   OH225349   0.727   0.540   5.771  0.1208 -0.4233  0.5551
 8462TIP3    H125350   0.662   0.567   5.706  1.1194  1.7099  0.3604
 8462TIP3    H225351   0.690   0.460   5.810 -0.3465 -2.0820 -2.8543
 8463TIP3   OH225352   2.184   0.442   5.128 -0.2166 -0.1377 -0.9973
 8463TIP3    H125353   2.217   0.393   5.203 -0.0748 -0.5338 -1.3162
 8463TIP3    H225354   2.236   0.522   5.127 -0.5026  0.0606 -0.4268
 8464TIP3   OH225355   4.654   2.829   3.922  0.0870  0.1017 -0.2831
 8464TIP3    H125356   4.689   2.801   4.007 -1.2720 -0.7800  0.0228
 8464TIP3    H225357   4.595   2.758   3.896  1.2450 -0.1531 -2.4795
 8465TIP3   OH225358   2.318   3.521   3.585 -0.0474 -0.2794 -0.6551
 8465TIP3    H125359   2.286   3.603   3.624 -2.0129 -0.5684 -1.5347
 8465TIP3    H225360   2.240   3.467   3.577  0.8088 -1.3419 -2.2653
 8466TIP3   OH225361   4.726   5.699   1.656 -0.2140  0.1132  0.1375
 8466TIP3    H125362   4.695   5.786   1.631 -0.7878 -0.1102  0.0488
 8466TIP3    H225363   4.793   5.677   1.592 -1.4598 -0.3346 -1.0593
 8467TIP3   OH225364   3.847   5.651   3.651  0.2088 -0.2121 -0.3409
 8467TIP3    H125365   3.923   5.669   3.707  0.2109  0.3246 -0.5106
 8467TIP3    H225366   3.777   5.705   3.689 -0.2718 -1.2148  0.2214
 8468TIP3   OH225367   3.977   3.463   0.844 -0.2717  0.1110 -0.2930
 8468TIP3    H125368   4.047   3.406   0.879  0.7419  1.1724 -0.5303
 8468TIP3    H225369   4.016   3.504   0.767 -1.6499 -0.3129 -1.2609
 8469TIP3   OH225370   0.049   2.005   4.079 -0.0595 -0.2920 -0.1139
 8469TIP3    H125371   0.005   1.950   4.144 -0.7850  0.1880 -0.1790
 8469TIP3    H225372   0.088   2.076   4.131 -0.6950  0.1272 -0.2016
 8470TIP3   OH225373   6.305   0.498   5.897 -0.1554  0.3864 -0.0277
 8470TIP3    H125374   6.331   0.544   5.817 -0.1072  1.0774  0.3801
 8470TIP3    H225375   6.257   0.563   5.948  1.8128  0.7002  1.5631
 8471TIP3   OH225376   2.190   1.790   2.864  0.2073  0.1112  0.0698
 8471TIP3    H125377   2.250   1.863   2.882 -0.3924  1.0906 -1.7485
 8471TIP3    H225378   2.180   1.790   2.769  0.4535 -2.5859 -0.0152
 8472TIP3   OH225379   1.061   4.084   4.129  0.0522 -0.0272  0.2527
 8472TIP3    H125380   1.006   4.087   4.207 -0.4781 -1.9071  0.0053
 8472TIP3    H225381   1.019   4.143   4.067 -1.5016 -1.1407  0.2085
 8473TIP3   OH225382   2.052   4.652   1.613 -0.3814 -0.4559 -0.2855
 8473TIP3    H125383   2.143   4.677   1.631 -0.0214 -1.5575 -0.5100
 8473TIP3    H225384   2.037   4.681   1.523 -0.8246  1.2541  0.3011
 8474TIP3   OH225385   5.232   6.181   3.558 -0.0918 -0.2007 -0.1247
 8474TIP3    H125386   5.245   6.097   3.515 -0.1723  0.1922 -0.9363
 8474TIP3    H225387   5.266   6.246   3.496 -0.2380  0.3816  0.3902
 8475TIP3   OH225388   1.550   6.638   5.768 -0.1986  0.1279 -0.1366
 8475TIP3    H125389   1.616   6.593   5.715 -0.2425  2.6050 -2.5490
 8475TIP3    H225390   1.593   6.654   5.852  0.7373 -1.8828 -0.1639
 8476TIP3   OH225391   5.903   1.897   4.736  0.0848  0.3675 -0.7086
 8476TIP3    H125392   5.900   1.991   4.751 -0.3457  0.9113 -3.6324
 8476TIP3    H225393   5.818   1.865   4.766  0.3574  0.7922  0.6116
 8477TIP3   OH225394   2.443   3.478   3.953  0.5202 -0.1877 -0.9149
 8477TIP3    H125395   2.401   3.413   3.896 -0.1239 -1.3740  0.8292
 8477TIP3    H225396   2.461   3.431   4.034  1.8344  1.3282 -0.2721
 8478TIP3   OH225397   1.628   6.099   1.187  0.0185  0.3605 -0.1278
 8478TIP3    H125398   1.603   6.032   1.123 -0.6360 -1.4116  1.8906
 8478TIP3    H225399   1.724   6.098   1.185  0.0215 -0.7190 -0.0666
 8479TIP3   OH225400   1.724   3.071   0.814 -0.1358 -0.1439  0.0325
 8479TIP3    H125401   1.789   3.094   0.880  0.9309 -0.8061 -0.7481
 8479TIP3    H225402   1.726   3.143   0.751 -0.7049  0.1892  0.3869
 8480TIP3   OH225403   1.504   2.296   0.929  0.5997 -0.1663  0.6513
 8480TIP3    H125404   1.459   2.213   0.916 -1.5411  1.0824 -0.6259
 8480TIP3    H225405   1.454   2.339   1.000 -0.5519  1.3849 -1.0087
 8481TIP3   OH225406   3.785   1.582   3.707 -0.1591  0.0779 -0.1809
 8481TIP3    H125407   3.850   1.651   3.694  2.3611 -1.8657  1.2823
 8481TIP3    H225408   3.834   1.501   3.699 -2.6398 -1.5518  0.0538
 8482TIP3   OH225409   4.773   1.885   1.987  1.3318  0.2776 -0.7089
 8482TIP3    H125410   4.797   1.931   1.906  4.0227 -1.1530 -0.8467
 8482TIP3    H225411   4.760   1.794   1.960  3.9827 -0.5869  0.6227
 8483TIP3   OH225412   1.937   2.198   0.070  0.1733  0.5236 -0.1000
 8483TIP3    H125413   1.945   2.117   0.121  1.2358 -0.0118 -1.0806
 8483TIP3    H225414   1.899   2.261   0.131 -0.3643 -0.6189  0.7840
 8484TIP3   OH225415   5.759   2.869   0.591  0.4314 -0.2339  0.3695
 8484TIP3    H125416   5.688   2.832   0.642 -1.1991  0.6517 -1.1485
 8484TIP3    H225417   5.810   2.920   0.653 -1.5066  0.8594  1.1490
 8485TIP3   OH225418   6.148   5.839   5.850  0.4972  0.3923 -0.0295
 8485TIP3    H125419   6.125   5.897   5.923  1.4611 -0.0988  0.6927
 8485TIP3    H225420   6.233   5.802   5.875  0.6204 -0.1546 -1.1882
 8486TIP3   OH225421   2.116   2.937   3.975  0.5118  0.1981 -0.6571
 8486TIP3    H125422   2.060   2.893   3.912  0.5021  0.6384 -0.9556
 8486TIP3    H225423   2.169   2.867   4.013  0.3364 -0.1009 -0.9654
 8487TIP3   OH225424   2.640   0.480   4.775  0.0956 -0.1417  0.5191
 8487TIP3    H125425   2.620   0.527   4.856 -0.4468 -1.4444  1.1704
 8487TIP3    H225426   2.580   0.517   4.711 -0.5325 -0.1484  1.0940
 8488TIP3   OH225427   3.797   1.986   4.222 -0.1979  0.8465  0.3202
 8488TIP3    H125428   3.813   2.080   4.234  0.5092  1.0083 -1.4600
 8488TIP3    H225429   3.856   1.944   4.285  0.6929  1.5947  0.0186
 8489TIP3   OH225430   1.223   3.995   4.422 -0.1112  0.0232  0.3486
 8489TIP3    H125431   1.190   3.937   4.490  0.3993  0.6279  1.1221
 8489TIP3    H225432   1.316   4.005   4.440  0.4071 -1.1336 -1.4317
 8490TIP3   OH225433   3.716   6.495   3.371 -0.4203  0.6593 -0.1771
 8490TIP3    H125434   3.795   6.443   3.387 -0.0683  1.3983  0.5977
 8490TIP3    H225435   3.678   6.458   3.292  0.4752  0.0092 -0.3150
 8491TIP3   OH225436   6.886   0.673   1.076 -0.6874 -0.1486  0.5671
 8491TIP3    H125437   6.938   0.666   0.996 -0.7116  0.0740  0.5312
 8491TIP3    H225438   6.810   0.726   1.052 -0.2178  0.7308  0.9623
 8492TIP3   OH225439   4.230   1.410   1.029 -0.4811 -0.2737  0.3549
 8492TIP3    H125440   4.294   1.443   1.093 -0.5844  0.1521  0.2438
 8492TIP3    H225441   4.150   1.460   1.047 -0.0768  0.9976 -1.0977
 8493TIP3   OH225442   5.256   3.082   5.134 -0.2391  0.5839  0.7079
 8493TIP3    H125443   5.290   3.026   5.204 -0.7832 -0.4734  0.1477
 8493TIP3    H225444   5.280   3.171   5.161  1.6816  0.0186  1.0455
 8494TIP3   OH225445   4.900   2.703   5.270  0.6423  0.1371 -0.0726
 8494TIP3    H125446   4.887   2.628   5.328  0.0272  0.3346  0.0510
 8494TIP3    H225447   4.827   2.761   5.290 -1.0032 -0.8474 -2.7250
 8495TIP3   OH225448   5.740   2.247   3.723  0.0267 -0.5013  0.4844
 8495TIP3    H125449   5.720   2.241   3.629 -0.7392 -2.2954  0.7077
 8495TIP3    H225450   5.659   2.279   3.762  0.3262  0.1863  0.5560
 8496TIP3   OH225451   5.922   4.173   4.767 -0.0250 -0.1366  0.3868
 8496TIP3    H125452   5.930   4.143   4.858 -1.5863 -0.5711  0.4020
 8496TIP3    H225453   5.834   4.209   4.761 -0.2293 -0.8113 -1.1406
 8497TIP3   OH225454   1.594   1.565   3.388 -0.1459 -0.0352  0.4525
 8497TIP3    H125455   1.632   1.606   3.310 -0.5522  0.6532  0.6119
 8497TIP3    H225456   1.636   1.479   3.393 -0.4085 -0.2413 -0.7420
 8498TIP3   OH225457   5.270   2.830   1.163  0.0883 -0.2526  0.2255
 8498TIP3    H125458   5.204   2.801   1.100  0.3851  1.2278 -0.8052
 8498TIP3    H225459   5.330   2.884   1.113  1.0392 -0.0354  1.5425
 8499TIP3   OH225460   5.662   6.110   1.082  0.1081 -0.2924  0.5248
 8499TIP3    H125461   5.684   6.017   1.091  0.0876 -0.3392  0.1133
 8499TIP3    H225462   5.708   6.153   1.153  0.3521 -0.5833  0.5431
 8500TIP3   OH225463   0.701   6.740   4.609  0.2388 -0.1655 -0.1492
 8500TIP3    H125464   0.777   6.689   4.578 -0.3374 -1.3530  0.3155
 8500TIP3    H225465   0.694   6.718   4.702 -0.6488 -0.0516 -0.1815
 8501TIP3   OH225466   0.144   2.069   5.851  0.4431 -0.2624 -0.1496
 8501TIP3    H125467   0.155   2.144   5.909  0.2773 -1.5486  1.6056
 8501TIP3    H225468   0.061   2.085   5.806 -0.4057 -0.1334  1.4006
 8502TIP3   OH225469   3.216   1.729   2.884 -0.5789  0.3089 -0.3913
 8502TIP3    H125470   3.307   1.726   2.854 -0.5858 -0.7662 -0.3383
 8502TIP3    H225471   3.166   1.693   2.811 -0.7163 -1.1817  0.3870
 8503TIP3   OH225472   4.468   1.831   2.519  0.6726  0.6781  0.2357
 8503TIP3    H125473   4.451   1.830   2.613  0.1274 -0.5555  0.1484
 8503TIP3    H225474   4.396   1.781   2.481 -0.1478  2.7111 -1.0505
 8504TIP3   OH225475   2.859   2.273   0.788  1.2963  0.2695  0.6001
 8504TIP3    H125476   2.816   2.340   0.736 -0.3097 -0.1102  1.3887
 8504TIP3    H225477   2.881   2.316   0.870 -2.4464 -0.7657  2.3532
 8505TIP3   OH225478   4.145   4.900   4.358  0.2775 -0.3988 -0.0432
 8505TIP3    H125479   4.180   4.822   4.400 -0.1959 -0.2695  0.6023
 8505TIP3    H225480   4.110   4.869   4.275  2.9962 -0.3384 -1.3074
 8506TIP3   OH225481   3.630   3.171   3.479 -0.2818  0.5979 -0.5382
 8506TIP3    H125482   3.716   3.148   3.516 -0.6711  0.7312  0.4878
 8506TIP3    H225483   3.576   3.094   3.497 -0.2097  0.2348 -1.8012
 8507TIP3   OH225484   3.454   2.654   2.778  0.1747 -0.2779 -0.0977
 8507TIP3    H125485   3.530   2.703   2.810  0.0686 -0.8342  1.0319
 8507TIP3    H225486   3.440   2.688   2.690  0.7743  0.9430  0.2541
 8508TIP3   OH225487   2.759   4.274   5.048 -0.0230 -0.1418  0.2052
 8508TIP3    H125488   2.766   4.286   5.142 -1.1947 -1.2760  0.4608
 8508TIP3    H225489   2.785   4.358   5.011  1.3819  0.0227  1.4808
 8509TIP3   OH225490   6.629   5.897   2.870 -0.0367  0.2995  0.3688
 8509TIP3    H125491   6.685   5.874   2.944  0.1900 -1.3194 -0.2762
 8509TIP3    H225492   6.587   5.979   2.897  0.8146  0.2841  1.8528
 8510TIP3   OH225493   6.070   0.898   0.857 -0.2505 -0.4746 -0.9808
 8510TIP3    H125494   6.148   0.949   0.834 -0.0280 -0.0839  0.5103
 8510TIP3    H225495   5.997   0.957   0.840  0.0604  0.8765  1.7924
 8511TIP3   OH225496   5.071   2.032   4.820  0.1465 -0.4051 -0.4036
 8511TIP3    H125497   5.017   2.052   4.897 -0.2467  0.4184 -0.8771
 8511TIP3    H225498   5.125   2.110   4.809 -2.0551  0.9409 -2.8402
 8512TIP3   OH225499   0.502   3.419   5.269 -0.0848  0.1685 -0.0968
 8512TIP3    H125500   0.529   3.427   5.177  1.7043  1.2856  0.4758
 8512TIP3    H225501   0.442   3.492   5.283  0.9392  1.0049  0.0291
 8513TIP3   OH225502   0.688   2.312   2.858  0.1430  0.2860  0.1741
 8513TIP3    H125503   0.663   2.352   2.774 -3.9246  0.7555  1.3916
 8513TIP3    H225504   0.637   2.231   2.862  0.4474  0.1581  2.0913
 8514TIP3   OH225505   4.237   3.234   1.863 -0.5795 -0.0762  0.2232
 8514TIP3    H125506   4.160   3.285   1.887  0.1595 -0.2113  3.3343
 8514TIP3    H225507   4.311   3.280   1.903  0.5503 -1.6765  0.1094
 8515TIP3   OH225508   1.489   4.284   3.026  0.2674 -0.0612 -0.8068
 8515TIP3    H125509   1.582   4.265   3.012  0.2751 -2.0310  1.3886
 8515TIP3    H225510   1.443   4.215   2.980 -0.0274 -0.3582 -0.0729
 8516TIP3   OH225511   5.787   6.223   1.296 -0.3156  0.5956  0.2183
 8516TIP3    H125512   5.751   6.193   1.380  0.1862  0.9860  0.5800
 8516TIP3    H225513   5.881   6.227   1.310  0.1144 -2.0614 -1.2621
 8517TIP3   OH225514   3.366   3.361   1.434  0.4822  0.5263  0.3839
 8517TIP3    H125515   3.373   3.421   1.508 -3.8298  1.9374 -0.0692
 8517TIP3    H225516   3.391   3.412   1.358 -1.5608  1.3467  0.2004
 8518TIP3   OH225517   1.130   6.399   0.104 -0.2171 -0.1584  0.6038
 8518TIP3    H125518   1.045   6.426   0.138 -0.4404  1.4446 -1.0854
 8518TIP3    H225519   1.113   6.370   0.015  1.3011  3.0601 -0.9002
 8519TIP3   OH225520   3.681   2.707   0.444 -0.3923  0.0380 -0.3977
 8519TIP3    H125521   3.773   2.711   0.472 -0.1002  1.3983 -1.4465
 8519TIP3    H225522   3.656   2.616   0.460  1.5645 -0.7462 -1.3370
 8520TIP3   OH225523   0.769   6.523   3.593 -0.0297 -0.0927 -0.2887
 8520TIP3    H125524   0.701   6.588   3.613 -2.2165 -1.3014 -3.0935
 8520TIP3    H225525   0.837   6.573   3.548  0.1680  0.8448  0.9822
 8521TIP3   OH225526   3.094   3.861   1.817 -0.4555 -0.1744  0.0562
 8521TIP3    H125527   3.007   3.860   1.777 -0.5426  2.4041  0.0099
 8521TIP3    H225528   3.085   3.809   1.896 -1.6368 -1.1383 -0.6779
 8522TIP3   OH225529   0.385   2.873   3.986 -0.5543 -0.4700 -0.2361
 8522TIP3    H125530   0.330   2.950   3.968 -0.4267 -0.3804 -0.2419
 8522TIP3    H225531   0.434   2.896   4.065 -0.5041 -0.5386 -0.2476
 8523TIP3   OH225532   0.479   3.492   2.901 -0.0844  0.1634  0.1556
 8523TIP3    H125533   0.390   3.456   2.897 -0.4191  1.1247 -1.7572
 8523TIP3    H225534   0.522   3.459   2.822  0.6275  1.3266  0.0381
 8524TIP3   OH225535   2.815   4.521   0.796  0.2570  0.0576 -0.1666
 8524TIP3    H125536   2.891   4.525   0.737  1.2015  0.0023  1.0167
 8524TIP3    H225537   2.772   4.606   0.785  1.1710  0.5572  0.0150
 8525TIP3   OH225538   3.310   2.193   5.381 -0.6392  0.0457  0.0597
 8525TIP3    H125539   3.397   2.213   5.414  0.1543 -2.8393 -0.0236
 8525TIP3    H225540   3.314   2.214   5.287 -0.1542  0.2352  0.1213
 8526TIP3   OH225541   5.540   2.354   2.857  0.0783 -0.2370 -0.4751
 8526TIP3    H125542   5.479   2.404   2.911 -0.4889 -0.7008 -0.6704
 8526TIP3    H225543   5.617   2.410   2.848 -0.5119  0.5612 -0.6260
 8527TIP3   OH225544   3.762   2.251   4.322 -0.3087  0.0058 -0.5893
 8527TIP3    H125545   3.795   2.260   4.411 -0.4880 -1.1517 -0.3988
 8527TIP3    H225546   3.667   2.248   4.331 -0.4178  1.3844 -0.9718
 8528TIP3   OH225547   1.248   5.593   1.437 -0.0671 -0.1543  0.8859
 8528TIP3    H125548   1.313   5.613   1.503  1.8409  1.2561 -1.2688
 8528TIP3    H225549   1.284   5.517   1.390  0.6109  1.2393 -0.9525
 8529TIP3   OH225550   3.475   2.119   0.300  0.0626  0.0296  0.4986
 8529TIP3    H125551   3.386   2.096   0.274 -0.5705  1.9695  0.8278
 8529TIP3    H225552   3.478   2.214   0.294  1.8511  0.0562  1.3414
 8530TIP3   OH225553   5.671   4.152   5.026  0.1406 -0.3635  0.5035
 8530TIP3    H125554   5.643   4.106   5.104  1.1355 -1.5827  0.1794
 8530TIP3    H225555   5.590   4.184   4.986 -0.4774 -0.8886  1.3078
 8531TIP3   OH225556   3.645   3.877   2.321  0.2249  0.3122 -0.3203
 8531TIP3    H125557   3.615   3.815   2.387 -0.1565 -1.3093 -1.9563
 8531TIP3    H225558   3.565   3.907   2.278  0.4527  1.5302  0.0491
 8532TIP3   OH225559   4.551   6.162   3.642 -0.3574 -0.1857 -0.2091
 8532TIP3    H125560   4.569   6.070   3.663  1.2951 -0.0064 -0.6944
 8532TIP3    H225561   4.570   6.209   3.723  0.4120 -0.1042 -0.4323
 8533TIP3   OH225562   5.610   0.792   3.591  0.3358 -0.1375  0.1006
 8533TIP3    H125563   5.530   0.742   3.606  0.8772 -1.1760 -0.3610
 8533TIP3    H225564   5.604   0.818   3.499  0.0855  0.6109  0.3233
 8534TIP3   OH225565   3.114   4.788   0.735  0.1214 -0.1350 -0.6592
 8534TIP3    H125566   3.155   4.723   0.792  1.9869  2.7039  1.5185
 8534TIP3    H225567   3.182   4.808   0.670  0.2318  0.8156 -0.2620
 8535TIP3   OH225568   4.988   4.336   0.574 -0.1997 -0.2451  0.5191
 8535TIP3    H125569   4.987   4.255   0.523 -0.9027 -0.2533  0.5345
 8535TIP3    H225570   5.024   4.402   0.515  2.2463 -0.9220  1.0991
 8536TIP3   OH225571   3.836   4.565   5.791 -0.0211 -0.0616  0.0257
 8536TIP3    H125572   3.767   4.511   5.830  0.6420 -0.7555  0.2549
 8536TIP3    H225573   3.900   4.577   5.861  0.4062  0.0280 -0.3746
 8537TIP3   OH225574   0.892   0.055   1.593 -0.2578 -0.0021 -0.2160
 8537TIP3    H125575   0.933  -0.027   1.619  0.1722 -0.0502 -1.0148
 8537TIP3    H225576   0.936   0.122   1.646  0.1832 -0.1655 -0.3695
 8538TIP3   OH225577   6.244   3.902   4.633  0.1499  0.3247  0.0735
 8538TIP3    H125578   6.321   3.852   4.605  0.2142  0.1977  0.4691
 8538TIP3    H225579   6.274   3.992   4.634  0.1969  0.3131 -0.0900
 8539TIP3   OH225580   2.410   2.789   0.161  0.5758  0.0407 -0.3383
 8539TIP3    H125581   2.396   2.883   0.175  0.2407  0.0278 -0.5780
 8539TIP3    H225582   2.465   2.762   0.235 -1.5550 -0.1260  1.2791
 8540TIP3   OH225583   4.309   6.688   0.942 -0.0734  0.1508  0.1803
 8540TIP3    H125584   4.236   6.749   0.943  0.8773  1.3302 -0.0198
 8540TIP3    H225585   4.356   6.708   0.861  1.7005  0.9367  1.3600
 8541TIP3   OH225586   5.884   6.709   0.053 -0.2513 -0.2758  0.3043
 8541TIP3    H125587   5.804   6.673   0.016 -2.0220  3.0109  0.4821
 8541TIP3    H225588   5.948   6.706  -0.018 -0.6026 -2.5356  0.0128
 8542TIP3   OH225589   0.965   4.409   0.527 -0.4041 -0.1932 -0.3899
 8542TIP3    H125590   0.880   4.445   0.549 -0.3418  0.8665 -1.7396
 8542TIP3    H225591   0.977   4.335   0.587 -0.9180  1.4924  1.9170
 8543TIP3   OH225592   5.649   4.345   4.710  0.0966 -0.1890 -0.4303
 8543TIP3    H125593   5.572   4.331   4.765 -0.4243  2.2683 -0.4365
 8543TIP3    H225594   5.634   4.288   4.634 -1.8186  0.3564 -0.5126
 8544TIP3   OH225595   1.137   4.524   3.326 -0.2703  0.0359  0.7030
 8544TIP3    H125596   1.185   4.585   3.270  1.3106 -0.3051  1.6392
 8544TIP3    H225597   1.120   4.448   3.270  0.6076  0.0168  0.4491
 8545TIP3   OH225598   0.864   6.089   3.950 -0.2969  0.2800 -0.0893
 8545TIP3    H125599   0.815   6.044   4.018  2.8061 -2.4054  0.6735
 8545TIP3    H225600   0.872   6.025   3.880  0.9542  1.0663 -0.7159
 8546TIP3   OH225601   6.377   6.802   1.851  0.0849  0.2891 -0.4039
 8546TIP3    H125602   6.309   6.816   1.785 -1.2409 -0.8195  0.6548
 8546TIP3    H225603   6.432   6.732   1.815 -1.2976 -1.1054  0.1071
 8547TIP3   OH225604   2.459   2.740   5.209 -0.0992 -0.4800  0.0329
 8547TIP3    H125605   2.414   2.793   5.144  1.2413 -0.3861 -0.8704
 8547TIP3    H225606   2.390   2.707   5.266 -1.2700 -0.2542 -1.2154
 8548TIP3   OH225607   5.090   2.241   3.076 -0.1610 -0.2169 -0.2362
 8548TIP3    H125608   5.094   2.296   3.154  1.4993 -0.1527 -0.3249
 8548TIP3    H225609   5.018   2.276   3.025  0.7552  1.8249 -0.2223
 8549TIP3   OH225610   7.076   3.331   5.593 -0.2016  0.4906  0.9947
 8549TIP3    H125611   7.034   3.264   5.539 -2.0505  0.7175  2.0608
 8549TIP3    H225612   7.162   3.294   5.615 -1.1906 -1.5954  1.6134
 8550TIP3   OH225613   6.857   0.592   1.505 -0.2108 -0.5845 -0.4353
 8550TIP3    H125614   6.869   0.685   1.524 -0.1539 -1.0072  1.7830
 8550TIP3    H225615   6.843   0.551   1.590  2.0181 -2.9736 -1.1016
 8551TIP3   OH225616   4.045   1.392   2.600 -0.4954 -0.4002  0.1638
 8551TIP3    H125617   3.951   1.376   2.592 -0.6521  0.1588  0.8162
 8551TIP3    H225618   4.080   1.365   2.515 -1.1441 -1.2458  0.1447
 8552TIP3   OH225619   2.321   3.324   0.977  0.2106  0.0443  0.3898
 8552TIP3    H125620   2.259   3.385   0.939 -1.3088 -0.7310  1.5049
 8552TIP3    H225621   2.267   3.255   1.016  1.8251 -2.0730 -0.8341
 8553TIP3   OH225622   5.366   3.046   1.516  0.1041 -0.0614 -0.3974
 8553TIP3    H125623   5.427   3.027   1.588 -0.7820  0.4595  0.5188
 8553TIP3    H225624   5.307   2.971   1.514 -0.4620  0.3632  0.0672
 8554TIP3   OH225625   5.639   5.232   1.533  0.0917  0.7378 -0.4115
 8554TIP3    H125626   5.638   5.313   1.584  0.2951 -0.2284  1.1969
 8554TIP3    H225627   5.586   5.252   1.456 -2.6437  1.4881  1.4816
 8555TIP3   OH225628   2.258   1.131   1.610 -0.3035 -0.0757  0.2399
 8555TIP3    H125629   2.338   1.110   1.657 -0.3953 -0.0710  0.4015
 8555TIP3    H225630   2.202   1.054   1.622 -0.5477  0.1557  0.6295
 8556TIP3   OH225631   5.978   5.905   4.042 -0.1587  0.5455  0.1461
 8556TIP3    H125632   5.903   5.894   3.982 -2.1707 -0.4079  2.6159
 8556TIP3    H225633   6.044   5.845   4.008 -1.4889 -0.4729 -0.7917
 8557TIP3   OH225634   4.002   6.221   1.070  0.0623 -0.1940 -0.3803
 8557TIP3    H125635   4.009   6.131   1.103 -2.1459 -0.2919 -0.0166
 8557TIP3    H225636   3.908   6.236   1.062  0.0102  3.4756  3.5648
 8558TIP3   OH225637   0.569   1.236   3.074  0.2570 -0.0950  0.5614
 8558TIP3    H125638   0.563   1.207   3.165  1.1743  1.4498  1.1566
 8558TIP3    H225639   0.649   1.196   3.041  1.2091  1.2018  1.2024
 8559TIP3   OH225640   4.662   1.386   4.295  0.9202  0.1854 -0.5060
 8559TIP3    H125641   4.635   1.298   4.320  1.5102  0.3681  0.8559
 8559TIP3    H225642   4.752   1.393   4.326  0.1575  2.0542  1.4970
 8560TIP3   OH225643   6.419   6.143   2.375  0.3102 -0.0135  0.4312
 8560TIP3    H125644   6.374   6.225   2.356  2.7231  1.6209  1.2876
 8560TIP3    H225645   6.473   6.162   2.452  2.7072 -1.6593 -0.7088
 8561TIP3   OH225646   5.324   0.371   4.463  0.4205 -0.1125  0.0341
 8561TIP3    H125647   5.362   0.316   4.531 -0.0025 -0.5955 -0.1146
 8561TIP3    H225648   5.282   0.442   4.512  0.6901 -0.0923  0.2416
 8562TIP3   OH225649   4.784   4.171   0.940 -0.2281  0.3739 -0.0692
 8562TIP3    H125650   4.776   4.156   0.846 -1.1467  1.3357 -0.1618
 8562TIP3    H225651   4.695   4.192   0.969 -0.0556 -0.4567  1.1211
 8563TIP3   OH225652   2.409   5.318   4.126  0.0846 -0.2197  0.0235
 8563TIP3    H125653   2.445   5.351   4.044  0.1617  1.2763  0.6335
 8563TIP3    H225654   2.321   5.289   4.103 -0.0681  0.6250 -0.4937
 8564TIP3   OH225655   0.044   2.153   5.157  0.1573  0.3128 -0.3556
 8564TIP3    H125656   0.007   2.188   5.238  2.0731 -0.4308  0.9098
 8564TIP3    H225657   0.010   2.064   5.152  1.2609 -0.1894  0.5281
 8565TIP3   OH225658   4.381   5.147   3.617 -0.2731 -0.5639 -0.1978
 8565TIP3    H125659   4.369   5.086   3.544 -2.1644 -0.3113 -0.1325
 8565TIP3    H225660   4.293   5.180   3.636  0.0724 -0.9763  2.4998
 8566TIP3   OH225661   2.692   1.950   3.844 -0.1093 -0.0226 -0.1340
 8566TIP3    H125662   2.751   1.903   3.903 -1.8532 -1.1033  0.8092
 8566TIP3    H225663   2.748   2.017   3.804  1.4342 -0.0954  1.7469
 8567TIP3   OH225664   0.079   4.805   5.175 -0.2013  0.1310 -0.0849
 8567TIP3    H125665   0.119   4.823   5.090  0.6785 -0.6122  0.1607
 8567TIP3    H225666   0.018   4.734   5.159 -1.2446  1.0666 -0.3997
 8568TIP3   OH225667   3.046   3.219   3.526  0.5835  0.1210 -0.2420
 8568TIP3    H125668   3.134   3.253   3.541  0.6836 -0.2850  0.0913
 8568TIP3    H225669   3.037   3.146   3.587 -0.9482  1.7986  1.7104
 8569TIP3   OH225670   4.469   4.719   4.971  0.6175  0.4782 -0.3510
 8569TIP3    H125671   4.463   4.625   4.953  2.4322 -0.0900  1.6881
 8569TIP3    H225672   4.393   4.756   4.925 -0.0759 -1.9312 -1.3308
 8570TIP3   OH225673  -0.009   2.449   0.683  0.0581  0.4443  0.1267
 8570TIP3    H125674   0.063   2.432   0.743 -1.4430 -0.0837  1.8827
 8570TIP3    H225675  -0.015   2.370   0.629 -1.6849 -1.3845  2.7255
 8571TIP3   OH225676   6.206   1.607   1.427  0.0812 -0.2739  0.4225
 8571TIP3    H125677   6.136   1.550   1.393 -0.2472  0.3333  0.0660
 8571TIP3    H225678   6.162   1.691   1.444  1.0456  0.6283 -1.3464
 8572TIP3   OH225679   2.931   4.495   2.851 -0.1455 -0.0383  0.0248
 8572TIP3    H125680   2.909   4.559   2.918  2.0044  0.0077  0.7596
 8572TIP3    H225681   2.982   4.429   2.897  0.6161 -0.4739 -1.3873
 8573TIP3   OH225682   4.102   0.378   0.863 -0.1428  0.1768 -0.0064
 8573TIP3    H125683   4.140   0.346   0.945 -1.9664 -0.6265  0.5656
 8573TIP3    H225684   4.086   0.299   0.811 -0.9588  0.4937 -0.2565
 8574TIP3   OH225685   1.780   6.201   3.094 -0.6568 -0.4044 -0.3748
 8574TIP3    H125686   1.840   6.226   3.164 -0.4260  1.1498 -1.0847
 8574TIP3    H225687   1.798   6.108   3.078  1.8863  0.0941 -0.8409
 8575TIP3   OH225688   3.098   1.703   2.042  0.8749 -0.3609  0.4387
 8575TIP3    H125689   3.018   1.750   2.023  0.1108 -2.2116 -1.2548
 8575TIP3    H225690   3.161   1.734   1.977  0.5578 -1.1625 -0.2709
 8576TIP3   OH225691   0.695   4.198   5.822 -0.1934  0.2747 -0.0609
 8576TIP3    H125692   0.616   4.151   5.850 -0.0163  0.5233  0.8906
 8576TIP3    H225693   0.749   4.203   5.901  0.8310  0.0126 -0.7205
 8577TIP3   OH225694   5.673   3.210   0.482  0.1423 -0.4462  0.2038
 8577TIP3    H125695   5.623   3.138   0.521 -1.9225  0.3188 -0.8989
 8577TIP3    H225696   5.719   3.171   0.408  0.7570 -1.0509  0.8938
 8578TIP3   OH225697   6.492   2.207   3.713  0.8364  0.6529 -0.0881
 8578TIP3    H125698   6.536   2.150   3.650 -0.7887 -0.8563  0.0849
 8578TIP3    H225699   6.549   2.208   3.789  1.9154  1.0098 -0.8725
 8579TIP3   OH225700   7.174   1.785   4.976 -0.2537  0.0621  0.4261
 8579TIP3    H125701   7.080   1.796   4.986  0.0016  0.6322  2.8818
 8579TIP3    H225702   7.200   1.857   4.919 -1.5371 -1.4355 -2.1964
 8580TIP3   OH225703   5.330   4.139   3.366  0.3349  0.2780 -0.1873
 8580TIP3    H125704   5.297   4.141   3.456  0.6564  0.4393 -0.0709
 8580TIP3    H225705   5.260   4.179   3.314  1.4811  3.3837  0.4483
 8581TIP3   OH225706   2.907   4.303   3.255  0.3912  0.8037 -0.1147
 8581TIP3    H125707   2.859   4.221   3.238  1.8571 -0.0542 -0.2787
 8581TIP3    H225708   2.924   4.301   3.349  0.0754  1.1388 -0.0466
 8582TIP3   OH225709   0.653   1.450   3.396  0.4565  0.5543  0.4038
 8582TIP3    H125710   0.605   1.532   3.405 -0.2656  0.3714 -1.3711
 8582TIP3    H225711   0.734   1.475   3.351 -1.1983 -0.0400 -3.2352
 8583TIP3   OH225712   5.456   3.420   0.749  0.0778  0.6191  0.2137
 8583TIP3    H125713   5.483   3.405   0.659  0.9400  0.7782  0.4415
 8583TIP3    H225714   5.367   3.383   0.754 -0.1453  1.0052 -0.8031
 8584TIP3   OH225715   6.548   4.941   1.278 -0.0810  0.6168  0.0223
 8584TIP3    H125716   6.559   4.981   1.191  3.6167 -1.4588 -0.6533
 8584TIP3    H225717   6.496   4.863   1.261  0.7097  0.1688 -0.3526
 8585TIP3   OH225718   6.106   3.520   5.490 -0.0926  0.1704 -0.3024
 8585TIP3    H125719   6.099   3.436   5.536 -0.4236  0.3482 -0.0271
 8585TIP3    H225720   6.197   3.547   5.504  0.2877 -0.5921 -1.1866
 8586TIP3   OH225721   6.005   2.846   5.091  0.3555 -0.0108 -0.8431
 8586TIP3    H125722   6.075   2.888   5.140  0.3365 -1.5933  0.6724
 8586TIP3    H225723   6.012   2.881   5.002  3.1010 -0.1764 -0.7654
 8587TIP3   OH225724   7.106   4.703   4.330  0.4522 -0.0613 -0.2569
 8587TIP3    H125725   7.035   4.718   4.268  1.6521  1.3246 -1.3946
 8587TIP3    H225726   7.183   4.689   4.275  1.9192  2.9649  0.8014
 8588TIP3   OH225727   1.950   2.035   2.063 -0.1007 -0.4631 -0.3713
 8588TIP3    H125728   1.888   2.029   1.991 -0.4042  0.5702 -0.2082
 8588TIP3    H225729   1.943   1.950   2.107 -0.6302 -0.7389 -0.9710
 8589TIP3   OH225730   5.377   2.527   0.988  0.1376  0.1267 -0.3532
 8589TIP3    H125731   5.372   2.433   0.973 -1.6266  0.2666 -0.8761
 8589TIP3    H225732   5.358   2.537   1.081 -2.6878  0.0912 -0.8351
 8590TIP3   OH225733   2.974   1.143   1.619 -0.4985 -0.1079  0.2300
 8590TIP3    H125734   2.979   1.238   1.631  0.7677 -0.1248 -0.0788
 8590TIP3    H225735   3.015   1.107   1.697 -0.8563 -0.3998  0.2835
 8591TIP3   OH225736   1.196   6.384   2.917 -0.3292  0.2264  0.3703
 8591TIP3    H125737   1.194   6.288   2.916 -0.3670  0.2020  1.5087
 8591TIP3    H225738   1.112   6.409   2.957 -0.6038  0.7602 -0.5203
 8592TIP3   OH225739   3.058   5.850   4.854 -0.7462 -0.1126  0.0447
 8592TIP3    H125740   3.092   5.913   4.791 -0.1188 -1.3737 -0.8993
 8592TIP3    H225741   3.122   5.779   4.856 -0.4802  0.0910  2.4902
 8593TIP3   OH225742   5.371   2.383   5.075 -0.5622  0.5738  0.3411
 8593TIP3    H125743   5.293   2.337   5.105 -0.0122  0.6644  2.0117
 8593TIP3    H225744   5.441   2.317   5.077 -0.3331  0.8064  0.1383
 8594TIP3   OH225745   2.016   1.837   3.719  0.3829 -0.1580 -0.7977
 8594TIP3    H125746   2.000   1.743   3.722  0.2260 -0.1152  0.8270
 8594TIP3    H225747   2.012   1.859   3.626 -1.1762 -1.4717 -1.0917
 8595TIP3   OH225748   2.683   5.991   2.165 -0.2430  0.4198 -0.3196
 8595TIP3    H125749   2.760   5.980   2.221  0.0539  1.9179 -0.4040
 8595TIP3    H225750   2.609   5.990   2.226 -0.2198 -1.2646 -0.2604
 8596TIP3   OH225751   6.302   6.614   4.123  0.2268 -0.1469 -0.3763
 8596TIP3    H125752   6.263   6.698   4.097  2.0637  0.2206 -2.3216
 8596TIP3    H225753   6.325   6.626   4.215 -1.4308  0.7023 -0.0403
 8597TIP3   OH225754   0.292   4.393   5.848 -0.0346 -0.5398 -0.2459
 8597TIP3    H125755   0.297   4.316   5.904 -2.6977 -0.5189  0.1354
 8597TIP3    H225756   0.210   4.436   5.872  0.2092  1.1419 -2.0808
 8598TIP3   OH225757   0.765   6.646   5.731  0.4555  0.4502 -0.7865
 8598TIP3    H125758   0.813   6.729   5.733  1.4214 -0.1131  0.6234
 8598TIP3    H225759   0.709   6.654   5.654 -0.0370  2.7094 -0.2796
 8599TIP3   OH225760   5.162   1.826   1.327  0.5782  0.3576 -0.0353
 8599TIP3    H125761   5.088   1.818   1.266  0.9048  0.3406 -0.4316
 8599TIP3    H225762   5.239   1.825   1.271  0.8436  1.3583  0.2926
 8600TIP3   OH225763   2.958   3.209   5.902 -0.0212  0.6600  0.4100
 8600TIP3    H125764   2.946   3.304   5.894 -0.3907  0.5133 -1.0984
 8600TIP3    H225765   2.886   3.172   5.851  1.0484 -0.4114 -0.3722
 8601TIP3   OH225766   4.329   5.126   3.939 -0.2198 -0.4274 -0.4767
 8601TIP3    H125767   4.420   5.111   3.913 -0.3897 -1.4660 -0.4766
 8601TIP3    H225768   4.296   5.188   3.874  0.3308 -0.4476 -0.7803
 8602TIP3   OH225769   5.488   2.112   4.747  0.2664  0.8440 -0.0923
 8602TIP3    H125770   5.408   2.152   4.782  0.8996  1.9445  0.1582
 8602TIP3    H225771   5.549   2.113   4.821  0.5855  0.2296 -0.3440
 8603TIP3   OH225772   3.893   3.652   2.602  0.1940 -0.2088  0.2434
 8603TIP3    H125773   3.891   3.651   2.698  1.5466  0.0839  0.2968
 8603TIP3    H225774   3.802   3.635   2.576 -0.4734  1.0378  1.5777
 8604TIP3   OH225775   5.010   2.130   5.534  0.5541 -0.2590  0.2730
 8604TIP3    H125776   5.087   2.124   5.592 -0.1862 -3.0114  1.0773
 8604TIP3    H225777   4.935   2.125   5.593 -0.2780  0.7850 -0.6494
 8605TIP3   OH225778   0.693   3.382   3.067  0.1032  0.3151 -0.5899
 8605TIP3    H125779   0.774   3.433   3.060  0.0508  1.3704  3.8166
 8605TIP3    H225780   0.625   3.439   3.030  0.4519  2.4998  1.8916
 8606TIP3   OH225781   2.399   3.628   2.158  0.3519  1.0356 -0.1580
 8606TIP3    H125782   2.455   3.704   2.145  0.5344  1.2424  1.5439
 8606TIP3    H225783   2.458   3.553   2.153  0.4159  1.1066 -0.4613
 8607TIP3   OH225784   6.482   4.238   0.620  0.4658  0.6330 -0.1751
 8607TIP3    H125785   6.543   4.172   0.586  0.5305  0.7915 -0.3694
 8607TIP3    H225786   6.521   4.266   0.703 -0.3564 -0.6961  0.7002
 8608TIP3   OH225787   5.766   2.882   5.784  0.4685 -0.4769  0.1213
 8608TIP3    H125788   5.812   2.809   5.744 -0.9850 -1.1222 -0.4480
 8608TIP3    H225789   5.695   2.841   5.833  0.5549  0.4778  1.0766
 8609TIP3   OH225790   2.329   3.516   4.531  0.1647 -0.0318 -0.5885
 8609TIP3    H125791   2.383   3.566   4.470  0.3357 -1.1547 -1.3962
 8609TIP3    H225792   2.255   3.485   4.478 -0.2852 -0.0766  0.0517
 8610TIP3   OH225793   6.391   2.359   2.970  0.1411  0.3690 -0.6889
 8610TIP3    H125794   6.371   2.304   2.894 -1.4630 -1.3459  0.8926
 8610TIP3    H225795   6.475   2.399   2.947 -0.3146  0.0190 -3.3958
 8611TIP3   OH225796   5.622   0.574   0.856  0.3739  0.2172  0.0166
 8611TIP3    H125797   5.673   0.644   0.898 -0.2293  0.4242  0.4176
 8611TIP3    H225798   5.613   0.507   0.924  3.1056 -1.4363 -1.1086
 8612TIP3   OH225799   3.798   5.635   4.393  0.2992 -0.5030  0.3243
 8612TIP3    H125800   3.876   5.580   4.386  1.2535  0.7412  0.8003
 8612TIP3    H225801   3.729   5.584   4.352  1.5943 -1.1860 -1.1014
 8613TIP3   OH225802   6.198   0.726   5.151  0.2052 -0.3450  0.0518
 8613TIP3    H125803   6.279   0.725   5.099 -0.5768  0.4684 -1.2368
 8613TIP3    H225804   6.128   0.720   5.086 -0.8295  1.1478  0.9724
 8614TIP3   OH225805   6.421   2.337   1.630 -0.0223  0.4187  0.3199
 8614TIP3    H125806   6.396   2.252   1.668  2.3417 -0.1045  0.8837
 8614TIP3    H225807   6.385   2.335   1.541  1.4767 -1.9936 -0.3310
 8615TIP3   OH225808   3.852   3.634   3.243 -0.3088 -0.2320 -0.1984
 8615TIP3    H125809   3.786   3.579   3.199  0.1445 -0.3387 -0.7565
 8615TIP3    H225810   3.844   3.719   3.200  0.7117 -0.5715 -1.0759
 8616TIP3   OH225811   6.693   0.696   1.319 -0.0336  0.6518  0.0022
 8616TIP3    H125812   6.749   0.709   1.242 -0.4458 -1.8882 -0.8381
 8616TIP3    H225813   6.751   0.657   1.384 -0.1023  1.0862  0.3258
 8617TIP3   OH225814   0.254   3.991   3.294 -0.0952  0.3563  0.1861
 8617TIP3    H125815   0.338   4.012   3.255 -0.4318  1.8920  0.2173
 8617TIP3    H225816   0.199   3.963   3.220 -0.9039  3.7812 -0.7112
 8618TIP3   OH225817   4.287   5.963   3.448  0.3436  0.1337 -0.2095
 8618TIP3    H125818   4.300   6.056   3.462 -0.7818  0.3104 -0.2433
 8618TIP3    H225819   4.250   5.957   3.359 -0.7886 -0.2223  0.2695
 8619TIP3   OH225820   2.718   2.510   4.082  0.0636  0.3395 -0.6092
 8619TIP3    H125821   2.705   2.429   4.031  0.2150  0.5774 -1.0293
 8619TIP3    H225822   2.768   2.482   4.159  0.2667  0.0598 -0.8379
 8620TIP3   OH225823   5.389   2.543   3.856  0.0771  0.2968 -0.4120
 8620TIP3    H125824   5.391   2.570   3.764 -0.1524 -0.4549 -0.6454
 8620TIP3    H225825   5.442   2.608   3.902 -0.3678  1.0599 -0.9742
 8621TIP3   OH225826   2.028   2.442   0.220  0.2357  0.7087 -0.5036
 8621TIP3    H125827   2.121   2.466   0.223 -0.1121  2.2994 -1.5923
 8621TIP3    H225828   1.998   2.470   0.134 -0.8111 -1.6667 -1.0033
 8622TIP3   OH225829   6.520   5.836   3.213 -0.5731  0.0309  0.3704
 8622TIP3    H125830   6.612   5.814   3.226 -0.7651 -1.5932 -0.7730
 8622TIP3    H225831   6.481   5.833   3.300  0.2875 -0.0944  0.7531
 8623TIP3   OH225832   3.917   6.265   3.657  0.9554  0.2496 -0.8898
 8623TIP3    H125833   3.917   6.170   3.645 -0.7598  0.2434 -1.0712
 8623TIP3    H225834   3.956   6.278   3.743 -0.6286 -0.7891  0.0476
 8624TIP3   OH225835   6.340   4.303   3.243  0.2244 -0.3206  0.3886
 8624TIP3    H125836   6.356   4.336   3.155  0.3138 -0.2095  0.4454
 8624TIP3    H225837   6.427   4.292   3.280  0.2505 -1.8301 -0.0632
 8625TIP3   OH225838   5.956   6.077   2.103  0.0034  0.2704  0.0885
 8625TIP3    H125839   5.936   6.099   2.194  0.6952 -0.4892  0.4393
 8625TIP3    H225840   5.875   6.038   2.070 -0.5219  1.3037  0.1147
 8626TIP3   OH225841   2.585   2.965   1.078 -0.1409  0.6074  0.0908
 8626TIP3    H125842   2.554   2.883   1.039 -0.1136 -0.0089  1.3114
 8626TIP3    H225843   2.584   3.028   1.006  2.1817 -1.0292 -1.5078
 8627TIP3   OH225844   4.149   2.310   0.779 -0.0359  0.6841 -0.9880
 8627TIP3    H125845   4.084   2.258   0.827  0.7238 -0.7452 -1.4300
 8627TIP3    H225846   4.128   2.293   0.687 -0.4286  2.0415 -1.1616
 8628TIP3   OH225847   0.928   2.282   1.597 -0.6306  0.1072  0.0183
 8628TIP3    H125848   1.017   2.248   1.582 -0.3735 -0.9716  3.2060
 8628TIP3    H225849   0.876   2.245   1.526  0.7254 -2.5740  0.3059
 8629TIP3   OH225850   6.432   6.107   4.903  0.2441  0.6783  0.5438
 8629TIP3    H125851   6.361   6.084   4.843  0.9446  0.5739 -0.2603
 8629TIP3    H225852   6.431   6.202   4.907  0.8414  0.7289 -0.4329
 8630TIP3   OH225853   4.501   6.651   1.368 -0.0913  0.6489  0.4107
 8630TIP3    H125854   4.568   6.584   1.357 -1.5127 -0.9099  0.7730
 8630TIP3    H225855   4.484   6.683   1.279  1.3372  1.3044  0.3575
 8631TIP3   OH225856   2.052   6.610   3.675 -0.1507  0.2711 -0.8451
 8631TIP3    H125857   2.049   6.635   3.582 -0.7190  0.1115 -0.8701
 8631TIP3    H225858   2.111   6.674   3.715  1.1399 -0.4380 -1.5556
 8632TIP3   OH225859   0.614   6.761   3.616  0.1708 -0.1957 -0.4875
 8632TIP3    H125860   0.600   6.789   3.707 -0.6594  0.8460 -0.9161
 8632TIP3    H225861   0.691   6.811   3.587  0.9376 -1.1271 -0.1343
 8633TIP3   OH225862   7.071   2.357   4.189 -0.2522 -0.2767  0.3738
 8633TIP3    H125863   7.115   2.429   4.236 -1.1098 -1.4114  3.1489
 8633TIP3    H225864   6.991   2.342   4.239  0.5838 -4.0722  0.8608
 8634TIP3   OH225865   1.653   4.807   5.786 -0.3934 -0.4103  0.0156
 8634TIP3    H125866   1.650   4.806   5.690 -1.9088 -1.0782  0.0433
 8634TIP3    H225867   1.665   4.715   5.810 -3.2314 -0.7419  0.4785
 8635TIP3   OH225868   6.690   4.011   1.563 -0.3662  0.0034 -0.2028
 8635TIP3    H125869   6.611   3.961   1.547 -0.0715 -0.4382 -0.2984
 8635TIP3    H225870   6.686   4.084   1.501 -0.0301 -0.7841 -1.1749
 8636TIP3   OH225871   3.770   3.228   2.221  0.2352  0.3764 -0.4189
 8636TIP3    H125872   3.697   3.280   2.188 -0.0446 -0.0864 -0.5421
 8636TIP3    H225873   3.787   3.164   2.152 -0.9152 -1.1674  0.6401
 8637TIP3   OH225874   5.664   4.148   4.488  0.4261  0.0423 -0.1603
 8637TIP3    H125875   5.753   4.156   4.454  0.0806 -1.0619 -1.4272
 8637TIP3    H225876   5.609   4.147   4.410 -0.3713 -3.1936  0.3051
 8638TIP3   OH225877   0.528   3.810   0.260 -0.7266 -0.0588 -0.3177
 8638TIP3    H125878   0.456   3.873   0.255 -1.2662 -0.7422 -2.2106
 8638TIP3    H225879   0.572   3.818   0.175  0.9698 -0.2178  0.5164
 8639TIP3   OH225880   1.877   1.219   2.554 -0.0416  0.1162  0.4381
 8639TIP3    H125881   1.823   1.203   2.477  0.8981 -0.2224 -0.1730
 8639TIP3    H225882   1.957   1.259   2.519  1.2846 -1.9507  0.9532
 8640TIP3   OH225883   6.276   0.023   3.486 -0.1349  0.0867  0.3466
 8640TIP3    H125884   6.189  -0.005   3.460  0.6333 -1.5611 -0.6459
 8640TIP3    H225885   6.288  -0.015   3.573  0.4840 -1.9206 -0.5460
 8641TIP3   OH225886   0.373   3.143   0.193 -0.2789 -0.4008  0.8185
 8641TIP3    H125887   0.364   3.081   0.121 -1.5648 -0.9155  1.3939
 8641TIP3    H225888   0.395   3.089   0.268 -1.9605 -0.2853  1.4493
 8642TIP3   OH225889   1.437   4.914   0.680 -0.1528 -0.2849 -0.0827
 8642TIP3    H125890   1.395   4.916   0.767 -0.0823 -0.2464 -0.0495
 8642TIP3    H225891   1.505   4.981   0.685  0.7423 -1.1984  0.2760
 8643TIP3   OH225892   2.659   1.290   1.472 -0.6239  0.4280  0.1271
 8643TIP3    H125893   2.691   1.200   1.466  0.9336  0.9193  0.4871
 8643TIP3    H225894   2.653   1.307   1.566 -1.5589  0.4925  0.0585
 8644TIP3   OH225895   0.746   3.236   3.742  0.3346 -0.3716 -0.0052
 8644TIP3    H125896   0.829   3.246   3.697  0.9479  0.1943  1.1889
 8644TIP3    H225897   0.697   3.172   3.691  1.1413 -0.0357 -1.2261
 8645TIP3   OH225898   0.153   1.450   3.806 -0.5236  0.5191  0.1455
 8645TIP3    H125899   0.221   1.386   3.828 -2.3395 -2.3793 -2.0411
 8645TIP3    H225900   0.095   1.450   3.882 -0.0226  0.3036  0.5389
 8646TIP3   OH225901   2.118   3.741   3.321 -0.2452  0.1062 -0.4579
 8646TIP3    H125902   2.139   3.824   3.365  0.4728  0.0139 -0.6112
 8646TIP3    H225903   2.186   3.732   3.254  0.0918 -0.9461  0.0102
 8647TIP3   OH225904   2.901   4.552   3.560 -0.2760 -0.3573 -0.3924
 8647TIP3    H125905   2.878   4.609   3.487  0.1996  0.8803  0.3897
 8647TIP3    H225906   2.997   4.558   3.566 -0.1851 -1.4884 -0.4802
 8648TIP3   OH225907   5.285   1.953   3.555  0.3153 -0.3423  0.2206
 8648TIP3    H125908   5.283   1.882   3.491 -0.9561 -0.4699  0.3725
 8648TIP3    H225909   5.354   2.012   3.524  0.3985 -0.9124 -0.7066
 8649TIP3   OH225910   1.547   3.475   4.153  0.1009 -0.1321 -0.7457
 8649TIP3    H125911   1.504   3.512   4.230 -0.1675  0.1242 -1.0169
 8649TIP3    H225912   1.637   3.456   4.183  0.3976  1.1897 -0.7287
 8650TIP3   OH225913   4.345   3.865   5.847  0.0664 -0.1100  0.0053
 8650TIP3    H125914   4.375   3.814   5.772  1.9880  0.8573  0.0469
 8650TIP3    H225915   4.277   3.922   5.812  0.6185  0.0006 -0.9193
 8651TIP3   OH225916   2.389   0.443   2.971  0.0482  0.1143 -0.3380
 8651TIP3    H125917   2.352   0.523   3.009 -0.0904 -0.2349  0.2621
 8651TIP3    H225918   2.314   0.385   2.959  0.2460 -0.1888 -0.1195
 8652TIP3   OH225919   3.061   1.125   1.135 -0.1587 -0.1211 -0.7992
 8652TIP3    H125920   3.155   1.130   1.116  0.2063 -0.6153  0.7593
 8652TIP3    H225921   3.020   1.180   1.068  1.2889  0.5065 -1.2032
 8653TIP3   OH225922   3.654   2.595   5.705 -0.6450  0.8631  0.7731
 8653TIP3    H125923   3.719   2.651   5.748 -0.1567 -0.5473  1.9644
 8653TIP3    H225924   3.674   2.601   5.612  0.8919  0.8455  1.0837
 8654TIP3   OH225925   5.492   5.108   3.936  0.5396  0.4978 -0.2796
 8654TIP3    H125926   5.527   5.145   4.017  0.6725  0.0021 -0.1144
 8654TIP3    H225927   5.569   5.079   3.887  0.3343 -2.6533  1.0433
 8655TIP3   OH225928   4.248   2.012   5.084  0.1794 -0.6089  0.5297
 8655TIP3    H125929   4.335   2.052   5.083 -0.6864  1.3983 -1.2498
 8655TIP3    H225930   4.231   1.991   4.992 -2.2366  1.4521  0.4250
 8656TIP3   OH225931   6.729   5.696   4.812 -0.3277  0.1786  0.2564
 8656TIP3    H125932   6.679   5.711   4.892  0.3030  0.5075  0.5965
 8656TIP3    H225933   6.724   5.779   4.764 -1.6382 -0.3588 -0.5902
 8657TIP3   OH225934   4.403   5.927   4.354 -0.2448  0.0582  0.2071
 8657TIP3    H125935   4.430   5.972   4.434 -2.3855 -1.4164  1.8467
 8657TIP3    H225936   4.315   5.960   4.336 -0.5600 -1.0711 -0.3988
 8658TIP3   OH225937   2.882   0.705   0.269  0.0849  0.3228 -0.1823
 8658TIP3    H125938   2.895   0.798   0.288  0.7117 -0.0241  1.2419
 8658TIP3    H225939   2.926   0.660   0.341  0.4693 -1.0967 -1.2562
 8659TIP3   OH225940   3.791   3.615   2.054  0.3003  0.0224  0.0610
 8659TIP3    H125941   3.872   3.599   2.101  0.5236  0.7786 -0.0527
 8659TIP3    H225942   3.777   3.710   2.062 -1.5754 -0.3263  1.7263
 8660TIP3   OH225943   2.976   0.533   4.670 -0.1727 -0.5943 -0.0740
 8660TIP3    H125944   3.034   0.596   4.713 -0.9396  0.6440 -0.7537
 8660TIP3    H225945   2.985   0.452   4.720 -1.0107  0.7362  2.4138
 8661TIP3   OH225946   1.765   3.921   0.222 -0.5920  0.0726 -0.1174
 8661TIP3    H125947   1.849   3.960   0.248 -0.1747 -0.8011 -0.1275
 8661TIP3    H225948   1.722   3.989   0.171 -0.2886  0.8668  0.6491
 8662TIP3   OH225949   3.523   2.295   4.801  0.6940 -0.4514  0.7498
 8662TIP3    H125950   3.536   2.347   4.881 -0.3179  0.1461  0.5403
 8662TIP3    H225951   3.474   2.219   4.831 -1.0843  0.5354  0.4785
 8663TIP3   OH225952   6.910   1.614   0.458 -0.5185 -0.1199 -0.0633
 8663TIP3    H125953   6.994   1.590   0.419 -0.9129 -1.0745 -0.3594
 8663TIP3    H225954   6.876   1.532   0.494 -0.3629  0.6362  1.9375
 8664TIP3   OH225955   2.717   1.785   0.478 -0.4558  0.3121  0.0260
 8664TIP3    H125956   2.638   1.809   0.429  0.5089 -0.7091 -2.1523
 8664TIP3    H225957   2.742   1.699   0.443  1.6269  0.6142  0.6501
 8665TIP3   OH225958   0.793   6.681   0.094  0.1713 -0.1935  0.7030
 8665TIP3    H125959   0.808   6.774   0.108  2.2813 -0.6736  1.9418
 8665TIP3    H225960   0.863   6.654   0.035 -1.0068 -0.8446 -0.4580
 8666TIP3   OH225961   2.232   6.007   1.084 -0.9242  0.4125  0.1915
 8666TIP3    H125962   2.175   6.059   1.027 -0.0322  1.6569  0.3902
 8666TIP3    H225963   2.183   5.999   1.166 -1.5284 -0.0004 -0.2022
 8667TIP3   OH225964   0.789   1.039   2.321 -0.0115 -0.0850  0.2084
 8667TIP3    H125965   0.694   1.027   2.330 -0.4708  0.9202 -2.4392
 8667TIP3    H225966   0.818   0.966   2.267  0.9361 -0.8545  1.6851
 8668TIP3   OH225967   0.217   3.099   2.761 -0.1284 -0.4648  0.8120
 8668TIP3    H125968   0.139   3.152   2.744 -0.8474 -1.2830  1.4224
 8668TIP3    H225969   0.290   3.159   2.752 -0.5698 -0.2276 -2.5446
 8669TIP3   OH225970   0.961   5.661   2.435 -0.0733 -0.0940  0.0744
 8669TIP3    H125971   0.899   5.598   2.399  0.4148 -2.5448  3.1001
 8669TIP3    H225972   0.908   5.720   2.488 -0.0497 -1.4303  1.6612
 8670TIP3   OH225973   1.583   2.249   4.891 -0.2147 -0.5663 -0.1390
 8670TIP3    H125974   1.640   2.310   4.937  0.1759 -1.5278  0.6875
 8670TIP3    H225975   1.497   2.263   4.930 -0.1372 -0.5023  0.0096
 8671TIP3   OH225976   4.416   1.360   1.278  0.3453 -0.1586  0.1992
 8671TIP3    H125977   4.348   1.315   1.328  1.2509 -1.4067  0.3850
 8671TIP3    H225978   4.476   1.393   1.345 -0.3806  1.5060  0.0687
 8672TIP3   OH225979   1.747   2.639   0.933 -0.0824 -0.1469 -0.1762
 8672TIP3    H125980   1.804   2.715   0.916  0.9171 -0.3733  1.8910
 8672TIP3    H225981   1.675   2.674   0.986  0.0375 -0.5112  0.2336
 8673TIP3   OH225982   3.069   1.605   3.919 -0.0146  0.9525 -0.3859
 8673TIP3    H125983   3.162   1.599   3.897  0.0651 -0.6407  0.2681
 8673TIP3    H225984   3.063   1.579   4.010 -1.3618 -1.6652 -1.1172
 8674TIP3   OH225985   5.098   4.902   1.759 -0.2405  0.0690 -0.0081
 8674TIP3    H125986   5.029   4.946   1.709 -1.1510 -2.5439 -1.2420
 8674TIP3    H225987   5.086   4.932   1.849  0.3657  3.6350 -0.9444
 8675TIP3   OH225988   3.654   4.653   1.857  0.5964  0.1861 -0.2147
 8675TIP3    H125989   3.674   4.746   1.872 -3.1375  1.1204 -0.0766
 8675TIP3    H225990   3.622   4.650   1.766  0.6873 -0.9805 -0.2173
 8676TIP3   OH225991   1.355   6.495   0.199 -0.0910  0.2932  0.1984
 8676TIP3    H125992   1.296   6.427   0.166  0.9311 -0.7788  0.5010
 8676TIP3    H225993   1.319   6.519   0.284 -0.9416  0.7592 -0.2846
 8677TIP3   OH225994   3.055   3.929   0.212 -0.0666  0.4334  0.1069
 8677TIP3    H125995   2.997   3.961   0.142 -1.1465 -1.1634  0.2176
 8677TIP3    H225996   3.143   3.954   0.183 -0.6266  1.1426 -1.0733
 8678TIP3   OH225997   6.601   5.948   2.605 -0.1056 -0.0192 -0.6774
 8678TIP3    H125998   6.650   6.030   2.601  3.7438 -2.1237 -1.5745
 8678TIP3    H225999   6.618   5.913   2.692  0.2660 -0.9146 -1.0929
 8679TIP3   OH226000   1.627   0.829   4.999 -0.3636  0.4763 -0.2021
 8679TIP3    H126001   1.600   0.744   5.033  0.3840  0.5286  0.5514
 8679TIP3    H226002   1.652   0.879   5.077  0.6944  0.8459 -0.7671
 8680TIP3   OH226003   2.514   5.726   3.252  0.3096 -0.5212 -0.2757
 8680TIP3    H126004   2.419   5.717   3.247  0.1575  0.1906  0.9473
 8680TIP3    H226005   2.536   5.693   3.339  1.2555 -1.1386 -0.7335
 8681TIP3   OH226006   4.830   3.395   1.088 -0.1814 -0.3611 -0.0856
 8681TIP3    H126007   4.844   3.316   1.037 -0.6741 -0.2147 -0.4511
 8681TIP3    H226008   4.836   3.466   1.024 -1.3455 -0.2117 -0.0430
 8682TIP3   OH226009   6.681   6.200   4.603 -0.2664 -0.6563  0.2653
 8682TIP3    H126010   6.703   6.123   4.655 -0.9089 -0.2073  1.2353
 8682TIP3    H226011   6.599   6.233   4.641  0.3378  0.8849  0.3331
 8683TIP3   OH226012   2.501   3.744   3.327  0.3861 -0.2741  0.1545
 8683TIP3    H126013   2.564   3.784   3.387  0.6417 -1.0129  0.3849
 8683TIP3    H226014   2.462   3.818   3.281 -0.4686  0.4089  1.8608
 8684TIP3   OH226015   4.096   4.152   5.182 -0.2855  0.0665 -0.8463
 8684TIP3    H126016   4.034   4.198   5.125 -0.6010  1.6252  0.6619
 8684TIP3    H226017   4.174   4.140   5.127 -0.8357  0.8186 -1.8374
 8685TIP3   OH226018   0.721   5.949   2.770 -0.0957 -0.1248 -0.0997
 8685TIP3    H126019   0.693   5.925   2.682 -1.1617 -0.0090  0.1989
 8685TIP3    H226020   0.813   5.923   2.774  0.1360  0.4039 -1.4390
 8686TIP3   OH226021   6.967   0.877   3.481 -0.1865  0.3266  0.0420
 8686TIP3    H126022   6.961   0.931   3.560  1.4373 -0.1575  0.5298
 8686TIP3    H226023   7.010   0.932   3.417  1.4444 -0.3050  0.5307
 8687TIP3   OH226024   6.314   2.534   2.471 -0.0171  0.1366  0.1877
 8687TIP3    H126025   6.324   2.510   2.379 -0.9662  0.0847  0.0878
 8687TIP3    H226026   6.371   2.474   2.518 -0.1481 -0.3810 -0.3027
 8688TIP3   OH226027   6.789   2.720   2.512 -0.0227  0.0239  0.1733
 8688TIP3    H126028   6.746   2.648   2.466 -0.8845  1.5434 -1.5461
 8688TIP3    H226029   6.882   2.698   2.510 -0.3139 -1.3011  0.2279
 8689TIP3   OH226030   2.411   4.199   2.540 -0.7875  0.2110 -0.0810
 8689TIP3    H126031   2.375   4.285   2.517 -0.8900 -0.1172 -1.1927
 8689TIP3    H226032   2.353   4.166   2.609 -0.3700  1.2955  0.8185
 8690TIP3   OH226033   3.708   1.524   1.406 -0.1259 -0.1130  0.2589
 8690TIP3    H126034   3.755   1.447   1.375 -0.7716 -1.0174  1.4367
 8690TIP3    H226035   3.772   1.571   1.459  0.2008  0.0449 -0.2696
 8691TIP3   OH226036   5.976   4.305   2.852 -0.5257  0.2372 -0.1075
 8691TIP3    H126037   6.050   4.355   2.815 -0.9372  1.2019  0.3579
 8691TIP3    H226038   5.968   4.230   2.793 -0.0768  0.8593 -0.9987
 8692TIP3   OH226039   6.546   2.328   2.174  0.0523  0.0489 -0.3973
 8692TIP3    H126040   6.527   2.276   2.252  1.0563  2.4447  1.5902
 8692TIP3    H226041   6.540   2.266   2.101  0.1974 -2.5577  1.6766
 8693TIP3   OH226042   6.361   3.683   5.046  0.7137  0.7200  0.4637
 8693TIP3    H126043   6.433   3.625   5.070 -0.5195 -0.8823  0.4928
 8693TIP3    H226044   6.368   3.756   5.108  0.4654 -0.9714  2.6443
 8694TIP3   OH226045   5.555   6.686   4.581  0.4806 -0.0895 -0.4520
 8694TIP3    H126046   5.645   6.652   4.580  0.8695  0.8991 -0.3039
 8694TIP3    H226047   5.560   6.765   4.634 -0.2440  0.5846 -1.3559
 8695TIP3   OH226048   4.473   3.750   0.899 -0.2510  0.5323 -0.4409
 8695TIP3    H126049   4.464   3.768   0.993  1.6080 -1.9646  0.3408
 8695TIP3    H226050   4.551   3.799   0.873  0.7875 -0.7953  0.0289
 8696TIP3   OH226051   6.193   6.778   3.311 -0.1111 -0.8442  0.2007
 8696TIP3    H126052   6.212   6.857   3.361  0.8130  1.2794 -3.1976
 8696TIP3    H226053   6.276   6.729   3.311  0.3330 -0.1090 -0.4524
 8697TIP3   OH226054   4.883   5.661   3.173  0.0915  0.2686  0.7922
 8697TIP3    H126055   4.796   5.698   3.157 -1.1866 -1.9752  2.2146
 8697TIP3    H226056   4.886   5.582   3.120  1.8119  0.9437 -0.2192
 8698TIP3   OH226057   3.057   5.150   4.103 -0.2023 -0.0460  0.4023
 8698TIP3    H126058   3.107   5.095   4.163 -1.7927 -0.3370  1.5392
 8698TIP3    H226059   2.996   5.197   4.160 -0.9393  0.5771 -0.8783
 8699TIP3   OH226060   4.363   0.259   5.419 -0.6784 -0.2948 -0.5483
 8699TIP3    H126061   4.453   0.237   5.443  0.1209  1.4409 -1.8069
 8699TIP3    H226062   4.338   0.328   5.480 -1.9953 -2.1824  1.2019
 8700TIP3   OH226063   6.929   3.168   5.419 -0.4381  0.0698 -0.2681
 8700TIP3    H126064   6.952   3.098   5.480 -1.9187 -0.0436  0.2025
 8700TIP3    H226065   6.937   3.127   5.332  0.0633 -0.2534 -0.0768
 8701TIP3   OH226066   2.550   6.713   3.799  0.2440 -0.4553  0.3520
 8701TIP3    H126067   2.558   6.783   3.734  1.1206 -0.4929  0.4061
 8701TIP3    H226068   2.552   6.758   3.883 -0.7453 -0.4205  0.3697
 8702TIP3   OH226069   1.968   0.756   5.024  0.5997 -0.0685  0.2767
 8702TIP3    H126070   2.015   0.753   4.941 -0.8387 -0.4635 -0.5633
 8702TIP3    H226071   1.890   0.703   5.009 -0.6329  1.3774  1.2707
 8703TIP3   OH226072   4.915   2.824   0.352  0.1702  0.1924  0.2844
 8703TIP3    H126073   4.960   2.875   0.285  2.2556 -2.2083 -0.3177
 8703TIP3    H226074   4.919   2.879   0.430 -1.4363  2.6317 -1.2506
 8704TIP3   OH226075   2.458   5.928   2.745  0.0793 -0.3646 -0.0540
 8704TIP3    H126076   2.533   5.911   2.687 -0.4647  0.4448 -1.0346
 8704TIP3    H226077   2.408   5.995   2.699 -0.7049 -0.1522  1.0890
 8705TIP3   OH226078   2.755   3.736   3.247  0.3231  0.4617 -0.1297
 8705TIP3    H126079   2.674   3.685   3.259 -0.1234  0.9405 -1.0119
 8705TIP3    H226080   2.799   3.731   3.332 -1.3545  1.4131  0.8479
 8706TIP3   OH226081   4.104   4.468   2.110  0.3425  0.0979  0.1116
 8706TIP3    H126082   4.026   4.510   2.074  0.4209  1.9490  1.9347
 8706TIP3    H226083   4.072   4.389   2.154 -0.6810  1.2929  1.5979
 8707TIP3   OH226084   5.090   5.311   3.917  0.4990 -0.1662  0.0006
 8707TIP3    H126085   5.154   5.271   3.976  0.5136  0.4146  0.3911
 8707TIP3    H226086   5.128   5.395   3.894  0.7271 -0.5873 -1.2609
 8708TIP3   OH226087   3.941   0.944   1.337  0.1253 -0.5791 -0.8640
 8708TIP3    H126088   3.938   1.034   1.368  0.3920 -1.2684  1.3450
 8708TIP3    H226089   4.035   0.926   1.324  0.0512 -0.4577 -1.6102
 8709TIP3   OH226090   4.975   5.035   1.262 -0.0419 -0.0132  0.1507
 8709TIP3    H126091   4.897   4.978   1.265  0.1520 -0.3754 -1.1149
 8709TIP3    H226092   5.011   5.031   1.350 -0.1369 -1.7306  0.1393
 8710TIP3   OH226093   2.432   6.282   1.607 -0.1249 -0.2376 -0.1532
 8710TIP3    H126094   2.385   6.351   1.653 -0.1035 -0.7950  0.7184
 8710TIP3    H226095   2.370   6.252   1.540 -0.9203 -0.7681  0.8026
 8711TIP3   OH226096   2.844   3.310   4.617  0.6833 -0.6470 -0.3202
 8711TIP3    H126097   2.777   3.355   4.668  0.3086 -1.7822  0.2247
 8711TIP3    H226098   2.798   3.276   4.541  0.9832 -0.0529 -0.7758
 8712TIP3   OH226099   1.762   6.162   3.456  0.3936 -0.0528 -0.2970
 8712TIP3    H126100   1.785   6.241   3.408 -0.3830 -0.0045 -0.5985
 8712TIP3    H226101   1.751   6.095   3.389  2.7370 -0.8784  0.0629
 8713TIP3   OH226102   3.867   3.399   5.588  0.1204  0.0869  0.3855
 8713TIP3    H126103   3.866   3.311   5.549 -2.7895  0.3039 -0.2209
 8713TIP3    H226104   3.944   3.441   5.549 -0.1273 -1.1973 -1.6616
 8714TIP3   OH226105   6.054   2.818   4.475  0.2885 -0.0099  0.3100
 8714TIP3    H126106   6.032   2.802   4.566  2.5794 -1.8648  0.6524
 8714TIP3    H226107   6.091   2.907   4.474 -0.1722  0.1948  1.0804
 8715TIP3   OH226108   2.842   1.805   2.083  0.0220  0.9567 -0.0070
 8715TIP3    H126109   2.770   1.863   2.105 -1.7682 -0.8205 -0.8248
 8715TIP3    H226110   2.843   1.739   2.153  0.3467  0.5334 -0.3988
 8716TIP3   OH226111   3.075   3.901   1.425  0.1631  0.1712  0.2341
 8716TIP3    H126112   3.117   3.836   1.482 -1.3379  0.1612  1.3876
 8716TIP3    H226113   3.110   3.882   1.338  2.2134 -0.0728  1.0522
 8717TIP3   OH226114   1.877   5.510   0.180 -0.1328 -0.0822  0.0771
 8717TIP3    H126115   1.900   5.552   0.263 -1.7315 -0.4147  0.7310
 8717TIP3    H226116   1.943   5.542   0.119  0.9452  0.3664  1.4083
 8718TIP3   OH226117   6.171   3.984   3.616  0.0403 -0.4819 -0.2622
 8718TIP3    H126118   6.185   4.022   3.530 -0.5664  1.7361  0.5486
 8718TIP3    H226119   6.081   4.007   3.638  0.1424 -1.1282  0.9075
 8719TIP3   OH226120   4.980   5.419   0.271  0.1476  0.6145  0.2331
 8719TIP3    H126121   5.010   5.330   0.287  1.2927  0.8620 -0.3791
 8719TIP3    H226122   5.024   5.472   0.338 -0.5712  0.7212  0.6309
 8720TIP3   OH226123   2.479   6.390   4.455 -0.1106 -0.3578  0.2694
 8720TIP3    H126124   2.500   6.476   4.492  1.8437 -1.0265  0.8857
 8720TIP3    H226125   2.445   6.408   4.368  2.5840  1.0308 -0.6137
 8721TIP3   OH226126   4.602   5.694   0.049  0.0029 -0.0970  0.0789
 8721TIP3    H126127   4.641   5.607   0.047  0.9654  0.2272  2.2447
 8721TIP3    H226128   4.542   5.692   0.124  0.7440  1.3401  0.7513
 8722TIP3   OH226129   7.014   3.886   3.997 -0.0384  0.7122  0.0910
 8722TIP3    H126130   7.106   3.891   4.021  0.2606 -0.0988 -0.8169
 8722TIP3    H226131   6.984   3.977   3.997  0.8525  1.0130  0.0446
 8723TIP3   OH226132   0.651   2.934   1.003 -0.1292  0.2963  0.2713
 8723TIP3    H126133   0.741   2.926   1.034  0.6833  1.7768 -1.4482
 8723TIP3    H226134   0.637   2.857   0.948  0.3362  0.3890  0.0212
 8724TIP3   OH226135   6.776   1.719   5.572 -0.0555 -0.2789  0.0121
 8724TIP3    H126136   6.781   1.717   5.477 -1.6087 -0.8600 -0.0920
 8724TIP3    H226137   6.784   1.627   5.598 -0.8368 -0.2645  0.3408
 8725TIP3   OH226138   4.473   1.060   5.001  0.2818  0.2727  0.2001
 8725TIP3    H126139   4.505   1.003   5.071  0.2611 -0.0473 -0.0541
 8725TIP3    H226140   4.473   1.148   5.041  0.0849  0.0645  0.6608
 8726TIP3   OH226141   6.404   4.091   4.481 -0.6423 -0.0916 -1.1543
 8726TIP3    H126142   6.497   4.108   4.464 -0.0791 -1.9680 -0.1148
 8726TIP3    H226143   6.375   4.166   4.532  0.9102 -0.5475  0.4796
 8727TIP3   OH226144   3.753   2.608   2.610 -0.4317 -0.9102  0.3422
 8727TIP3    H126145   3.740   2.524   2.655 -0.4846 -0.2848  1.5499
 8727TIP3    H226146   3.826   2.648   2.656 -0.0103 -0.5502 -0.6251
 8728TIP3   OH226147   0.462   5.407   5.454  0.0178 -0.1697  0.2158
 8728TIP3    H126148   0.395   5.349   5.490 -1.4480 -1.2355 -3.6960
 8728TIP3    H226149   0.421   5.494   5.455 -1.5218 -0.7650 -1.8822
 8729TIP3   OH226150   6.065   2.846   0.534  0.1275  0.3075  0.5289
 8729TIP3    H126151   6.119   2.779   0.576  1.9672  0.5349 -1.2971
 8729TIP3    H226152   5.996   2.796   0.490  0.2709 -0.2031  0.8697
 8730TIP3   OH226153   1.095   2.792   2.858 -0.3063  0.2289  0.4049
 8730TIP3    H126154   1.140   2.773   2.940 -0.0239  1.3120  0.5259
 8730TIP3    H226155   1.044   2.871   2.877 -0.6681  0.1736 -0.3079
 8731TIP3   OH226156   5.446   1.896   5.780 -0.0926  0.0450  0.1628
 8731TIP3    H126157   5.529   1.924   5.818  0.3001 -0.1262 -0.5467
 8731TIP3    H226158   5.386   1.890   5.854  0.6710 -0.3595  0.7653
 8732TIP3   OH226159   2.983   4.251   2.509  0.0395 -0.0257  0.1447
 8732TIP3    H126160   2.892   4.267   2.482  0.2655 -1.3468 -1.5974
 8732TIP3    H226161   3.019   4.339   2.524 -1.2470  0.5762 -0.1491
 8733TIP3   OH226162   5.502   4.396   4.428 -0.2340  0.3297  0.8302
 8733TIP3    H126163   5.446   4.349   4.490  1.6019 -2.9239  0.2282
 8733TIP3    H226164   5.502   4.342   4.350  2.3890  1.1033  0.2202
 8734TIP3   OH226165   3.240   3.499   4.549 -0.1679 -0.3291 -0.2102
 8734TIP3    H126166   3.307   3.432   4.536  0.6687  0.2010  1.0924
 8734TIP3    H226167   3.160   3.462   4.512  0.2684 -2.0385  0.4894
 8735TIP3   OH226168   4.859   3.916   3.097  0.3738 -0.0202  0.0244
 8735TIP3    H126169   4.824   3.887   3.181 -1.0719 -0.8627 -0.8065
 8735TIP3    H226170   4.867   4.011   3.106 -1.7764  0.1865  0.4697
 8736TIP3   OH226171   0.007   5.414   0.562  0.2766 -0.5151  0.0849
 8736TIP3    H126172   0.092   5.373   0.546  0.2295 -0.8833  0.7713
 8736TIP3    H226173   0.013   5.450   0.650 -0.0944 -0.0781 -0.0633
 8737TIP3   OH226174   4.178   3.289   2.581  0.2604  0.2884  0.3852
 8737TIP3    H126175   4.110   3.272   2.647  0.0147  1.5773  0.4939
 8737TIP3    H226176   4.199   3.382   2.593  0.0522  0.6072 -1.5048
 8738TIP3   OH226177   4.116   2.009   5.318 -0.3058  0.0311 -0.2198
 8738TIP3    H126178   4.165   2.013   5.236 -1.6988  0.4801 -1.0771
 8738TIP3    H226179   4.028   1.983   5.291 -1.0684  1.2057  0.9989
 8739TIP3   OH226180   4.855   4.928   3.234 -0.8381  0.2134  0.3235
 8739TIP3    H126181   4.843   5.002   3.294  2.1537 -1.0164  2.7456
 8739TIP3    H226182   4.947   4.935   3.207 -1.2264 -1.1654 -1.5288
 8740TIP3   OH226183   5.305   3.970   5.157 -0.1875 -0.6575  0.0013
 8740TIP3    H126184   5.257   3.887   5.158 -0.3032 -0.6617 -1.6854
 8740TIP3    H226185   5.320   3.988   5.064 -1.1170  1.7452  0.2215
 8741TIP3   OH226186   6.323   6.631   4.397 -0.0192  0.0260 -0.2472
 8741TIP3    H126187   6.314   6.712   4.448 -1.1956 -0.3691  0.1956
 8741TIP3    H226188   6.243   6.582   4.415 -0.6446  0.0123 -2.7690
 8742TIP3   OH226189   6.622   1.075   5.881 -0.6676  0.1230 -0.2479
 8742TIP3    H126190   6.537   1.099   5.919 -0.7129 -2.8263  1.7840
 8742TIP3    H226191   6.601   1.012   5.812 -0.1374 -0.3540  0.0207
 8743TIP3   OH226192   0.528   3.107   2.058 -0.5835 -0.3339  0.4522
 8743TIP3    H126193   0.574   3.112   2.141  0.0416 -2.3969  0.2965
 8743TIP3    H226194   0.566   3.177   2.005  1.2502 -0.9489  0.8767
 8744TIP3   OH226195   2.876   5.295   1.684  0.5192 -0.3820 -0.3573
 8744TIP3    H126196   2.868   5.381   1.644  0.2554  0.4063  1.3124
 8744TIP3    H226197   2.955   5.258   1.645 -0.1763 -0.0245 -2.1949
 8745TIP3   OH226198   1.551   1.283   4.485  0.1172  0.2735 -0.1267
 8745TIP3    H126199   1.490   1.303   4.415 -0.9157 -0.4367  0.5378
 8745TIP3    H226200   1.608   1.360   4.491  1.0101 -0.1333 -2.5027
 8746TIP3   OH226201   5.081   2.071   1.436 -0.8218  0.3944  0.0547
 8746TIP3    H126202   5.119   1.990   1.403  1.2683  1.0312  0.7158
 8746TIP3    H226203   5.020   2.100   1.368  0.7404 -0.1137 -1.6219
 8747TIP3   OH226204   3.620   2.571   1.214 -0.0451 -0.1483  0.0670
 8747TIP3    H126205   3.565   2.495   1.198 -0.8189  0.3775  0.1470
 8747TIP3    H226206   3.584   2.639   1.156  0.1563  0.3709  0.5453
 8748TIP3   OH226207   1.763   1.577   0.574  0.1431 -0.1909 -0.3256
 8748TIP3    H126208   1.788   1.511   0.510  1.8843  1.2355 -1.1921
 8748TIP3    H226209   1.831   1.644   0.568 -0.6404  0.8791  1.7256
 8749TIP3   OH226210   4.600   4.588   3.381 -0.5768  0.6208  0.4692
 8749TIP3    H126211   4.664   4.532   3.337 -0.4683 -0.0192  1.4074
 8749TIP3    H226212   4.611   4.568   3.474 -0.7681  1.9716  0.8073
 8750TIP3   OH226213   0.270   4.800   4.303 -0.4426 -0.1830  0.5424
 8750TIP3    H126214   0.215   4.734   4.260  0.5546 -1.0736  0.6210
 8750TIP3    H226215   0.230   4.811   4.390 -0.5750 -0.7197  0.5513
 8751TIP3   OH226216   1.371   3.154   4.332 -0.1723  0.2231  1.1617
 8751TIP3    H126217   1.297   3.184   4.386  0.4959  2.3591  0.9940
 8751TIP3    H226218   1.447   3.198   4.370  0.8453 -1.0042  0.5961
 8752TIP3   OH226219   1.606   1.201   1.039 -0.2040  0.1022 -0.0836
 8752TIP3    H126220   1.643   1.130   1.092  0.2007  0.0218 -0.4743
 8752TIP3    H226221   1.522   1.166   1.008  0.1919 -0.3653 -0.6278
 8753TIP3   OH226222   4.616   2.301   1.724 -0.1288  0.0454  0.5771
 8753TIP3    H126223   4.615   2.361   1.649 -1.0140 -0.0874  0.4732
 8753TIP3    H226224   4.526   2.301   1.756 -0.5366 -2.3657 -0.3326
 8754TIP3   OH226225   6.411   6.298   4.612  0.2988 -0.3430 -0.3420
 8754TIP3    H126226   6.351   6.368   4.637  0.6756 -0.7530  1.9356
 8754TIP3    H226227   6.359   6.241   4.555 -1.2209 -0.2013  0.8382
 8755TIP3   OH226228   0.685   4.223   0.357 -0.0102 -0.2795 -0.0167
 8755TIP3    H126229   0.729   4.169   0.423  1.1512  2.7849  1.8846
 8755TIP3    H226230   0.608   4.257   0.402 -0.2955  0.3117 -0.9288
 8756TIP3   OH226231   6.932   5.971   2.791 -0.1506  0.4477 -0.0212
 8756TIP3    H126232   6.900   6.051   2.833  1.5203  0.3067  1.6517
 8756TIP3    H226233   6.935   5.906   2.862 -1.6015 -1.1718 -1.3697
 8757TIP3   OH226234   3.759   4.786   0.119  0.2035  0.1517  0.2945
 8757TIP3    H126235   3.794   4.861   0.070  1.1477 -1.1459 -1.1255
 8757TIP3    H226236   3.664   4.792   0.109  0.3301  0.5125 -0.8521
 8758TIP3   OH226237   5.966   4.223   3.987 -0.4994 -0.6968 -0.4705
 8758TIP3    H126238   5.962   4.270   3.904  1.0315  1.4115  0.5461
 8758TIP3    H226239   5.958   4.291   4.054 -1.0265 -2.2449  1.1233
 8759TIP3   OH226240   2.641   1.876   2.882 -0.3103 -0.1340  0.2624
 8759TIP3    H126241   2.666   1.890   2.973 -1.5157 -0.6986  0.6968
 8759TIP3    H226242   2.594   1.956   2.857  1.2078  0.6199 -0.3303
 8760TIP3   OH226243   1.218   6.510   4.033 -0.0425  0.1287 -0.2875
 8760TIP3    H126244   1.203   6.556   3.950  1.5925 -0.2797 -0.8531
 8760TIP3    H226245   1.130   6.492   4.067 -0.7550  2.5136 -0.6710
 8761TIP3   OH226246   3.400   3.725   3.533  0.5303  0.1260 -0.4636
 8761TIP3    H126247   3.375   3.658   3.469  1.7243 -0.4991 -0.3084
 8761TIP3    H226248   3.356   3.805   3.502 -0.5262 -0.6095 -0.9176
 8762TIP3   OH226249   2.639   6.790   0.213 -0.1269 -0.3854  0.2983
 8762TIP3    H126250   2.615   6.811   0.303 -1.6651 -0.9283  0.0420
 8762TIP3    H226251   2.617   6.697   0.204  2.1064 -0.9376  0.0140
 8763TIP3   OH226252   1.885   6.101   5.499 -0.3636 -0.0524  0.4679
 8763TIP3    H126253   1.948   6.030   5.487  0.2862  0.3119  1.6596
 8763TIP3    H226254   1.914   6.170   5.440 -1.1441 -0.8342 -0.8924
 8764TIP3   OH226255   0.714   5.506   5.657 -0.1214  0.0910 -0.2423
 8764TIP3    H126256   0.782   5.439   5.664  1.0305  1.0187 -1.8649
 8764TIP3    H226257   0.632   5.457   5.651  0.4087 -1.0681  1.2138
 8765TIP3   OH226258   5.705   1.892   5.840 -0.5419 -1.1573  0.0093
 8765TIP3    H126259   5.703   1.799   5.818  0.4662 -1.3409  0.6157
 8765TIP3    H226260   5.796   1.909   5.866 -0.7954 -0.0900  0.2736
 8766TIP3   OH226261   4.428   0.309   3.881 -0.1683 -0.4995 -0.7767
 8766TIP3    H126262   4.355   0.366   3.906  0.7499  0.1058  0.6208
 8766TIP3    H226263   4.478   0.361   3.819  0.8719  0.4254  0.7725
 8767TIP3   OH226264   5.088   0.969   1.395  0.3046  0.2459  0.2852
 8767TIP3    H126265   5.158   1.022   1.432  0.3516 -0.9127  1.9872
 8767TIP3    H226266   5.084   0.994   1.303  3.3009 -0.0194 -0.0015
 8768TIP3   OH226267   0.823   0.594   1.756 -0.6896 -0.2846 -0.2558
 8768TIP3    H126268   0.765   0.550   1.693  0.8410 -1.6202 -0.7691
 8768TIP3    H226269   0.894   0.629   1.702 -1.5314  2.3989  0.2058
 8769TIP3   OH226270   3.222   6.825   2.891  0.2129 -0.2750 -0.1403
 8769TIP3    H126271   3.134   6.788   2.881  0.4877 -0.7635 -0.8021
 8769TIP3    H226272   3.275   6.777   2.828  0.9851 -0.0702  0.3523
 8770TIP3   OH226273   1.797   3.265   0.634  0.4827 -0.6490 -0.1529
 8770TIP3    H126274   1.841   3.200   0.580 -1.2610 -0.3549 -2.0613
 8770TIP3    H226275   1.839   3.348   0.613 -0.7097 -0.4029 -1.8046
 8771TIP3   OH226276   4.899   3.079   5.057 -0.1191 -0.1216 -0.1397
 8771TIP3    H126277   4.938   2.994   5.036  0.3272  0.2067 -0.6744
 8771TIP3    H226278   4.818   3.082   5.007  0.0631 -0.0687 -0.4319
 8772TIP3   OH226279   3.044   5.744   5.298 -0.3366  0.1108 -0.0627
 8772TIP3    H126280   2.956   5.706   5.299 -0.4663  0.3103 -1.5644
 8772TIP3    H226281   3.031   5.834   5.268  0.2430  0.5887  1.0556
 8773TIP3   OH226282   4.333   0.406   0.041  0.0787  0.1982 -0.0740
 8773TIP3    H126283   4.346   0.320   0.082  0.2475  0.2730  0.0309
 8773TIP3    H226284   4.239   0.409   0.021 -0.2230  0.5961  1.2952
 8774TIP3   OH226285   6.516   0.238   0.390  0.4572 -0.7003 -0.1259
 8774TIP3    H126286   6.430   0.232   0.349  0.5719 -0.2699 -0.4380
 8774TIP3    H226287   6.575   0.260   0.317  0.8175 -0.9338  0.0966
 8775TIP3   OH226288   3.810   3.067   0.878 -0.3938 -0.4430  0.0653
 8775TIP3    H126289   3.850   3.129   0.938 -0.9093 -0.3981  0.3624
 8775TIP3    H226290   3.755   3.120   0.821 -0.6870 -0.6017  0.1971
 8776TIP3   OH226291   3.169   3.902   3.678  0.0461 -0.4536  0.4260
 8776TIP3    H126292   3.165   3.837   3.748 -0.2245 -0.8735  0.0228
 8776TIP3    H226293   3.150   3.985   3.722  0.1432 -0.6792  0.8988
 8777TIP3   OH226294   6.476   2.353   4.750 -0.2095 -0.1351  0.3110
 8777TIP3    H126295   6.464   2.321   4.839 -0.1561 -1.2264 -0.0542
 8777TIP3    H226296   6.387   2.370   4.719 -0.2543 -0.1224  0.4463
 8778TIP3   OH226297   5.682   2.380   4.067 -0.0622  0.2025  0.3157
 8778TIP3    H126298   5.745   2.316   4.034  0.1335 -0.0222  1.0987
 8778TIP3    H226299   5.626   2.399   3.992 -0.3425 -1.1581  0.1504
 8779TIP3   OH226300   3.994   4.653   5.086 -0.2500 -0.1947 -0.2618
 8779TIP3    H126301   4.073   4.704   5.102  0.2858 -1.1597  0.2091
 8779TIP3    H226302   3.938   4.670   5.161 -0.8980  1.2086 -1.0239
 8780TIP3   OH226303   3.528   3.716   3.262 -0.3154  0.1320 -0.2674
 8780TIP3    H126304   3.487   3.659   3.197 -0.0793 -0.0792 -0.2334
 8780TIP3    H226305   3.476   3.704   3.341 -1.0937  1.0017 -0.6358
 8781TIP3   OH226306   6.269   2.794   2.381 -0.2698 -0.2732  0.9789
 8781TIP3    H126307   6.362   2.816   2.374 -0.4103 -0.1295 -1.6061
 8781TIP3    H226308   6.266   2.699   2.369 -0.4796 -0.1868  0.2717
 8782TIP3   OH226309   3.032   2.238   0.104 -0.6848  0.5714  0.1905
 8782TIP3    H126310   3.117   2.207   0.074 -0.7407 -0.8295  1.3554
 8782TIP3    H226311   2.970   2.207   0.038 -0.2507  2.3368 -1.1214
 8783TIP3   OH226312   6.369   1.908   4.714  0.5945  0.2676  0.5109
 8783TIP3    H126313   6.412   1.946   4.637 -0.0427 -0.1034 -0.0398
 8783TIP3    H226314   6.379   1.975   4.782  1.1191  0.6250  0.0995
 8784TIP3   OH226315   4.308   0.966   0.091 -0.3525 -0.5325  0.5307
 8784TIP3    H126316   4.303   0.879   0.128  2.0288 -0.8865  0.1462
 8784TIP3    H226317   4.266   0.958   0.005  1.0064 -1.6661 -0.0583
 8785TIP3   OH226318   0.732   5.202   5.065 -0.3875  0.0546 -0.0854
 8785TIP3    H126319   0.799   5.137   5.088 -0.4976  0.5528  1.8998
 8785TIP3    H226320   0.764   5.283   5.105 -1.2564  0.7336 -0.7479
 8786TIP3   OH226321   2.555   3.397   2.664  0.3622 -0.2207 -0.0032
 8786TIP3    H126322   2.469   3.382   2.624  1.4905  0.5597 -2.9512
 8786TIP3    H226323   2.580   3.312   2.700 -2.2147 -0.1287  2.3458
 8787TIP3   OH226324   4.410   1.981   1.383 -0.1327 -0.5890 -0.0566
 8787TIP3    H126325   4.416   1.902   1.437  1.3820 -0.6561 -0.2699
 8787TIP3    H226326   4.370   2.046   1.440 -1.2740 -1.4620  0.1739
 8788TIP3   OH226327   0.728   5.905   1.841 -0.2779  0.6533  0.5185
 8788TIP3    H126328   0.634   5.890   1.852 -0.0959  0.5555  2.1224
 8788TIP3    H226329   0.760   5.926   1.928  1.7416 -2.5168  0.7101
 8789TIP3   OH226330   1.312   0.323   5.325  0.6351  0.3180  0.3828
 8789TIP3    H126331   1.219   0.319   5.349  1.0011  0.2505  1.8648
 8789TIP3    H226332   1.335   0.415   5.334  0.7070  0.3466 -0.0591
 8790TIP3   OH226333   7.126   1.480   0.355  0.4014 -0.2041 -0.2524
 8790TIP3    H126334   7.214   1.502   0.386  0.4965 -0.9074 -0.0138
 8790TIP3    H226335   7.138   1.402   0.301  0.0928  0.4380 -1.2866
 8791TIP3   OH226336   6.587   3.573   3.034  0.2188 -0.7028  0.0118
 8791TIP3    H126337   6.535   3.495   3.016 -1.4737  0.0043  1.4955
 8791TIP3    H226338   6.601   3.571   3.129  1.9489 -0.2489 -0.1956
 8792TIP3   OH226339   0.068   2.334   5.599 -0.7482  0.4301 -0.6161
 8792TIP3    H126340   0.036   2.275   5.668  0.1213  0.3892 -0.2229
 8792TIP3    H226341   0.015   2.313   5.523 -2.4061  1.1630  0.2917
 8793TIP3   OH226342   4.478   4.709   0.020  0.3204  0.1945 -0.2103
 8793TIP3    H126343   4.573   4.707   0.030  0.3777 -1.2649 -0.7617
 8793TIP3    H226344   4.450   4.619   0.040 -0.7863  0.2480 -1.3540
 8794TIP3   OH226345   1.997   2.574   4.750 -0.1944  0.3400  0.1337
 8794TIP3    H126346   2.056   2.516   4.701 -1.3431 -0.5145 -0.2857
 8794TIP3    H226347   1.966   2.637   4.684 -0.5291  0.1538  0.1091
 8795TIP3   OH226348   0.530   0.087   5.032 -0.3047  0.5484  0.0140
 8795TIP3    H126349   0.502  -0.004   5.037  1.3819 -0.0010 -0.1107
 8795TIP3    H226350   0.515   0.112   4.941  0.6287 -0.0841 -0.3232
 8796TIP3   OH226351   2.573   0.052   5.346  0.4352  0.1808  0.1425
 8796TIP3    H126352   2.606  -0.017   5.288 -1.4613 -1.1862  0.5577
 8796TIP3    H226353   2.567   0.010   5.432 -0.0586  1.0838  0.5635
 8797TIP3   OH226354   2.817   5.238   3.095 -0.0664  0.1220  0.2007
 8797TIP3    H126355   2.901   5.279   3.071  1.2966 -0.7336  3.0734
 8797TIP3    H226356   2.800   5.176   3.023  1.4870  0.7053 -0.7311
 8798TIP3   OH226357   3.408   0.754   4.071 -0.4612  0.4158 -0.3213
 8798TIP3    H126358   3.435   0.811   4.143  0.5180 -0.1424 -0.2280
 8798TIP3    H226359   3.410   0.666   4.107  1.5492 -0.0444 -1.4084
 8799TIP3   OH226360   5.313   3.319   1.127 -0.1416 -0.2879 -0.6069
 8799TIP3    H126361   5.271   3.311   1.212 -0.5707  0.8349 -0.6934
 8799TIP3    H226362   5.398   3.276   1.138 -0.4598 -0.7337  0.1836
 8800TIP3   OH226363   5.171   5.295   5.063 -0.0031 -0.2363 -0.1756
 8800TIP3    H126364   5.256   5.306   5.022 -0.2833 -2.0929 -1.3540
 8800TIP3    H226365   5.116   5.257   4.994 -0.8678 -2.1831  1.5099
 8801TIP3   OH226366   1.480   3.887   2.610 -0.2274 -0.0711 -0.1444
 8801TIP3    H126367   1.567   3.924   2.596  0.2346 -1.8240 -2.5549
 8801TIP3    H226368   1.432   3.905   2.529 -2.1518  0.7725  1.0934
 8802TIP3   OH226369   5.435   1.728   0.261 -0.5951 -0.1861  0.0151
 8802TIP3    H126370   5.454   1.639   0.232 -1.4716 -0.5154  0.4312
 8802TIP3    H226371   5.458   1.783   0.185  2.5182 -0.4512  0.6173
 8803TIP3   OH226372   4.216   3.995   2.440 -0.1453  0.3997 -0.4672
 8803TIP3    H126373   4.223   4.090   2.443 -1.5171  0.5263 -0.3855
 8803TIP3    H226374   4.264   3.964   2.516 -0.4993  1.0936  0.0499
 8804TIP3   OH226375   3.354   2.368   0.402 -0.2179 -0.1253 -0.0660
 8804TIP3    H126376   3.298   2.293   0.382 -0.0733 -0.1145 -0.5107
 8804TIP3    H226377   3.368   2.362   0.497 -2.1614  0.6915  0.3403
 8805TIP3   OH226378   5.809   5.257   4.864 -0.1965  0.8017 -0.4642
 8805TIP3    H126379   5.837   5.313   4.791  0.7253  0.2043 -0.5899
 8805TIP3    H226380   5.772   5.180   4.823 -1.1642  1.1621 -0.2875
 8806TIP3   OH226381   5.903   3.581   3.277  0.3852  0.4161  0.0165
 8806TIP3    H126382   5.978   3.585   3.218  0.5128  1.5392  0.2286
 8806TIP3    H226383   5.845   3.651   3.247 -0.4822 -0.3008 -0.0098
 8807TIP3   OH226384   5.339   3.282   3.048 -0.3586  0.4465 -0.5430
 8807TIP3    H126385   5.407   3.348   3.034  0.9048 -0.2431  1.8291
 8807TIP3    H226386   5.318   3.289   3.141 -0.1563 -2.4814 -0.1898
 8808TIP3   OH226387   5.134   4.135   0.953 -0.0934  0.1550 -0.2303
 8808TIP3    H126388   5.218   4.089   0.949 -0.5146 -0.6725  0.2563
 8808TIP3    H226389   5.146   4.200   1.023 -0.4073 -1.1402  1.0838
 8809TIP3   OH226390   2.315   3.223   2.332  0.4121 -0.0232 -0.2605
 8809TIP3    H126391   2.287   3.282   2.402  2.8921 -0.8178  1.5300
 8809TIP3    H226392   2.265   3.143   2.346  0.5426 -0.0063  0.3049
 8810TIP3   OH226393   4.881   1.399   5.366  0.6569  0.1615 -0.1301
 8810TIP3    H126394   4.976   1.385   5.369  0.4742 -0.8640  1.4471
 8810TIP3    H226395   4.866   1.477   5.419  0.6643  0.8158 -1.0475
 8811TIP3   OH226396   0.178   5.792   2.315  0.6354 -0.4328  0.5624
 8811TIP3    H126397   0.148   5.757   2.231  1.6404 -0.9370  0.4000
 8811TIP3    H226398   0.170   5.718   2.376  0.2292 -0.1638  0.8464
 8812TIP3   OH226399   1.911   2.717   1.374  0.6366  0.4878 -0.0578
 8812TIP3    H126400   1.986   2.664   1.345  0.6843  0.7834 -0.4705
 8812TIP3    H226401   1.907   2.702   1.469  0.0834 -0.9944 -0.2846
 8813TIP3   OH226402   5.929   5.307   3.870  0.0628 -0.2440 -0.4367
 8813TIP3    H126403   5.915   5.276   3.780  0.1301 -0.0100 -0.5279
 8813TIP3    H226404   5.843   5.336   3.899 -0.1732 -1.2896 -0.0555
 8814TIP3   OH226405   6.881   6.008   4.108  0.3398 -0.1965  0.3743
 8814TIP3    H126406   6.842   6.007   4.195 -0.3005 -1.1053  0.0846
 8814TIP3    H226407   6.976   6.002   4.124  0.2469  0.0071  1.0123
 8815TIP3   OH226408   2.157   5.679   4.632  0.4407 -0.2746  0.6023
 8815TIP3    H126409   2.164   5.585   4.646 -1.2441 -0.0955  3.1208
 8815TIP3    H226410   2.082   5.689   4.574  0.6253 -0.4664  0.3275
 8816TIP3   OH226411   5.621   1.923   1.856  0.0214 -0.4273  0.5119
 8816TIP3    H126412   5.556   1.982   1.893  0.1690 -0.0274  0.1525
 8816TIP3    H226413   5.570   1.854   1.814 -0.1564 -0.5018  0.8500
 8817TIP3   OH226414   3.576   1.633   4.600 -0.7166  0.2930 -0.4350
 8817TIP3    H126415   3.552   1.597   4.515 -1.1334  0.7325 -0.5078
 8817TIP3    H226416   3.672   1.626   4.603 -0.7824 -0.8862 -0.4094
 8818TIP3   OH226417   0.109   0.021   3.296 -0.2396 -0.7445 -0.2467
 8818TIP3    H126418   0.167   0.054   3.364 -0.4415 -1.0829  0.0904
 8818TIP3    H226419   0.024   0.063   3.314  0.4506  1.7813 -2.2214
 8819TIP3   OH226420   5.234   5.552   3.901  0.5553  0.1857 -0.2999
 8819TIP3    H126421   5.310   5.497   3.883  1.6794  1.7771 -0.5321
 8819TIP3    H226422   5.265   5.618   3.962 -0.2693  1.6616 -1.4199
 8820TIP3   OH226423   5.973   5.142   4.449 -0.6807  0.0529 -0.0939
 8820TIP3    H126424   6.026   5.218   4.471 -0.0974 -0.8159  1.6320
 8820TIP3    H226425   6.026   5.092   4.387  0.5990 -0.8085  1.6116
 8821TIP3   OH226426   6.954   5.493   4.807  0.0324 -0.0892  0.3693
 8821TIP3    H126427   6.998   5.491   4.892  1.4809  0.8121 -0.3296
 8821TIP3    H226428   6.911   5.579   4.805  0.9906  0.3905 -0.2682
 8822TIP3   OH226429   3.353   2.988   2.190 -0.1324  0.4312  0.0929
 8822TIP3    H126430   3.403   2.929   2.133 -0.4179 -0.1291  0.4172
 8822TIP3    H226431   3.374   3.075   2.158  2.1420  0.3030  1.0645
 8823TIP3   OH226432   0.855   3.215   2.001 -0.2513 -0.5264  0.7133
 8823TIP3    H126433   0.924   3.225   1.935 -1.2319  0.7937 -0.1706
 8823TIP3    H226434   0.834   3.304   2.028 -0.7000 -0.9830  1.9488
 8824TIP3   OH226435   6.579   2.303   4.103  0.1331  0.3066 -0.1828
 8824TIP3    H126436   6.627   2.347   4.174 -0.8777  0.4136  0.4453
 8824TIP3    H226437   6.516   2.368   4.072 -1.7920 -0.8184  1.1581
 8825TIP3   OH226438   0.019   5.305   1.048 -0.1435  0.2043 -0.3043
 8825TIP3    H126439   0.077   5.303   1.125  0.4987 -0.8260 -0.7925
 8825TIP3    H226440  -0.060   5.350   1.079  1.7951  4.0320 -0.2813
 8826TIP3   OH226441   3.202   5.746   2.504 -0.3319 -0.6088  0.0952
 8826TIP3    H126442   3.148   5.718   2.578  0.2580 -0.4736  0.5882
 8826TIP3    H226443   3.288   5.707   2.520 -0.5591 -1.7219 -1.2512
 8827TIP3   OH226444   3.222   3.295   5.848 -0.4099 -0.5816  0.1911
 8827TIP3    H126445   3.196   3.383   5.874 -0.4659 -0.8065  0.9274
 8827TIP3    H226446   3.142   3.243   5.856 -0.0842 -0.9697  1.0472
 8828TIP3   OH226447   4.233   0.699   3.018  0.1279  0.7990  0.6448
 8828TIP3    H126448   4.327   0.686   3.019 -0.2672 -3.8197  0.9557
 8828TIP3    H226449   4.202   0.643   2.947 -2.6403 -3.3949  4.5597
 8829TIP3   OH226450   4.631   2.874   1.767  0.1774  0.2785 -0.7809
 8829TIP3    H126451   4.632   2.804   1.702 -1.9379 -2.0848  1.4831
 8829TIP3    H226452   4.695   2.846   1.833 -1.2437 -0.0155  0.5350
 8830TIP3   OH226453   3.553   3.497   0.622  0.3904 -0.1077 -0.1532
 8830TIP3    H126454   3.601   3.576   0.598 -0.3177  0.0729 -1.0400
 8830TIP3    H226455   3.461   3.524   0.623  0.2347 -0.5935  0.9212
 8831TIP3   OH226456   4.802   0.029   5.509 -0.0289  0.0849 -0.2888
 8831TIP3    H126457   4.860   0.013   5.435 -0.4057 -0.6994 -0.4266
 8831TIP3    H226458   4.737   0.092   5.477  0.5265  0.6857 -0.2432
 8832TIP3   OH226459   6.074   2.858   1.093  0.2024 -0.2045  0.0469
 8832TIP3    H126460   6.069   2.944   1.050 -1.3947  0.3584  1.2306
 8832TIP3    H226461   6.022   2.800   1.038  1.6127 -0.5483 -0.9703
 8833TIP3   OH226462   2.960   2.835   3.113 -0.5125  0.0722  0.4164
 8833TIP3    H126463   2.938   2.907   3.054 -2.3816  0.2903  1.3272
 8833TIP3    H226464   2.927   2.756   3.070  0.2881 -0.0863  0.0711
 8834TIP3   OH226465   3.264   3.221   1.653  0.4271 -0.1782  0.3534
 8834TIP3    H126466   3.313   3.232   1.572 -0.9543  2.6954 -0.2042
 8834TIP3    H226467   3.312   3.154   1.701  1.7893 -1.3370 -2.4201
 8835TIP3   OH226468   4.555   3.428   1.659  0.1512  0.2135  0.0356
 8835TIP3    H126469   4.551   3.334   1.677 -0.4413  0.3537  0.7161
 8835TIP3    H226470   4.486   3.443   1.594  1.6718 -0.1426 -1.7498
 8836TIP3   OH226471   6.528   4.588   1.003  0.1546  0.2760 -0.3873
 8836TIP3    H126472   6.482   4.568   0.921 -1.1318  0.2435  0.3158
 8836TIP3    H226473   6.583   4.663   0.981  1.0988 -0.7534 -1.7053
 8837TIP3   OH226474   6.009   0.167   2.623 -0.3539 -0.0564 -0.6870
 8837TIP3    H126475   6.099   0.164   2.588 -0.0282 -0.6182  0.1685
 8837TIP3    H226476   5.966   0.236   2.572  0.9662  1.2015 -0.1768
 8838TIP3   OH226477   5.035   2.527   0.330  0.0147  0.3003  0.1612
 8838TIP3    H126478   4.946   2.536   0.364 -0.2518 -1.6517  0.0964
 8838TIP3    H226479   5.063   2.617   0.311 -2.1710  0.9282 -0.4019
 8839TIP3   OH226480   3.184   1.391   3.591  0.2493  0.1547 -0.1836
 8839TIP3    H126481   3.109   1.339   3.619  1.8436 -0.5280  3.3111
 8839TIP3    H226482   3.256   1.329   3.586  1.0612  1.1473 -1.3924
 8840TIP3   OH226483   1.069   0.944   2.184 -0.2823  0.0302 -0.0125
 8840TIP3    H126484   1.028   0.907   2.263  0.8782  0.8677  1.0173
 8840TIP3    H226485   1.056   0.876   2.117 -3.4668  0.3086  0.1602
 8841TIP3   OH226486   2.720   1.208   2.316 -0.5179  0.0846 -0.6599
 8841TIP3    H126487   2.763   1.151   2.380 -1.3309 -0.0833 -0.2425
 8841TIP3    H226488   2.790   1.237   2.258 -0.1003 -1.4537 -0.9575
 8842TIP3   OH226489   0.777   6.532   2.455 -0.1756 -0.1737  0.1301
 8842TIP3    H126490   0.853   6.495   2.501  1.0562  1.8311 -0.1834
 8842TIP3    H226491   0.813   6.568   2.374 -1.7498 -0.5340 -0.7862
 8843TIP3   OH226492   6.103   5.186   3.043  0.1620  0.5117 -0.3782
 8843TIP3    H126493   6.161   5.226   2.978 -1.1841  1.1378 -1.2407
 8843TIP3    H226494   6.017   5.186   3.002 -0.3394 -1.0459  0.5927
 8844TIP3   OH226495   1.999   1.593   1.134 -0.3386  0.1191  0.3321
 8844TIP3    H126496   2.023   1.551   1.052  0.6934  0.3320  0.5151
 8844TIP3    H226497   1.972   1.522   1.191  2.0043 -0.4178  0.8562
 8845TIP3   OH226498   0.063   0.201   1.888  0.0128 -0.3755  0.1160
 8845TIP3    H126499   0.134   0.167   1.833 -1.7463 -1.3411 -1.6742
 8845TIP3    H226500  -0.002   0.130   1.891 -0.6317  0.2252  2.2572
 8846TIP3   OH226501   6.859   3.320   2.114  0.1493  0.6281 -0.3533
 8846TIP3    H126502   6.904   3.236   2.126  1.1346  0.8936 -1.8625
 8846TIP3    H226503   6.786   3.301   2.056  0.3239  0.8050 -0.6303
 8847TIP3   OH226504   4.854   5.078   3.492 -0.4874 -0.1926 -1.0648
 8847TIP3    H126505   4.846   5.159   3.441  0.4689 -0.8925 -2.3754
 8847TIP3    H226506   4.843   5.107   3.583 -1.0007  1.2768 -1.5574
 8848TIP3   OH226507   5.970   4.071   0.852  0.1081  0.0965 -0.2257
 8848TIP3    H126508   6.031   4.120   0.796 -2.4349  0.9165 -2.4693
 8848TIP3    H226509   5.984   3.979   0.827  0.7362  0.2302 -0.3876
 8849TIP3   OH226510   1.157   1.017   3.029  0.1463 -0.3545 -0.1742
 8849TIP3    H126511   1.212   1.079   2.981 -1.0433  1.1287  0.2755
 8849TIP3    H226512   1.156   0.938   2.975  2.4267 -0.3337 -0.3403
 8850TIP3   OH226513   6.989   2.592   4.357 -0.1405  0.6071  0.0330
 8850TIP3    H126514   6.944   2.637   4.286  0.8910  2.5242  0.5427
 8850TIP3    H226515   7.072   2.638   4.367  0.4237 -0.6187  1.4502
 8851TIP3   OH226516   1.954   4.345   1.865  0.2535 -0.3711  0.2751
 8851TIP3    H126517   1.947   4.338   1.769  1.2517 -0.9397  0.2260
 8851TIP3    H226518   1.865   4.368   1.894 -0.5263 -1.9857 -0.6420
 8852TIP3   OH226519   6.061   1.175   1.815 -0.2610 -0.0079 -0.5475
 8852TIP3    H126520   6.090   1.199   1.727 -1.9325 -3.4625 -2.2462
 8852TIP3    H226521   6.138   1.137   1.857 -0.2405 -1.7361 -2.0047
 8853TIP3   OH226522   0.589   1.958   5.225 -0.1755 -0.4899  0.4758
 8853TIP3    H126523   0.665   1.966   5.283  0.1529 -0.9766  0.1186
 8853TIP3    H226524   0.558   1.869   5.237 -0.3968 -0.4442  0.2538
 8854TIP3   OH226525   4.863   3.229   2.431 -0.3212  0.2328  0.0703
 8854TIP3    H126526   4.834   3.137   2.434 -0.9713  0.4297 -0.0911
 8854TIP3    H226527   4.898   3.246   2.519  1.1884 -0.6068 -0.3330
 8855TIP3   OH226528   6.942   3.602   4.760 -0.0204 -0.2247  0.0290
 8855TIP3    H126529   6.928   3.582   4.667 -3.1349 -0.4565  0.4408
 8855TIP3    H226530   7.031   3.637   4.763 -0.1651  0.8663 -3.2532
 8856TIP3   OH226531   0.304   0.579   3.941  0.4673  0.3954  0.1938
 8856TIP3    H126532   0.273   0.562   4.030 -1.4881  3.5662  0.2680
 8856TIP3    H226533   0.227   0.567   3.885  0.5200  2.5060 -0.4346
 8857TIP3   OH226534   1.398   0.273   2.906 -0.2442 -0.7438  0.4484
 8857TIP3    H126535   1.463   0.296   2.972  0.9111  1.6036 -1.3456
 8857TIP3    H226536   1.438   0.299   2.823 -2.3547 -1.8723 -1.0240
 8858TIP3   OH226537   1.788   2.918   3.093  0.1697  0.4702 -0.2944
 8858TIP3    H126538   1.818   3.009   3.089  2.4697 -0.2470 -0.9587
 8858TIP3    H226539   1.774   2.902   3.187  2.8916  0.6594  0.2460
 8859TIP3   OH226540   4.870   2.369   4.927  0.4156  1.0488 -0.0887
 8859TIP3    H126541   4.819   2.319   4.863  0.2352  1.3877 -0.2104
 8859TIP3    H226542   4.806   2.427   4.969  0.8528  2.1708 -0.9157
 8860TIP3   OH226543   0.274   1.660   1.260 -0.3814 -0.0252  0.0109
 8860TIP3    H126544   0.255   1.721   1.188 -0.5979 -0.5160 -0.3488
 8860TIP3    H226545   0.190   1.647   1.303 -0.3023  0.0548  0.1928
 8861TIP3   OH226546   5.366   3.214   0.303  0.5530 -0.8393 -0.3891
 8861TIP3    H126547   5.294   3.259   0.259  2.3887  2.1012 -0.6964
 8861TIP3    H226548   5.354   3.236   0.396 -0.1064 -2.2164 -0.1176
 8862TIP3   OH226549   7.012   5.050   5.617 -0.1198 -0.3146 -0.0686
 8862TIP3    H126550   7.058   5.120   5.663  0.6704 -0.2736 -0.9084
 8862TIP3    H226551   6.962   5.094   5.549  0.5573 -0.5765 -0.7435
 8863TIP3   OH226552   5.485   5.569   0.172  0.3962  0.4259 -0.3687
 8863TIP3    H126553   5.473   5.489   0.222 -0.0488 -0.2638 -1.5260
 8863TIP3    H226554   5.444   5.551   0.087  0.3261  1.8605 -0.6767
 8864TIP3   OH226555   7.207   4.760   1.885  0.1594  0.7355 -0.4898
 8864TIP3    H126556   7.122   4.740   1.926 -0.3869  0.6275 -1.6285
 8864TIP3    H226557   7.229   4.847   1.918 -0.2264  0.6214  0.0865
 8865TIP3   OH226558   5.564   2.198   5.010 -0.5388 -0.4022  0.1749
 8865TIP3    H126559   5.577   2.116   5.059  1.1044  0.1494  0.7370
 8865TIP3    H226560   5.652   2.235   5.002 -0.9638  0.2468 -1.9884
 8866TIP3   OH226561   3.142   3.341   0.659  0.1571  0.1781  0.2186
 8866TIP3    H126562   3.189   3.421   0.639  0.1209  0.1810  0.1462
 8866TIP3    H226563   3.111   3.309   0.574 -1.2631  0.9664  0.4141
 8867TIP3   OH226564   5.340   5.115   1.593  0.1550  0.2575 -0.1629
 8867TIP3    H126565   5.423   5.146   1.631  0.2845 -1.5560  1.1503
 8867TIP3    H226566   5.361   5.028   1.560 -0.6928  0.6814 -1.9376
 8868TIP3   OH226567   2.586   5.172   4.280  0.6519  0.0394  0.3838
 8868TIP3    H126568   2.510   5.213   4.239  1.4686 -1.1608 -2.5666
 8868TIP3    H226569   2.550   5.100   4.331 -0.2144 -0.2270 -0.5936
 8869TIP3   OH226570   4.037   5.849   1.353  0.4086  0.0871  0.2969
 8869TIP3    H126571   3.970   5.781   1.342  0.1322  0.4775 -0.5947
 8869TIP3    H226572   3.989   5.931   1.346  1.2136  0.4284 -2.6446
 8870TIP3   OH226573   6.839   5.129   5.399 -0.3535 -0.1264 -0.4628
 8870TIP3    H126574   6.790   5.090   5.326 -1.4876  0.0868  0.1692
 8870TIP3    H226575   6.870   5.213   5.365 -0.8861 -0.0224 -0.7038
 8871TIP3   OH226576   3.080   3.260   1.218 -0.0909 -0.3905 -0.4577
 8871TIP3    H126577   3.016   3.326   1.191 -1.8494 -2.4099 -1.5483
 8871TIP3    H226578   3.068   3.252   1.313  0.3241  0.9892 -0.2718
 8872TIP3   OH226579   3.924   5.707   5.838  0.2812  0.2750 -0.0937
 8872TIP3    H126580   3.967   5.792   5.843  1.5767 -0.3026 -0.7351
 8872TIP3    H226581   3.940   5.678   5.748 -1.2056 -0.1152 -0.2478
 8873TIP3   OH226582   3.702   0.903   0.303  0.1183  0.3405 -0.3378
 8873TIP3    H126583   3.706   0.855   0.386  0.3138 -1.1980 -1.1940
 8873TIP3    H226584   3.611   0.897   0.276  0.1620  0.3749 -0.4942
 8874TIP3   OH226585   5.942   5.595   2.507  0.4703  0.5670 -0.1384
 8874TIP3    H126586   5.885   5.518   2.505  2.7024 -1.1741 -0.0282
 8874TIP3    H226587   5.955   5.614   2.600 -0.2175  1.2208 -0.1660
 8875TIP3   OH226588   3.202   0.337   0.750 -0.3885  0.2957  0.0484
 8875TIP3    H126589   3.275   0.276   0.738 -0.2667  0.3669  0.4374
 8875TIP3    H226590   3.124   0.281   0.748 -0.2034 -0.0804  1.8975
 8876TIP3   OH226591   0.689   4.628   2.775  0.3798  0.4344  0.2278
 8876TIP3    H126592   0.641   4.562   2.725  0.3932 -0.3048  1.1704
 8876TIP3    H226593   0.778   4.627   2.739  0.3657 -0.0341  0.2098
 8877TIP3   OH226594   4.848   4.544   4.264  0.9348  0.4233 -0.1876
 8877TIP3    H126595   4.799   4.463   4.253  0.3332  0.6317  0.7591
 8877TIP3    H226596   4.785   4.613   4.242  1.6732  0.6265 -1.7412
 8878TIP3   OH226597   2.518   2.306   4.911  0.1100 -0.6311  0.2287
 8878TIP3    H126598   2.559   2.373   4.966  0.8542 -0.4346 -0.5628
 8878TIP3    H226599   2.429   2.297   4.947  0.5341 -0.4035  1.3685
 8879TIP3   OH226600   2.954   2.978   1.807  0.0185  0.4283 -0.5035
 8879TIP3    H126601   2.873   2.987   1.757 -0.6747  4.1067  0.9482
 8879TIP3    H226602   2.927   2.984   1.898  1.6269 -2.3685  0.2789
 8880TIP3   OH226603   4.037   4.276   0.673  0.4424  0.4291  0.5174
 8880TIP3    H126604   4.018   4.183   0.689  1.3240  0.1815  0.1714
 8880TIP3    H226605   4.092   4.302   0.747 -0.0904  0.7737  0.7970
 8881TIP3   OH226606   5.773   4.351   3.117  0.4696 -0.1367  0.7312
 8881TIP3    H126607   5.837   4.299   3.068  1.2330  1.7757 -0.4140
 8881TIP3    H226608   5.715   4.286   3.156  1.8840 -1.8752  0.1170
 8882TIP3   OH226609   5.284   5.794   2.980 -0.0961 -0.4681  0.0751
 8882TIP3    H126610   5.327   5.876   3.005  0.0833 -0.2596 -0.8733
 8882TIP3    H226611   5.309   5.732   3.048 -0.2757  0.2757  0.8338
 8883TIP3   OH226612   6.013   1.512   5.850  0.1240 -0.1919  0.5864
 8883TIP3    H126613   6.087   1.458   5.822 -0.4696 -0.8387  0.2393
 8883TIP3    H226614   6.020   1.513   5.946 -0.1356 -1.3049  0.6279
 8884TIP3   OH226615   2.521   5.999   2.382  0.0089  0.2495  0.1350
 8884TIP3    H126616   2.550   5.956   2.463 -0.4421  1.9627  1.2667
 8884TIP3    H226617   2.556   6.088   2.388 -0.9405  0.7360 -1.0262
 8885TIP3   OH226618   6.575   4.269   0.896 -0.4762  0.0240  0.0465
 8885TIP3    H126619   6.511   4.321   0.945  0.3750  3.3504 -2.0813
 8885TIP3    H226620   6.640   4.242   0.962 -0.7442  2.0727  1.2055
 8886TIP3   OH226621   3.641   1.800   2.523 -0.6254 -0.2548 -0.7154
 8886TIP3    H126622   3.636   1.766   2.434 -1.0177  1.7524 -1.5034
 8886TIP3    H226623   3.578   1.872   2.525 -0.0718  0.2292  0.9585
 8887TIP3   OH226624   3.722   0.286   3.476  0.1030  0.2530  0.2756
 8887TIP3    H126625   3.772   0.220   3.428 -0.7827  0.1874 -0.5884
 8887TIP3    H226626   3.744   0.369   3.434  1.6271  0.6285  1.6969
 8888TIP3   OH226627   5.647   1.179   0.055  0.1029  0.2948  0.0811
 8888TIP3    H126628   5.583   1.111   0.033  1.0420 -0.8926  0.8154
 8888TIP3    H226629   5.621   1.255   0.004 -1.5036 -0.3485 -0.1138
 8889TIP3   OH226630   6.270   6.000   4.652 -0.2696 -0.5839  0.5203
 8889TIP3    H126631   6.347   5.948   4.631  0.1855  0.1904  0.2528
 8889TIP3    H226632   6.228   5.952   4.724  0.6110 -0.8576  0.8633
 8890TIP3   OH226633   1.621   1.964   4.331 -0.6521  0.5142  0.0493
 8890TIP3    H126634   1.679   1.943   4.258 -0.3068 -1.9238  0.9169
 8890TIP3    H226635   1.679   1.991   4.402 -0.8787  1.5428 -0.1460
 8891TIP3   OH226636   4.187   0.311   1.120 -0.0806 -0.1784 -0.0541
 8891TIP3    H126637   4.134   0.285   1.195 -0.1303  1.8083  0.6505
 8891TIP3    H226638   4.270   0.263   1.132  0.8038  1.7422  2.5892
 8892TIP3   OH226639   5.970   0.008   1.393 -0.5303  0.2601 -0.2118
 8892TIP3    H126640   6.001   0.096   1.372  0.5117  0.6469  2.4283
 8892TIP3    H226641   5.896  -0.007   1.335 -1.3336  3.2743 -0.1205
 8893TIP3   OH226642   4.975   3.552   4.890 -0.4049 -0.0014  0.4634
 8893TIP3    H126643   5.003   3.512   4.808 -0.3321  0.0692  0.4540
 8893TIP3    H226644   4.999   3.488   4.957  0.7587  0.5209  0.5633
 8894TIP3   OH226645   2.547   1.051   4.139  0.1965  0.1914 -0.3110
 8894TIP3    H126646   2.561   1.074   4.047  0.0268  0.1475 -0.3486
 8894TIP3    H226647   2.502   0.967   4.135 -0.7595  0.6886 -0.2101
 8895TIP3   OH226648   3.570   6.470   1.270 -0.0468  0.1772  0.3166
 8895TIP3    H126649   3.480   6.485   1.240  0.0585  1.7101  0.6699
 8895TIP3    H226650   3.625   6.497   1.195  0.1362  0.1604  0.4432
 8896TIP3   OH226651   4.557   1.684   3.965 -0.3492 -0.0692  0.1610
 8896TIP3    H126652   4.591   1.694   4.054  1.7361  0.9678 -0.6931
 8896TIP3    H226653   4.588   1.761   3.918 -2.3476 -0.0308 -1.2363
 8897TIP3   OH226654   6.597   5.563   5.285 -0.9222 -0.0307 -0.5758
 8897TIP3    H126655   6.557   5.647   5.261  0.0081 -0.1318 -2.6473
 8897TIP3    H226656   6.524   5.512   5.322 -1.3956  1.8210  1.2329
 8898TIP3   OH226657   3.461   4.831   5.324 -0.2262 -0.2694  0.1941
 8898TIP3    H126658   3.532   4.868   5.271  0.9587 -1.6883  0.7418
 8898TIP3    H226659   3.494   4.747   5.354 -2.4014 -1.2863 -0.0608
 8899TIP3   OH226660   7.030   1.970   3.724 -0.3434 -0.2179 -0.5075
 8899TIP3    H126661   7.084   2.018   3.661 -0.2214  0.2612 -0.0483
 8899TIP3    H226662   7.077   1.887   3.737 -0.1631 -0.1560 -0.7490
 8900TIP3   OH226663   3.984   3.154   5.171  0.1037 -0.7624  0.3611
 8900TIP3    H126664   4.076   3.129   5.163  0.0295 -0.6770 -0.9956
 8900TIP3    H226665   3.973   3.226   5.109 -0.8127 -0.5855  0.7151
 8901TIP3   OH226666   1.835   0.712   2.064  0.1375  0.1776 -0.4126
 8901TIP3    H126667   1.870   0.737   2.149 -0.5843  0.0173 -0.0683
 8901TIP3    H226668   1.744   0.690   2.080  0.8557 -3.5095 -0.5104
 8902TIP3   OH226669   5.535   0.224   0.113 -0.3116 -0.4324 -0.0565
 8902TIP3    H126670   5.584   0.154   0.071 -1.1870 -1.2186  0.1987
 8902TIP3    H226671   5.579   0.305   0.085  1.2483 -1.1012  0.3347
 8903TIP3   OH226672   2.097   5.094   1.923  0.3338 -0.2746  0.5273
 8903TIP3    H126673   2.078   5.151   1.849 -0.4608 -0.5575  0.5095
 8903TIP3    H226674   2.160   5.031   1.889  1.1954  0.5468  0.5333
 8904TIP3   OH226675   7.198   6.445   2.617  0.0448 -0.1566 -0.0725
 8904TIP3    H126676   7.113   6.408   2.640 -0.4600  0.1466 -1.3320
 8904TIP3    H226677   7.204   6.525   2.669  0.0312 -0.7235  0.8068
 8905TIP3   OH226678   4.731   1.384   3.427 -0.0080 -0.6597  0.2175
 8905TIP3    H126679   4.754   1.293   3.446 -1.1499 -0.5193  2.8032
 8905TIP3    H226680   4.703   1.420   3.512  0.0328  2.0060 -0.7838
 8906TIP3   OH226681   6.138   4.469   1.512  0.1982 -0.0730 -0.6817
 8906TIP3    H126682   6.094   4.405   1.455  0.6937 -1.4799  0.4387
 8906TIP3    H226683   6.226   4.477   1.476  0.0836  0.1099 -0.9223
 8907TIP3   OH226684   1.807   5.105   5.456 -0.0031  0.1226  0.5131
 8907TIP3    H126685   1.851   5.163   5.394 -1.1945  1.0319  0.4887
 8907TIP3    H226686   1.817   5.018   5.417  0.6207  0.4754 -0.1537
 8908TIP3   OH226687   2.582   5.909   5.825 -0.0550  0.2796 -0.8278
 8908TIP3    H126688   2.514   5.846   5.803 -0.8317  1.0709 -0.7575
 8908TIP3    H226689   2.550   5.992   5.789  0.6314  0.7681 -0.3372
 8909TIP3   OH226690   2.560   4.570   1.861  0.1496  0.0765  0.8476
 8909TIP3    H126691   2.526   4.496   1.911 -0.0872 -1.3311 -1.2666
 8909TIP3    H226692   2.651   4.578   1.889  0.1358 -0.9210  1.2296
 8910TIP3   OH226693   3.383   1.721   0.917 -0.7433  0.5132 -0.3601
 8910TIP3    H126694   3.368   1.761   1.003 -0.8834  0.2958 -0.2836
 8910TIP3    H226695   3.403   1.630   0.936 -1.0902  0.3895 -0.5785
 8911TIP3   OH226696   6.832   0.630   0.493 -0.1992  0.9921 -0.7121
 8911TIP3    H126697   6.924   0.643   0.513 -0.2545 -0.0868  0.3273
 8911TIP3    H226698   6.824   0.537   0.471 -0.7895  1.3780 -2.3046
 8912TIP3   OH226699   1.527   2.959   4.929 -0.2169  0.0481 -0.0938
 8912TIP3    H126700   1.603   2.902   4.913  0.2834 -0.5990  3.6639
 8912TIP3    H226701   1.561   3.048   4.919  0.8431 -0.2518  0.5975
 8913TIP3   OH226702   6.558   0.555   2.292 -0.0446 -0.2849  0.3696
 8913TIP3    H126703   6.551   0.481   2.352  2.9798  1.2384  2.8691
 8913TIP3    H226704   6.631   0.534   2.234 -1.7162 -0.8798 -1.6718
 8914TIP3   OH226705   4.600   0.189   3.259  0.0421  0.0870 -0.4991
 8914TIP3    H126706   4.593   0.171   3.165 -2.0564 -0.2481 -0.3373
 8914TIP3    H226707   4.559   0.275   3.269 -1.4582 -0.6882  0.3119
 8915TIP3   OH226708   1.320   6.506   1.634  0.1179  0.2402 -0.0606
 8915TIP3    H126709   1.298   6.590   1.673 -1.8634  0.3948 -1.3337
 8915TIP3    H226710   1.300   6.442   1.702 -1.9599  0.5963 -0.2644
 8916TIP3   OH226711   4.414   0.328   3.561 -0.1343 -0.0784 -0.2109
 8916TIP3    H126712   4.410   0.356   3.469  0.2296 -1.0512 -0.5391
 8916TIP3    H226713   4.326   0.294   3.579 -0.7553  1.7055  0.3620
 8917TIP3   OH226714   5.095   2.418   1.151  0.1375  0.2206 -0.0155
 8917TIP3    H126715   5.042   2.417   1.072  1.1451 -0.2056 -0.7034
 8917TIP3    H226716   5.154   2.342   1.142 -1.3432 -1.3205  2.2707
 8918TIP3   OH226717   3.312   0.369   3.200  0.7245 -0.0397 -0.0517
 8918TIP3    H126718   3.285   0.300   3.140 -2.0366  0.4020  0.5441
 8918TIP3    H226719   3.369   0.325   3.264 -0.1936 -1.5556 -0.2426
 8919TIP3   OH226720   5.167   2.912   4.368 -0.0873 -0.3504  0.3920
 8919TIP3    H126721   5.094   2.861   4.404 -0.4237  0.1498  0.4210
 8919TIP3    H226722   5.186   2.977   4.436 -0.7968  0.6743 -0.3673
 8920TIP3   OH226723   3.571   3.369   4.730 -0.1660  0.2130 -0.1468
 8920TIP3    H126724   3.527   3.315   4.665  0.8447 -0.2980 -0.4306
 8920TIP3    H226725   3.654   3.393   4.689 -0.2386  1.2987  0.3036
 8921TIP3   OH226726   1.664   2.313   3.997  0.0519 -0.6106  0.2143
 8921TIP3    H126727   1.597   2.348   3.939  2.1052  0.9362 -1.4037
 8921TIP3    H226728   1.690   2.230   3.957 -0.1678 -0.6902  0.2389
 8922TIP3   OH226729   5.298   2.295   3.643  0.4218 -0.4528 -0.8311
 8922TIP3    H126730   5.235   2.338   3.702 -0.6854 -0.3565 -2.0266
 8922TIP3    H226731   5.383   2.333   3.667  0.0234 -0.4253  0.6900
 8923TIP3   OH226732   2.383   5.895   3.767  0.1092 -0.0623  0.5455
 8923TIP3    H126733   2.312   5.870   3.826  0.1628  1.1583  1.1566
 8923TIP3    H226734   2.351   5.974   3.723  0.6280 -0.1703 -0.0375
 8924TIP3   OH226735   4.244   4.017   5.402 -0.5033 -0.9429 -0.2249
 8924TIP3    H126736   4.228   4.059   5.487 -0.9084  0.2244 -0.8432
 8924TIP3    H226737   4.183   4.062   5.342  0.6446 -0.8642 -1.3705
 8925TIP3   OH226738   2.934   3.495   5.870  0.7133  0.3679 -0.1530
 8925TIP3    H126739   3.016   3.542   5.857  0.9423  1.5749  4.0734
 8925TIP3    H226740   2.876   3.559   5.913 -1.2153 -1.4079  0.0635
 8926TIP3   OH226741   3.130   0.853   1.115  0.0559 -0.4503 -0.1811
 8926TIP3    H126742   3.113   0.944   1.141  0.5806 -0.2096 -0.6480
 8926TIP3    H226743   3.185   0.861   1.037  1.3438 -1.1754  0.6089
 8927TIP3   OH226744   0.446   3.159   4.605 -0.1236  0.0595 -0.3569
 8927TIP3    H126745   0.382   3.140   4.674 -0.8459  0.3393 -0.9240
 8927TIP3    H226746   0.528   3.174   4.651 -1.0574  2.5493  0.6489
 8928TIP3   OH226747   0.468   2.896   4.410  0.1859 -0.0701 -0.6046
 8928TIP3    H126748   0.422   2.831   4.464  1.3410 -0.7572 -0.4092
 8928TIP3    H226749   0.460   2.977   4.459 -1.0335 -0.1116 -0.7082
 8929TIP3   OH226750   4.394   6.126   5.624  0.0020  0.0035 -0.5305
 8929TIP3    H126751   4.452   6.097   5.695 -1.5638 -1.2384  0.2949
 8929TIP3    H226752   4.335   6.188   5.665 -0.8081 -0.5956 -0.7719
 8930TIP3   OH226753   0.602   5.672   1.110  0.2097 -0.0946 -0.3251
 8930TIP3    H126754   0.651   5.642   1.033 -0.8198 -2.0065 -0.3167
 8930TIP3    H226755   0.518   5.627   1.103  0.5477 -1.4149  2.5670
 8931TIP3   OH226756   6.974   5.440   3.417  0.3938  0.3509 -0.0464
 8931TIP3    H126757   7.057   5.488   3.427  0.9822 -0.3633 -1.2732
 8931TIP3    H226758   6.961   5.397   3.502  2.0960 -0.7800 -0.3123
 8932TIP3   OH226759   1.408   2.289   2.823  0.3221  0.3894  0.2957
 8932TIP3    H126760   1.365   2.375   2.827 -0.0292  0.1949  0.6618
 8932TIP3    H226761   1.401   2.263   2.731  1.9893  1.5467 -0.2127
 8933TIP3   OH226762   5.832   3.762   0.189 -0.4408 -0.4542  0.5864
 8933TIP3    H126763   5.743   3.792   0.206 -0.3368  0.0334  0.2808
 8933TIP3    H226764   5.822   3.670   0.167 -0.8371 -0.4813  0.8648
 8934TIP3   OH226765   4.876   5.178   3.754 -0.1616 -0.0494  0.1399
 8934TIP3    H126766   4.939   5.174   3.826 -1.7238  1.3621  1.7019
 8934TIP3    H226767   4.885   5.267   3.720 -0.9509  0.0013  0.0501
 8935TIP3   OH226768   5.803   0.742   4.856  0.0780 -0.5711 -0.2239
 8935TIP3    H126769   5.847   0.794   4.788  3.4260 -1.8140  0.7863
 8935TIP3    H226770   5.795   0.802   4.930  0.8027 -0.5130 -0.1832
 8936TIP3   OH226771   5.818   0.726   3.246 -0.2209 -0.1305 -0.5680
 8936TIP3    H126772   5.828   0.819   3.267 -0.2025 -0.1722 -0.3875
 8936TIP3    H226773   5.726   0.716   3.225 -0.9749 -0.6628  2.4927
 8937TIP3   OH226774   6.762   0.899   5.179  0.0589 -0.2781  0.3463
 8937TIP3    H126775   6.709   0.874   5.255  0.0414  1.2052  0.8476
 8937TIP3    H226776   6.790   0.988   5.197  0.9455 -0.2692 -0.9174
 8938TIP3   OH226777   4.755   4.961   5.320 -0.0942  0.0994  0.3583
 8938TIP3    H126778   4.720   5.051   5.321  1.0246  0.5696 -0.9831
 8938TIP3    H226779   4.834   4.966   5.374  0.3186  0.0849 -0.2341
 8939TIP3   OH226780   3.036   3.110   2.595 -0.4006  0.4125 -0.0352
 8939TIP3    H126781   3.048   3.170   2.669  1.8743 -0.0529  0.0517
 8939TIP3    H226782   3.071   3.157   2.520 -0.4082 -0.0566 -0.3358
 8940TIP3   OH226783   5.828   0.298   3.464 -0.0818  0.4856  0.1330
 8940TIP3    H126784   5.867   0.382   3.442 -2.0315  0.9080 -2.1011
 8940TIP3    H226785   5.873   0.271   3.544  3.5775  1.6184 -1.3295
 8941TIP3   OH226786   6.688   6.760   0.321  0.1206  0.4141  0.7562
 8941TIP3    H126787   6.615   6.698   0.321 -0.6259  1.0842 -2.4828
 8941TIP3    H226788   6.763   6.708   0.291  0.5611  0.1496  2.2630
 8942TIP3   OH226789   0.430   4.301   5.251  0.0541  0.4212  0.7462
 8942TIP3    H126790   0.424   4.368   5.320 -0.5338  0.1663  0.9507
 8942TIP3    H226791   0.339   4.281   5.230  0.2314 -0.0010  0.3780
 8943TIP3   OH226792  -0.022   0.242   5.867 -0.4749  0.0809  0.0727
 8943TIP3    H126793   0.060   0.209   5.903 -0.4669 -0.7481 -0.6744
 8943TIP3    H226794  -0.009   0.244   5.772 -1.8295 -1.6238 -0.2046
 8944TIP3   OH226795   1.817   5.976   4.223  0.3582 -0.4360 -0.0899
 8944TIP3    H126796   1.761   5.899   4.227 -0.0440 -0.1280  0.3387
 8944TIP3    H226797   1.849   5.979   4.133 -0.3214 -0.6129 -0.3381
 8945TIP3   OH226798   2.072   1.740   0.206  0.6887  0.6546 -0.1400
 8945TIP3    H126799   2.154   1.714   0.164 -0.3322 -0.2967 -1.6930
 8945TIP3    H226800   2.063   1.680   0.280  0.8777  0.0005 -0.6316
 8946TIP3   OH226801   0.275   5.702   2.725 -0.7483  0.2556  0.3812
 8946TIP3    H126802   0.202   5.714   2.785 -0.7220  0.4237  0.3803
 8946TIP3    H226803   0.338   5.770   2.750 -1.7667  1.9774 -1.4179
 8947TIP3   OH226804   5.871   3.483   2.168  0.2402 -0.1474 -0.1766
 8947TIP3    H126805   5.952   3.494   2.219 -1.0366 -0.1003  1.9817
 8947TIP3    H226806   5.836   3.572   2.160 -0.0923 -0.2836 -0.2274
 8948TIP3   OH226807   5.887   3.073   3.740 -0.3021 -0.1151 -0.2243
 8948TIP3    H126808   5.893   3.048   3.647  2.6840 -1.7481  0.3012
 8948TIP3    H226809   5.793   3.076   3.757 -0.9363 -1.5312 -2.8650
 8949TIP3   OH226810   1.092   1.186   2.311  0.1987 -0.1333  0.0225
 8949TIP3    H126811   1.109   1.109   2.257  0.1938  0.8885 -1.5205
 8949TIP3    H226812   1.008   1.169   2.352 -0.2225 -0.5993 -0.9933
 8950TIP3   OH226813   0.144   0.383   4.725 -0.0992  0.1121  0.2667
 8950TIP3    H126814   0.181   0.451   4.668  0.3487 -1.7937 -1.8885
 8950TIP3    H226815   0.063   0.357   4.681  0.2637 -1.4148  0.4444
 8951TIP3   OH226816   3.841   3.114   1.711  0.0130  0.1210 -0.1183
 8951TIP3    H126817   3.792   3.072   1.640 -0.4137  0.9584 -0.3282
 8951TIP3    H226818   3.903   3.172   1.667  0.6265 -0.3017  0.1701
 8952TIP3   OH226819   7.021   2.281   3.037  0.4647 -0.1685 -0.0691
 8952TIP3    H126820   7.108   2.241   3.048  0.2686 -0.4445  0.5532
 8952TIP3    H226821   7.027   2.364   3.086  0.8071  0.4932 -1.1895
 8953TIP3   OH226822   2.216   0.415   5.745  0.1873  0.1149 -0.1070
 8953TIP3    H126823   2.175   0.450   5.666  0.9357 -0.0787 -0.5950
 8953TIP3    H226824   2.248   0.328   5.719  0.4217  0.0428  0.4118
 8954TIP3   OH226825   4.035   6.236   3.901  0.7507 -0.0017 -0.3286
 8954TIP3    H126826   4.097   6.308   3.900  0.1493  0.5687  1.2201
 8954TIP3    H226827   3.982   6.250   3.979 -1.1610 -0.6129 -1.4349
 8955TIP3   OH226828   1.805   2.534   3.866  0.0760  0.3294 -0.5531
 8955TIP3    H126829   1.783   2.479   3.941  2.7771 -0.0410  0.0626
 8955TIP3    H226830   1.865   2.480   3.814 -0.1832  1.3308 -1.9441
 8956TIP3   OH226831   1.215   3.105   5.493 -0.5809  0.6043 -0.5279
 8956TIP3    H126832   1.272   3.181   5.484  0.2604  0.0431 -0.0925
 8956TIP3    H226833   1.264   3.045   5.550 -1.7295  0.2273  0.0970
 8957TIP3   OH226834   0.672   0.823   5.337  0.6993 -0.2630 -0.3517
 8957TIP3    H126835   0.654   0.877   5.414  1.7227  0.9141 -0.8922
 8957TIP3    H226836   0.592   0.826   5.286  0.9297  1.2938 -0.6623
 8958TIP3   OH226837   6.094   2.260   0.585 -0.2591 -0.2264  0.0936
 8958TIP3    H126838   6.179   2.256   0.628 -0.1916 -3.9233 -0.0403
 8958TIP3    H226839   6.035   2.296   0.651  1.0275  0.4623  0.9049
 8959TIP3   OH226840   5.974   1.433   3.381  0.3737 -0.5043 -0.2691
 8959TIP3    H126841   5.948   1.519   3.348  0.5918 -0.4047 -0.1826
 8959TIP3    H226842   6.055   1.413   3.334  1.7380  0.4799  1.5456
 8960TIP3   OH226843   0.788   2.449   3.397  0.0836  0.1685  0.3218
 8960TIP3    H126844   0.807   2.401   3.317 -0.5400  0.5841 -0.0920
 8960TIP3    H226845   0.773   2.539   3.367  2.3282  0.9032  1.1863
 8961TIP3   OH226846   6.992   5.143   0.423 -0.4266  0.2350 -0.1309
 8961TIP3    H126847   6.986   5.211   0.356 -0.3349  0.0289 -0.3466
 8961TIP3    H226848   7.018   5.064   0.376 -1.0803 -0.0873  0.0339
 8962TIP3   OH226849   4.027   2.416   5.192 -0.4503  0.3037 -0.1565
 8962TIP3    H126850   4.063   2.465   5.265  0.1893  1.3484 -1.1353
 8962TIP3    H226851   4.104   2.383   5.145 -0.8432 -2.1942  0.7900
 8963TIP3   OH226852   2.072   3.330   1.778 -0.0604 -0.4176  0.7486
 8963TIP3    H126853   1.985   3.293   1.792 -0.3689 -0.5114 -1.1844
 8963TIP3    H226854   2.132   3.260   1.805 -0.5096 -0.1596  2.6136
 8964TIP3   OH226855   3.202   2.624   4.807 -0.0066 -0.0103 -0.7364
 8964TIP3    H126856   3.110   2.645   4.792 -1.1808 -2.5622  1.9579
 8964TIP3    H226857   3.228   2.572   4.731 -0.9149  0.2894 -1.2678
 8965TIP3   OH226858   1.244   1.297   1.880  0.1220  0.2731 -0.5409
 8965TIP3    H126859   1.256   1.269   1.789 -0.9093  0.9397 -0.9023
 8965TIP3    H226860   1.149   1.310   1.888  0.4588  3.4271 -0.3610
 8966TIP3   OH226861   5.513   6.450   0.496  0.1924  0.3480  0.1273
 8966TIP3    H126862   5.481   6.418   0.412  2.0086 -1.7232  0.1113
 8966TIP3    H226863   5.527   6.370   0.547  4.3230  1.0358  0.4141
 8967TIP3   OH226864   4.621   3.578   1.305  0.0490 -0.1469  0.0775
 8967TIP3    H126865   4.657   3.498   1.343  0.8322 -0.7708 -1.8873
 8967TIP3    H226866   4.692   3.615   1.253 -1.0598  0.4822 -1.0479
 8968TIP3   OH226867   4.702   3.135   3.054  0.4608 -0.2904  0.6789
 8968TIP3    H126868   4.675   3.043   3.056  0.2600 -0.2717 -0.6812
 8968TIP3    H226869   4.798   3.132   3.057  0.4408 -0.4620  2.2692
 8969TIP3   OH226870   3.118   0.561   3.482  0.1868 -0.1112 -0.2683
 8969TIP3    H126871   3.095   0.476   3.522 -1.3598 -0.0413 -0.9292
 8969TIP3    H226872   3.167   0.606   3.550 -1.0198 -0.6258  1.0055
 8970TIP3   OH226873   3.158   6.503   1.800 -0.0902  0.0907  0.5953
 8970TIP3    H126874   3.194   6.513   1.712  0.6309  0.2583  0.9027
 8970TIP3    H226875   3.149   6.409   1.812 -0.7939  0.0857  0.1125
 8971TIP3   OH226876   1.427   2.711   1.510 -0.2307  0.3653 -0.1176
 8971TIP3    H126877   1.381   2.633   1.543 -1.3626  1.4334  0.9368
 8971TIP3    H226878   1.492   2.676   1.449 -0.7515 -1.4001  0.2683
 8972TIP3   OH226879   2.749   2.732   0.786 -0.1665 -0.0794  0.2401
 8972TIP3    H126880   2.838   2.765   0.773 -0.2853 -0.4189 -1.7937
 8972TIP3    H226881   2.699   2.809   0.813  0.0629  1.0128 -2.1130
 8973TIP3   OH226882   1.863   3.763   2.059  0.1554  0.4560 -0.0730
 8973TIP3    H126883   1.856   3.674   2.024  2.3240  0.0028  0.4652
 8973TIP3    H226884   1.782   3.806   2.032 -0.0633 -1.0647 -2.1028
 8974TIP3   OH226885   3.942   2.618   1.579  0.3732  0.1383 -0.2976
 8974TIP3    H126886   3.983   2.585   1.659 -0.2741 -2.7099 -1.0206
 8974TIP3    H226887   3.849   2.599   1.590  0.0353  1.2804 -1.0481
 8975TIP3   OH226888   6.330   6.661   2.358 -0.2111  0.4721 -0.1304
 8975TIP3    H126889   6.354   6.639   2.448 -0.6320 -1.1308 -0.3671
 8975TIP3    H226890   6.414   6.674   2.314  0.0891 -0.7257  0.0493
 8976TIP3   OH226891   3.600   3.175   1.150 -0.6596 -0.1008 -0.1899
 8976TIP3    H126892   3.674   3.135   1.195 -0.4143  0.1342 -0.3764
 8976TIP3    H226893   3.616   3.269   1.157 -1.6973  0.0038  1.0309
 8977TIP3   OH226894   2.632   4.052   2.561  0.2549 -0.0546  0.4055
 8977TIP3    H126895   2.585   3.983   2.608 -0.3372  1.0677  1.5138
 8977TIP3    H226896   2.569   4.123   2.553  0.9706  0.5151 -0.3879
 8978TIP3   OH226897   1.914   0.981   0.937 -0.1824  0.0455  0.7632
 8978TIP3    H126898   1.942   1.046   0.872 -0.0965  0.8273  1.5566
 8978TIP3    H226899   1.993   0.963   0.989 -0.9490  2.0813  2.8593
 8979TIP3   OH226900   5.570   3.840   1.942  0.0594 -0.5685 -0.6896
 8979TIP3    H126901   5.648   3.895   1.938  1.3306 -2.3610 -2.3029
 8979TIP3    H226902   5.508   3.883   1.884  0.7019 -0.3213 -1.2100
 8980TIP3   OH226903   0.296   1.496   5.376 -0.5096  0.3085  0.3633
 8980TIP3    H126904   0.225   1.484   5.312 -1.3624 -1.0707  1.5123
 8980TIP3    H226905   0.348   1.416   5.369  1.1409  1.4194 -0.6474
 8981TIP3   OH226906   2.918   2.286   0.352 -0.0932  0.3420  0.3428
 8981TIP3    H126907   2.948   2.257   0.266  1.6381 -2.1675  1.6702
 8981TIP3    H226908   2.973   2.361   0.374 -0.2771  0.7440 -0.5390
 8982TIP3   OH226909   3.597   2.207   4.053  0.0909 -0.1642 -0.4145
 8982TIP3    H126910   3.669   2.200   3.990 -0.9817  2.3692 -2.0930
 8982TIP3    H226911   3.520   2.177   4.005 -0.5696  0.7307  0.0572
 8983TIP3   OH226912   5.781   5.215   1.902 -0.7051 -0.5572 -0.6275
 8983TIP3    H126913   5.819   5.299   1.879 -2.8081  0.5259 -0.3542
 8983TIP3    H226914   5.854   5.165   1.939  0.0811  2.1972  1.9943
 8984TIP3   OH226915   4.015   3.294   1.570 -0.1700  0.6201  0.8699
 8984TIP3    H126916   3.948   3.337   1.517 -0.2079  0.0846  0.4713
 8984TIP3    H226917   4.095   3.303   1.518  0.0060  0.9935  1.2029
 8985TIP3   OH226918   3.920   5.306   0.940 -0.7132 -0.0732 -0.0372
 8985TIP3    H126919   3.825   5.304   0.949 -0.5850  1.1330  2.5160
 8985TIP3    H226920   3.945   5.215   0.926 -2.1780 -0.5844  0.5032
 8986TIP3   OH226921   5.569   6.651   5.513  0.4445  0.3120  0.0740
 8986TIP3    H126922   5.484   6.617   5.539  0.8902 -0.9989 -0.1070
 8986TIP3    H226923   5.572   6.739   5.550 -1.5726  0.9634 -1.1800
 8987TIP3   OH226924   1.956   4.598   2.707  0.3082  0.5160  0.1154
 8987TIP3    H126925   1.861   4.600   2.703  0.2626  3.0148  1.1235
 8987TIP3    H226926   1.976   4.535   2.777 -0.5866 -0.0043 -0.0880
 8988TIP3   OH226927   4.738   6.094   5.727 -0.1722  0.1775 -0.0620
 8988TIP3    H126928   4.672   6.120   5.791  0.0854  1.2174 -0.1842
 8988TIP3    H226929   4.694   6.030   5.672 -0.2993 -0.9898  1.3322
 8989TIP3   OH226930   3.655   1.666   2.930  0.1241 -0.4841  0.2436
 8989TIP3    H126931   3.622   1.666   3.020  1.7091 -1.4166  0.8543
 8989TIP3    H226932   3.660   1.573   2.907  1.3733 -0.3204 -0.1787
 8990TIP3   OH226933   6.453   6.496   2.130  0.4424  0.1211 -0.5655
 8990TIP3    H126934   6.494   6.457   2.054  0.2507  2.1375 -1.7610
 8990TIP3    H226935   6.410   6.575   2.097 -0.8395  0.3107  1.3792
 8991TIP3   OH226936   6.217   4.161   0.672  0.1098  0.5039 -0.0544
 8991TIP3    H126937   6.174   4.205   0.598 -0.7719  0.7893  0.6067
 8991TIP3    H226938   6.310   4.183   0.662 -0.1049  1.1976 -0.6271
 8992TIP3   OH226939   0.449   2.110   3.546  0.1871 -0.1526  0.2574
 8992TIP3    H126940   0.452   2.203   3.569  1.6850 -0.1414  0.1643
 8992TIP3    H226941   0.356   2.090   3.536 -0.1970  1.1753  0.9071
 8993TIP3   OH226942   2.341   3.544   0.380 -0.0620  0.2111  0.1712
 8993TIP3    H126943   2.335   3.527   0.474  2.2946  1.7301  0.6943
 8993TIP3    H226944   2.285   3.621   0.366 -0.7570 -0.2789  0.2467
 8994TIP3   OH226945   6.795   6.702   4.067 -0.2228 -0.2273  0.3837
 8994TIP3    H126946   6.879   6.675   4.028 -0.3102 -1.3092  0.8963
 8994TIP3    H226947   6.783   6.643   4.141 -1.5302 -0.2008  0.2194
 8995TIP3   OH226948   5.006   6.760   0.583 -0.4250  0.7054 -0.4754
 8995TIP3    H126949   5.085   6.771   0.530  1.2642  0.8399  1.8813
 8995TIP3    H226950   4.992   6.846   0.623 -1.8426  0.6975 -0.8944
 8996TIP3   OH226951   6.349   2.790   2.895  0.2483 -0.4067 -0.1828
 8996TIP3    H126952   6.337   2.884   2.880 -2.3127 -0.8884 -1.7452
 8996TIP3    H226953   6.422   2.766   2.839  0.4161  0.5112 -0.3724
 8997TIP3   OH226954   0.888   3.558   0.317  0.1304 -0.3167 -0.2511
 8997TIP3    H126955   0.976   3.565   0.281 -0.0535 -1.3055 -0.9506
 8997TIP3    H226956   0.870   3.464   0.318 -1.1105 -0.1012 -0.6330
 8998TIP3   OH226957   3.484   3.663   4.586 -0.1270  0.5295  0.0732
 8998TIP3    H126958   3.417   3.610   4.631 -1.2582  1.8801  0.0498
 8998TIP3    H226959   3.512   3.608   4.513  0.1539 -0.8191  1.1418
 8999TIP3   OH226960   5.969   5.473   1.567 -0.4661  0.0490 -0.1695
 8999TIP3    H126961   5.918   5.551   1.546 -2.0218 -1.2265 -1.3950
 8999TIP3    H226962   5.904   5.411   1.600  0.7727 -0.6737  0.9786
 9000TIP3   OH226963   6.677   2.752   3.875 -0.7657 -0.3703 -0.1122
 9000TIP3    H126964   6.610   2.773   3.810 -1.2320  1.2112  0.8351
 9000TIP3    H226965   6.667   2.658   3.890 -0.1670 -0.9459 -2.8085
 9001TIP3   OH226966   1.694   1.265   0.456 -0.0224  0.2208 -0.1218
 9001TIP3    H126967   1.746   1.323   0.401 -0.7645  0.0696 -1.0093
 9001TIP3    H226968   1.625   1.321   0.492  2.1372  1.0687  3.1927
 9002TIP3   OH226969   6.620   6.233   2.553  0.9181  0.0450 -0.7299
 9002TIP3    H126970   6.601   6.258   2.643  3.4669  0.0916 -0.1061
 9002TIP3    H226971   6.653   6.313   2.512  0.9499 -0.2699 -1.3334
 9003TIP3   OH226972   2.525   0.581   1.709  0.0297  0.0134  0.4564
 9003TIP3    H126973   2.475   0.596   1.790 -1.4665 -2.7800  0.1606
 9003TIP3    H226974   2.517   0.488   1.693 -0.9685  0.6383 -3.7234
 9004TIP3   OH226975   2.494   3.207   4.920  0.6096 -0.3653  0.1316
 9004TIP3    H126976   2.426   3.251   4.870  0.4824 -0.8858 -0.1651
 9004TIP3    H226977   2.465   3.116   4.925  1.5988 -0.7395 -0.5721
 9005TIP3   OH226978   0.668   0.812   3.709 -0.3820  0.1350 -0.6593
 9005TIP3    H126979   0.723   0.872   3.758  1.6765 -1.9571 -0.2829
 9005TIP3    H226980   0.629   0.754   3.775 -0.1055 -0.7029 -1.2132
 9006TIP3   OH226981   2.421   6.738   5.176  0.1150  0.5548  0.2271
 9006TIP3    H126982   2.448   6.654   5.139 -2.5428 -1.7280  2.9632
 9006TIP3    H226983   2.338   6.758   5.133 -1.2010 -0.3030  2.2536
 9007TIP3   OH226984   5.897   3.633   5.660  0.3335 -0.0783  0.1466
 9007TIP3    H126985   5.985   3.666   5.679  0.6542  0.1968 -1.6476
 9007TIP3    H226986   5.899   3.611   5.567 -1.4763 -0.1727  0.0921
 9008TIP3   OH226987   6.683   4.525   3.674 -0.5218  0.0884  0.7028
 9008TIP3    H126988   6.663   4.505   3.765  1.2829 -1.5348  0.7915
 9008TIP3    H226989   6.767   4.571   3.677 -1.0661  1.2098 -0.0895
 9009TIP3   OH226990   6.203   5.299   1.646  0.6073 -0.3753 -0.2782
 9009TIP3    H126991   6.147   5.375   1.662  0.8155  0.0077 -1.3050
 9009TIP3    H226992   6.289   5.326   1.679  0.0221 -1.3580  2.3118
 9010TIP3   OH226993   0.895   1.796   2.350  0.0832 -0.2690  0.1194
 9010TIP3    H126994   0.841   1.873   2.367 -0.5275 -0.0617 -2.3551
 9010TIP3    H226995   0.838   1.721   2.367 -0.1693 -0.0966  0.0352
 9011TIP3   OH226996   2.488   5.587   2.265  0.6468  0.2053 -0.0317
 9011TIP3    H126997   2.561   5.619   2.211  1.2144  1.4421  1.3996
 9011TIP3    H226998   2.530   5.545   2.340 -0.0166  2.0818  1.4869
 9012TIP3   OH226999   6.800   5.616   0.181 -0.2795  0.4053  0.3170
 9012TIP3    H127000   6.712   5.578   0.183  0.1350 -0.9230 -2.3162
 9012TIP3    H227001   6.791   5.697   0.132 -0.0883  0.3904  0.2555
 9013TIP3   OH227002   1.488   4.274   5.249 -0.0008 -0.1573 -0.4931
 9013TIP3    H127003   1.491   4.353   5.303  2.1510 -0.2150 -0.4662
 9013TIP3    H227004   1.525   4.206   5.305  1.9291 -0.2914 -1.8723
 9014TIP3   OH227005   4.284   6.670   4.562 -0.1221 -0.1904  0.2406
 9014TIP3    H127006   4.220   6.716   4.508  0.6718  0.1084 -0.4655
 9014TIP3    H227007   4.233   6.635   4.635 -1.0105  0.4252 -0.0686
 9015TIP3   OH227008   2.777   5.066   5.769 -0.0496 -0.6493 -0.4146
 9015TIP3    H127009   2.694   5.043   5.728 -1.1573  0.9491  0.7566
 9015TIP3    H227010   2.820   5.124   5.706 -0.1180 -0.9820 -0.7683
 9016TIP3   OH227011   2.693   0.347   0.872 -0.3875  0.0384  0.1724
 9016TIP3    H127012   2.620   0.356   0.811 -0.4651  1.1053  0.3986
 9016TIP3    H227013   2.666   0.397   0.950 -0.8405 -2.3453  1.6251
 9017TIP3   OH227014   5.016   4.649   1.664 -0.2843 -0.4338 -0.1266
 9017TIP3    H127015   5.104   4.677   1.691 -0.0335  0.5569 -1.8086
 9017TIP3    H227016   4.961   4.726   1.682 -0.2486 -0.0299 -1.6459
 9018TIP3   OH227017   6.560   5.543   3.667  0.2566  0.1180  0.0086
 9018TIP3    H127018   6.610   5.521   3.746  0.9289 -0.2155 -0.5019
 9018TIP3    H227019   6.578   5.471   3.606 -1.0831 -0.1728 -0.0959
 9019TIP3   OH227020   4.609   4.526   4.461 -0.0923 -0.0153 -0.1791
 9019TIP3    H127021   4.661   4.589   4.510  1.3528 -1.1138 -0.2173
 9019TIP3    H227022   4.532   4.509   4.517  0.6142  0.1194  0.8617
 9020TIP3   OH227023   4.261   0.695   5.440 -0.6408  0.1746 -0.1035
 9020TIP3    H127024   4.322   0.658   5.503 -1.3614  1.0393  1.1355
 9020TIP3    H227025   4.269   0.790   5.451 -0.5692  0.3684 -1.5316
 9021TIP3   OH227026   6.604   1.170   4.127 -0.3189  0.4729 -0.6763
 9021TIP3    H127027   6.601   1.228   4.051  2.2301  0.1108 -1.1621
 9021TIP3    H227028   6.665   1.213   4.187  0.6046 -1.0247 -0.4824
 9022TIP3   OH227029   6.367   5.817   0.588  0.2170 -0.2577 -0.3695
 9022TIP3    H127030   6.323   5.746   0.542  1.3608  0.2481 -2.3858
 9022TIP3    H227031   6.296   5.876   0.614 -0.5090 -0.7947 -1.0897
 9023TIP3   OH227032   1.875   3.313   3.884 -0.2374  0.4468  0.2754
 9023TIP3    H127033   1.876   3.404   3.852  1.0091  0.7266  1.0686
 9023TIP3    H227034   1.784   3.300   3.913 -0.0960  1.9932  1.6165
 9024TIP3   OH227035   5.261   3.769   2.777  0.2808  0.0973 -0.2846
 9024TIP3    H127036   5.219   3.693   2.818 -0.1327  0.5119  0.0737
 9024TIP3    H227037   5.215   3.781   2.694  1.0914 -0.7183 -0.8716
 9025TIP3   OH227038   0.517   0.886   3.209  0.4996 -0.2470 -0.7084
 9025TIP3    H127039   0.512   0.851   3.120  2.3472  1.7825 -1.7200
 9025TIP3    H227040   0.456   0.960   3.210 -1.5729 -1.8688  0.6487
 9026TIP3   OH227041   4.728   5.155   0.392 -0.0901 -0.4067  0.0028
 9026TIP3    H127042   4.704   5.126   0.480  1.6994  0.6062  0.8674
 9026TIP3    H227043   4.648   5.145   0.341 -0.9405 -1.8167  1.5264
 9027TIP3   OH227044   4.184   4.606   3.914 -0.1240  0.1764  0.1330
 9027TIP3    H127045   4.251   4.668   3.884  1.0915 -1.4178 -0.5854
 9027TIP3    H227046   4.158   4.639   4.000  1.3694  0.9993  0.3025
 9028TIP3   OH227047   2.477   3.598   5.478 -0.2979  0.4133  0.0258
 9028TIP3    H127048   2.442   3.547   5.405  2.1753 -1.9430  0.3247
 9028TIP3    H227049   2.453   3.548   5.556  0.3566  0.8642  0.5275
 9029TIP3   OH227050   1.017   6.219   3.506 -0.7718 -0.5248 -0.1316
 9029TIP3    H127051   1.068   6.148   3.466  0.7484  0.9155 -0.8463
 9029TIP3    H227052   0.942   6.231   3.448 -0.4105 -0.7594 -0.6529
 9030TIP3   OH227053   6.873   5.581   4.515 -0.4695  0.1736  0.3279
 9030TIP3    H127054   6.789   5.560   4.472 -1.1899 -1.1522  2.2805
 9030TIP3    H227055   6.937   5.524   4.471 -0.4919  1.3252 -1.3043
 9031TIP3   OH227056   3.213   0.054   2.697 -0.1443 -0.2618  0.2785
 9031TIP3    H127057   3.298   0.093   2.719 -1.9005  2.5543  2.9808
 9031TIP3    H227058   3.213  -0.031   2.742  1.5570 -0.7637 -0.6094
 9032TIP3   OH227059   0.568   4.514   0.867 -0.1343  0.0700 -0.0542
 9032TIP3    H127060   0.473   4.507   0.861 -0.0794 -0.2091 -0.7939
 9032TIP3    H227061   0.595   4.430   0.905 -0.2686  0.6610  1.3949
 9033TIP3   OH227062   2.289   4.975   2.643  0.1032  0.3345  0.2654
 9033TIP3    H127063   2.328   4.938   2.564  0.8947  2.0022 -0.1603
 9033TIP3    H227064   2.213   4.919   2.661  0.5800 -0.7674 -0.9888
 9034TIP3   OH227065   5.797   5.863   2.441 -0.0023  0.0729  0.0056
 9034TIP3    H127066   5.741   5.786   2.445  0.5832 -0.3823 -0.4271
 9034TIP3    H227067   5.886   5.829   2.443  0.2676  0.7137 -0.4684
 9035TIP3   OH227068   1.854   1.601   4.663  0.0936  0.0688  0.1134
 9035TIP3    H127069   1.915   1.665   4.699  1.2442 -1.1583  0.4509
 9035TIP3    H227070   1.816   1.558   4.740  0.3944 -0.5885 -0.0905
 9036TIP3   OH227071   1.031   6.573   5.223  0.0023  0.3562 -0.4196
 9036TIP3    H127072   1.011   6.518   5.298  2.9556  0.2975  0.4278
 9036TIP3    H227073   1.020   6.663   5.255  1.3793  0.3348  0.1634
 9037TIP3   OH227074   1.655   5.288   5.629 -0.0107 -0.6262  0.5088
 9037TIP3    H127075   1.717   5.354   5.658 -0.6988  0.7683 -0.9977
 9037TIP3    H227076   1.707   5.224   5.581  0.3503  0.2317 -0.2591
 9038TIP3   OH227077   0.269   2.455   1.417 -0.3743 -0.5681 -0.1396
 9038TIP3    H127078   0.287   2.369   1.453 -0.3102 -0.3283  0.4167
 9038TIP3    H227079   0.338   2.511   1.453 -0.0350 -0.4206 -1.0152
 9039TIP3   OH227080   6.309   0.928   5.702 -0.4557 -0.0527 -0.5566
 9039TIP3    H127081   6.323   1.007   5.755 -0.6835  0.5667 -1.3924
 9039TIP3    H227082   6.383   0.871   5.724  0.3607  0.8858 -0.8126
 9040TIP3   OH227083   0.359   3.749   4.797  0.4057 -0.3463 -0.1075
 9040TIP3    H127084   0.277   3.798   4.799 -0.1437 -1.2582  0.3199
 9040TIP3    H227085   0.338   3.667   4.753  0.7349 -1.1952  1.2748
 9041TIP3   OH227086   2.450   3.319   0.664 -0.2226 -0.0598  0.6560
 9041TIP3    H127087   2.361   3.300   0.696 -0.9213 -0.1032 -1.1750
 9041TIP3    H227088   2.450   3.288   0.574  1.2102  1.2660  0.1547
 9042TIP3   OH227089   4.668   0.624   5.387 -0.3694 -0.2418  0.7339
 9042TIP3    H127090   4.594   0.632   5.327 -1.0386  0.8945  1.6560
 9042TIP3    H227091   4.629   0.631   5.474  0.8202  0.4339  1.2454
 9043TIP3   OH227092   6.004   2.890   3.089 -0.4179  0.0512 -0.0012
 9043TIP3    H127093   5.915   2.854   3.082  0.7354 -2.9593 -0.8966
 9043TIP3    H227094   6.041   2.847   3.165  0.5556  0.5714 -0.1735
 9044TIP3   OH227095   3.249   6.033   1.990 -0.0513 -0.1306 -0.9530
 9044TIP3    H127096   3.340   6.034   2.018 -0.2416  0.6629 -0.2971
 9044TIP3    H227097   3.203   5.983   2.057 -0.2638  0.4364 -0.6620
 9045TIP3   OH227098   5.287   2.255   1.490 -0.1179 -0.0893 -0.3700
 9045TIP3    H127099   5.241   2.339   1.496  0.3010  0.1437 -0.3272
 9045TIP3    H227100   5.218   2.189   1.488 -0.4452  0.2468 -0.1917
 9046TIP3   OH227101   6.165   5.740   3.948 -0.3609  0.1472  0.6260
 9046TIP3    H127102   6.220   5.751   3.870 -3.1285  1.3019 -1.3814
 9046TIP3    H227103   6.170   5.647   3.969 -0.3262 -0.4220 -1.6502
 9047TIP3   OH227104   0.650   6.488   1.957  0.1012 -0.4569 -0.1102
 9047TIP3    H127105   0.727   6.503   2.012 -0.8391 -0.8448  1.3715
 9047TIP3    H227106   0.653   6.394   1.937  0.0397 -0.4712 -0.0560
 9048TIP3   OH227107   2.656   5.198   1.807  0.1526  0.4988 -0.5971
 9048TIP3    H127108   2.575   5.244   1.785  0.3856  0.6092 -1.2634
 9048TIP3    H227109   2.724   5.249   1.765  0.7210  1.1621  1.0744
 9049TIP3   OH227110   1.235   6.738   0.171 -0.2550 -0.2965 -0.3632
 9049TIP3    H127111   1.261   6.654   0.134  1.1148 -0.0146 -0.1103
 9049TIP3    H227112   1.181   6.778   0.104  0.1694 -0.8273 -1.0375
 9050TIP3   OH227113   2.873   5.184   3.619  0.3344  0.3418 -0.3884
 9050TIP3    H127114   2.853   5.276   3.600 -0.2796  0.1082 -0.9301
 9050TIP3    H227115   2.954   5.186   3.669  1.8818  1.0255 -2.8023
 9051TIP3   OH227116   0.243   4.570   0.124 -0.6421  0.2873  0.1933
 9051TIP3    H127117   0.251   4.571   0.220  0.8680 -1.3337  0.1245
 9051TIP3    H227118   0.295   4.495   0.096 -0.8555  0.8690 -1.9414
 9052TIP3   OH227119   0.474   3.383   3.367  0.6171 -0.1104 -0.2745
 9052TIP3    H127120   0.462   3.308   3.424  0.3116 -0.2360 -0.4999
 9052TIP3    H227121   0.435   3.357   3.284 -0.6344  0.7436  0.0128
 9053TIP3   OH227122   2.537   4.136   2.835 -0.2632  0.4903  0.4949
 9053TIP3    H127123   2.465   4.192   2.863  0.2930  1.7500 -0.4902
 9053TIP3    H227124   2.601   4.196   2.796  0.2224 -0.8645 -0.8898
 9054TIP3   OH227125   0.684   6.137   5.350 -0.0523  0.1032 -0.3837
 9054TIP3    H127126   0.634   6.100   5.277 -0.2248 -0.8051  0.1853
 9054TIP3    H227127   0.704   6.227   5.322 -0.0956 -0.2361 -1.5545
 9055TIP3   OH227128   5.613   1.115   5.439 -0.3708 -0.3668 -0.5123
 9055TIP3    H127129   5.632   1.027   5.406 -0.0068 -0.6650  0.4517
 9055TIP3    H227130   5.685   1.134   5.500  0.3991  1.2256 -1.8221
 9056TIP3   OH227131   3.607   4.321   5.003  0.2485 -0.6086  0.8422
 9056TIP3    H127132   3.548   4.303   4.930  0.1059 -3.0922  1.4437
 9056TIP3    H227133   3.593   4.247   5.063  0.2428  1.3658  3.4940
 9057TIP3   OH227134   6.927   2.806   5.013  0.0591 -0.5848  0.0069
 9057TIP3    H127135   6.856   2.741   5.020 -1.2807  0.9670  2.0997
 9057TIP3    H227136   7.006   2.754   5.000 -1.0643 -2.5864  0.7803
 9058TIP3   OH227137   4.676   5.404   0.527  0.1470 -0.1334  0.1109
 9058TIP3    H127138   4.749   5.362   0.481 -0.1596 -0.5586  0.0033
 9058TIP3    H227139   4.623   5.441   0.457  0.4408  0.4787  0.2101
 9059TIP3   OH227140   2.431   4.537   0.784  0.3948 -0.0256 -0.5573
 9059TIP3    H127141   2.495   4.466   0.787 -0.5930 -0.9933 -1.3313
 9059TIP3    H227142   2.394   4.532   0.696  0.1600  1.3481 -0.5617
 9060TIP3   OH227143   5.740   2.064   5.289  0.0418 -0.5941 -0.2635
 9060TIP3    H127144   5.796   2.014   5.230  1.2659 -0.3032  0.6057
 9060TIP3    H227145   5.680   1.999   5.325  0.7704 -1.2107 -0.1221
 9061TIP3   OH227146   4.806   5.833   1.312 -0.0770 -0.5353 -0.6186
 9061TIP3    H127147   4.777   5.746   1.283 -0.5910 -0.5943  0.0453
 9061TIP3    H227148   4.743   5.858   1.380  0.3465  0.1542 -0.4684
 9062TIP3   OH227149   3.929   4.174   3.702 -0.4117 -0.4903 -0.0430
 9062TIP3    H127150   3.859   4.117   3.670 -2.2300  1.1873  0.7864
 9062TIP3    H227151   3.988   4.115   3.749 -0.7660 -2.0704 -1.4604
 9063TIP3   OH227152   6.117   1.987   0.060 -0.7627 -0.0633 -0.1574
 9063TIP3    H127153   6.158   2.073   0.072  0.3480 -0.8819  2.5482
 9063TIP3    H227154   6.188   1.928   0.037 -1.0651 -0.7260  0.5380
 9064TIP3   OH227155   5.487   5.690   1.539 -0.3412 -0.7796 -0.6028
 9064TIP3    H127156   5.523   5.770   1.578 -1.1841 -0.4648 -0.4461
 9064TIP3    H227157   5.540   5.676   1.460 -0.7018  0.4080 -1.0820
 9065TIP3   OH227158   4.966   0.643   3.748 -0.4489 -0.0612 -0.1967
 9065TIP3    H127159   5.057   0.671   3.762 -0.1171 -1.6560  1.2678
 9065TIP3    H227160   4.914   0.722   3.764  0.6557  0.8237 -0.8142
 9066TIP3   OH227161   0.466   2.026   3.903 -0.1607  0.4881 -0.4130
 9066TIP3    H127162   0.479   2.037   3.809 -0.6251 -0.9295 -0.6832
 9066TIP3    H227163   0.403   1.953   3.909 -0.7866  1.1057  0.9766
 9067TIP3   OH227164   4.610   5.405   5.739  0.4612  0.1317 -0.0988
 9067TIP3    H127165   4.596   5.479   5.798 -0.5419  0.4443 -0.7042
 9067TIP3    H227166   4.664   5.440   5.668  0.3769  0.1588 -0.1491
 9068TIP3   OH227167   6.564   5.308   2.906 -0.4365  0.5191 -0.3924
 9068TIP3    H127168   6.595   5.375   2.967 -2.7092  0.6790  0.7080
 9068TIP3    H227169   6.588   5.341   2.819  1.7870  0.8894  0.2919
 9069TIP3   OH227170   2.645   4.234   5.875 -0.6130 -0.5764  0.3645
 9069TIP3    H127171   2.595   4.269   5.801  1.0750 -1.0495 -1.0667
 9069TIP3    H227172   2.675   4.312   5.922 -0.1779 -0.1807 -0.5333
 9070TIP3   OH227173   5.674   1.610   1.177  0.2273 -0.4034  0.1104
 9070TIP3    H127174   5.640   1.552   1.245 -0.5649  0.6874  0.6665
 9070TIP3    H227175   5.659   1.698   1.210  3.4659  0.2006  0.3127
 9071TIP3   OH227176   3.174   2.001   4.692 -0.1132  0.0684  0.0270
 9071TIP3    H127177   3.089   1.959   4.698  0.1966 -0.8413 -1.5316
 9071TIP3    H227178   3.186   2.021   4.599  2.4528 -2.2309 -0.2569
 9072TIP3   OH227179   2.538   6.103   3.260 -0.0296 -0.5827  0.1004
 9072TIP3    H127180   2.483   6.071   3.188 -0.3979 -0.4001  0.2983
 9072TIP3    H227181   2.524   6.198   3.260  0.8986 -0.4311 -0.3523
 9073TIP3   OH227182   1.067   4.084   1.256 -0.1588  0.0658  0.3110
 9073TIP3    H127183   1.111   4.043   1.183  0.2207 -1.9207  1.5885
 9073TIP3    H227184   0.984   4.036   1.264 -1.4013  1.9709 -0.3776
 9074TIP3   OH227185   4.272   5.687   3.543 -1.0719 -0.2165  0.3048
 9074TIP3    H127186   4.329   5.733   3.605 -3.4891  0.5169  2.1344
 9074TIP3    H227187   4.254   5.751   3.474  0.3762 -0.5207 -0.4039
 9075TIP3   OH227188   4.216   5.767   2.071  0.1178 -0.2875  0.4131
 9075TIP3    H127189   4.212   5.726   1.984  0.4781  3.3205 -1.5010
 9075TIP3    H227190   4.138   5.822   2.075  1.1057  1.0857  1.5272
 9076TIP3   OH227191   4.322   1.736   5.634  0.0376 -0.3603 -0.1800
 9076TIP3    H127192   4.320   1.718   5.540  0.4768 -0.1997 -0.2243
 9076TIP3    H227193   4.305   1.651   5.675  0.4634 -0.5614 -0.4055
 9077TIP3   OH227194   5.623   3.042   3.782 -0.1378  0.1695  0.5068
 9077TIP3    H127195   5.540   3.011   3.746  0.3475 -0.6650  0.0810
 9077TIP3    H227196   5.606   3.133   3.806 -1.0286  0.1597 -0.0464
 9078TIP3   OH227197   6.506   6.411   5.657 -0.0292  0.3412  0.1949
 9078TIP3    H127198   6.460   6.341   5.612 -0.7765 -0.5010  2.1652
 9078TIP3    H227199   6.449   6.487   5.647 -0.4856  0.0110  0.2516
 9079TIP3   OH227200   3.179   5.279   1.230  0.1973 -0.5172 -0.3089
 9079TIP3    H127201   3.125   5.279   1.151  0.4712 -0.5114 -0.5001
 9079TIP3    H227202   3.124   5.239   1.297 -0.8459  1.4290  0.0556
 9080TIP3   OH227203   5.195   3.000   0.852  0.0609  0.7011  0.2856
 9080TIP3    H127204   5.140   2.922   0.843 -0.4705  1.1324 -0.3471
 9080TIP3    H227205   5.270   2.971   0.903 -1.3844  0.3874  2.3872
 9081TIP3   OH227206   6.850   6.455   2.466 -0.3378  0.4485  0.6888
 9081TIP3    H127207   6.796   6.425   2.392 -0.0814  1.4199  0.0781
 9081TIP3    H227208   6.856   6.550   2.453  2.3788  0.2702  0.1548
 9082TIP3   OH227209   0.681   4.208   5.563  0.5942 -0.0271 -0.1603
 9082TIP3    H127210   0.679   4.150   5.638 -1.9927 -1.2059 -1.0327
 9082TIP3    H227211   0.609   4.269   5.577  0.7763  0.4387 -1.1423
 9083TIP3   OH227212   4.325   6.228   2.537 -0.0932  0.3514  0.4443
 9083TIP3    H127213   4.281   6.272   2.465  2.1830 -1.1447 -2.0284
 9083TIP3    H227214   4.257   6.173   2.576 -0.8013 -1.1508 -2.5882
 9084TIP3   OH227215   5.223   0.431   1.185 -0.2698  0.2857 -0.4479
 9084TIP3    H127216   5.180   0.352   1.153 -0.9363  0.2740  0.4523
 9084TIP3    H227217   5.293   0.399   1.242 -1.2102  0.3300  0.7747
 9085TIP3   OH227218   5.712   6.144   4.163  0.1674  0.1682  0.2305
 9085TIP3    H127219   5.619   6.159   4.179 -0.0168 -0.0734 -0.5882
 9085TIP3    H227220   5.754   6.227   4.185 -0.4058  0.7181 -0.6873
 9086TIP3   OH227221   4.208   5.684   5.114  0.1287  0.2390  0.5787
 9086TIP3    H127222   4.190   5.626   5.040  0.4552  0.0687  0.6276
 9086TIP3    H227223   4.216   5.624   5.189  0.5982  0.3286  0.6076
 9087TIP3   OH227224   5.175   2.801   3.644  0.3115 -0.1895 -0.4402
 9087TIP3    H127225   5.253   2.856   3.632 -0.5473  1.3921  0.8761
 9087TIP3    H227226   5.168   2.790   3.739 -2.1555  1.4355 -0.3317
 9088TIP3   OH227227   0.014   5.534   0.286 -0.2617  0.0814  0.3664
 9088TIP3    H127228   0.025   5.504   0.376  1.0346 -2.1312 -0.4586
 9088TIP3    H227229  -0.023   5.459   0.240  0.2101  0.7719 -1.2003
 9089TIP3   OH227230   3.605   3.253   0.110 -0.1121  0.5187 -0.3955
 9089TIP3    H127231   3.519   3.287   0.086 -0.9382 -1.0783  0.1173
 9089TIP3    H227232   3.596   3.228   0.202  0.4154 -1.0024 -0.7158
 9090TIP3   OH227233   5.571   1.348   2.288 -0.1802  0.0014  0.0441
 9090TIP3    H127234   5.657   1.329   2.324  0.6833  0.9149 -1.4405
 9090TIP3    H227235   5.573   1.312   2.200 -2.3436 -2.4504  0.8565
 9091TIP3   OH227236   3.127   4.785   2.467 -0.0404  0.2026 -0.3784
 9091TIP3    H127237   3.034   4.780   2.489  0.0735 -1.0692 -0.1518
 9091TIP3    H227238   3.172   4.776   2.551  0.2996  3.5038 -0.0822
 9092TIP3   OH227239   3.353   2.955   5.344  0.3400  0.0716 -0.5395
 9092TIP3    H127240   3.301   2.920   5.271  1.5230 -0.2709 -1.2504
 9092TIP3    H227241   3.350   2.886   5.410  0.9264 -0.4928 -1.0870
 9093TIP3   OH227242   3.350   0.238   4.944 -0.2498  0.1075  0.1826
 9093TIP3    H127243   3.375   0.308   5.004 -1.3088  0.8481 -0.2150
 9093TIP3    H227244   3.419   0.172   4.954  1.2356  1.5592 -0.0724
 9094TIP3   OH227245   0.783   0.459   3.498 -0.3517  0.3530 -0.5320
 9094TIP3    H127246   0.851   0.499   3.552  0.0576  0.4291 -1.0953
 9094TIP3    H227247   0.729   0.532   3.468 -0.9944  0.2401  0.3362
 9095TIP3   OH227248   1.764   5.744   3.590 -0.3128  0.3691 -0.3996
 9095TIP3    H127249   1.808   5.662   3.565  1.5620  1.6894 -1.6963
 9095TIP3    H227250   1.709   5.766   3.515 -0.9897  0.2121  0.0383
 9096TIP3   OH227251   0.559   2.888   0.635  0.2106 -0.3545  0.8435
 9096TIP3    H127252   0.560   2.973   0.679  0.2132 -0.5093  1.1381
 9096TIP3    H227253   0.521   2.828   0.698 -0.8146 -0.3624  0.2432
 9097TIP3   OH227254   3.203   6.744   0.441 -0.1153 -0.6535  0.2012
 9097TIP3    H127255   3.181   6.818   0.385  1.1233 -0.7246 -0.4162
 9097TIP3    H227256   3.233   6.783   0.523  0.7901 -0.4520 -0.2179
 9098TIP3   OH227257   2.001   4.055   0.309  0.1039 -0.4307 -0.1463
 9098TIP3    H127258   2.038   4.094   0.387 -0.4210 -1.4392  0.6323
 9098TIP3    H227259   1.953   4.126   0.267 -0.9706 -0.2458  1.3223
 9099TIP3   OH227260   2.219   4.677   3.456 -0.7442  0.3656  0.4263
 9099TIP3    H127261   2.133   4.634   3.456 -0.2676 -0.6199  0.0250
 9099TIP3    H227262   2.203   4.764   3.419 -1.7535  0.6010  1.3701
 9100TIP3   OH227263   3.081   0.445   5.129 -0.2026 -0.0917  0.1500
 9100TIP3    H127264   3.018   0.413   5.065 -0.8610 -0.6391  1.0519
 9100TIP3    H227265   3.030   0.460   5.208  0.6011  0.5499  0.5675
 9101TIP3   OH227266   1.624   0.685   2.609  0.2979  0.5106 -0.1783
 9101TIP3    H127267   1.688   0.617   2.587 -0.8853 -0.3714 -1.0119
 9101TIP3    H227268   1.572   0.695   2.529 -1.9495 -0.3119  1.1115
 9102TIP3   OH227269   2.000   3.665   3.567  0.3087 -0.6816  0.2927
 9102TIP3    H127270   2.031   3.640   3.480 -0.9019  0.0618 -0.3698
 9102TIP3    H227271   2.070   3.636   3.626  1.8241  0.0861 -1.0462
 9103TIP3   OH227272   6.496   0.750   0.644  0.4739 -0.0600 -0.2451
 9103TIP3    H127273   6.567   0.802   0.605  0.9348 -0.4884  0.0067
 9103TIP3    H227274   6.463   0.697   0.572 -0.5165  1.1141 -0.6948
 9104TIP3   OH227275   4.231   2.758   4.556 -0.1277 -0.3830  0.0402
 9104TIP3    H127276   4.275   2.781   4.474  0.1961  0.8092  0.5289
 9104TIP3    H227277   4.138   2.751   4.532 -0.2280  1.2857 -0.2031
 9105TIP3   OH227278   3.213   1.547   1.174  0.7280 -0.1594  0.3983
 9105TIP3    H127279   3.286   1.591   1.218 -1.0707  1.8101  1.5887
 9105TIP3    H227280   3.217   1.456   1.206  0.9375  0.6258  2.8166
 9106TIP3   OH227281   6.814   1.663   4.541 -0.0443 -1.0952  0.2218
 9106TIP3    H127282   6.793   1.729   4.606  0.0683 -0.7960 -0.0445
 9106TIP3    H227283   6.866   1.709   4.475  1.5062 -1.8349  0.8823
 9107TIP3   OH227284   0.282   2.197   4.460  0.4493 -0.1089 -0.3869
 9107TIP3    H127285   0.280   2.193   4.556  3.1751 -1.4129 -0.2787
 9107TIP3    H227286   0.362   2.246   4.441 -0.9640  1.7225 -2.0769
 9108TIP3   OH227287   0.351   2.798   1.467 -0.2980  0.4255  0.4631
 9108TIP3    H127288   0.333   2.795   1.561  0.1510  0.8712  0.5692
 9108TIP3    H227289   0.403   2.720   1.451  0.6165  0.9402  0.8156
 9109TIP3   OH227290   3.911   6.465   2.317 -0.0365 -0.1136 -0.0238
 9109TIP3    H127291   3.841   6.487   2.256 -0.5540  0.3460  0.7293
 9109TIP3    H227292   3.944   6.549   2.348 -0.9532 -0.3307  1.6433
 9110TIP3   OH227293   3.786   6.228   4.908  0.2339 -0.4867 -0.1582
 9110TIP3    H127294   3.775   6.161   4.841 -0.4334 -1.4375  0.8694
 9110TIP3    H227295   3.747   6.191   4.987 -0.7394  1.3578  0.3029
 9111TIP3   OH227296   1.198   3.503   3.148 -0.4356 -0.2429  0.0398
 9111TIP3    H127297   1.286   3.495   3.112 -0.2294 -3.3211  0.9634
 9111TIP3    H227298   1.195   3.591   3.185  2.7008 -0.4420  1.0775
 9112TIP3   OH227299   7.125   1.990   0.567  0.3549 -0.3180  0.5184
 9112TIP3    H127300   7.037   1.953   0.573  0.2043  0.1884  1.6540
 9112TIP3    H227301   7.182   1.913   0.559 -0.2673 -0.6089 -2.1580
 9113TIP3   OH227302   6.008   5.451   5.119 -0.6421 -0.0839  0.1220
 9113TIP3    H127303   5.990   5.357   5.112 -1.3019  0.1259 -1.5793
 9113TIP3    H227304   6.103   5.457   5.109 -0.6892 -0.5361 -0.7975
 9114TIP3   OH227305   5.981   5.269   0.273 -0.5123  0.1974 -0.2587
 9114TIP3    H127306   5.895   5.229   0.283 -0.8110  0.7446 -0.6222
 9114TIP3    H227307   5.987   5.292   0.181 -0.1297  0.5105 -0.1615
 9115TIP3   OH227308   1.330   0.595   4.829 -0.1466 -0.5627 -0.2020
 9115TIP3    H127309   1.376   0.610   4.912 -0.4363 -0.8825  0.0191
 9115TIP3    H227310   1.251   0.547   4.854 -1.3776  1.2558 -0.3760
 9116TIP3   OH227311   1.543   6.672   0.290 -0.2770  0.0273  0.1925
 9116TIP3    H127312   1.480   6.603   0.268  0.1838 -0.2000 -0.4602
 9116TIP3    H227313   1.507   6.751   0.250 -1.2105  0.3584  1.6074
 9117TIP3   OH227314   4.009   6.394   3.109  0.2872 -0.0748  0.0520
 9117TIP3    H127315   4.049   6.471   3.148 -0.4014  0.4325 -0.2160
 9117TIP3    H227316   3.982   6.341   3.183 -0.6544  0.6969  0.2769
 9118TIP3   OH227317   0.251   5.523   1.325  0.1863 -0.3031 -0.4196
 9118TIP3    H127318   0.339   5.555   1.346  0.8964 -2.2310 -0.1552
 9118TIP3    H227319   0.266   5.441   1.278 -1.4798 -0.2704 -1.0790
 9119TIP3   OH227320   2.912   4.897   4.260 -0.6130 -0.0890 -0.3614
 9119TIP3    H127321   3.004   4.922   4.265 -0.5882 -0.3046  0.4214
 9119TIP3    H227322   2.884   4.925   4.173 -0.0440  0.7925 -0.2690
 9120TIP3   OH227323   3.935   4.208   2.529 -0.2685  0.0243 -0.6674
 9120TIP3    H127324   3.957   4.136   2.588 -0.6717  0.4110 -0.0286
 9120TIP3    H227325   3.887   4.166   2.457  0.8624 -0.5530 -1.1091
 9121TIP3   OH227326   0.939   0.176   4.072 -0.3544 -0.0375  0.3760
 9121TIP3    H127327   0.943   0.184   3.977  0.7139  0.8359  0.4747
 9121TIP3    H227328   0.955   0.083   4.090  3.1115  0.3245 -0.1761
 9122TIP3   OH227329   5.832   6.319   3.929 -0.8430 -0.4117 -0.3906
 9122TIP3    H127330   5.906   6.273   3.969  0.1245  0.6375 -0.9145
 9122TIP3    H227331   5.872   6.373   3.860 -1.9394  1.1324  0.1477
 9123TIP3   OH227332   3.890   5.672   1.567  0.4018  0.5953 -0.2737
 9123TIP3    H127333   3.837   5.608   1.519 -0.0278  0.0730  0.8359
 9123TIP3    H227334   3.826   5.721   1.619  0.8521  1.0964 -0.1881
 9124TIP3   OH227335   4.116   3.983   3.884 -0.4203  0.4653  0.1724
 9124TIP3    H127336   4.096   4.049   3.950 -0.2167  0.5264  0.1734
 9124TIP3    H227337   4.209   3.995   3.865 -0.7753  1.2894 -1.0740
 9125TIP3   OH227338   0.319   3.966   0.361  0.5022  0.0506 -0.2157
 9125TIP3    H127339   0.378   4.006   0.424  2.0903 -0.6861 -1.1616
 9125TIP3    H227340   0.317   4.027   0.288  0.5473 -0.1851 -0.4152
 9126TIP3   OH227341   3.345   5.824   5.328  0.3419  0.3724 -0.7476
 9126TIP3    H127342   3.278   5.778   5.278 -0.2136  1.4892 -1.0324
 9126TIP3    H227343   3.297   5.876   5.392  0.9538  0.7668 -0.5992
 9127TIP3   OH227344   5.699   6.031   5.318 -0.2438 -0.1415 -0.2152
 9127TIP3    H127345   5.606   6.029   5.297 -0.0850  0.0221 -0.9661
 9127TIP3    H227346   5.738   5.967   5.258 -0.0442 -1.2119  1.0211
 9128TIP3   OH227347   5.047   1.111   1.159  0.0083 -0.1884 -0.6152
 9128TIP3    H127348   5.017   1.201   1.168  2.6537  0.7768 -0.5798
 9128TIP3    H227349   4.967   1.060   1.144 -1.4719  2.2768 -1.6449
 9129TIP3   OH227350   2.614   5.945   0.241  0.2644 -0.0730 -0.4294
 9129TIP3    H127351   2.698   5.956   0.286  0.0020 -0.6354  0.2244
 9129TIP3    H227352   2.616   5.855   0.208 -1.4492 -1.3963  2.6438
 9130TIP3   OH227353   4.938   0.085   3.583  0.3806 -0.4640  0.3600
 9130TIP3    H127354   4.884   0.164   3.576 -1.0973 -1.5727 -2.6587
 9130TIP3    H227355   5.024   0.112   3.550 -0.2750 -0.2032 -1.2072
 9131TIP3   OH227356   2.607   4.720   2.119  0.1551  0.4794 -0.4343
 9131TIP3    H127357   2.620   4.757   2.206  0.1147 -0.3061 -0.0934
 9131TIP3    H227358   2.679   4.755   2.067  0.0113  1.1847 -0.1671
 9132TIP3   OH227359   2.787   6.474   4.482 -0.2639 -0.1380  0.1476
 9132TIP3    H127360   2.761   6.530   4.408  0.6063  1.4954  1.0182
 9132TIP3    H227361   2.826   6.398   4.441 -2.2376 -0.5573 -1.1039
 9133TIP3   OH227362   2.663   0.059   4.362  0.0752 -0.6947 -0.0623
 9133TIP3    H127363   2.584   0.050   4.416 -0.6359  2.3204 -0.3918
 9133TIP3    H227364   2.731   0.086   4.423 -0.6457  2.3715 -0.4476
 9134TIP3   OH227365   3.260   0.674   2.720  0.2281 -0.1849  0.1162
 9134TIP3    H127366   3.325   0.745   2.722 -0.1697  0.2642 -1.5275
 9134TIP3    H227367   3.191   0.703   2.780  1.1557 -0.3069  1.2764
 9135TIP3   OH227368   3.395   5.725   1.844 -0.0444  0.4175  0.1567
 9135TIP3    H127369   3.343   5.757   1.918 -0.9459 -0.7725  0.0693
 9135TIP3    H227370   3.349   5.757   1.767 -0.4028 -0.2262  0.0899
 9136TIP3   OH227371   1.480   0.965   2.210  0.2979  0.2572  0.3686
 9136TIP3    H127372   1.402   0.999   2.166 -1.0089 -2.3897  0.4359
 9136TIP3    H227373   1.554   0.997   2.157 -0.8962  1.5350 -0.5988
 9137TIP3   OH227374   4.752   5.529   5.538 -0.1259 -0.0921 -0.4136
 9137TIP3    H127375   4.789   5.553   5.453 -0.0256 -0.0425 -0.3559
 9137TIP3    H227376   4.823   5.485   5.584  0.6251  1.9857  0.5882
 9138TIP3   OH227377   6.894   3.025   2.112  0.3728  0.0581 -0.1239
 9138TIP3    H127378   6.805   3.036   2.145  1.1615  1.2286  1.8209
 9138TIP3    H227379   6.906   2.931   2.105 -1.1622 -0.1104 -0.9562
 9139TIP3   OH227380   2.232   0.643   0.637  0.4548 -0.0553 -0.2368
 9139TIP3    H127381   2.157   0.584   0.626  2.6179 -2.8188 -1.5901
 9139TIP3    H227382   2.239   0.689   0.554  0.1406  0.3998 -0.0164
 9140TIP3   OH227383   3.267   1.012   3.678 -0.0471 -0.7085  0.3296
 9140TIP3    H127384   3.314   0.998   3.760 -1.1556  1.0910  1.3418
 9140TIP3    H227385   3.311   1.086   3.636  0.8670 -1.9646 -1.0284
 9141TIP3   OH227386   0.072   2.169   3.163 -0.0963 -0.1479 -0.1765
 9141TIP3    H127387   0.113   2.189   3.078  1.3031  0.4873  0.6229
 9141TIP3    H227388   0.102   2.080   3.182  1.3747  0.4856  0.6285
 9142TIP3   OH227389   5.447   3.032   2.526 -0.2582 -1.0104  0.0192
 9142TIP3    H127390   5.526   2.979   2.532 -0.0694 -0.7003  0.3116
 9142TIP3    H227391   5.388   2.995   2.590 -0.0254 -0.7018  0.4161
 9143TIP3   OH227392   1.215   3.584   1.181 -0.0350 -0.1042 -0.1215
 9143TIP3    H127393   1.128   3.592   1.142  0.3372  1.4187 -0.7353
 9143TIP3    H227394   1.202   3.600   1.274 -0.3972  0.2402 -0.2305
 9144TIP3   OH227395   3.907   0.966   2.092 -0.5501  0.1764  0.0466
 9144TIP3    H127396   3.937   0.878   2.069 -2.3765 -0.6286  0.5552
 9144TIP3    H227397   3.854   0.994   2.017  1.0730  1.4246 -0.6903
 9145TIP3   OH227398   5.671   0.779   0.137 -0.2640 -0.0756  0.6499
 9145TIP3    H127399   5.717   0.854   0.175 -0.9225 -0.1959  1.7297
 9145TIP3    H227400   5.705   0.703   0.184 -0.7836 -0.2762  0.7091
 9146TIP3   OH227401   0.810   3.892   0.836  0.2660  0.0363  0.4382
 9146TIP3    H127402   0.861   3.962   0.796  0.3066 -0.6218 -0.7045
 9146TIP3    H227403   0.719   3.919   0.822  0.1788 -1.3178 -2.3978
 9147TIP3   OH227404   4.340   1.878   2.813 -0.4658 -0.3777  0.1255
 9147TIP3    H127405   4.248   1.853   2.810 -0.3444 -1.1271  1.5969
 9147TIP3    H227406   4.380   1.815   2.873  0.9889  0.0089 -0.3867
 9148TIP3   OH227407   2.208   1.672   5.305  0.1982  0.2290 -0.1287
 9148TIP3    H127408   2.284   1.624   5.271  0.4234  0.0100  0.6583
 9148TIP3    H227409   2.170   1.714   5.228  1.7030  1.1699 -0.3955
 9149TIP3   OH227410   0.974   3.891   2.412  0.6241 -0.2306 -0.1545
 9149TIP3    H127411   0.975   3.800   2.442  3.5045  0.3618  1.9830
 9149TIP3    H227412   1.009   3.887   2.323 -1.1084 -1.3180 -0.8478
 9150TIP3   OH227413   1.268   2.523   0.289  0.0891 -0.3181 -0.1223
 9150TIP3    H127414   1.231   2.606   0.320  0.3630  0.2271 -1.2167
 9150TIP3    H227415   1.331   2.548   0.221 -1.6636 -1.5101 -2.3330
 9151TIP3   OH227416   2.689   3.038   3.457 -0.4558  0.2082 -0.4618
 9151TIP3    H127417   2.609   3.087   3.474 -0.5194  0.4532 -1.4045
 9151TIP3    H227418   2.662   2.967   3.398  0.0517  0.4122 -0.9464
 9152TIP3   OH227419   4.785   5.380   0.929  0.5535 -0.3162  0.2353
 9152TIP3    H127420   4.694   5.364   0.955  0.4953 -0.4899 -0.0737
 9152TIP3    H227421   4.784   5.470   0.894  0.6137 -0.1165  0.7401
 9153TIP3   OH227422   2.770   2.395   1.284 -0.2199 -0.8965  0.0470
 9153TIP3    H127423   2.682   2.367   1.259 -0.6696  1.0851 -0.7959
 9153TIP3    H227424   2.758   2.483   1.320  1.3840 -0.6717  0.1116
 9154TIP3   OH227425   6.722   5.380   1.268 -0.5526 -0.3553  0.3009
 9154TIP3    H127426   6.773   5.451   1.309 -0.2054  0.4509 -1.4238
 9154TIP3    H227427   6.788   5.317   1.240 -0.6409 -0.1718 -0.3361
 9155TIP3   OH227428   4.508   6.051   3.130  0.0198  0.5302  0.1470
 9155TIP3    H127429   4.494   6.084   3.219  0.4905 -0.2353  0.5134
 9155TIP3    H227430   4.578   6.106   3.095  0.4927  0.2182  0.5929
 9156TIP3   OH227431   1.122   3.405   5.656 -0.2817  0.0016  0.0820
 9156TIP3    H127432   1.097   3.495   5.632  1.7420  0.1365 -1.9455
 9156TIP3    H227433   1.164   3.371   5.577  0.9239 -1.9803  1.4939
 9157TIP3   OH227434   6.661   5.029   2.166  0.1577 -0.5975 -0.4254
 9157TIP3    H127435   6.677   5.073   2.082 -0.7504 -1.2486 -0.9604
 9157TIP3    H227436   6.600   4.959   2.145 -1.6413  0.3940  1.1024
 9158TIP3   OH227437   5.523   2.480   5.828  0.1445  0.5573 -0.0983
 9158TIP3    H127438   5.566   2.486   5.742 -0.2542 -0.4582 -0.3927
 9158TIP3    H227439   5.593   2.456   5.888 -0.0478 -1.6996 -0.6771
 9159TIP3   OH227440   1.424   2.285   1.413 -0.0989  0.1352  0.3130
 9159TIP3    H127441   1.494   2.226   1.385 -1.3583 -1.3667  0.2069
 9159TIP3    H227442   1.444   2.306   1.504 -0.0302 -1.0809  0.5841
 9160TIP3   OH227443   1.274   0.761   1.800  0.6548 -0.4103  0.3423
 9160TIP3    H127444   1.332   0.690   1.771  1.1264  0.0868  0.0673
 9160TIP3    H227445   1.322   0.841   1.781 -0.2693  0.0262 -0.1918
 9161TIP3   OH227446   1.008   5.283   3.428 -0.5250 -0.2996 -0.0954
 9161TIP3    H127447   1.006   5.191   3.403  0.5012 -1.1381  2.5525
 9161TIP3    H227448   1.100   5.301   3.450 -1.1867  0.3185  2.6040
 9162TIP3   OH227449   1.699   4.602   5.617 -0.6879 -0.4737 -0.0725
 9162TIP3    H127450   1.622   4.571   5.568 -0.9252  0.1366 -0.0972
 9162TIP3    H227451   1.762   4.627   5.550 -0.5078 -0.8617 -0.0526
 9163TIP3   OH227452   0.917   2.322   3.192  0.4652 -0.2003 -0.3579
 9163TIP3    H127453   0.977   2.250   3.211 -0.6043 -1.2310 -0.7436
 9163TIP3    H227454   0.941   2.351   3.104 -1.2151 -2.3871 -1.6522
 9164TIP3   OH227455   5.767   5.635   0.328  0.0354  0.5407 -0.0508
 9164TIP3    H127456   5.842   5.616   0.384  0.0132 -0.3451 -0.3038
 9164TIP3    H227457   5.700   5.571   0.355  0.1806 -0.2121 -1.3644
 9165TIP3   OH227458   1.743   4.044   1.358  0.4159  0.2296 -0.1601
 9165TIP3    H127459   1.817   3.984   1.361 -1.4819 -2.3090 -0.7910
 9165TIP3    H227460   1.686   4.009   1.290 -0.2817  3.5161 -1.4886
 9166TIP3   OH227461   0.984   5.358   4.784  0.6802  0.0226  0.1503
 9166TIP3    H127462   1.063   5.353   4.838  0.9168  0.5677 -0.1424
 9166TIP3    H227463   0.982   5.275   4.737  0.4431 -0.4828  1.0269
 9167TIP3   OH227464   2.427   2.743   1.013 -0.0738  0.2517 -0.4697
 9167TIP3    H127465   2.342   2.701   1.026 -0.4201  1.0554 -0.1161
 9167TIP3    H227466   2.489   2.670   1.012 -0.7752 -0.3578 -0.8882
 9168TIP3   OH227467   1.205   4.618   3.767  0.2101 -0.4214 -0.3648
 9168TIP3    H127468   1.194   4.680   3.696  1.3461  0.3269  0.0860
 9168TIP3    H227469   1.270   4.658   3.825 -0.0366 -1.4068  0.6444
 9169TIP3   OH227470   3.701   2.838   2.398  0.0739 -0.6908 -0.5514
 9169TIP3    H127471   3.724   2.927   2.426  0.5529 -1.2467  0.9102
 9169TIP3    H227472   3.754   2.781   2.454  0.5075 -1.8992 -2.1124
 9170TIP3   OH227473   6.272   2.041   3.726  0.4125 -0.4257  0.0513
 9170TIP3    H127474   6.284   2.012   3.816  1.1944  1.9852  0.8044
 9170TIP3    H227475   6.350   2.093   3.706 -0.9213  1.3134 -1.0334
 9171TIP3   OH227476   5.144   1.546   5.609  0.2352  0.0441 -0.2551
 9171TIP3    H127477   5.157   1.592   5.527 -0.2344  0.8404  0.1003
 9171TIP3    H227478   5.149   1.614   5.676  3.5208 -0.9736  0.6795
 9172TIP3   OH227479   5.951   5.974   1.439 -0.3762 -0.8811  0.0419
 9172TIP3    H127480   6.017   6.041   1.423 -0.2964 -1.1373 -0.7163
 9172TIP3    H227481   5.895   6.012   1.507 -0.2857 -0.0741 -0.3253
 9173TIP3   OH227482   3.707   6.486   2.153  0.1489  0.5607  0.3134
 9173TIP3    H127483   3.620   6.445   2.154 -0.0047  0.7896 -1.5523
 9173TIP3    H227484   3.705   6.544   2.078  2.1050  0.1739 -0.0718
 9174TIP3   OH227485   0.323   6.399   1.142  0.4341  0.3993 -0.0875
 9174TIP3    H127486   0.331   6.387   1.047 -0.4769  1.0008 -0.2558
 9174TIP3    H227487   0.296   6.313   1.175  0.3718  0.2848 -0.4297
 9175TIP3   OH227488   7.137   0.576   2.511  0.6090 -0.3742 -0.3878
 9175TIP3    H127489   7.076   0.632   2.559  0.5025  0.3966 -1.3813
 9175TIP3    H227490   7.155   0.624   2.430  0.9007 -1.5552 -1.0505
 9176TIP3   OH227491   3.879   1.316   2.962 -0.1489  0.6701 -0.6753
 9176TIP3    H127492   3.845   1.259   2.893 -0.6608 -2.4652  1.9412
 9176TIP3    H227493   3.802   1.362   2.995 -0.0778  1.3695 -1.4645
 9177TIP3   OH227494   0.446   5.783   2.133 -0.2421 -0.9309 -0.5423
 9177TIP3    H127495   0.528   5.811   2.173 -0.5873  1.0350 -1.0825
 9177TIP3    H227496   0.379   5.836   2.177 -0.6426  1.2862 -3.5214
 9178TIP3   OH227497   5.282   2.377   4.398 -0.2265 -0.3989 -0.2661
 9178TIP3    H127498   5.325   2.460   4.379  1.4621 -0.7962  1.5066
 9178TIP3    H227499   5.223   2.396   4.471  1.9540 -1.1422  1.8124
 9179TIP3   OH227500   2.528   4.882   0.688 -0.0039 -0.0108 -0.4558
 9179TIP3    H127501   2.530   4.838   0.773 -2.0461  1.5588  0.4934
 9179TIP3    H227502   2.606   4.850   0.643  0.1428 -2.3493  1.2460
 9180TIP3   OH227503   5.785   1.150   5.645  0.7327  0.1085 -0.5109
 9180TIP3    H127504   5.706   1.165   5.697  0.8238  0.4036 -0.4534
 9180TIP3    H227505   5.854   1.193   5.695  0.7386  0.8475 -1.1304
 9181TIP3   OH227506   6.240   3.619   4.467 -0.2765  0.7054 -0.3218
 9181TIP3    H127507   6.248   3.642   4.374 -0.3220 -0.3982 -0.6108
 9181TIP3    H227508   6.325   3.642   4.505  0.0871  0.2370 -0.8416
 9182TIP3   OH227509   0.920   0.381   4.279  0.3522 -0.1835 -0.3467
 9182TIP3    H127510   0.956   0.364   4.192  0.7523 -0.1780 -0.1853
 9182TIP3    H227511   0.906   0.293   4.316  2.8436 -0.2553  0.6599
 9183TIP3   OH227512   4.594   3.930   3.694 -0.1228 -0.1503  0.0995
 9183TIP3    H127513   4.668   3.881   3.729  0.1259 -0.2801 -0.5930
 9183TIP3    H227514   4.552   3.968   3.771 -0.6789 -1.9357  0.7353
 9184TIP3   OH227515   5.241   4.917   2.661 -0.4352 -0.1291  0.4247
 9184TIP3    H127516   5.246   4.822   2.667  1.9601 -0.0045  1.5815
 9184TIP3    H227517   5.153   4.938   2.691 -0.7822 -1.9345  0.8057
 9185TIP3   OH227518   3.309   0.758   5.590 -0.1263  0.0312 -0.1259
 9185TIP3    H127519   3.327   0.748   5.684 -0.0306  0.7587 -0.0604
 9185TIP3    H227520   3.291   0.852   5.579  2.1663  0.4118 -1.2064
 9186TIP3   OH227521   2.965   2.356   1.991 -0.2833  0.6264 -0.5634
 9186TIP3    H127522   2.935   2.416   2.059 -2.3468 -1.6583  0.6822
 9186TIP3    H227523   3.058   2.379   1.978  0.3499  0.9357  3.3213
 9187TIP3   OH227524   5.347   4.953   1.240  0.3665 -0.1455  0.6085
 9187TIP3    H127525   5.305   4.897   1.175  1.8167  0.0325 -0.5276
 9187TIP3    H227526   5.329   5.042   1.211  0.8874 -0.0608  0.5430
 9188TIP3   OH227527   3.585   1.715   3.176 -0.0549 -0.0329 -0.7697
 9188TIP3    H127528   3.492   1.695   3.189  0.2771 -0.6095  0.8580
 9188TIP3    H227529   3.593   1.807   3.202 -0.4394  0.5462 -2.5116
 9189TIP3   OH227530   0.924   0.859   0.873 -0.0941 -0.2358 -0.1505
 9189TIP3    H127531   0.994   0.850   0.939 -0.6506  0.7935  0.5998
 9189TIP3    H227532   0.945   0.792   0.807 -0.0271 -1.9659  1.5244
 9190TIP3   OH227533   6.007   2.671   1.892  0.0553 -0.1998  0.2670
 9190TIP3    H127534   6.076   2.666   1.826  1.2833 -0.1682  1.4887
 9190TIP3    H227535   6.036   2.613   1.962 -2.1426 -1.7206  0.0207
 9191TIP3   OH227536   4.295   1.312   4.085 -0.1868  0.3634 -0.4512
 9191TIP3    H127537   4.311   1.406   4.093 -0.3546  0.4186 -0.7491
 9191TIP3    H227538   4.285   1.297   3.991 -0.8748  0.1696 -0.3536
 9192TIP3   OH227539   1.910   1.574   3.676 -0.6404  0.3142  0.2990
 9192TIP3    H127540   1.933   1.524   3.597  0.4615 -0.6607  1.1933
 9192TIP3    H227541   1.841   1.522   3.718 -0.3075  0.1343  0.6331
 9193TIP3   OH227542   3.170   4.972   5.491  0.5164 -0.2191  0.4419
 9193TIP3    H127543   3.241   5.010   5.543  1.9359 -1.3983 -0.5423
 9193TIP3    H227544   3.157   5.034   5.419  1.5759 -0.6844 -0.1706
 9194TIP3   OH227545   1.169   1.283   4.147 -0.3277 -0.1693 -0.1452
 9194TIP3    H127546   1.160   1.254   4.057  1.6296  1.2692 -0.8790
 9194TIP3    H227547   1.104   1.353   4.156  0.4857  0.7122 -0.9472
 9195TIP3   OH227548   6.874   2.448   5.749  0.8039  0.0055  0.4177
 9195TIP3    H127549   6.779   2.445   5.741  0.7442 -2.7307  1.1277
 9195TIP3    H227550   6.901   2.518   5.690 -1.5348 -0.3168 -1.1721
 9196TIP3   OH227551   3.566   1.895   1.931 -0.4363  0.3871 -0.3634
 9196TIP3    H127552   3.654   1.857   1.940 -0.2547  0.5925 -1.1508
 9196TIP3    H227553   3.571   1.977   1.980  0.9422  2.1475 -3.1627
 9197TIP3   OH227554   2.515   2.782   1.729  0.5284  0.3096 -0.0268
 9197TIP3    H127555   2.434   2.806   1.683 -0.1904 -0.2596  0.9132
 9197TIP3    H227556   2.527   2.689   1.710 -0.7837 -0.4294  2.3357
 9198TIP3   OH227557   2.433   1.038   1.261 -0.3267 -0.3777 -0.4822
 9198TIP3    H127558   2.454   0.982   1.336 -0.0239  0.2271 -0.1081
 9198TIP3    H227559   2.425   0.977   1.187  0.5331 -0.8644 -0.1911
 9199TIP3   OH227560   1.565   5.786   4.773 -0.3780 -0.3189 -0.5776
 9199TIP3    H127561   1.626   5.849   4.735  1.2217  0.4551  2.9363
 9199TIP3    H227562   1.568   5.712   4.713  2.2080  0.6340 -1.7931
 9200TIP3   OH227563   5.861   3.721   2.524  0.1096  0.8545  0.7155
 9200TIP3    H127564   5.777   3.765   2.537 -0.3720 -0.3280  2.0052
 9200TIP3    H227565   5.848   3.635   2.564  0.7611 -0.7712 -2.2495
 9201TIP3   OH227566   0.127   0.607   5.588  0.0019 -0.6282 -0.5080
 9201TIP3    H127567   0.205   0.582   5.539  0.4016  0.1555 -0.3004
 9201TIP3    H227568   0.158   0.621   5.677 -0.5486 -1.1607 -0.2265
 9202TIP3   OH227569   5.892   5.729   4.261  0.0802  0.3534 -0.2552
 9202TIP3    H127570   5.958   5.757   4.198  1.1473  1.0853  1.1588
 9202TIP3    H227571   5.809   5.735   4.213  0.8113  1.3850 -1.4284
 9203TIP3   OH227572   2.339   2.113   0.329  0.0412  0.4805 -0.3840
 9203TIP3    H127573   2.254   2.106   0.373 -1.8533  1.8649 -3.4694
 9203TIP3    H227574   2.400   2.134   0.399 -2.2925  0.3239  1.8730
 9204TIP3   OH227575   4.982   5.752   1.510 -0.0453  0.5805  1.0551
 9204TIP3    H127576   4.928   5.797   1.444 -1.3024 -0.5658  1.2529
 9204TIP3    H227577   5.044   5.819   1.540  1.0269  0.9546 -1.7297
 9205TIP3   OH227578   1.802   2.389   5.413 -0.0982  0.5623  0.4057
 9205TIP3    H127579   1.715   2.362   5.444  0.4110 -0.6898  0.7811
 9205TIP3    H227580   1.799   2.485   5.416 -1.9606  0.6126 -0.9392
 9206TIP3   OH227581   2.391   6.641   1.396  0.1754 -0.0578  0.6590
 9206TIP3    H127582   2.359   6.730   1.409  0.0457 -0.2215  1.5585
 9206TIP3    H227583   2.381   6.625   1.302  0.7971  1.0986  0.3764
 9207TIP3   OH227584   2.686   5.134   5.071 -0.1068 -0.0514 -0.4986
 9207TIP3    H127585   2.613   5.088   5.029 -0.8477  1.2140 -0.6690
 9207TIP3    H227586   2.650   5.164   5.155  1.5536 -3.1359  1.4851
 9208TIP3   OH227587   2.189   4.032   1.226  0.1200 -0.1970  0.2726
 9208TIP3    H127588   2.219   4.091   1.157 -1.4921 -0.6762 -0.8946
 9208TIP3    H227589   2.268   3.989   1.257  0.9532  0.4203 -0.9051
 9209TIP3   OH227590   6.226   4.405   3.985 -0.1281 -0.2450  0.3095
 9209TIP3    H127591   6.234   4.357   3.902 -0.7393 -0.9306  0.6360
 9209TIP3    H227592   6.212   4.337   4.051  0.7784  0.2629  1.0444
 9210TIP3   OH227593   3.689   4.730   0.652 -0.2738  0.0753 -0.2474
 9210TIP3    H127594   3.732   4.725   0.566 -0.4058 -1.8739 -0.2562
 9210TIP3    H227595   3.629   4.804   0.645  1.8895  1.9225 -0.7647
 9211TIP3   OH227596   4.752   2.164   1.468  0.3443  0.0886 -0.1892
 9211TIP3    H127597   4.718   2.175   1.379 -0.8113 -2.3234 -0.1362
 9211TIP3    H227598   4.683   2.201   1.524  0.1908 -0.1039 -0.2485
 9212TIP3   OH227599   0.920   6.451   1.803  0.7027  0.3275 -0.2847
 9212TIP3    H127600   0.970   6.472   1.724  1.7036  0.0494  0.2617
 9212TIP3    H227601   0.829   6.467   1.778  1.1402  2.0212 -0.9278
 9213TIP3   OH227602   5.259   0.064   5.035  0.2468 -0.5049  0.3592
 9213TIP3    H127603   5.336   0.093   4.986  1.4099 -1.6701  1.3812
 9213TIP3    H227604   5.254   0.124   5.109  1.2776 -1.4481  1.2385
 9214TIP3   OH227605   4.058   1.242   3.169  0.2327 -0.0433  0.2723
 9214TIP3    H127606   3.997   1.279   3.105 -0.5580  2.6530  2.3957
 9214TIP3    H227607   4.128   1.307   3.176 -0.1358  0.1921  2.7107
 9215TIP3   OH227608   7.092   1.450   1.549 -0.5640  0.0486  0.1258
 9215TIP3    H127609   7.172   1.400   1.567 -0.3796 -0.0742 -0.9552
 9215TIP3    H227610   7.030   1.423   1.617 -0.2926 -1.2579 -0.1290
 9216TIP3   OH227611   3.313   4.013   5.352  0.1416 -0.4849 -0.5708
 9216TIP3    H127612   3.303   3.919   5.338 -0.8131 -0.2754 -1.5044
 9216TIP3    H227613   3.238   4.037   5.407  0.0088 -0.1683 -0.8865
 9217TIP3   OH227614   0.123   2.111   0.803 -0.0132  0.3339 -0.0410
 9217TIP3    H127615   0.085   2.075   0.722 -0.3101  2.1187 -0.7504
 9217TIP3    H227616   0.214   2.130   0.780  0.3637 -0.6483  0.5733
 9218TIP3   OH227617   0.824   5.047   2.921 -0.1687 -0.1556  0.4871
 9218TIP3    H127618   0.808   5.141   2.912 -0.7368 -0.1062  1.8503
 9218TIP3    H227619   0.906   5.041   2.970  0.5245 -0.3945 -0.6675
 9219TIP3   OH227620   6.296   2.405   3.625  0.4142 -0.0786 -0.1105
 9219TIP3    H127621   6.337   2.334   3.674 -0.6777 -0.7948 -0.2120
 9219TIP3    H227622   6.210   2.371   3.599 -0.0740  1.2204 -0.2885
 9220TIP3   OH227623   3.623   1.219   1.040  0.4194  0.7106 -0.9249
 9220TIP3    H127624   3.599   1.308   1.016  2.3466  1.2178 -1.1935
 9220TIP3    H227625   3.671   1.185   0.964 -3.8776 -2.2574 -2.7359
 9221TIP3   OH227626   1.384   3.236   4.041 -0.0670  0.3084  0.0588
 9221TIP3    H127627   1.394   3.190   4.125 -0.5017 -0.3488 -0.2404
 9221TIP3    H227628   1.422   3.322   4.057 -1.9961  0.9669  1.5619
 9222TIP3   OH227629   6.866   2.514  -0.036 -0.6603  0.4497  0.7028
 9222TIP3    H127630   6.890   2.579   0.031 -0.6673  1.1174  0.0745
 9222TIP3    H227631   6.803   2.457   0.008 -0.2059  0.5088  1.4533
 9223TIP3   OH227632   0.844   3.219   1.075 -0.1456  0.5202 -0.4390
 9223TIP3    H127633   0.897   3.247   1.001  0.7629  2.8900  0.9743
 9223TIP3    H227634   0.761   3.267   1.064 -1.3630 -1.7165 -1.6329
 9224TIP3   OH227635   6.326   0.145   2.421  0.4037 -0.0760  0.5811
 9224TIP3    H127636   6.317   0.150   2.516  0.3028  0.4719  0.5463
 9224TIP3    H227637   6.379   0.067   2.406  1.5034  0.5363  1.1543
 9225TIP3   OH227638   2.162   3.804   1.524  0.0691 -0.3283 -0.7245
 9225TIP3    H127639   2.209   3.886   1.533  1.7007 -1.0000 -2.5939
 9225TIP3    H227640   2.201   3.747   1.591  0.1413 -0.1174 -0.5853
 9226TIP3   OH227641   5.419   0.579   3.633 -0.2930 -0.0325 -0.6243
 9226TIP3    H127642   5.456   0.500   3.593 -1.5076  0.0995 -2.1192
 9226TIP3    H227643   5.482   0.605   3.699  1.6541 -0.5212 -2.1998
 9227TIP3   OH227644   6.080   5.833   2.436 -0.1011  0.8017  0.3867
 9227TIP3    H127645   6.068   5.740   2.419  0.4969  0.4361  1.8112
 9227TIP3    H227646   6.173   5.849   2.423 -0.5801  1.8252 -2.4660
 9228TIP3   OH227647   7.120   1.930   1.361 -0.0435  0.4956 -0.0644
 9228TIP3    H127648   7.046   1.871   1.356 -0.2375  0.5752  1.5001
 9228TIP3    H227649   7.183   1.885   1.417  1.2934  0.2488 -1.6792
 9229TIP3   OH227650   1.679   6.433   2.971 -0.2290  0.0526 -0.1435
 9229TIP3    H127651   1.717   6.364   3.025 -2.7597 -0.2547  1.4286
 9229TIP3    H227652   1.684   6.399   2.882  1.1031 -0.9017  0.2687
 9230TIP3   OH227653   6.634   0.054   5.604 -0.1250 -0.3341 -0.4865
 9230TIP3    H127654   6.609   0.118   5.537  0.5522  0.5893  0.1169
 9230TIP3    H227655   6.687   0.104   5.666  0.3465 -1.4694  0.0519
 9231TIP3   OH227656   0.689   3.815   4.265 -0.0077  0.7102 -0.1489
 9231TIP3    H127657   0.668   3.777   4.350  1.0760  1.4164  0.4452
 9231TIP3    H227658   0.645   3.758   4.202  0.7954 -0.9630  0.7693
 9232TIP3   OH227659   5.569   2.712   3.146 -0.3113  0.0831  0.0729
 9232TIP3    H127660   5.643   2.741   3.092  0.0108 -0.7073  0.0866
 9232TIP3    H227661   5.506   2.784   3.140  0.2494  0.5508 -0.3348
 9233TIP3   OH227662   6.794   2.382   0.368  0.3137  0.3457 -0.8072
 9233TIP3    H127663   6.795   2.419   0.456  0.7163  0.0977 -0.7024
 9233TIP3    H227664   6.752   2.449   0.314  0.9733  0.9274 -0.6100
 9234TIP3   OH227665   7.004   3.402   2.573 -0.0982 -0.6408 -0.1395
 9234TIP3    H127666   6.915   3.436   2.577 -0.9329 -2.0402 -3.6343
 9234TIP3    H227667   7.054   3.471   2.528  0.4595 -0.1976  1.1068
 9235TIP3   OH227668   6.694   1.686   1.688 -0.0786  0.3141  0.0337
 9235TIP3    H127669   6.782   1.707   1.659 -0.1437 -1.9675 -2.1488
 9235TIP3    H227670   6.637   1.739   1.633 -0.0982  0.1624 -0.0932
 9236TIP3   OH227671   3.605   2.063   2.897  0.1498 -0.4516 -0.5195
 9236TIP3    H127672   3.569   2.117   2.826  0.8169  0.1469 -0.4192
 9236TIP3    H227673   3.538   2.066   2.965  0.3286  0.5800 -0.3678
 9237TIP3   OH227674   3.210   1.081   4.326 -0.7770 -0.3453 -0.5862
 9237TIP3    H127675   3.246   1.164   4.357  0.1992 -0.9362 -0.0677
 9237TIP3    H227676   3.277   1.016   4.349 -0.8943 -1.0862 -2.1894
 9238TIP3   OH227677   4.918   3.265   3.605 -0.2338  0.4864  0.2548
 9238TIP3    H127678   4.905   3.358   3.622 -1.3975  0.6340 -1.2239
 9238TIP3    H227679   4.862   3.246   3.529  0.3927 -1.2971  0.1824
 9239TIP3   OH227680   0.123   0.229   4.362  0.3247 -0.0625  0.0888
 9239TIP3    H127681   0.124   0.153   4.421 -0.4551 -0.1806 -0.0407
 9239TIP3    H227682   0.192   0.210   4.298  1.1376  0.0346  0.9132
 9240TIP3   OH227683   5.578   1.860   0.967  0.2555 -0.0262 -0.0809
 9240TIP3    H127684   5.540   1.934   0.920  0.8719  0.6532  0.4714
 9240TIP3    H227685   5.672   1.866   0.951  0.2992 -0.7792 -0.1564
 9241TIP3   OH227686   4.253   5.387   5.261 -0.4102  0.5856  0.5002
 9241TIP3    H127687   4.295   5.369   5.346  0.5246  0.5302  0.0330
 9241TIP3    H227688   4.159   5.383   5.280 -0.2150  0.0884  1.4355
 9242TIP3   OH227689   6.794   0.376   4.325 -0.5236 -0.2925 -0.1253
 9242TIP3    H127690   6.829   0.411   4.407 -0.1710 -0.7075 -0.0970
 9242TIP3    H227691   6.729   0.441   4.297  1.4327  1.3976 -1.0522
 9243TIP3   OH227692   0.824   0.794   5.713  0.0532  0.2855  0.4711
 9243TIP3    H127693   0.804   0.700   5.716  0.2349  0.2463  0.4996
 9243TIP3    H227694   0.752   0.836   5.759 -0.0527  0.1619  0.4171
 9244TIP3   OH227695   5.604   5.195   5.541 -0.2335  0.4218 -0.4975
 9244TIP3    H127696   5.651   5.229   5.617 -0.4589  0.1818 -0.2483
 9244TIP3    H227697   5.547   5.127   5.577 -0.5803  0.5346 -0.8298
 9245TIP3   OH227698   4.920   3.373   1.862 -0.3328 -0.6009  0.8592
 9245TIP3    H127699   4.886   3.435   1.799 -0.5097 -1.4090  0.1358
 9245TIP3    H227700   4.852   3.367   1.930  0.5180  1.4141  1.9681
 9246TIP3   OH227701   1.264   2.073   2.628 -0.2728  0.1667 -0.1191
 9246TIP3    H127702   1.203   2.002   2.645 -1.9952  1.4782 -0.6021
 9246TIP3    H227703   1.273   2.074   2.532  2.9563 -1.9178 -0.0194
 9247TIP3   OH227704   3.928   1.781   5.006 -0.0961  0.3037  0.0392
 9247TIP3    H127705   4.017   1.760   5.032 -0.1743  0.2792  0.2850
 9247TIP3    H227706   3.924   1.876   5.006 -0.3667  0.3072  1.0493
 9248TIP3   OH227707   3.125   4.767   0.028  0.1048  0.3287  0.1577
 9248TIP3    H127708   3.202   4.713   0.047  0.5820  0.0388 -2.2305
 9248TIP3    H227709   3.144   4.806  -0.057 -2.3275  0.3572 -0.4498
 9249TIP3   OH227710   1.110   2.144   3.186  0.2234  0.3607 -0.0601
 9249TIP3    H127711   1.143   2.143   3.096 -1.5582 -1.7639 -0.7805
 9249TIP3    H227712   1.181   2.109   3.238  0.2405 -1.3231 -1.1353
 9250TIP3   OH227713   0.164   2.208   4.212 -0.1373  0.2946  0.1268
 9250TIP3    H127714   0.196   2.208   4.302  2.1634  2.5144 -0.5863
 9250TIP3    H227715   0.115   2.289   4.204  0.4314  0.5514 -0.8431
 9251TIP3   OH227716   4.408   0.420   3.288 -0.1139 -0.0998 -0.4983
 9251TIP3    H127717   4.479   0.481   3.273 -0.1214 -0.2671 -1.2546
 9251TIP3    H227718   4.330   0.463   3.252 -0.6175  0.5344  1.2451
 9252TIP3   OH227719   3.557   2.628   4.541 -0.3858 -0.4305  1.0660
 9252TIP3    H127720   3.477   2.673   4.570 -0.7674  0.1328 -0.7430
 9252TIP3    H227721   3.628   2.688   4.565 -0.5259 -0.7184  2.2600
 9253TIP3   OH227722   6.360   3.596   5.455  0.0514 -0.3303 -0.2298
 9253TIP3    H127723   6.433   3.548   5.417  2.1181  0.8770  1.9298
 9253TIP3    H227724   6.363   3.682   5.413  1.3747  0.4835  1.4265
 9254TIP3   OH227725   6.950   1.065   3.671  0.0484 -0.3232  0.1093
 9254TIP3    H127726   6.910   1.117   3.741  0.8194  1.9535 -1.0165
 9254TIP3    H227727   7.043   1.062   3.694  0.3379  0.5955 -0.8333
 9255TIP3   OH227728   6.719   3.915   2.743  0.4682  0.0693 -0.2186
 9255TIP3    H127729   6.720   3.927   2.648  1.5565 -0.8846 -0.3550
 9255TIP3    H227730   6.802   3.951   2.773  0.6613 -0.7149  0.2186
 9256TIP3   OH227731   2.609   6.568   1.793  0.3245  0.1773 -0.0874
 9256TIP3    H127732   2.536   6.564   1.854 -1.7207 -0.1779 -2.4434
 9256TIP3    H227733   2.672   6.504   1.827  0.0857  1.2331  2.5681
 9257TIP3   OH227734   7.087   1.692   3.752  0.8434 -0.1972  0.0039
 9257TIP3    H127735   7.166   1.727   3.713  1.3649 -1.1920  0.1396
 9257TIP3    H227736   7.062   1.619   3.695  0.0183  0.1146 -0.0458
 9258TIP3   OH227737   4.891   0.545   2.624 -0.3982 -0.6243  0.6097
 9258TIP3    H127738   4.916   0.455   2.645  0.8321 -0.4039  0.1829
 9258TIP3    H227739   4.965   0.598   2.654  0.3737 -0.0672 -2.0105
 9259TIP3   OH227740   4.061   3.981   0.703  0.4746 -0.4941  0.7302
 9259TIP3    H127741   4.123   3.986   0.776  1.6878 -0.0092 -0.2955
 9259TIP3    H227742   4.106   3.930   0.636  0.5110  1.2801 -0.6928
 9260TIP3   OH227743   1.905   0.226   2.781  0.6644  0.2676 -0.0537
 9260TIP3    H127744   1.866   0.142   2.760  0.3237 -0.1007  1.8784
 9260TIP3    H227745   1.832   0.287   2.785  0.7496  0.3769 -0.1389
 9261TIP3   OH227746   4.267   1.990   5.649 -0.1183 -0.8808  0.0972
 9261TIP3    H127747   4.274   1.895   5.636 -0.2677 -0.8385 -0.3366
 9261TIP3    H227748   4.355   2.018   5.672  0.3357 -0.8873 -1.4916
 9262TIP3   OH227749   3.144   3.028   4.436 -0.3499  0.2912  0.0661
 9262TIP3    H127750   3.120   2.984   4.518  2.3356  0.0184  0.8353
 9262TIP3    H227751   3.153   3.120   4.461  1.5084  0.0642  0.4489
 9263TIP3   OH227752   2.106   3.941   2.013 -0.5205  0.0098 -0.1840
 9263TIP3    H127753   2.029   3.885   2.027  0.4275 -1.6380 -1.1084
 9263TIP3    H227754   2.106   3.957   1.918  0.4067 -0.2540 -0.2373
 9264TIP3   OH227755   6.631   2.010   0.444  0.0835 -0.4017  0.0854
 9264TIP3    H127756   6.555   2.031   0.389 -0.9384 -0.1604  1.5342
 9264TIP3    H227757   6.625   1.916   0.458  0.3764 -0.4719 -0.2449
 9265TIP3   OH227758   5.338   2.965   2.068 -0.0093  0.1521  0.0297
 9265TIP3    H127759   5.294   2.926   2.144 -1.4644 -0.2620 -0.9813
 9265TIP3    H227760   5.341   2.895   2.003  1.4306  0.4300 -0.2382
 9266TIP3   OH227761   4.536   0.188   4.582 -0.3763  0.3730 -0.0473
 9266TIP3    H127762   4.530   0.225   4.494  0.4880 -1.6711 -1.0189
 9266TIP3    H227763   4.629   0.166   4.592 -0.4991  0.3870  1.3059
 9267TIP3   OH227764   3.518   2.870   1.319 -0.1136  0.0561 -0.0322
 9267TIP3    H127765   3.500   2.830   1.233 -1.0911  0.0028  0.1839
 9267TIP3    H227766   3.449   2.935   1.330 -0.6569 -0.6734  1.1656
 9268TIP3   OH227767   6.298   3.551   1.046  0.0543 -0.6269  0.4588
 9268TIP3    H127768   6.226   3.493   1.070 -0.7960  0.3657  0.4039
 9268TIP3    H227769   6.261   3.609   0.979  1.0224 -0.3530  0.1400
 9269TIP3   OH227770   6.284   6.540   5.340 -0.1927  0.2656  0.3199
 9269TIP3    H127771   6.255   6.449   5.333 -0.4087  0.2640  1.0900
 9269TIP3    H227772   6.320   6.560   5.254 -2.0708  0.1281 -0.5625
 9270TIP3   OH227773   6.698   0.225   3.666  0.2682 -0.2110 -0.1321
 9270TIP3    H127774   6.670   0.256   3.579 -0.2525 -2.6977 -0.9396
 9270TIP3    H227775   6.623   0.175   3.698  1.1829 -0.9609  0.8866
 9271TIP3   OH227776   6.426   3.355   0.115 -0.2275  0.4219 -0.0024
 9271TIP3    H127777   6.362   3.377   0.182 -0.8303  2.3842 -1.1378
 9271TIP3    H227778   6.510   3.384   0.150 -0.2270 -0.4173  0.7116
 9272TIP3   OH227779   1.286   5.244   4.673  0.4054 -0.0494  0.2425
 9272TIP3    H127780   1.289   5.339   4.662 -0.6465 -0.0914 -0.4508
 9272TIP3    H227781   1.274   5.231   4.767 -0.8894  0.5407  0.1683
 9273TIP3   OH227782   7.040   2.700   2.620 -0.3006 -0.6038  0.1921
 9273TIP3    H127783   7.069   2.648   2.695  2.4789 -0.6746 -0.8090
 9273TIP3    H227784   7.079   2.786   2.634  1.0333 -0.8710 -1.5223
 9274TIP3   OH227785   2.531   0.320   1.654 -0.2784 -0.4700  0.0770
 9274TIP3    H127786   2.583   0.247   1.620 -1.1885 -1.7607  1.3531
 9274TIP3    H227787   2.446   0.282   1.674 -1.3173  1.3127 -0.7180
 9275TIP3   OH227788   1.997   0.073   5.728 -0.8473 -0.2187  0.6230
 9275TIP3    H127789   2.000   0.050   5.821  0.4532 -1.2822  0.3452
 9275TIP3    H227790   1.958  -0.002   5.685  0.2909 -0.5397  0.1058
 9276TIP3   OH227791   5.658   1.071   0.717  0.3122 -0.0377 -0.0843
 9276TIP3    H127792   5.650   1.095   0.809  0.3029 -1.3789  0.2916
 9276TIP3    H227793   5.688   1.150   0.674  1.1201  0.3851  1.2073
 9277TIP3   OH227794   5.916   5.200   5.179  0.2724 -0.6084  0.3936
 9277TIP3    H127795   5.979   5.138   5.143  0.9831  0.2262  0.1693
 9277TIP3    H227796   5.839   5.191   5.123  1.1116  0.1662 -0.9480
 9278TIP3   OH227797   0.477   0.060   2.087  0.3832 -0.1338 -0.3995
 9278TIP3    H127798   0.517   0.120   2.025 -0.8689  1.5704  0.3250
 9278TIP3    H227799   0.417   0.116   2.138 -0.2469 -1.8673  0.8585
 9279TIP3   OH227800   0.916   0.126   4.381 -0.3760 -0.4971 -0.1420
 9279TIP3    H127801   1.004   0.093   4.359  0.1026 -0.7818  1.9442
 9279TIP3    H227802   0.858   0.052   4.360 -0.1856 -0.2397 -1.7231
 9280TIP3   OH227803   6.163   2.835   3.361 -0.5084  0.7407  0.2514
 9280TIP3    H127804   6.173   2.899   3.431 -0.3125 -0.6621  1.5551
 9280TIP3    H227805   6.165   2.750   3.405  0.5970 -0.2387 -1.5566
 9281TIP3   OH227806   1.697   2.038   0.363  0.3144  0.0470  0.0922
 9281TIP3    H127807   1.771   2.004   0.313  0.9425  1.1119  0.2757
 9281TIP3    H227808   1.713   2.132   0.369 -0.6320  0.1745  0.8385
 9282TIP3   OH227809   1.578   2.814   2.718  0.3413 -0.5095  0.0014
 9282TIP3    H127810   1.592   2.746   2.784  0.7474 -0.3230  0.1082
 9282TIP3    H227811   1.663   2.857   2.709  0.0171  0.1729  0.1450
 9283TIP3   OH227812   5.395   6.017   0.070 -0.3105 -0.4457 -0.0911
 9283TIP3    H127813   5.405   5.983   0.159 -0.4217 -0.2023  0.0142
 9283TIP3    H227814   5.407   6.112   0.078 -1.7084 -0.2487 -0.1040
 9284TIP3   OH227815   0.135   6.554   5.340  0.0897  0.2826  0.0825
 9284TIP3    H127816   0.224   6.523   5.359  0.0246  0.3513  0.5090
 9284TIP3    H227817   0.124   6.538   5.246  0.4251 -0.0515  0.0956
 9285TIP3   OH227818   6.197   1.364   3.247  0.2974  0.2232  0.1599
 9285TIP3    H127819   6.193   1.315   3.165 -0.1214  0.5233 -0.0049
 9285TIP3    H227820   6.284   1.345   3.283  0.7977  0.7186 -0.7519
 9286TIP3   OH227821   7.039   5.356   2.412  0.8251 -0.3698 -0.0976
 9286TIP3    H127822   6.990   5.295   2.358 -1.2611  1.5397 -0.5227
 9286TIP3    H227823   7.131   5.335   2.395  0.2217 -2.9954 -0.5668
 9287TIP3   OH227824   0.079   3.560   5.239 -0.0348  0.3352 -0.1779
 9287TIP3    H127825   0.082   3.531   5.148  2.8701 -0.6249  0.1407
 9287TIP3    H227826   0.079   3.478   5.290 -1.1089  0.8656  0.7210
 9288TIP3   OH227827   2.119   2.722  -0.013  0.0886  0.6040 -0.5667
 9288TIP3    H127828   2.143   2.761   0.071 -1.3428  1.1488 -0.3971
 9288TIP3    H227829   2.055   2.654   0.009 -0.2524  0.7061 -1.2050
 9289TIP3   OH227830   4.284   2.655   5.771 -0.2437 -0.6426 -0.3813
 9289TIP3    H127831   4.246   2.743   5.764  1.1669 -0.0944 -1.9394
 9289TIP3    H227832   4.370   2.663   5.730  1.2826 -2.0047  2.2981
 9290TIP3   OH227833   5.176   4.139   5.318 -0.9260 -0.1891  0.2538
 9290TIP3    H127834   5.209   4.106   5.235 -1.0375  0.6421 -0.1323
 9290TIP3    H227835   5.163   4.061   5.372 -1.3440 -0.7727 -0.6851
 9291TIP3   OH227836   2.380   6.629   0.099 -0.4779 -0.0570  0.3273
 9291TIP3    H127837   2.284   6.629   0.107 -0.6149  1.2162 -0.8565
 9291TIP3    H227838   2.411   6.640   0.189 -1.3433 -2.6240  1.0203
 9292TIP3   OH227839   0.020   3.056   5.473  0.6205 -0.6644  0.1728
 9292TIP3    H127840   0.090   3.019   5.527  1.2056  0.5979  0.3073
 9292TIP3    H227841  -0.061   3.028   5.517  1.0689 -0.4469  1.1713
 9293TIP3   OH227842   2.595   1.521   2.166 -0.4546 -0.3207  0.6318
 9293TIP3    H127843   2.689   1.524   2.186 -0.5960  0.4090  1.2304
 9293TIP3    H227844   2.554   1.565   2.240 -1.3183 -1.0716  0.6128
 9294TIP3   OH227845   4.778   6.161   5.229 -0.2287 -0.3146 -0.0239
 9294TIP3    H127846   4.764   6.178   5.322  0.8555 -1.1295  0.3170
 9294TIP3    H227847   4.695   6.182   5.187 -0.2338  1.6738  0.8998
 9295TIP3   OH227848   2.479   4.321   1.945 -0.0707  0.0034  0.1567
 9295TIP3    H127849   2.389   4.288   1.937  0.0321 -0.3558  0.4671
 9295TIP3    H227850   2.534   4.249   1.915  0.1148  0.2338 -0.0623
 9296TIP3   OH227851   0.178   3.582   3.465  0.0113  0.1973  0.2280
 9296TIP3    H127852   0.221   3.667   3.471 -2.0507  1.3703 -0.4428
 9296TIP3    H227853   0.159   3.559   3.556 -0.1483  0.8681  0.3700
 9297TIP3   OH227854   5.548   1.354   1.688  0.4306  0.1396 -0.6959
 9297TIP3    H127855   5.569   1.298   1.614 -0.2698 -0.3011 -0.5644
 9297TIP3    H227856   5.462   1.391   1.668  0.7305  0.9016 -0.6201
 9298TIP3   OH227857   7.072   0.017   5.721 -0.8170  0.0319  0.1199
 9298TIP3    H127858   7.052   0.105   5.688 -2.1104  0.3808  1.7086
 9298TIP3    H227859   7.059   0.023   5.816 -0.3246 -1.7346  0.3397
 9299TIP3   OH227860   1.699   4.393   3.395 -0.2908 -0.2969 -0.4248
 9299TIP3    H127861   1.679   4.443   3.316 -1.1915 -0.7204 -0.4760
 9299TIP3    H227862   1.656   4.442   3.466  1.2963  0.6036 -0.0330
 9300TIP3   OH227863   6.863   0.642   5.325  0.0626  0.2164  0.1627
 9300TIP3    H127864   6.930   0.590   5.281  1.8858  1.3608  1.4449
 9300TIP3    H227865   6.846   0.715   5.265 -0.2199 -0.2076 -0.2760
 9301TIP3   OH227866   5.281   0.033   0.486  0.3180 -0.3308 -0.2513
 9301TIP3    H127867   5.210   0.087   0.451  0.2487  0.0900  0.5204
 9301TIP3    H227868   5.248  -0.056   0.480  0.0000 -0.1958 -0.5444
 9302TIP3   OH227869   1.303   0.698   3.147  0.1996 -0.5450 -0.0477
 9302TIP3    H127870   1.335   0.751   3.075  0.0410  1.4534  1.2754
 9302TIP3    H227871   1.281   0.613   3.107  1.5347 -0.0203 -2.0224
 9303TIP3   OH227872   0.288   4.925   0.452  0.2925 -0.3595 -0.1619
 9303TIP3    H127873   0.373   4.936   0.494  1.2029  2.1829 -2.3835
 9303TIP3    H227874   0.227   4.973   0.507  0.2683 -1.9644  1.2965
 9304TIP3   OH227875   5.945   5.059   5.395  0.5234  0.5968 -0.4591
 9304TIP3    H127876   5.951   5.120   5.322 -0.0406 -0.9650 -1.8496
 9304TIP3    H227877   5.858   5.020   5.388  0.4223  0.4651  1.0976
 9305TIP3   OH227878   5.246   1.138   4.550 -0.0869 -0.3055  0.3835
 9305TIP3    H127879   5.239   1.069   4.484  1.3407 -2.1532  2.0297
 9305TIP3    H227880   5.156   1.153   4.579 -0.4572 -1.2313 -0.2471
 9306TIP3   OH227881   3.313   5.494   5.879 -0.9592  0.2310 -0.1412
 9306TIP3    H127882   3.392   5.472   5.928  0.6900  1.7217 -1.9350
 9306TIP3    H227883   3.324   5.449   5.795 -2.4849 -0.2588 -0.1122
 9307TIP3   OH227884   1.573   0.564   4.684  0.2910  1.1603 -0.1323
 9307TIP3    H127885   1.502   0.569   4.748  0.3542  0.8479 -0.0355
 9307TIP3    H227886   1.648   0.532   4.733 -0.2870 -1.5117 -0.8172
 9308TIP3   OH227887   5.529   3.895   1.226 -0.0130 -0.9109  0.1384
 9308TIP3    H127888   5.446   3.869   1.186 -0.6269 -0.0507  0.8302
 9308TIP3    H227889   5.581   3.930   1.153 -0.2239 -1.5096 -0.3055
 9309TIP3   OH227890   3.120   0.851   4.017  0.0618  0.4110 -0.2363
 9309TIP3    H127891   3.211   0.857   3.988 -0.2396 -1.9807 -1.9536
 9309TIP3    H227892   3.123   0.801   4.098  0.3184  1.2672  0.3041
 9310TIP3   OH227893   2.315   3.890   2.403 -0.1747  0.4294  0.0658
 9310TIP3    H127894   2.228   3.902   2.366 -0.6540 -0.3417  0.8876
 9310TIP3    H227895   2.368   3.961   2.367 -0.7791  0.0753 -1.5600
 9311TIP3   OH227896   0.121   3.794   1.359 -0.1946  0.6358  0.6739
 9311TIP3    H127897   0.040   3.835   1.389 -1.4773  0.3591 -2.0783
 9311TIP3    H227898   0.094   3.709   1.325  1.4972 -0.0551  0.9759
 9312TIP3   OH227899   0.252   3.325   2.324 -0.3535  0.2019 -0.0827
 9312TIP3    H127900   0.300   3.351   2.246 -0.4859  1.3251  0.1910
 9312TIP3    H227901   0.305   3.255   2.362  1.4297  1.7575  0.5066
 9313TIP3   OH227902   1.120   2.602   3.326 -0.3024  0.6698  0.4213
 9313TIP3    H127903   1.036   2.616   3.369 -1.0590  1.7869 -1.3268
 9313TIP3    H227904   1.160   2.530   3.375 -1.3609  1.4333  2.5550
 9314TIP3   OH227905   2.194   1.032   2.995 -0.8907  0.1200 -0.2467
 9314TIP3    H127906   2.179   1.058   2.904 -1.4219  3.3650  0.6189
 9314TIP3    H227907   2.288   1.012   2.999 -1.2330 -2.1829 -1.8607
 9315TIP3   OH227908   5.329   5.520   1.083  0.0948  0.2462  0.6934
 9315TIP3    H127909   5.259   5.578   1.053  1.8791  1.5022 -1.3428
 9315TIP3    H227910   5.375   5.570   1.151 -0.0834  0.0051  0.9981
 9316TIP3   OH227911   5.244   6.577   1.180  0.1462  0.8814  0.0452
 9316TIP3    H127912   5.207   6.649   1.232 -0.0153  0.2036  0.8972
 9316TIP3    H227913   5.317   6.616   1.132  1.0232  1.2988  1.6487
 9317TIP3   OH227914   3.031   5.840   1.284 -0.4430  0.5186  0.7935
 9317TIP3    H127915   2.942   5.877   1.278 -0.4269  0.5432  0.7030
 9317TIP3    H227916   3.063   5.841   1.194 -0.0411  1.2693  0.9382
 9318TIP3   OH227917   0.943   3.239   1.408  0.3093 -0.6483  0.2364
 9318TIP3    H127918   0.873   3.245   1.343 -0.5412 -2.0008  0.9958
 9318TIP3    H227919   0.899   3.246   1.493  1.1369 -1.1251  0.7205
 9319TIP3   OH227920   0.104   0.761   3.305 -0.1651 -0.0887 -0.0401
 9319TIP3    H127921   0.018   0.732   3.275 -0.9866  0.6620  1.4650
 9319TIP3    H227922   0.086   0.841   3.355  1.5140  0.5308 -0.3795
 9320TIP3   OH227923   4.765   3.739   3.287 -0.0811  0.7834  0.2495
 9320TIP3    H127924   4.731   3.662   3.333  0.5524  0.6924  0.5832
 9320TIP3    H227925   4.859   3.738   3.306  0.0364  1.2658 -0.2951
 9321TIP3   OH227926   1.039   0.672   1.632  0.1029  0.4383  0.2200
 9321TIP3    H127927   1.120   0.708   1.668  1.2710 -0.6327 -1.1954
 9321TIP3    H227928   1.065   0.589   1.593 -1.7461 -0.0518 -0.0666
 9322TIP3   OH227929   2.941   4.557   0.458  0.3640 -0.2169 -0.1876
 9322TIP3    H127930   2.989   4.522   0.382 -1.5263 -0.6424 -1.2556
 9322TIP3    H227931   2.864   4.599   0.420 -0.3804 -0.0058  1.4827
 9323TIP3   OH227932   2.803   3.498   2.636  0.1619 -0.0956 -0.2937
 9323TIP3    H127933   2.797   3.551   2.556  0.6183  0.6172  0.1370
 9323TIP3    H227934   2.714   3.466   2.650  0.1043 -0.3596 -1.1687
 9324TIP3   OH227935   1.179   0.537   4.291 -0.3658  0.2473  0.3424
 9324TIP3    H127936   1.200   0.557   4.383 -2.2773  1.4569  0.5853
 9324TIP3    H227937   1.087   0.511   4.293 -0.9907  2.0787 -1.4293
 9325TIP3   OH227938   4.279   5.436   2.062 -0.5700  0.4519  0.2623
 9325TIP3    H127939   4.271   5.359   2.006  1.3878 -0.0497  0.6066
 9325TIP3    H227940   4.237   5.411   2.144  0.0023 -0.2564  0.3525
 9326TIP3   OH227941   0.400   2.076   1.288 -0.3281 -0.3397  0.1592
 9326TIP3    H127942   0.452   2.109   1.215  0.2732  0.2665  0.8433
 9326TIP3    H227943   0.449   2.000   1.319  0.4159  0.4810  1.0740
 9327TIP3   OH227944   3.004   5.828   1.009 -0.6036 -0.2153  0.5987
 9327TIP3    H127945   3.069   5.874   0.956 -0.5633 -1.7810 -0.7838
 9327TIP3    H227946   2.921   5.841   0.964 -0.8423 -0.2925  1.0022
 9328TIP3   OH227947   1.778   5.754   3.981 -0.1144  0.1239  0.0527
 9328TIP3    H127948   1.756   5.670   3.939  1.2901  0.7789 -2.1249
 9328TIP3    H227949   1.841   5.730   4.049  0.6458 -0.5618 -0.8633
 9329TIP3   OH227950   2.357   4.017   2.099 -0.2644 -0.0978  0.0189
 9329TIP3    H127951   2.279   3.988   2.051  1.8033 -0.4985 -3.3767
 9329TIP3    H227952   2.340   4.109   2.119 -2.5631 -0.7771  1.6783
 9330TIP3   OH227953   4.939   6.269   5.031  0.6808 -0.3218 -0.7985
 9330TIP3    H127954   4.896   6.240   5.111  0.8036 -0.3240 -0.7338
 9330TIP3    H227955   4.867   6.298   4.975  0.5706 -0.5971 -0.8012
 9331TIP3   OH227956   0.555   5.370   1.406  0.0766  0.0100  0.4914
 9331TIP3    H127957   0.530   5.461   1.419  0.1146  0.0795  0.0863
 9331TIP3    H227958   0.473   5.326   1.383 -0.1471 -0.2749  1.7506
 9332TIP3   OH227959   4.532   2.308   0.286  0.2605 -0.3017  0.1587
 9332TIP3    H127960   4.617   2.352   0.288  0.5185 -0.7901  0.0614
 9332TIP3    H227961   4.538   2.247   0.212 -0.2207 -0.2434  0.0692
 9333TIP3   OH227962   2.660   6.297   1.756  0.1604  0.7367 -0.3154
 9333TIP3    H127963   2.719   6.252   1.696  0.7253 -0.3157  0.9640
 9333TIP3    H227964   2.577   6.302   1.710  0.0553 -1.7209 -0.4967
 9334TIP3   OH227965   3.330   4.293   0.814  0.3966 -0.3583 -0.3439
 9334TIP3    H127966   3.413   4.247   0.805  0.5715 -0.1745  0.3003
 9334TIP3    H227967   3.330   4.326   0.904  0.5135  1.3599 -0.9378
 9335TIP3   OH227968   6.210   1.443   0.743 -0.1868  0.1646  0.2518
 9335TIP3    H127969   6.172   1.451   0.831  1.6789 -1.0027  1.2259
 9335TIP3    H227970   6.230   1.533   0.717  1.4809  0.3854  2.1073
 9336TIP3   OH227971   1.577   6.377   4.326  0.5154 -0.1570 -0.8811
 9336TIP3    H127972   1.650   6.316   4.321  0.3710 -0.2846 -1.4593
 9336TIP3    H227973   1.601   6.449   4.268 -0.3112 -0.7371 -1.9978
 9337TIP3   OH227974   4.165   1.588   3.205 -0.2663  0.6507  0.1887
 9337TIP3    H127975   4.195   1.513   3.154 -0.4615  0.5047  0.2864
 9337TIP3    H227976   4.161   1.555   3.295  1.2603  1.2449  0.5082
 9338TIP3   OH227977   0.044   6.788   4.772  0.0547  0.1099  0.7063
 9338TIP3    H127978  -0.015   6.839   4.716  0.3633  1.1240  1.2665
 9338TIP3    H227979   0.017   6.697   4.760 -1.0893  0.4843  0.3348
 9339TIP3   OH227980   6.902   6.289   4.038 -0.4336  0.4282  0.3029
 9339TIP3    H127981   6.994   6.275   4.017  0.0848  1.1191  1.9012
 9339TIP3    H227982   6.862   6.203   4.032  0.6445 -0.1444  0.9986
 9340TIP3   OH227983   4.221   3.357   1.034  0.0993  0.3442  0.4853
 9340TIP3    H127984   4.157   3.287   1.047 -0.7375  1.1373  0.7997
 9340TIP3    H227985   4.184   3.432   1.082  0.1101  1.4882 -1.2139
 9341TIP3   OH227986   4.034   0.364   3.844  0.1524  0.4856  0.1863
 9341TIP3    H127987   4.053   0.341   3.935 -0.9682 -0.6391  0.1492
 9341TIP3    H227988   3.966   0.303   3.816  1.4162 -0.1247 -1.8581
 9342TIP3   OH227989   5.111   0.885   2.834 -0.2527 -0.2006 -0.4048
 9342TIP3    H127990   5.043   0.923   2.778 -0.3709  0.9017  0.4370
 9342TIP3    H227991   5.156   0.961   2.871  0.2545 -0.9097  0.4738
 9343TIP3   OH227992   6.492   6.014   1.514  0.0422  0.5678 -0.2014
 9343TIP3    H127993   6.526   5.980   1.597  0.4296  0.9255 -0.2103
 9343TIP3    H227994   6.568   6.014   1.455 -0.1226  0.7589 -0.4170
 9344TIP3   OH227995   1.135   5.157   0.153  0.5108  0.4090 -0.3220
 9344TIP3    H127996   1.215   5.112   0.183 -0.4065 -0.4232  1.0002
 9344TIP3    H227997   1.167   5.237   0.111  2.0074  0.7059  1.2384
 9345TIP3   OH227998   3.923   3.970   4.684  0.2117 -0.1704  0.0001
 9345TIP3    H127999   3.845   3.914   4.686  1.7068 -2.3864 -0.0681
 9345TIP3    H228000   3.948   3.979   4.776  0.2114  0.0507 -0.0209
 9346TIP3   OH228001   3.426   6.058   1.540  0.1109  0.2864 -0.2915
 9346TIP3    H128002   3.491   6.000   1.500 -2.2371 -0.9095 -2.7331
 9346TIP3    H228003   3.373   6.000   1.594  0.3628  1.0411  0.7993
 9347TIP3   OH228004   3.952   3.278   1.904 -0.2346 -0.8209 -0.1177
 9347TIP3    H128005   3.892   3.228   1.849 -1.3726 -0.7943  1.0524
 9347TIP3    H228006   3.957   3.364   1.861  1.3089 -1.6843 -1.8310
 9348TIP3   OH228007   4.746   2.608   4.206  0.3200 -0.2913 -0.1644
 9348TIP3    H128008   4.782   2.526   4.239 -1.1877 -0.2444  1.7773
 9348TIP3    H228009   4.765   2.672   4.275 -2.0800  0.0481  0.2830
 9349TIP3   OH228010   3.929   5.259   3.076 -0.0719  0.1253  0.3725
 9349TIP3    H128011   3.944   5.320   3.149 -0.7608 -0.6784  1.2019
 9349TIP3    H228012   4.004   5.272   3.019  0.7450  0.4252  1.4771
 9350TIP3   OH228013   5.543   2.044   0.197 -0.5878 -0.3028 -0.1523
 9350TIP3    H128014   5.614   1.997   0.240 -2.1616 -0.1240  2.9726
 9350TIP3    H228015   5.582   2.128   0.171  0.8723 -1.1183 -0.6964
 9351TIP3   OH228016   2.666   5.696   5.657 -0.0038  0.3024 -0.0276
 9351TIP3    H128017   2.724   5.629   5.694 -0.4083  0.4582  0.9183
 9351TIP3    H228018   2.633   5.743   5.733  0.0961  1.4354 -0.6686
 9352TIP3   OH228019   7.216   5.164   4.049  0.3130 -0.6702 -0.2155
 9352TIP3    H128020   7.208   5.253   4.015 -0.9196  0.5952  3.0274
 9352TIP3    H228021   7.162   5.111   3.990  0.0597  0.9199 -1.4809
 9353TIP3   OH228022   2.411   5.574   1.091  0.4455 -0.2892  0.4241
 9353TIP3    H128023   2.361   5.629   1.150  1.9268 -0.3653  1.8315
 9353TIP3    H228024   2.443   5.634   1.024  0.6853  0.2653  1.0226
 9354TIP3   OH228025   2.204   4.279   1.936 -0.1740 -0.3889  0.0829
 9354TIP3    H128026   2.116   4.267   1.901 -0.8396  1.2313  1.0580
 9354TIP3    H228027   2.197   4.355   1.994  2.2863  1.0525 -1.3160
 9355TIP3   OH228028   2.669   6.392   4.704 -0.2036  0.2337  0.2288
 9355TIP3    H128029   2.724   6.442   4.644  1.2480 -1.2643  0.2553
 9355TIP3    H228030   2.721   6.315   4.727 -1.2842  0.0528  2.3109
 9356TIP3   OH228031   6.599   6.319   5.918  0.2088 -0.0186 -0.1489
 9356TIP3    H128032   6.689   6.352   5.912  0.2783 -0.3916 -1.4495
 9356TIP3    H228033   6.562   6.333   5.831 -0.0683 -2.4862 -0.5049
 9357TIP3   OH228034   2.804   1.690   2.779 -0.0004  0.3841  0.3145
 9357TIP3    H128035   2.787   1.782   2.800 -0.3666  0.2301  0.7078
 9357TIP3    H228036   2.737   1.642   2.828  0.6308 -0.1345  0.6869
 9358TIP3   OH228037   0.896   2.974   1.729  1.1047  0.1924  0.5104
 9358TIP3    H128038   0.864   3.064   1.726  2.2108  0.5889  0.1434
 9358TIP3    H228039   0.975   2.978   1.782  0.5433 -0.7816  1.4629
 9359TIP3   OH228040   4.266   4.514   1.128 -0.7678  0.2314 -0.6668
 9359TIP3    H128041   4.328   4.546   1.193 -0.9104  2.9866 -1.7692
 9359TIP3    H228042   4.195   4.474   1.180  0.3223  0.0261  0.7168
 9360TIP3   OH228043   1.974   4.962   1.212 -0.2519 -0.4202  0.3946
 9360TIP3    H128044   1.961   4.917   1.296 -0.6194  2.9548  2.3090
 9360TIP3    H228045   2.059   4.931   1.181 -0.3053 -2.0744  1.7623
 9361TIP3   OH228046   6.277   1.039   0.752  0.0339  0.0215 -0.2300
 9361TIP3    H128047   6.358   1.049   0.803  0.6936  1.4795 -1.4688
 9361TIP3    H228048   6.303   0.985   0.677 -0.0897  0.6138 -0.7064
 9362TIP3   OH228049   0.237   5.893   4.227  0.8307 -0.5006  0.2989
 9362TIP3    H128050   0.287   5.961   4.271 -0.5637  0.2602  0.7736
 9362TIP3    H228051   0.303   5.836   4.188  2.0593  1.3215 -0.4542
 9363TIP3   OH228052   0.009   2.154   3.633  0.1219 -0.8068 -0.4164
 9363TIP3    H128053   0.103   2.170   3.620  0.1409 -0.9063 -0.3988
 9363TIP3    H228054  -0.028   2.158   3.545  0.0296 -0.0389 -0.3554
 9364TIP3   OH228055   2.890   0.392   4.926  0.2184  0.1488  0.5760
 9364TIP3    H128056   2.931   0.322   4.875  0.0298 -0.1551  0.8343
 9364TIP3    H228057   2.819   0.423   4.870 -1.2005 -1.4568  1.3711
 9365TIP3   OH228058   0.126   6.632   1.201 -0.5647  0.6692 -0.3432
 9365TIP3    H128059   0.186   6.702   1.178 -0.5553  0.3235 -1.4349
 9365TIP3    H228060   0.174   6.551   1.180 -1.7709  0.3964 -2.3432
 9366TIP3   OH228061   2.491   1.737   1.026 -0.0749  0.0919 -0.0023
 9366TIP3    H128062   2.500   1.714   1.118 -1.4921  1.5071  0.5204
 9366TIP3    H228063   2.580   1.757   0.998  0.3319 -0.0416  1.1366
 9367TIP3   OH228064   5.790   3.914   0.670  0.0825 -0.4085  0.3348
 9367TIP3    H128065   5.705   3.870   0.677  0.3007 -0.5976  2.1984
 9367TIP3    H228066   5.854   3.846   0.688  0.7038 -0.3938 -1.6038
 9368TIP3   OH228067   6.495   2.036   0.133  0.3982 -0.0459  0.1246
 9368TIP3    H128068   6.526   2.126   0.125  0.9706 -0.2088  0.4581
 9368TIP3    H228069   6.429   2.039   0.202 -1.3176  0.5410 -1.4387
 9369TIP3   OH228070   3.922   1.101   2.782 -0.2831 -0.2892  0.3338
 9369TIP3    H128071   3.879   1.067   2.704 -1.7708 -0.0986  1.0447
 9369TIP3    H228072   3.995   1.041   2.796  2.8308  2.0149 -3.6079
 9370TIP3   OH228073   5.161   6.574   3.172  0.4870 -0.5503 -0.2536
 9370TIP3    H128074   5.115   6.509   3.118 -2.0430 -0.4045  1.5624
 9370TIP3    H228075   5.145   6.657   3.129  0.7012 -0.7063 -0.6467
 9371TIP3   OH228076   2.627   2.137   0.853 -0.8824 -0.4740 -0.4110
 9371TIP3    H128077   2.620   2.055   0.803 -0.8669 -1.0656  0.5313
 9371TIP3    H228078   2.720   2.160   0.848 -1.2171  0.6704 -2.4734
 9372TIP3   OH228079   3.053   4.810   3.842 -0.0445 -0.4051 -0.6006
 9372TIP3    H128080   2.986   4.758   3.886  1.0075 -1.8418 -0.6285
 9372TIP3    H228081   3.109   4.745   3.799  1.1018  0.7867 -0.9643
 9373TIP3   OH228082   1.092   5.831   1.855  0.7660 -0.2386 -0.2003
 9373TIP3    H128083   1.088   5.803   1.764  0.6176 -2.2531  0.3775
 9373TIP3    H228084   1.052   5.759   1.904  0.6075  0.9077  1.4436
 9374TIP3   OH228085   4.339   2.166   1.577  0.4130  0.2513  0.1873
 9374TIP3    H128086   4.362   2.204   1.662 -1.8756 -0.6005  1.2680
 9374TIP3    H228087   4.243   2.172   1.573  0.4485  0.3056 -2.3825
 9375TIP3   OH228088   3.152   6.709   5.630 -0.3266  0.5386  0.4219
 9375TIP3    H128089   3.183   6.799   5.641  0.8465  0.2360 -0.2900
 9375TIP3    H228090   3.057   6.717   5.624 -0.3315  1.6074  1.4948
 9376TIP3   OH228091   2.920   2.727   4.785 -0.6072 -0.3347 -0.3860
 9376TIP3    H128092   2.861   2.802   4.782  0.1306  0.3953  1.7777
 9376TIP3    H228093   2.919   2.699   4.876 -0.1229 -2.3999 -0.9473
 9377TIP3   OH228094   0.072   6.645   2.039  0.0372 -0.4502  0.1132
 9377TIP3    H128095   0.164   6.620   2.038  0.1673 -0.0815  1.3415
 9377TIP3    H228096   0.052   6.660   2.131 -1.3009 -0.6746 -0.1215
 9378TIP3   OH228097   3.669   6.110   2.229  0.4208 -0.2770 -0.0029
 9378TIP3    H128098   3.644   6.020   2.251 -1.1191  0.1312  0.0124
 9378TIP3    H228099   3.730   6.135   2.299  1.4611 -1.5480 -0.4231
 9379TIP3   OH228100   5.902   2.835   4.256  0.3455 -0.7554 -0.6154
 9379TIP3    H128101   5.968   2.830   4.187  0.3499 -1.5253 -0.5656
 9379TIP3    H228102   5.952   2.844   4.337  0.3541 -0.3770 -0.6578
 9380TIP3   OH228103   5.662   4.985   4.313 -0.3911  0.0525 -0.5855
 9380TIP3    H128104   5.695   5.019   4.397  2.1232 -0.3748 -1.3036
 9380TIP3    H228105   5.738   4.940   4.275 -1.9727 -1.3072 -2.3004
 9381TIP3   OH228106   2.541   5.184   2.374 -0.1336  0.0485 -0.6901
 9381TIP3    H128107   2.502   5.098   2.393  0.2439  0.4563  2.4850
 9381TIP3    H228108   2.484   5.222   2.309 -3.0315 -0.8384  1.1344
 9382TIP3   OH228109   1.104   5.712   5.506  0.8087  0.0927 -0.0412
 9382TIP3    H128110   1.011   5.713   5.526  0.8526 -1.5163  0.3737
 9382TIP3    H228111   1.143   5.774   5.568  0.3348 -1.2828  1.7403
 9383TIP3   OH228112   5.002   5.642   4.010 -0.2086 -0.0608 -0.0028
 9383TIP3    H128113   5.005   5.734   3.983  0.5451  0.1438  0.7113
 9383TIP3    H228114   5.079   5.603   3.968 -0.0430 -0.1601  0.3916
 9384TIP3   OH228115   5.489   1.286   4.254  0.0595 -0.4093  0.3924
 9384TIP3    H128116   5.423   1.352   4.272  0.2383 -0.3493  0.8509
 9384TIP3    H228117   5.444   1.221   4.199  0.7843  1.7114 -2.9729
 9385TIP3   OH228118   4.541   1.641   0.264 -0.0184  0.2828 -0.1274
 9385TIP3    H128119   4.514   1.563   0.216  0.4237  0.0562 -0.0166
 9385TIP3    H228120   4.468   1.659   0.324 -0.1094 -0.0618 -0.1327
 9386TIP3   OH228121   6.280   1.784   2.620  0.4081 -0.3148  0.6317
 9386TIP3    H128122   6.368   1.748   2.629 -0.1439 -2.0101 -0.2054
 9386TIP3    H228123   6.224   1.707   2.608 -1.2019  0.7082  1.1835
 9387TIP3   OH228124   6.876   2.303   4.445  0.4020  0.2194 -0.3227
 9387TIP3    H128125   6.943   2.359   4.484  0.8848  0.1560 -1.0511
 9387TIP3    H228126   6.892   2.217   4.483 -1.0846  0.7618  1.7342
 9388TIP3   OH228127   5.830   4.929   2.374  0.3808  0.6461 -0.1532
 9388TIP3    H128128   5.848   4.835   2.366 -0.9343  0.3963 -0.4597
 9388TIP3    H228129   5.915   4.971   2.358  1.3455 -0.5225  1.6333
 9389TIP3   OH228130   4.372   5.655   2.305 -0.0682  0.0033  0.4971
 9389TIP3    H128131   4.318   5.715   2.253 -1.1214 -0.0620  1.4705
 9389TIP3    H228132   4.429   5.613   2.241 -0.3548  0.9360 -0.4091
 9390TIP3   OH228133   5.070   3.236   1.287  0.4693 -0.3117  1.0537
 9390TIP3    H128134   5.046   3.192   1.205 -2.5168  0.4597  1.3706
 9390TIP3    H228135   5.081   3.164   1.349 -3.4102 -0.8915  1.3377
 9391TIP3   OH228136   3.304   6.817   0.041  0.4493 -0.3041 -0.2139
 9391TIP3    H128137   3.287   6.733   0.083  2.1534  0.6854  2.7391
 9391TIP3    H228138   3.332   6.794  -0.048 -2.6125 -2.5623 -0.7401
 9392TIP3   OH228139   7.122   2.078   0.179 -0.1267 -0.0658 -0.5086
 9392TIP3    H128140   7.054   2.085   0.246  1.6182 -2.3633  1.7116
 9392TIP3    H228141   7.202   2.108   0.223  0.8805 -0.4508 -1.9874
 9393TIP3   OH228142   6.882   3.242   0.980  0.0705  0.8285  0.0584
 9393TIP3    H128143   6.941   3.292   0.924 -1.5028  1.0765 -1.4527
 9393TIP3    H228144   6.797   3.245   0.935 -0.6934 -0.9952  1.2527
 9394TIP3   OH228145   3.716   1.416   2.347 -0.1534  0.0665  0.3386
 9394TIP3    H128146   3.796   1.425   2.294 -1.0991 -1.2928 -1.3967
 9394TIP3    H228147   3.748   1.385   2.432  1.2170  0.0841 -0.1360
 9395TIP3   OH228148   5.433   5.999   5.297 -0.0871  0.1349 -0.6091
 9395TIP3    H128149   5.384   5.995   5.379 -1.4589  0.2692 -1.3923
 9395TIP3    H228150   5.397   5.929   5.243 -0.1328  0.8771 -1.5873
 9396TIP3   OH228151   0.240   3.023   0.766  0.1930  0.3032 -0.1526
 9396TIP3    H128152   0.267   3.099   0.817 -1.1248  0.9674 -0.4113
 9396TIP3    H228153   0.287   3.031   0.683  1.3730 -0.1072  0.4525
 9397TIP3   OH228154   0.047   6.523   3.010  0.0800 -0.0555  0.3171
 9397TIP3    H128155   0.087   6.553   3.092 -0.2387  0.9765  0.1096
 9397TIP3    H228156   0.050   6.428   3.016 -1.6244 -0.0647  2.3929
 9398TIP3   OH228157   6.857   2.861   2.935 -0.2360  0.0001 -0.0548
 9398TIP3    H128158   6.832   2.797   3.002 -0.3075 -1.0341 -1.0412
 9398TIP3    H228159   6.865   2.810   2.855  0.8690  1.0304 -0.6386
 9399TIP3   OH228160   5.611   3.167   3.090 -0.3593 -0.3868 -0.1676
 9399TIP3    H128161   5.687   3.199   3.041  0.1177 -1.2420  0.0067
 9399TIP3    H228162   5.574   3.246   3.130  1.3007 -0.1445  0.9761
 9400TIP3   OH228163   6.869   6.202   2.880 -0.4500  0.4745  0.1516
 9400TIP3    H128164   6.775   6.199   2.898 -0.4454  1.6311  0.4699
 9400TIP3    H228165   6.879   6.277   2.821  0.4848  1.5887  1.6484
 9401TIP3   OH228166   0.942   2.152   4.488  0.6423 -0.0813  0.5364
 9401TIP3    H128167   0.852   2.180   4.507  0.2032  0.5626 -2.1068
 9401TIP3    H228168   0.997   2.213   4.537 -0.3670  1.9789 -0.7812
 9402TIP3   OH228169   1.480   5.458   2.402  0.3403  0.1254  0.1134
 9402TIP3    H128170   1.475   5.388   2.467  0.7551  0.6810  0.7688
 9402TIP3    H228171   1.401   5.448   2.349  0.6260 -1.1188 -0.1113
 9403TIP3   OH228172   3.834   6.690   1.712 -0.2291  0.7720  0.1117
 9403TIP3    H128173   3.824   6.614   1.769  0.8880  1.0525  0.7088
 9403TIP3    H228174   3.800   6.661   1.628  1.3495 -0.8575 -0.0323
 9404TIP3   OH228175   1.521   0.134   0.134 -0.9657  0.1219  0.5836
 9404TIP3    H128176   1.602   0.141   0.184 -0.1750  1.4659 -0.7814
 9404TIP3    H228177   1.499   0.041   0.137  0.1301 -0.1299  1.7234
 9405TIP3   OH228178   5.504   4.797   5.753 -0.1147 -0.6017  0.5796
 9405TIP3    H128179   5.554   4.716   5.749  0.7070 -0.1124  0.5557
 9405TIP3    H228180   5.566   4.861   5.787 -0.8044 -0.0259  0.7723
 9406TIP3   OH228181   1.587   2.245   2.559  0.4722 -0.0338  0.0269
 9406TIP3    H128182   1.616   2.333   2.584 -1.0959  0.3784  0.5322
 9406TIP3    H228183   1.631   2.187   2.621 -0.6432  0.6794  1.5794
 9407TIP3   OH228184   4.601   1.181   1.158  0.2193 -0.7116  0.3509
 9407TIP3    H128185   4.559   1.095   1.154  0.5913 -0.8377 -1.7368
 9407TIP3    H228186   4.530   1.242   1.178 -0.3572 -1.2923  0.1012
 9408TIP3   OH228187   3.908   4.240   1.722 -0.4570  0.0127  0.0803
 9408TIP3    H128188   3.970   4.189   1.774 -0.2020 -0.4148 -0.6259
 9408TIP3    H228189   3.822   4.216   1.756 -0.2230  1.9655  2.3090
 9409TIP3   OH228190   1.507   1.051   3.782  0.2731  0.3819  0.4313
 9409TIP3    H128191   1.601   1.062   3.793  0.3356 -1.8526  3.3042
 9409TIP3    H228192   1.469   1.083   3.863 -1.3136 -0.1326 -0.0615
 9410TIP3   OH228193   6.938   3.013   5.201  0.1248  0.3010 -0.4109
 9410TIP3    H128194   7.006   3.059   5.151  2.1094 -2.0608 -0.0672
 9410TIP3    H228195   6.904   2.948   5.140  4.0036 -4.0474  1.4216
 9411TIP3   OH228196   2.468   0.636   0.001  0.0215 -0.8463  0.5274
 9411TIP3    H128197   2.416   0.711  -0.028  1.3175  0.1286  0.6344
 9411TIP3    H228198   2.485   0.653   0.094  2.6264  0.1921 -0.0626
 9412TIP3   OH228199   1.030   5.356   2.867 -0.9896  0.1360  0.1555
 9412TIP3    H128200   1.001   5.338   2.777 -0.6209  0.7667 -0.0925
 9412TIP3    H228201   0.949   5.357   2.918 -1.3084  0.7845 -0.3467
 9413TIP3   OH228202   5.636   3.303   2.313 -0.1290  0.0300  0.5016
 9413TIP3    H128203   5.667   3.348   2.235  0.1087 -2.0772 -0.6949
 9413TIP3    H228204   5.716   3.276   2.358 -0.2708  0.5841  1.1108
 9414TIP3   OH228205   4.663   1.249   2.274 -0.2286 -0.3455  0.2039
 9414TIP3    H128206   4.678   1.169   2.325  0.9770  1.0944  2.2082
 9414TIP3    H228207   4.749   1.289   2.265 -0.5522 -0.0105 -2.1743
 9415TIP3   OH228208   4.514   4.913   1.663 -0.6716 -0.0714 -0.4998
 9415TIP3    H128209   4.585   4.967   1.627 -0.1157  1.0761  2.0353
 9415TIP3    H228210   4.458   4.976   1.710  0.5429 -1.5914  3.4539
 9416TIP3   OH228211   2.932   3.026   0.993 -0.5039  0.8528  0.0024
 9416TIP3    H128212   2.931   3.088   0.920  0.8397  1.5630  0.5552
 9416TIP3    H228213   2.869   3.063   1.056  0.7662  2.0781  0.6198
 9417TIP3   OH228214   5.331   6.585   5.031 -0.1179 -0.0983 -0.1756
 9417TIP3    H128215   5.238   6.569   5.017 -0.2589  0.4882  0.0641
 9417TIP3    H228216   5.372   6.560   4.948 -0.6589  1.0576 -0.8071
 9418TIP3   OH228217   3.342   5.627   4.123 -0.5766  0.1644  0.1942
 9418TIP3    H128218   3.358   5.533   4.129 -0.5148  0.2085  0.8239
 9418TIP3    H228219   3.370   5.651   4.035 -0.2653 -0.3460  0.1503
 9419TIP3   OH228220   1.279   1.562   5.458  0.0628  0.2512  0.3028
 9419TIP3    H128221   1.328   1.610   5.392  2.3709 -1.5198  0.6237
 9419TIP3    H228222   1.246   1.484   5.413  0.2178 -0.1299  0.8281
 9420TIP3   OH228223   5.418   2.750   1.908 -0.5568 -0.9024  0.0452
 9420TIP3    H128224   5.511   2.736   1.926 -0.6543 -0.2392  1.1386
 9420TIP3    H228225   5.407   2.722   1.817  0.4390 -2.2265  0.3071
 9421TIP3   OH228226   5.089   0.607   1.342  0.4531 -0.0332  0.2788
 9421TIP3    H128227   5.127   0.534   1.293  1.2019  1.7942 -2.0945
 9421TIP3    H228228   5.056   0.666   1.274  0.0987  1.9496  2.0747
 9422TIP3   OH228229   6.975   5.818   5.155  0.5515 -0.3299  0.1120
 9422TIP3    H128230   7.047   5.845   5.211  1.6940 -2.8422  0.0002
 9422TIP3    H228231   7.016   5.795   5.072 -0.4905 -1.0040 -0.2402
 9423TIP3   OH228232   1.939   6.441   4.404 -0.3385 -0.3504 -0.5709
 9423TIP3    H128233   1.887   6.380   4.351 -0.6672  0.1678 -0.8568
 9423TIP3    H228234   2.016   6.392   4.429 -1.3625 -1.4385  0.6003
 9424TIP3   OH228235   6.885   5.291   0.088  0.8903 -0.1033  0.2907
 9424TIP3    H128236   6.913   5.248   0.007  0.4000 -0.1733  0.1544
 9424TIP3    H228237   6.964   5.333   0.122  1.1343 -0.2147 -0.1377
 9425TIP3   OH228238   7.165   4.308   5.794  0.2440  0.1112 -0.8138
 9425TIP3    H128239   7.073   4.310   5.771 -0.4849 -2.4271  1.3858
 9425TIP3    H228240   7.178   4.387   5.847 -1.2627 -0.5514  0.6209
 9426TIP3   OH228241   4.967   3.253   3.213  0.3172 -0.3006  0.3006
 9426TIP3    H128242   4.969   3.166   3.172  1.4606 -0.2403  0.1820
 9426TIP3    H228243   4.898   3.247   3.278 -0.4823 -0.8991 -0.5640
 9427TIP3   OH228244   6.326   2.993   3.663  0.0780  0.0397 -0.4273
 9427TIP3    H128245   6.396   2.929   3.676  1.6631  1.9512  1.2045
 9427TIP3    H228246   6.290   3.007   3.751 -0.8048  0.7728 -0.8894
 9428TIP3   OH228247   0.718   5.577   2.274 -0.2698 -0.4831 -0.2425
 9428TIP3    H128248   0.630   5.608   2.252 -1.1502 -2.7389 -0.1151
 9428TIP3    H228249   0.767   5.582   2.192  0.1272  2.5247  0.0538
 9429TIP3   OH228250   0.504   5.259   0.125 -0.4770  0.4633 -0.1605
 9429TIP3    H128251   0.537   5.179   0.167  1.2585  0.9832 -0.4678
 9429TIP3    H228252   0.479   5.316   0.198  0.1269  0.3955  0.0991
 9430TIP3   OH228253   5.898   6.315   1.646  0.0788  0.1468  0.3442
 9430TIP3    H128254   5.891   6.296   1.740  0.5443  1.9209  0.7797
 9430TIP3    H228255   5.973   6.374   1.639 -0.5914  0.8897 -1.0060
 9431TIP3   OH228256   3.341   2.228   1.964  0.3352 -0.1481 -0.3219
 9431TIP3    H128257   3.291   2.152   1.932 -0.6739  0.5505 -0.4347
 9431TIP3    H228258   3.300   2.303   1.922 -0.3218  0.7091  1.7240
 9432TIP3   OH228259   3.597   1.487   4.370  0.2481  0.9748 -0.0541
 9432TIP3    H128260   3.680   1.460   4.329 -0.3722 -1.7873  0.3124
 9432TIP3    H228261   3.549   1.530   4.299  1.1520  0.7088 -0.8627
 9433TIP3   OH228262   5.061   4.870   0.909  0.7963  0.2186  0.1387
 9433TIP3    H128263   5.057   4.811   0.984  1.1234  0.4613  0.3512
 9433TIP3    H228264   4.982   4.851   0.859  0.4040  0.2903  0.7238
 9434TIP3   OH228265   5.993   6.171   5.014  0.1283 -0.0199  0.6927
 9434TIP3    H128266   5.923   6.172   5.078 -1.5731 -0.1691 -1.0677
 9434TIP3    H228267   5.949   6.161   4.929  2.3359 -2.1104 -0.3766
 9435TIP3   OH228268   1.900   3.207   2.258 -0.2755 -0.4189  0.8303
 9435TIP3    H128269   1.876   3.141   2.192 -2.9995  1.0201  0.2663
 9435TIP3    H228270   1.949   3.273   2.209  0.8776 -1.0892  1.0387
 9436TIP3   OH228271   2.448   2.245   1.605  0.8838  0.5723 -0.0197
 9436TIP3    H128272   2.515   2.185   1.638  1.2961  1.5475  0.9959
 9436TIP3    H228273   2.448   2.232   1.511 -1.0645 -3.0994  0.3445
 9437TIP3   OH228274   0.047   2.556   1.571 -0.1774  0.0615 -0.2473
 9437TIP3    H128275   0.097   2.609   1.633 -0.7602 -0.4350  0.6717
 9437TIP3    H228276   0.114   2.514   1.517  0.3218  0.8954 -0.2939
 9438TIP3   OH228277   3.701   1.260   4.549 -0.0441 -0.6238 -0.1895
 9438TIP3    H128278   3.740   1.338   4.588 -2.4880  0.4868  0.2281
 9438TIP3    H228279   3.663   1.290   4.466 -0.5710 -1.4716 -0.2693
 9439TIP3   OH228280   4.558   1.142   4.358  0.5564 -0.3284 -0.5149
 9439TIP3    H128281   4.512   1.094   4.288  0.3705  0.8348 -1.2243
 9439TIP3    H228282   4.504   1.129   4.436 -1.1518  1.1422 -1.3590
 9440TIP3   OH228283   4.290   3.298   3.120 -0.4622  0.3532 -0.0349
 9440TIP3    H128284   4.341   3.244   3.180 -0.5939  1.7309  1.3708
 9440TIP3    H228285   4.335   3.382   3.119 -0.5351  0.4118 -1.8087
 9441TIP3   OH228286   2.638   6.356   2.794  0.3045 -0.3698 -0.0345
 9441TIP3    H128287   2.576   6.412   2.747  0.0037 -0.8690 -0.2413
 9441TIP3    H228288   2.703   6.330   2.728  1.2848  0.8972  0.3811
 9442TIP3   OH228289   5.428   1.332   5.434 -0.1873 -0.0854 -0.3231
 9442TIP3    H128290   5.406   1.368   5.520  0.6781 -0.0097 -0.1193
 9442TIP3    H228291   5.472   1.249   5.454  2.1838  1.0532 -0.5530
 9443TIP3   OH228292   2.126   2.365   2.921  0.1512 -0.2500  0.0301
 9443TIP3    H128293   2.090   2.429   2.983 -1.2904  0.9074 -1.8946
 9443TIP3    H228294   2.068   2.289   2.929 -0.3692  0.1068 -0.2534
 9444TIP3   OH228295   0.183   0.963   5.677  0.8062 -0.3353  0.7715
 9444TIP3    H128296   0.205   0.998   5.764 -2.1423  1.6961  0.8380
 9444TIP3    H228297   0.090   0.940   5.683  0.8321 -1.3162 -1.5277
 9445TIP3   OH228298   6.510   6.125   3.179 -0.2846  0.2458  0.5487
 9445TIP3    H128299   6.505   6.036   3.213  0.6812  0.3089  0.8675
 9445TIP3    H228300   6.584   6.165   3.225  0.5851  0.5749 -1.0789
 9446TIP3   OH228301   2.013   3.840   2.313  0.8174  0.5942  0.2096
 9446TIP3    H128302   1.949   3.800   2.253 -0.6225  0.2576  1.8849
 9446TIP3    H228303   1.998   3.934   2.303  0.6476  0.5478 -0.0089
 9447TIP3   OH228304   2.977   4.104   1.153 -0.1364 -0.0684  0.2458
 9447TIP3    H128305   3.067   4.116   1.184 -0.1172 -0.9169  0.5632
 9447TIP3    H228306   2.971   4.158   1.074  0.2448  1.0158  0.9414
 9448TIP3   OH228307   3.313   4.930   1.137  0.2055 -0.5580 -0.4655
 9448TIP3    H128308   3.387   4.977   1.176 -1.7490  2.5674 -0.2237
 9448TIP3    H228309   3.284   4.869   1.206 -0.0629  1.2673  1.1187
 9449TIP3   OH228310   0.390   0.484   0.253  0.3867  0.3945 -0.0626
 9449TIP3    H128311   0.408   0.466   0.345 -0.7288  1.5642  0.4174
 9449TIP3    H228312   0.307   0.532   0.254  0.2129  0.1849 -1.7021
 9450TIP3   OH228313   6.286   3.436   3.100  0.0109 -0.3269 -0.3717
 9450TIP3    H128314   6.273   3.350   3.141  0.1603  0.1758  0.7551
 9450TIP3    H228315   6.328   3.489   3.167  1.0616  0.2817 -1.4663
 9451TIP3   OH228316   5.348   2.613   4.526  0.2556  0.3236 -0.1273
 9451TIP3    H128317   5.393   2.688   4.486  0.7028  0.5704  0.8008
 9451TIP3    H228318   5.417   2.569   4.576 -0.7020  1.3173  2.2282
 9452TIP3   OH228319   5.539   6.697   3.786  0.5041 -0.4279  0.0333
 9452TIP3    H128320   5.575   6.784   3.804  0.9646 -0.8846  1.5181
 9452TIP3    H228321   5.613   6.647   3.751  0.6496 -0.6316  0.6143
 9453TIP3   OH228322   1.627   6.178   1.582 -0.3086  0.1135  0.4866
 9453TIP3    H128323   1.637   6.272   1.597 -1.9770  0.3144  0.5436
 9453TIP3    H228324   1.614   6.170   1.488  1.5185 -0.2595  0.2365
 9454TIP3   OH228325   5.468   3.499   2.901 -0.4550 -0.0989  0.2021
 9454TIP3    H128326   5.418   3.464   2.828 -0.4283 -3.2346  1.5219
 9454TIP3    H228327   5.557   3.507   2.867 -0.9806  1.3457 -0.9087
 9455TIP3   OH228328   2.284   5.453   4.334  0.1633 -0.6344 -0.3954
 9455TIP3    H128329   2.347   5.525   4.334  1.8311 -1.9937  1.2913
 9455TIP3    H228330   2.319   5.390   4.272  0.1278 -1.1356  0.0924
 9456TIP3   OH228331   2.924   6.611   0.976  0.5321  0.0396 -0.0945
 9456TIP3    H128332   2.914   6.674   1.047  0.1010 -0.4792  0.3235
 9456TIP3    H228333   2.943   6.664   0.899  0.9849  0.6163  0.4019
 9457TIP3   OH228334   2.597   4.697   0.928 -0.6123 -0.5186  0.1797
 9457TIP3    H128335   2.563   4.718   1.014 -0.0544  1.1516  0.0390
 9457TIP3    H228336   2.529   4.644   0.887 -0.9241 -1.2510  1.5930
 9458TIP3   OH228337   0.851   3.309   4.972 -0.6994 -0.1829 -0.1880
 9458TIP3    H128338   0.772   3.363   4.968  0.6006  1.9788  1.5052
 9458TIP3    H228339   0.866   3.295   5.066  0.3097 -1.5472 -0.5183
 9459TIP3   OH228340   3.506   3.269   3.273 -0.2353  0.1099 -0.0518
 9459TIP3    H128341   3.414   3.291   3.287 -0.4039 -1.1276  0.8982
 9459TIP3    H228342   3.542   3.263   3.362 -0.1509 -3.1163 -0.2194
 9460TIP3   OH228343   0.500   6.459   3.919 -0.3025 -0.0392 -0.3492
 9460TIP3    H128344   0.528   6.548   3.941 -1.1860 -0.1343  1.3153
 9460TIP3    H228345   0.576   6.419   3.878  0.5327  1.0757  0.0724
 9461TIP3   OH228346   1.094   6.403   1.547  0.2440 -0.2245 -0.3022
 9461TIP3    H128347   1.168   6.464   1.548  0.0690  0.0874 -2.4110
 9461TIP3    H228348   1.017   6.460   1.540 -0.2556 -0.5518  1.7550
 9462TIP3   OH228349   0.173   2.709   2.364 -0.0301 -0.1692 -0.0831
 9462TIP3    H128350   0.240   2.643   2.381 -1.5522 -1.5460  0.7938
 9462TIP3    H228351   0.185   2.773   2.434 -0.0548 -0.7523  0.4623
 9463TIP3   OH228352   5.593   2.418   1.322  0.0757  0.0214 -0.0746
 9463TIP3    H128353   5.524   2.480   1.299  0.3605  1.0111  1.5037
 9463TIP3    H228354   5.577   2.399   1.415  0.4450 -1.7158 -0.3383
 9464TIP3   OH228355   6.949   2.310   2.369 -0.5541 -0.5196 -0.0442
 9464TIP3    H128356   6.914   2.237   2.420  0.1107  0.3091  1.7082
 9464TIP3    H228357   7.044   2.298   2.372 -0.5037 -0.7621 -1.6384
 9465TIP3   OH228358   4.044   5.494   3.517  0.1068 -0.2836  0.2014
 9465TIP3    H128359   3.970   5.530   3.566  0.0001 -0.9644  0.5531
 9465TIP3    H228360   4.108   5.565   3.514 -0.4116  0.1876  0.2163
 9466TIP3   OH228361   0.493   4.432   5.015  0.0499 -0.1618 -0.1024
 9466TIP3    H128362   0.399   4.421   4.998 -0.1072  0.6104  0.2035
 9466TIP3    H228363   0.506   4.391   5.101  0.0674 -0.6035 -0.3162
 9467TIP3   OH228364   3.904   1.013   3.770 -0.3256 -0.2083  0.2688
 9467TIP3    H128365   3.976   1.052   3.820 -1.6205  1.2648  1.0726
 9467TIP3    H228366   3.852   0.965   3.834 -0.0150 -1.3716 -0.3270
 9468TIP3   OH228367   7.007   3.014   3.636 -0.1683 -0.5743  0.2170
 9468TIP3    H128368   6.966   2.987   3.718  1.0717 -1.1799  0.6753
 9468TIP3    H228369   7.101   3.020   3.657 -0.1013  1.9708 -0.4483
 9469TIP3   OH228370   6.363   3.864   2.523  0.0222 -0.1555  0.3377
 9469TIP3    H128371   6.398   3.803   2.457  1.4081 -0.0489  0.9471
 9469TIP3    H228372   6.337   3.808   2.596  1.1473 -0.0533  0.8331
 9470TIP3   OH228373   3.478   2.268   0.024  0.3856  0.3503 -0.3845
 9470TIP3    H128374   3.538   2.319  -0.030  0.1533  2.1078  0.9280
 9470TIP3    H228375   3.521   2.183   0.035  2.2500  1.2896 -0.1186
 9471TIP3   OH228376   7.186   2.360   3.846 -0.1867  0.2613 -0.0740
 9471TIP3    H128377   7.219   2.306   3.774 -2.2198 -1.7708  0.3988
 9471TIP3    H228378   7.141   2.299   3.903 -0.2436  2.1124  1.9844
 9472TIP3   OH228379   6.210   1.201   4.571 -0.2155 -0.1460 -0.0853
 9472TIP3    H128380   6.181   1.213   4.480  1.7106 -0.8578 -0.8473
 9472TIP3    H228381   6.305   1.190   4.564  0.0661  0.4749  2.1023
 9473TIP3   OH228382   6.689   2.733   2.137 -0.0542  0.1880  0.1422
 9473TIP3    H128383   6.670   2.677   2.212 -1.1212 -2.3343 -1.8291
 9473TIP3    H228384   6.780   2.714   2.115 -0.5083 -1.1748 -0.7250
 9474TIP3   OH228385   6.241   4.663   2.419 -0.0228 -0.6742 -0.1225
 9474TIP3    H128386   6.189   4.677   2.340  0.6939  1.3291 -0.2986
 9474TIP3    H228387   6.185   4.692   2.490 -0.2144 -1.3189 -0.0038
 9475TIP3   OH228388   4.790   6.690   0.769 -0.7300 -0.3062  0.0699
 9475TIP3    H128389   4.788   6.695   0.865  1.2304 -0.7949  0.1878
 9475TIP3    H228390   4.712   6.738   0.741 -1.3202 -0.1007  1.9023
 9476TIP3   OH228391   2.519   2.212   2.117 -0.3305 -0.1823 -0.5565
 9476TIP3    H128392   2.472   2.142   2.071 -1.6364  0.4198 -0.1614
 9476TIP3    H228393   2.579   2.248   2.051 -0.8412 -0.5680 -1.2388
 9477TIP3   OH228394   4.165   0.763   0.207 -0.5311  0.0049  0.0289
 9477TIP3    H128395   4.080   0.799   0.181 -0.4709 -0.0697 -0.2691
 9477TIP3    H228396   4.160   0.759   0.302 -0.7950  0.1689  0.0254
 9478TIP3   OH228397   4.322   6.195   1.950 -0.0780 -0.0879  0.0291
 9478TIP3    H128398   4.333   6.167   1.859 -1.5375  1.7736 -0.7790
 9478TIP3    H228399   4.259   6.133   1.987 -2.5855  1.4072 -1.4676
 9479TIP3   OH228400   1.587   2.325   4.599  0.0993  0.8478 -0.0337
 9479TIP3    H128401   1.586   2.260   4.669 -0.8910  0.7226 -0.1520
 9479TIP3    H228402   1.613   2.276   4.521 -0.6880  0.5797 -0.1307
 9480TIP3   OH228403   1.899   4.242   0.157 -0.0984  0.4514  0.3835
 9480TIP3    H128404   1.826   4.211   0.103 -0.9690  0.3014  1.6103
 9480TIP3    H228405   1.915   4.331   0.127 -0.7726  0.4801  0.0861
 9481TIP3   OH228406   5.200   4.960   2.392 -0.0358  0.3353 -0.2610
 9481TIP3    H128407   5.282   4.997   2.360  0.0503  0.1031 -0.3086
 9481TIP3    H228408   5.208   4.964   2.487 -0.4771  1.4395 -0.2499
 9482TIP3   OH228409   5.237   2.359   1.785 -0.4456 -0.5825  0.2504
 9482TIP3    H128410   5.285   2.277   1.789 -0.2920 -0.4426  1.6849
 9482TIP3    H228411   5.157   2.343   1.836 -1.1306 -0.2929 -0.7015
 9483TIP3   OH228412   3.551   5.333   2.582  0.5797  0.1496 -0.4187
 9483TIP3    H128413   3.478   5.274   2.601  0.8127  0.5933  2.3078
 9483TIP3    H228414   3.628   5.277   2.579  0.2317 -0.2982 -3.1393
 9484TIP3   OH228415   4.167   5.047   1.885 -0.3130  0.4156  0.2159
 9484TIP3    H128416   4.236   5.040   1.952  2.6205  1.2188 -2.4978
 9484TIP3    H228417   4.156   5.142   1.872 -1.5858  0.2826  0.2361
 9485TIP3   OH228418   0.272   4.277   0.685  0.9340  0.2957 -0.6683
 9485TIP3    H128419   0.270   4.221   0.763  1.0252  0.6327 -0.4259
 9485TIP3    H228420   0.197   4.247   0.633 -0.0588  1.0960  0.2601
 9486TIP3   OH228421   3.006   1.689   5.824 -0.3029 -0.0695  0.0455
 9486TIP3    H128422   3.044   1.615   5.871 -0.8967 -0.1802  0.3638
 9486TIP3    H228423   2.952   1.650   5.756 -1.0805  0.0431  0.5767
 9487TIP3   OH228424   0.196   4.125   4.546 -0.4456  0.1332  0.3123
 9487TIP3    H128425   0.201   4.185   4.472  0.5898  2.1657  1.9090
 9487TIP3    H228426   0.105   4.132   4.576 -0.1838  1.4611  0.8654
 9488TIP3   OH228427   1.251   0.085   1.476 -0.1218  0.7920  0.1617
 9488TIP3    H128428   1.185   0.153   1.486  0.1424  1.1438 -0.4093
 9488TIP3    H228429   1.208   0.016   1.425 -0.0719  0.9937 -0.1571
 9489TIP3   OH228430   6.590   5.226   1.681  1.1183  0.0208 -0.3946
 9489TIP3    H128431   6.546   5.167   1.620 -0.8626  1.3251 -0.3057
 9489TIP3    H228432   6.677   5.240   1.643  1.2518 -2.0566 -0.9707
 9490TIP3   OH228433   0.089   3.252   4.316 -0.4601  0.1849 -0.4434
 9490TIP3    H128434   0.088   3.178   4.377  0.5721  0.6221  0.1377
 9490TIP3    H228435  -0.002   3.265   4.292 -0.7176 -0.8956 -0.0776
 9491TIP3   OH228436   3.297   5.025   4.539  0.4625 -0.1118  0.2873
 9491TIP3    H128437   3.381   5.044   4.582  1.1184 -1.2287 -0.4606
 9491TIP3    H228438   3.262   4.950   4.587 -0.0915  0.2888  0.5335
 9492TIP3   OH228439   0.948   3.186   2.349  0.1101 -0.2534  0.4715
 9492TIP3    H128440   0.857   3.158   2.339  0.3844 -0.7623 -0.7900
 9492TIP3    H228441   0.959   3.255   2.284  1.0245 -1.2301 -0.4346
 9493TIP3   OH228442   4.562   1.188   2.574 -0.3893 -0.5483 -0.4238
 9493TIP3    H128443   4.654   1.188   2.548 -0.6623 -0.5663 -1.4477
 9493TIP3    H228444   4.560   1.234   2.658  0.3586  0.7733 -1.1004
 9494TIP3   OH228445   1.088   1.110   3.940 -0.4011  0.0373  0.3267
 9494TIP3    H128446   1.152   1.041   3.921 -0.5319 -0.4526  1.5872
 9494TIP3    H228447   1.087   1.164   3.860 -0.6282 -1.6637 -0.8666
 9495TIP3   OH228448   3.201   2.986   1.055 -0.2644  0.6882 -0.1571
 9495TIP3    H128449   3.124   3.042   1.050  0.0033  0.9868 -1.0786
 9495TIP3    H228450   3.270   3.036   1.012 -0.0637 -0.3996 -1.1529
 9496TIP3   OH228451   4.938   0.177   0.063  0.1230 -0.3444  0.2961
 9496TIP3    H128452   5.010   0.206   0.007  1.4767  1.3123  2.7060
 9496TIP3    H228453   4.972   0.099   0.107 -0.6514 -1.1912 -0.5472
 9497TIP3   OH228454   4.810   3.705   1.158 -0.0617 -0.1214 -0.3180
 9497TIP3    H128455   4.816   3.796   1.131  0.4632 -0.6121 -2.0161
 9497TIP3    H228456   4.787   3.658   1.077 -1.3813 -1.3778  0.7269
 9498TIP3   OH228457   5.085   2.188   2.000 -0.4436 -0.0067 -0.2177
 9498TIP3    H128458   5.108   2.185   2.093 -1.4576 -1.9004  0.0133
 9498TIP3    H228459   4.990   2.200   1.999 -0.6154 -1.2174 -0.9521
 9499TIP3   OH228460   4.021   5.913   2.417  0.3736  0.1038 -0.1059
 9499TIP3    H128461   4.097   5.966   2.438  2.2404 -2.3697 -0.1519
 9499TIP3    H228462   3.985   5.886   2.501  1.4669 -1.1918 -0.0107
 9500TIP3   OH228463   6.065   5.851   5.587  0.0426 -1.0587 -0.3472
 9500TIP3    H128464   6.123   5.790   5.541  0.0139 -1.1202 -0.3023
 9500TIP3    H228465   6.102   5.858   5.674  0.9188  0.1563 -0.7946
 9501TIP3   OH228466   6.928   4.904   1.031 -0.2093  0.0003 -0.2039
 9501TIP3    H128467   6.980   4.978   1.002 -0.8850  0.8022  0.5847
 9501TIP3    H228468   6.987   4.852   1.085  0.2678 -0.0542 -0.7705
 9502TIP3   OH228469   0.824   2.137   5.731 -0.2062 -0.1948 -0.3561
 9502TIP3    H128470   0.876   2.206   5.773 -3.2722  0.8679  2.1112
 9502TIP3    H228471   0.789   2.178   5.652  0.0149  0.2382 -0.2344
 9503TIP3   OH228472   0.915   3.028   4.107  0.5420 -0.6610 -0.1387
 9503TIP3    H128473   0.968   3.095   4.064  1.0769 -1.0407 -0.0814
 9503TIP3    H228474   0.833   3.027   4.058  0.0630  0.8492  0.5758
 9504TIP3   OH228475   0.765   4.365   5.333 -0.2484  0.1791 -0.0790
 9504TIP3    H128476   0.821   4.438   5.356  0.5618 -0.0409 -1.2488
 9504TIP3    H228477   0.736   4.328   5.416  1.8505 -0.0727  0.5774
 9505TIP3   OH228478   2.863   5.227   4.290 -0.0646 -0.1856 -0.0566
 9505TIP3    H128479   2.879   5.187   4.375 -1.0891 -0.0070  0.2338
 9505TIP3    H228480   2.767   5.230   4.282  0.0178 -0.1544 -1.1912
 9506TIP3   OH228481   2.149   0.033   3.145 -0.1034  0.6585 -0.3370
 9506TIP3    H128482   2.088   0.094   3.187 -1.5142 -1.1316  0.3244
 9506TIP3    H228483   2.116   0.024   3.055 -1.8429 -1.4722  0.4329
 9507TIP3   OH228484   6.615   5.565   4.401  0.0057  0.4096 -0.2056
 9507TIP3    H128485   6.597   5.475   4.372  3.6683  0.2344 -2.6066
 9507TIP3    H228486   6.533   5.612   4.383 -1.6137 -2.1483 -0.0634
 9508TIP3   OH228487   2.814   2.816   4.250 -0.2683 -0.6641 -0.3335
 9508TIP3    H128488   2.829   2.781   4.338 -0.0139 -0.7263 -0.4007
 9508TIP3    H228489   2.851   2.904   4.252 -0.5369 -0.5506 -0.2894
 9509TIP3   OH228490   2.505   0.964   4.998 -0.6387 -0.3062  0.3792
 9509TIP3    H128491   2.561   1.042   4.993 -1.3070  0.0966 -2.1482
 9509TIP3    H228492   2.547   0.901   4.938 -1.3912 -1.0317  0.5969
 9510TIP3   OH228493   7.032   2.492   3.618 -0.8550 -0.3353 -0.3336
 9510TIP3    H128494   7.092   2.454   3.682 -0.8275  0.1662 -0.0564
 9510TIP3    H228495   6.972   2.546   3.670 -0.1985  0.9029 -0.8178
 9511TIP3   OH228496   0.603   2.244   5.892 -0.1893  0.5398  0.1964
 9511TIP3    H128497   0.554   2.274   5.815 -0.1680 -1.7170 -0.7781
 9511TIP3    H228498   0.682   2.203   5.856 -0.5047 -1.1695  1.3213
 9512TIP3   OH228499   4.038   1.100   0.082 -0.5698 -0.6067 -0.0450
 9512TIP3    H128500   3.979   1.029   0.104 -1.0316 -0.6366 -1.3124
 9512TIP3    H228501   4.059   1.086  -0.011  0.7648 -0.1254  0.1603
 9513TIP3   OH228502   4.698   4.151   2.524  0.6790 -0.1844 -0.1324
 9513TIP3    H128503   4.694   4.203   2.444 -1.0470 -1.5424 -0.9915
 9513TIP3    H228504   4.613   4.164   2.566  0.8719 -0.9492  0.5243
 9514TIP3   OH228505   4.834   4.925   5.052  0.0879  0.3068  0.1470
 9514TIP3    H128506   4.783   4.943   5.131 -1.3170 -0.2214 -0.5941
 9514TIP3    H228507   4.922   4.957   5.072 -0.2377  0.2007  1.8997
 9515TIP3   OH228508   2.909   1.209   2.086  0.1391 -0.3433  0.0574
 9515TIP3    H128509   2.918   1.133   2.028 -1.7443  1.0429 -2.1993
 9515TIP3    H228510   2.993   1.255   2.078  1.1911 -1.9560  1.2188
 9516TIP3   OH228511   7.170   3.754   2.731 -0.2045  0.4416 -0.4641
 9516TIP3    H128512   7.186   3.738   2.639  0.3171  0.8087 -0.4417
 9516TIP3    H228513   7.135   3.843   2.735 -2.2794 -0.3145 -0.5073
 9517TIP3   OH228514   1.626   6.128   5.249 -0.5565 -0.0846 -0.6778
 9517TIP3    H128515   1.679   6.077   5.188  1.5484  0.2153  0.8037
 9517TIP3    H228516   1.576   6.063   5.297 -0.4558 -0.4872 -1.1091
 9518TIP3   OH228517   5.460   5.108   2.559  0.1439  0.0480 -0.2575
 9518TIP3    H128518   5.450   5.202   2.542 -1.5074  0.1571  1.1105
 9518TIP3    H228519   5.380   5.083   2.604  1.1122 -1.7573  0.5668
 9519TIP3   OH228520   2.301   2.639   0.475 -0.3433  0.0696 -0.2664
 9519TIP3    H128521   2.215   2.681   0.476 -0.9289 -1.0772 -0.1313
 9519TIP3    H228522   2.360   2.703   0.515 -1.2332  0.6800  0.0958
 9520TIP3   OH228523   0.056   6.785   1.540  0.1868 -0.4340 -0.3966
 9520TIP3    H128524   0.048   6.771   1.635  1.4106  0.7367 -0.0856
 9520TIP3    H228525  -0.033   6.776   1.507 -0.2441 -1.0022  0.8407
 9521TIP3   OH228526   6.784   0.243   1.217 -0.2153  0.4953 -0.3128
 9521TIP3    H128527   6.827   0.277   1.139  1.0280  1.3783  0.6966
 9521TIP3    H228528   6.832   0.164   1.239  2.3612  2.4839  1.9066
 9522TIP3   OH228529   7.019   5.102   4.768 -0.1352  0.4521 -0.0151
 9522TIP3    H128530   7.070   5.091   4.687 -0.4135  1.2958 -0.3244
 9522TIP3    H228531   7.084   5.130   4.833 -0.0489  0.6537 -0.1842
 9523TIP3   OH228532   1.274   4.740   1.827  0.1013 -0.1427  0.1578
 9523TIP3    H128533   1.367   4.732   1.846 -0.0289 -0.4248  0.7213
 9523TIP3    H228534   1.238   4.784   1.904  0.1683  2.4420 -1.1789
 9524TIP3   OH228535   0.149   3.515   2.547  0.3902  0.0492  0.2380
 9524TIP3    H128536   0.185   3.592   2.504  0.0188 -0.2701 -0.6915
 9524TIP3    H228537   0.186   3.441   2.498 -1.7290 -0.2905 -0.9917
 9525TIP3   OH228538   3.215   3.727   1.587  0.5703  0.1298 -0.5590
 9525TIP3    H128539   3.287   3.663   1.591 -1.7895 -2.7152 -0.2209
 9525TIP3    H228540   3.213   3.765   1.675  1.4606  0.0510 -0.4865
 9526TIP3   OH228541   5.208   2.297   4.138  0.0616 -0.1251 -0.6750
 9526TIP3    H128542   5.247   2.302   4.226  2.9820 -0.2486 -1.8417
 9526TIP3    H228543   5.157   2.377   4.130  1.3135  0.8381  0.4648
 9527TIP3   OH228544   5.930   1.326   3.964 -0.3651  0.3916 -0.1861
 9527TIP3    H128545   5.871   1.306   3.891  0.4027  1.5670 -1.1758
 9527TIP3    H228546   5.971   1.242   3.985  0.5964  0.2705 -2.2148
 9528TIP3   OH228547   5.775   6.745   5.323  0.5801  0.0976  0.4842
 9528TIP3    H128548   5.738   6.825   5.286  3.4963  0.1762 -2.6630
 9528TIP3    H228549   5.701   6.703   5.366 -2.3096  1.9452 -2.2382
 9529TIP3   OH228550   4.328   0.108   5.159 -0.3261  0.7573  0.7405
 9529TIP3    H128551   4.336   0.148   5.246  0.2753  1.0731  0.5415
 9529TIP3    H228552   4.287   0.175   5.105 -0.4339  0.6640  0.7055
 9530TIP3   OH228553   1.400   3.369   4.774  0.6472  0.1149 -0.1014
 9530TIP3    H128554   1.325   3.359   4.833  0.8052 -2.3740 -0.2099
 9530TIP3    H228555   1.380   3.447   4.722 -0.1318  1.6215  2.2730
 9531TIP3   OH228556   3.844   4.439   4.527 -0.2673  0.1456  0.1171
 9531TIP3    H128557   3.874   4.349   4.537  0.4512  0.3801  0.1067
 9531TIP3    H228558   3.922   4.488   4.499 -0.7870  0.6593 -0.4720
 9532TIP3   OH228559   1.316   5.854   2.139  0.7562 -0.3108  0.7732
 9532TIP3    H128560   1.396   5.856   2.088 -0.9302  0.5057 -2.0898
 9532TIP3    H228561   1.294   5.946   2.155 -0.9783 -0.3446 -0.9940
 9533TIP3   OH228562   6.512   1.078   0.901  0.0980 -0.0396  0.2502
 9533TIP3    H128563   6.540   1.168   0.916  0.3068 -0.0486 -0.0731
 9533TIP3    H228564   6.585   1.037   0.854 -0.0624 -0.3301  0.2482
 9534TIP3   OH228565   0.566   0.894   4.500  0.0048 -0.2043 -0.2074
 9534TIP3    H128566   0.544   0.933   4.415  0.9352 -1.0438 -0.8446
 9534TIP3    H228567   0.655   0.924   4.519 -0.5011  0.6947  0.9195
 9535TIP3   OH228568   5.982   0.249   2.900 -0.0239 -0.1719  0.5351
 9535TIP3    H128569   5.923   0.174   2.893  1.8246 -1.5395 -1.6757
 9535TIP3    H228570   6.022   0.257   2.814  2.0083  1.5566  1.5361
 9536TIP3   OH228571   3.070   6.140   1.456 -0.2139 -0.9030 -0.1471
 9536TIP3    H128572   3.018   6.164   1.379 -0.9103  0.7342  0.7802
 9536TIP3    H228573   3.011   6.156   1.531  0.5920 -2.0313  0.7598
 9537TIP3   OH228574   2.541   4.041   4.539 -0.2529 -0.1884  0.8375
 9537TIP3    H128575   2.628   4.081   4.544 -1.3212  2.3974  0.3236
 9537TIP3    H228576   2.558   3.949   4.515  2.2926  0.3356  0.3502
 9538TIP3   OH228577   2.589   6.407   4.962  0.5695  0.5565 -0.3895
 9538TIP3    H128578   2.648   6.331   4.960 -1.2956 -0.9896  0.6426
 9538TIP3    H228579   2.588   6.438   4.871 -0.0258 -1.8186 -1.2827
 9539TIP3   OH228580   4.758   6.122   0.776 -0.1040  0.5279 -0.3299
 9539TIP3    H128581   4.758   6.026   0.775  2.5447  0.4736 -1.3318
 9539TIP3    H228582   4.756   6.145   0.869  0.2430 -0.5178 -0.0548
 9540TIP3   OH228583   5.571   3.110   4.668 -0.1511 -0.1802 -0.2707
 9540TIP3    H128584   5.616   3.028   4.689  0.3349  0.3485  0.8205
 9540TIP3    H228585   5.533   3.139   4.752  2.0873  2.1597  0.0430
 9541TIP3   OH228586   3.342   3.361   2.904 -0.1681  0.0411 -0.0587
 9541TIP3    H128587   3.381   3.448   2.900 -1.3517  0.6041  0.1950
 9541TIP3    H228588   3.416   3.302   2.917  0.7745  0.8830 -1.3451
 9542TIP3   OH228589   3.467   0.616   3.827 -0.5117  0.2291  0.2654
 9542TIP3    H128590   3.515   0.651   3.752 -2.6665  2.2272 -0.3156
 9542TIP3    H228591   3.500   0.666   3.902 -1.4518  1.4589 -0.1017
 9543TIP3   OH228592   5.177   5.218   1.997 -0.6908 -0.4117  0.0758
 9543TIP3    H128593   5.168   5.247   1.906 -1.0641  0.9722  0.5202
 9543TIP3    H228594   5.193   5.124   1.992 -0.4146 -0.3005 -1.4291
 9544TIP3   OH228595   6.599   5.446   0.435  0.1142  0.2270  0.3327
 9544TIP3    H128596   6.612   5.371   0.377 -0.4043  1.0480 -0.8862
 9544TIP3    H228597   6.580   5.407   0.521  0.4512 -1.0190 -0.1438
 9545TIP3   OH228598   4.167   5.128   5.079 -0.3378 -0.0323 -0.1460
 9545TIP3    H128599   4.150   5.201   5.139  0.0092 -0.7621  0.8574
 9545TIP3    H228600   4.186   5.170   4.995 -0.0871  1.0350  0.4319
 9546TIP3   OH228601   6.286   1.384   5.786 -0.3620  0.3093  0.5319
 9546TIP3    H128602   6.330   1.468   5.797  0.4708  0.0496 -0.5958
 9546TIP3    H228603   6.279   1.373   5.691 -1.5151 -0.3674  0.6729
 9547TIP3   OH228604   3.778   5.438   2.486  0.3088  0.5790 -0.2552
 9547TIP3    H128605   3.786   5.530   2.461  0.3186  0.5396 -0.4011
 9547TIP3    H228606   3.692   5.431   2.527  0.5507  0.7735  0.2863
 9548TIP3   OH228607   0.382   3.728   0.849  0.3380  0.1729 -0.4182
 9548TIP3    H128608   0.310   3.678   0.811  0.2362 -0.8537  1.0575
 9548TIP3    H228609   0.341   3.779   0.920  1.0935 -0.7000  0.6807
 9549TIP3   OH228610   5.641   2.521   5.545 -0.4673  0.3630  0.2252
 9549TIP3    H128611   5.699   2.451   5.514 -2.0727 -0.7196 -0.4549
 9549TIP3    H228612   5.567   2.520   5.484 -1.1762  1.7530  1.0099
 9550TIP3   OH228613   1.266   6.455   0.454 -0.2683 -0.1548 -0.4640
 9550TIP3    H128614   1.204   6.434   0.524  1.2272 -0.5030  0.8060
 9550TIP3    H228615   1.309   6.372   0.434  1.5186  0.4975  0.4496
 9551TIP3   OH228616   2.656   3.052   0.686 -0.6379  0.4150  0.3652
 9551TIP3    H128617   2.599   3.099   0.625  0.4749  1.6141  0.2019
 9551TIP3    H228618   2.645   3.098   0.769 -2.8349 -1.7564  1.4025
 9552TIP3   OH228619   2.605   2.454   3.455  0.1413 -0.1130 -0.2166
 9552TIP3    H128620   2.537   2.498   3.404  2.1778  0.6468 -2.5034
 9552TIP3    H228621   2.677   2.442   3.393  2.3590 -0.2840  2.2119
 9553TIP3   OH228622   0.058   4.122   0.535 -0.3293 -0.8037  0.4081
 9553TIP3    H128623   0.057   4.045   0.591  1.2983 -1.1244  0.0585
 9553TIP3    H228624   0.040   4.088   0.447 -3.1919 -0.2627  0.7123
 9554TIP3   OH228625   5.279   0.946   1.759 -0.6126 -0.5966 -0.3894
 9554TIP3    H128626   5.202   1.000   1.779 -0.9329 -1.0214 -0.4568
 9554TIP3    H228627   5.255   0.900   1.679  0.3663  0.5119 -1.3435
 9555TIP3   OH228628   1.178   4.928   3.731  0.0329  0.7026 -0.0896
 9555TIP3    H128629   1.203   4.869   3.660  2.0886  2.4787 -0.9672
 9555TIP3    H228630   1.117   4.990   3.691  1.1765  1.6907 -0.3757
 9556TIP3   OH228631   2.837   6.029   2.857  0.0294  0.4573  0.3712
 9556TIP3    H128632   2.900   6.057   2.924 -1.4690  2.3301  1.0840
 9556TIP3    H228633   2.766   6.093   2.863 -1.7943 -1.3684 -0.6314
 9557TIP3   OH228634   3.893   1.304   2.003 -0.0044  0.1948 -0.4233
 9557TIP3    H128635   3.896   1.216   1.965 -0.7761 -0.6652  1.3755
 9557TIP3    H228636   3.812   1.343   1.968  0.0593 -0.0151 -0.8051
 9558TIP3   OH228637   4.010   0.590   1.700  0.3356  0.2818  0.0848
 9558TIP3    H128638   4.052   0.603   1.615  0.8066 -0.1667  0.2398
 9558TIP3    H228639   4.024   0.497   1.719 -2.0613 -0.2730 -0.5541
 9559TIP3   OH228640   0.569   5.232   3.521  0.0991  0.3411  0.2111
 9559TIP3    H128641   0.554   5.142   3.492  1.2776 -0.5607  2.1874
 9559TIP3    H228642   0.485   5.276   3.509 -0.5141 -1.0213 -0.7359
 9560TIP3   OH228643   3.661   5.645   0.691 -0.1228  0.5402 -0.0478
 9560TIP3    H128644   3.743   5.597   0.700 -0.5280 -0.1118  0.2299
 9560TIP3    H228645   3.635   5.666   0.780 -0.3612  0.5615 -0.1210
 9561TIP3   OH228646   3.978   3.082   4.272 -0.1873 -0.1634  0.2042
 9561TIP3    H128647   3.984   3.088   4.367  1.0250  0.6343  0.1010
 9561TIP3    H228648   3.893   3.119   4.250 -0.6014 -0.6291  0.9885
 9562TIP3   OH228649   3.493   2.232   2.703  0.0860 -0.1851  0.2175
 9562TIP3    H128650   3.405   2.242   2.738  0.0268 -2.1557  0.8077
 9562TIP3    H228651   3.480   2.198   2.615  0.2590  0.3689 -0.0241
 9563TIP3   OH228652   0.693   6.112   0.101  0.4899 -0.0784  0.1986
 9563TIP3    H128653   0.650   6.059   0.034  0.5357  0.1976 -0.0536
 9563TIP3    H228654   0.748   6.051   0.149  0.8801 -0.1818 -0.3717
 9564TIP3   OH228655   1.835   5.505   5.616 -0.1616 -0.6538  0.2708
 9564TIP3    H128656   1.880   5.552   5.547 -1.2992 -0.9644 -0.7238
 9564TIP3    H228657   1.876   5.534   5.697  0.0189  1.0667 -0.4153
 9565TIP3   OH228658   7.144   3.686   1.927 -0.0222  0.9033  0.3843
 9565TIP3    H128659   7.090   3.749   1.879 -1.6494 -0.5388  0.2531
 9565TIP3    H228660   7.114   3.600   1.897  0.7700  0.0158  2.0071
 9566TIP3   OH228661   6.566   3.899   2.189  0.6701 -0.4124  0.1184
 9566TIP3    H128662   6.558   3.954   2.111  1.0520 -1.1771 -0.4726
 9566TIP3    H228663   6.624   3.947   2.248  0.6267  0.0269 -0.1974
 9567TIP3   OH228664   3.238   2.525   4.388  0.1421  0.1985 -0.2810
 9567TIP3    H128665   3.199   2.451   4.435  2.0245 -0.0146  1.0697
 9567TIP3    H228666   3.330   2.522   4.412  0.5267  2.1742 -1.3171
 9568TIP3   OH228667   1.123   4.631   5.823  0.2943  0.4707 -0.2746
 9568TIP3    H128668   1.153   4.552   5.779  0.2853 -0.3678  1.1435
 9568TIP3    H228669   1.029   4.634   5.806  0.5812  1.2432 -1.8996
 9569TIP3   OH228670   6.662   3.551   1.555  0.2485 -0.2716  0.1848
 9569TIP3    H128671   6.571   3.557   1.586  0.1063 -1.0615 -0.0455
 9569TIP3    H228672   6.713   3.590   1.626 -0.3552  1.4067 -0.2625
 9570TIP3   OH228673   6.066   1.744   5.734 -0.0427  0.1966  0.3998
 9570TIP3    H128674   5.996   1.701   5.783 -1.5275  2.7867  0.7037
 9570TIP3    H228675   6.144   1.730   5.788 -0.1078 -3.0718 -0.1393
 9571TIP3   OH228676   2.357   6.754   4.858  0.1150  0.2405  0.1340
 9571TIP3    H128677   2.351   6.658   4.853  0.7939  0.0277  2.2443
 9571TIP3    H228678   2.446   6.770   4.890  0.1628  1.6325 -0.6114
 9572TIP3   OH228679   4.450   0.727   0.885  0.7741 -0.6740 -0.0164
 9572TIP3    H128680   4.477   0.643   0.847  0.1320 -1.5669  1.4218
 9572TIP3    H228681   4.462   0.716   0.979  1.9800  1.3521  0.1179
 9573TIP3   OH228682   3.245   6.281   5.432  0.0527  0.0828  0.4930
 9573TIP3    H128683   3.203   6.244   5.510 -2.1741  0.2499 -0.5399
 9573TIP3    H228684   3.194   6.360   5.413  0.3364 -0.1351 -1.3044
 9574TIP3   OH228685   0.639   2.996   1.552  0.4874 -0.6429  0.1266
 9574TIP3    H128686   0.565   2.936   1.557 -1.7279  1.4412 -3.4551
 9574TIP3    H228687   0.609   3.076   1.594  1.9842 -0.6897  1.4068
 9575TIP3   OH228688   0.403   6.073   4.360  0.4298  0.0869 -0.3209
 9575TIP3    H128689   0.445   6.126   4.293 -0.6358 -0.0564 -1.1295
 9575TIP3    H228690   0.475   6.030   4.406  1.2851  1.8529  0.0459
 9576TIP3   OH228691   6.257   6.256   1.836  1.3184  0.1320  0.1602
 9576TIP3    H128692   6.212   6.285   1.915  0.0254  1.2477 -0.9602
 9576TIP3    H228693   6.205   6.182   1.805  0.7584  0.8505 -0.6385
 9577TIP3   OH228694   5.347   4.407   3.992  0.1604  0.5296 -0.3401
 9577TIP3    H128695   5.283   4.478   3.997  0.5594  0.8219  1.4768
 9577TIP3    H228696   5.414   4.430   4.057 -0.0909 -1.8616  0.8992
 9578TIP3   OH228697   3.371   1.568   0.166  0.3628  0.2518  0.0451
 9578TIP3    H128698   3.326   1.497   0.212  0.2537  0.6891  0.6320
 9578TIP3    H228699   3.461   1.538   0.156  0.2178 -0.1399 -0.0863
 9579TIP3   OH228700   1.889   3.070   5.199 -0.0356  0.3131  0.2977
 9579TIP3    H128701   1.886   3.026   5.284  0.0893 -2.1321 -0.8755
 9579TIP3    H228702   1.804   3.053   5.159  0.3321  0.3753 -0.5537
 9580TIP3   OH228703   0.180   2.661   4.101 -0.6070 -0.5322  0.4419
 9580TIP3    H128704   0.175   2.743   4.151 -1.0840  0.2819 -0.8810
 9580TIP3    H228705   0.089   2.632   4.094 -1.0127  1.0971 -2.6261
 9581TIP3   OH228706   6.490   3.946   4.851  0.0606 -0.3078  0.1645
 9581TIP3    H128707   6.525   4.029   4.884  0.5901 -1.3243  2.3419
 9581TIP3    H228708   6.398   3.947   4.878 -0.2235  0.0450 -0.8029
 9582TIP3   OH228709   0.495   0.793   4.179  0.3564 -0.0747  0.3350
 9582TIP3    H128710   0.541   0.737   4.242 -1.4617 -1.3179  0.6083
 9582TIP3    H228711   0.540   0.776   4.096  0.9633 -0.5792  0.7520
 9583TIP3   OH228712   2.721   4.293   2.436  0.4912  0.1452 -0.1634
 9583TIP3    H128713   2.691   4.335   2.355  0.3641  0.3462 -0.0132
 9583TIP3    H228714   2.665   4.215   2.444  1.3262 -0.5550 -0.9142
 9584TIP3   OH228715   7.116   2.642   0.116  0.8272 -0.9529  0.3455
 9584TIP3    H128716   7.181   2.705   0.084 -1.0433  0.7019 -0.3367
 9584TIP3    H228717   7.167   2.582   0.171  2.5602  1.7908  1.9824
 9585TIP3   OH228718   1.054   2.062   2.069  0.0102 -0.0553 -0.6502
 9585TIP3    H128719   1.129   2.122   2.065  0.5578 -0.3553  2.3094
 9585TIP3    H228720   1.088   1.979   2.037  1.3544 -0.4345  1.4950
 9586TIP3   OH228721   2.997   2.350   1.023  0.4943  0.3124  0.3403
 9586TIP3    H128722   3.019   2.306   1.106  2.6103 -0.1840 -0.4048
 9586TIP3    H228723   2.970   2.438   1.049  0.9200  0.0974  1.5783
 9587TIP3   OH228724   6.357   5.694   1.057 -0.1246  0.2033 -0.0792
 9587TIP3    H128725   6.264   5.677   1.038  0.2339 -3.3571  0.5157
 9587TIP3    H228726   6.403   5.658   0.981  0.8379  1.8683 -0.3263
 9588TIP3   OH228727   1.130   2.519   4.050  0.1538 -0.4427 -0.9816
 9588TIP3    H128728   1.090   2.605   4.042  0.2612 -0.3794 -0.8290
 9588TIP3    H228729   1.090   2.467   3.980  0.0613 -0.2805 -1.0477
 9589TIP3   OH228730   3.379   4.258   0.281 -0.5361 -0.1413  0.2199
 9589TIP3    H128731   3.329   4.225   0.207  0.3631  0.9557 -0.9198
 9589TIP3    H228732   3.313   4.278   0.347 -1.6105  1.0383 -1.1408
 9590TIP3   OH228733   0.797   2.137   3.371 -0.1842 -0.0946 -0.4241
 9590TIP3    H128734   0.772   2.176   3.455 -2.6904 -0.5955 -0.8677
 9590TIP3    H228735   0.848   2.205   3.327  0.5621  0.4369  1.1954
 9591TIP3   OH228736   4.503   4.876   0.293  0.0123 -0.5719  0.1539
 9591TIP3    H128737   4.481   4.937   0.363  0.2487 -0.5559  0.2156
 9591TIP3    H228738   4.418   4.843   0.262 -0.0883 -0.6460  0.5079
 9592TIP3   OH228739   5.337   5.721   2.584  0.0430  0.6138  0.6367
 9592TIP3    H128740   5.407   5.769   2.627 -1.5082  1.4757  2.3630
 9592TIP3    H228741   5.271   5.710   2.652 -1.4478 -0.2650 -0.8776
 9593TIP3   OH228742   3.936   5.289   4.943  0.1370 -0.6688  0.1910
 9593TIP3    H128743   3.905   5.216   4.998 -0.1084 -0.8056 -0.1252
 9593TIP3    H228744   3.896   5.273   4.857  0.7239 -0.5944 -0.0992
 9594TIP3   OH228745   5.741   5.852   1.013  0.0395  0.2451  0.3045
 9594TIP3    H128746   5.673   5.835   1.078  0.2800  0.0759  0.5138
 9594TIP3    H228747   5.738   5.776   0.955 -0.9660  0.9280 -0.5861
 9595TIP3   OH228748   0.205   0.073   0.853 -0.0200 -0.3372 -0.0484
 9595TIP3    H128749   0.217  -0.020   0.835 -0.9179 -0.0349 -2.5998
 9595TIP3    H228750   0.125   0.077   0.905  0.8514 -1.0466  1.4168
 9596TIP3   OH228751   4.410   1.333   2.170  0.2511 -0.3811  0.1500
 9596TIP3    H128752   4.423   1.291   2.084 -0.1646 -3.1827  1.3293
 9596TIP3    H228753   4.495   1.324   2.214 -0.0286 -0.5652  0.6574
 9597TIP3   OH228754   3.990   6.194   5.425 -0.0828  0.3222 -0.0095
 9597TIP3    H128755   4.043   6.264   5.385  0.0359  0.2215 -0.0311
 9597TIP3    H228756   3.993   6.213   5.519  1.1280 -0.4467  0.1355
 9598TIP3   OH228757   0.953   6.081   2.301  0.2545 -0.3909  0.3289
 9598TIP3    H128758   0.959   6.110   2.392 -0.5018  1.8087 -0.2675
 9598TIP3    H228759   1.043   6.079   2.270  0.6515 -2.3952  1.4240
 9599TIP3   OH228760   1.041   2.464   1.185  0.3718  0.1745  0.1052
 9599TIP3    H128761   0.971   2.425   1.133  0.5070  1.2822 -0.9654
 9599TIP3    H228762   1.121   2.423   1.153  0.3753  0.2064  0.0735
 9600TIP3   OH228763   1.999   2.038   4.912 -0.0019 -0.1704  0.5186
 9600TIP3    H128764   2.092   2.058   4.918  0.1799 -0.6414 -0.5511
 9600TIP3    H228765   1.958   2.120   4.885 -0.1590  0.5281  2.6708
 9601TIP3   OH228766   1.375   3.478   3.432 -0.4663  0.0250 -0.4146
 9601TIP3    H128767   1.330   3.396   3.413  1.2257 -0.8044 -1.0315
 9601TIP3    H228768   1.441   3.455   3.498  0.0985  0.8615 -0.6637
 9602TIP3   OH228769   0.009   0.474   1.869  0.1198 -0.1083  0.3667
 9602TIP3    H128770   0.039   0.388   1.899  1.2498  0.6711  1.5439
 9602TIP3    H228771  -0.013   0.461   1.777 -1.1859 -2.0194  0.8935
 9603TIP3   OH228772   2.050   4.808   5.699  0.4740 -0.0652  0.0805
 9603TIP3    H128773   2.033   4.902   5.697  1.8896  0.1958 -0.6019
 9603TIP3    H228774   1.990   4.775   5.766  0.5035  1.4276  0.8967
 9604TIP3   OH228775   4.339   3.860   3.323 -0.0336  0.0672 -0.1537
 9604TIP3    H128776   4.429   3.886   3.303  0.4116 -1.6864 -0.6656
 9604TIP3    H228777   4.348   3.794   3.391 -1.1383  1.5300  1.4867
 9605TIP3   OH228778   2.788   0.200   1.690  0.5450 -0.1444  0.4982
 9605TIP3    H128779   2.801   0.294   1.702  2.0939 -0.1179 -1.0183
 9605TIP3    H228780   2.733   0.173   1.764 -0.7490  2.1117  0.4390
 9606TIP3   OH228781   2.878   3.503   3.662 -0.0822  0.5984  0.0437
 9606TIP3    H128782   2.973   3.505   3.669 -0.0153 -1.5799  0.4746
 9606TIP3    H228783   2.847   3.515   3.752 -0.0039 -2.7113  0.6464
 9607TIP3   OH228784   2.817   0.744   2.684  0.2386 -0.0646  0.2715
 9607TIP3    H128785   2.753   0.674   2.669 -2.1328  1.8113  1.0658
 9607TIP3    H228786   2.804   0.770   2.775 -0.1034  2.4179 -0.4090
 9608TIP3   OH228787   1.174   3.609   2.055 -0.3805 -0.0533 -0.1271
 9608TIP3    H128788   1.218   3.662   2.121 -0.1053 -0.2685 -0.1340
 9608TIP3    H228789   1.156   3.670   1.983 -2.0107  0.5407  0.7155
 9609TIP3   OH228790   0.931   0.880   4.038 -0.4509  0.0704  0.3445
 9609TIP3    H128791   0.993   0.954   4.044 -1.0863  0.6748 -0.2980
 9609TIP3    H228792   0.886   0.880   4.122 -0.4024  0.3806  0.3731
 9610TIP3   OH228793   5.431   0.083   5.400  0.7571  0.0958  0.3250
 9610TIP3    H128794   5.441  -0.006   5.367  2.0087 -0.2475  1.5075
 9610TIP3    H228795   5.340   0.107   5.381  0.3057 -1.5553  0.3070
 9611TIP3   OH228796   6.492   0.786   1.827  0.3895 -0.4644  0.5776
 9611TIP3    H128797   6.577   0.826   1.815  0.0708 -0.1867 -1.0437
 9611TIP3    H228798   6.461   0.768   1.738 -2.1544  1.3852  0.9585
 9612TIP3   OH228799   0.692   3.793   1.993  0.5087 -0.7048 -0.1457
 9612TIP3    H128800   0.697   3.887   1.975  0.5123 -0.6184  0.2841
 9612TIP3    H228801   0.614   3.784   2.049  1.1763 -0.7989  0.7827
 9613TIP3   OH228802   1.957   1.069   5.034  0.2824 -0.0825  0.2323
 9613TIP3    H128803   1.922   1.002   5.093 -0.1486  0.3300  0.4502
 9613TIP3    H228804   2.048   1.042   5.020 -0.0792 -1.1071 -0.2619
 9614TIP3   OH228805   0.730   4.785   5.027  0.0992  0.1186 -0.2264
 9614TIP3    H128806   0.663   4.729   4.986  0.0972 -0.3447  0.3892
 9614TIP3    H228807   0.709   4.873   4.998 -0.9316  0.0072  0.1543
 9615TIP3   OH228808   5.148   6.290   0.488  0.4991 -0.0166 -0.1341
 9615TIP3    H128809   5.210   6.223   0.515  1.4018  1.2758  1.2072
 9615TIP3    H228810   5.065   6.264   0.527  0.9180 -0.2112  0.6600
 9616TIP3   OH228811   1.272   1.809   1.526 -0.4019 -0.2326 -0.4994
 9616TIP3    H128812   1.241   1.723   1.497  0.4243 -0.4440 -0.7743
 9616TIP3    H228813   1.339   1.790   1.591 -1.5058  0.2359  0.8110
 9617TIP3   OH228814   3.039   0.596   1.158 -0.0230  0.0548 -0.1360
 9617TIP3    H128815   3.102   0.540   1.114 -0.4581 -1.7532  1.4183
 9617TIP3    H228816   3.076   0.684   1.152  0.8638 -0.4138 -2.3219
 9618TIP3   OH228817   1.129   2.325   2.723  0.1700  0.7115 -0.1908
 9618TIP3    H128818   1.155   2.236   2.698 -0.0843  0.2272  1.1561
 9618TIP3    H228819   1.092   2.363   2.644 -1.2042 -0.9624 -0.4106
 9619TIP3   OH228820   3.495   0.454   1.434  0.2118 -0.5125 -0.0176
 9619TIP3    H128821   3.461   0.539   1.408  0.4737 -0.7066 -1.0481
 9619TIP3    H228822   3.442   0.429   1.510 -0.2120  0.3277 -0.0238
 9620TIP3   OH228823   5.525   2.309   3.856 -0.5641  0.0727  0.8069
 9620TIP3    H128824   5.472   2.231   3.872 -1.2828  0.1981 -0.8075
 9620TIP3    H228825   5.469   2.382   3.880 -0.8383  0.1766 -0.1318
 9621TIP3   OH228826   3.264   3.907   4.673  0.5432  0.6030 -0.4751
 9621TIP3    H128827   3.318   3.878   4.600  0.0381 -0.2612 -0.5118
 9621TIP3    H228828   3.237   3.996   4.649  1.4803  0.8456 -0.7062
 9622TIP3   OH228829   3.492   4.725   3.323  0.3651 -0.0550  0.3523
 9622TIP3    H128830   3.528   4.701   3.408 -0.9795 -1.1554  0.6536
 9622TIP3    H228831   3.423   4.789   3.343  0.8190  0.5759 -0.0362
 9623TIP3   OH228832   0.097   1.083   4.377 -0.1684  0.3963 -0.4277
 9623TIP3    H128833   0.171   1.030   4.346  1.2931  0.6488  2.3050
 9623TIP3    H228834   0.129   1.173   4.375  0.1094  0.4007  1.9065
 9624TIP3   OH228835   7.199   4.465   0.542  0.2475  0.0767  0.3057
 9624TIP3    H128836   7.137   4.394   0.527  1.0868 -0.5654 -0.1632
 9624TIP3    H228837   7.204   4.473   0.637 -2.1846  1.5953  0.3926
 9625TIP3   OH228838   0.734   5.212   5.873 -0.0250  0.3201 -0.2736
 9625TIP3    H128839   0.647   5.199   5.835  0.2778 -1.9059 -0.3474
 9625TIP3    H228840   0.737   5.305   5.895 -3.0530  0.2096  1.2152
 9626TIP3   OH228841   6.997   0.241   0.800  0.5480 -0.3878  0.0436
 9626TIP3    H128842   7.045   0.225   0.719 -0.7767  0.2109 -0.9022
 9626TIP3    H228843   7.052   0.204   0.869  2.1488 -0.0706 -1.0247
 9627TIP3   OH228844   6.777   0.514   3.991 -0.3551  0.0159 -0.1003
 9627TIP3    H128845   6.699   0.472   3.955 -0.7494  1.1944 -0.6670
 9627TIP3    H228846   6.808   0.572   3.921  0.1482  0.6905  0.6547
 9628TIP3   OH228847   5.557   4.844   1.035  0.2811  1.0046  0.2715
 9628TIP3    H128848   5.582   4.835   1.127  0.4865  0.2393  0.1461
 9628TIP3    H228849   5.522   4.933   1.029  0.0473  0.9859  1.1393
 9629TIP3   OH228850   2.649   5.845   5.386  0.2972  0.1976  0.2558
 9629TIP3    H128851   2.672   5.845   5.479  0.5559 -0.7422  0.2017
 9629TIP3    H228852   2.716   5.898   5.344 -0.1319  1.0956  0.6645
 9630TIP3   OH228853   0.444   2.335   0.261  0.3817  0.1883 -0.0122
 9630TIP3    H128854   0.412   2.414   0.304  0.5532  0.1017  0.2813
 9630TIP3    H228855   0.366   2.282   0.247 -0.1936  1.6047 -2.8138
 9631TIP3   OH228856   3.531   1.862   4.150 -0.0552  0.6644  0.1097
 9631TIP3    H128857   3.472   1.917   4.099 -0.5972 -0.0002  0.0080
 9631TIP3    H228858   3.614   1.910   4.152 -0.8896  2.1172  1.1402
 9632TIP3   OH228859   1.133   2.798   1.268 -0.4450  0.8521  0.2667
 9632TIP3    H128860   1.200   2.746   1.224 -0.8370  0.7579 -0.2305
 9632TIP3    H228861   1.182   2.854   1.329 -0.1223 -1.2059  2.0065
 9633TIP3   OH228862   3.297   0.292   4.248  0.6675  0.4570  0.2095
 9633TIP3    H128863   3.334   0.233   4.182  1.7742  1.1587  0.1655
 9633TIP3    H228864   3.323   0.379   4.218 -2.9007  1.2845 -1.0436
 9634TIP3   OH228865   5.973   0.873   0.487  0.1887 -0.3151 -0.4566
 9634TIP3    H128866   5.972   0.968   0.504 -1.2964 -0.4791  0.5002
 9634TIP3    H228867   5.924   0.835   0.560  1.4473 -1.9149 -0.4089
 9635TIP3   OH228868   0.270   0.172   1.696  0.1365  0.8819 -0.2215
 9635TIP3    H128869   0.214   0.175   1.619  0.7510  0.8451 -0.6748
 9635TIP3    H228870   0.336   0.239   1.680  1.0179  0.0085 -0.3192
 9636TIP3   OH228871   2.983   2.030   3.482  0.3442  0.3295  0.0209
 9636TIP3    H128872   2.974   2.103   3.421 -0.7855  1.7190  1.7765
 9636TIP3    H228873   3.027   2.067   3.559  1.5626 -1.3330  0.1898
 9637TIP3   OH228874   3.856   1.424   5.310 -0.4767  0.1390 -0.6685
 9637TIP3    H128875   3.941   1.463   5.331 -0.8085  0.6200 -0.1711
 9637TIP3    H228876   3.877   1.338   5.274  0.1258 -1.0797  2.3483
 9638TIP3   OH228877   3.611   4.583   5.116  0.2606  1.1020 -0.1807
 9638TIP3    H128878   3.643   4.634   5.042 -0.0618 -0.3105 -1.3381
 9638TIP3    H228879   3.616   4.492   5.086 -1.9200  0.6340  0.7070
 9639TIP3   OH228880   2.994   2.116   0.563 -0.3361 -0.1457  0.4215
 9639TIP3    H128881   2.953   2.173   0.498 -0.7809  1.2753  1.8968
 9639TIP3    H228882   2.954   2.141   0.646  2.2940  0.1369  1.6980
 9640TIP3   OH228883   5.692   3.563   2.745 -0.2146  0.4788 -0.3743
 9640TIP3    H128884   5.750   3.560   2.821 -1.3658  1.2465  0.5617
 9640TIP3    H228885   5.675   3.471   2.724 -1.3745  0.2304  1.4823
 9641TIP3   OH228886   4.373   2.501   0.008 -0.2869 -0.3096  0.1024
 9641TIP3    H128887   4.333   2.571  -0.044  0.6239  0.1696  0.0355
 9641TIP3    H228888   4.350   2.523   0.099 -0.9644 -0.5609  0.0014
 9642TIP3   OH228889   1.996   6.154   0.714 -0.1054  0.2444 -0.3563
 9642TIP3    H128890   1.939   6.093   0.666 -1.2557  1.8757 -1.1820
 9642TIP3    H228891   1.950   6.238   0.708  0.4865  0.8273  2.3492
 9643TIP3   OH228892   6.597   1.949   2.561 -0.2821 -0.0519 -0.4233
 9643TIP3    H128893   6.619   1.988   2.646  2.5302 -3.0948  0.4835
 9643TIP3    H228894   6.546   1.871   2.583 -0.2711 -0.4099 -1.5841
 9644TIP3   OH228895   1.342   2.493   2.118  0.1335  0.3240 -0.1745
 9644TIP3    H128896   1.360   2.459   2.205 -1.7615  0.8785  0.4739
 9644TIP3    H228897   1.311   2.583   2.133  0.4469  0.6789 -1.4840
 9645TIP3   OH228898   5.052   3.352   2.265  0.2236  0.2662 -0.5867
 9645TIP3    H128899   5.007   3.307   2.336  0.7268  0.3715 -0.1921
 9645TIP3    H228900   4.984   3.368   2.200 -0.0253 -0.8472 -0.6342
 9646TIP3   OH228901   2.440   2.823   5.607  0.0646  0.8272 -0.4990
 9646TIP3    H128902   2.466   2.862   5.690 -2.2715 -0.0073  0.7198
 9646TIP3    H228903   2.492   2.868   5.541  1.6169  1.8636  1.3636
 9647TIP3   OH228904   4.390   5.563   4.814 -0.6590 -0.4591 -0.1490
 9647TIP3    H128905   4.445   5.492   4.782 -0.0577 -0.3032  0.5182
 9647TIP3    H228906   4.452   5.635   4.832 -0.8194 -0.8566  2.2733
 9648TIP3   OH228907   2.568   4.173   4.204 -0.1106  0.1570  0.8577
 9648TIP3    H128908   2.639   4.202   4.262  0.0491 -0.4967  1.0000
 9648TIP3    H228909   2.494   4.158   4.262 -0.4459  1.0799  0.6765
 9649TIP3   OH228910   3.180   1.313   2.993 -0.0722 -0.0098  0.2320
 9649TIP3    H128911   3.189   1.293   2.900 -0.7301 -0.0762  0.1779
 9649TIP3    H228912   3.212   1.234   3.038 -0.1389 -0.1334  0.0614
 9650TIP3   OH228913   6.681   1.920   5.012 -0.0032 -0.3780  1.1941
 9650TIP3    H128914   6.625   1.853   4.973 -0.3123  1.0296 -0.9508
 9650TIP3    H228915   6.620   1.980   5.054  0.1148 -0.2795  1.2237
 9651TIP3   OH228916   5.063   4.818   4.852 -0.0848 -1.0500  0.3207
 9651TIP3    H128917   5.097   4.829   4.940 -1.1643  1.9293  0.4936
 9651TIP3    H228918   5.054   4.907   4.818  0.2622 -2.0668 -2.8175
 9652TIP3   OH228919   5.998   6.649   5.169  0.1998  0.0172 -0.2134
 9652TIP3    H128920   5.933   6.686   5.229 -0.2124 -1.6406  0.4284
 9652TIP3    H228921   6.067   6.715   5.165 -0.4061  0.7645  1.0167
 9653TIP3   OH228922   6.355   4.606   1.442 -0.3176 -0.2200  0.7581
 9653TIP3    H128923   6.447   4.617   1.468 -0.1496  1.0111 -0.2681
 9653TIP3    H228924   6.305   4.629   1.520  0.2322 -0.0267  1.0605
 9654TIP3   OH228925   4.890   4.422   1.582 -0.0539 -0.1283  0.8110
 9654TIP3    H128926   4.920   4.504   1.621  0.3695 -0.4731  1.2297
 9654TIP3    H228927   4.897   4.358   1.653 -1.3589 -0.3212  0.7847
 9655TIP3   OH228928   5.779   6.224   2.810  0.1674 -0.0048  0.3712
 9655TIP3    H128929   5.852   6.285   2.822 -0.4822  0.8226  0.2530
 9655TIP3    H228930   5.709   6.260   2.865 -0.3357 -0.4588  0.0368
 9656TIP3   OH228931   1.310   5.533   1.124 -0.0743  1.0567 -0.1298
 9656TIP3    H128932   1.320   5.467   1.192 -0.8452  0.4381 -0.5972
 9656TIP3    H228933   1.217   5.556   1.126 -0.3349  0.2610 -1.6541
 9657TIP3   OH228934   6.658   0.808   0.990  0.3481 -0.2852  0.2498
 9657TIP3    H128935   6.597   0.865   1.037 -0.6044 -0.4628 -0.7216
 9657TIP3    H228936   6.692   0.862   0.919  1.5758 -0.0991  0.9432
 9658TIP3   OH228937   4.702   0.260   5.222  0.1945  0.3486  0.1386
 9658TIP3    H128938   4.707   0.316   5.144 -1.5408 -0.3626 -0.5266
 9658TIP3    H228939   4.660   0.180   5.191 -1.4482  0.4287  2.0125
 9659TIP3   OH228940   0.298   2.131   1.539 -0.3882  0.0340  0.0890
 9659TIP3    H128941   0.317   2.110   1.448  1.6469 -0.1827  0.5070
 9659TIP3    H228942   0.305   2.048   1.585 -0.5091  0.2834  0.5624
 9660TIP3   OH228943   6.305   5.198   3.864  0.2120 -0.4795  0.6692
 9660TIP3    H128944   6.361   5.133   3.907  1.2820  0.9754  1.5777
 9660TIP3    H228945   6.294   5.165   3.775  1.6680 -1.3338  0.7701
 9661TIP3   OH228946   1.607   3.135   5.148  0.4972 -0.2582 -0.4011
 9661TIP3    H128947   1.530   3.147   5.203  0.1244  0.3482 -1.0331
 9661TIP3    H228948   1.592   3.052   5.104 -0.1873  0.2268 -1.1132
 9662TIP3   OH228949   5.411   1.988   4.496 -0.0863 -0.3704  0.2252
 9662TIP3    H128950   5.491   1.988   4.443 -0.8074 -1.1208 -0.9366
 9662TIP3    H228951   5.417   2.066   4.551  0.8923  0.2322 -0.7033
 9663TIP3   OH228952   4.702   1.024   0.300  0.3910  0.1270  0.0226
 9663TIP3    H128953   4.606   1.025   0.306  0.2731 -2.4400 -0.0779
 9663TIP3    H228954   4.724   1.102   0.250 -1.8341 -0.1463 -1.5296
 9664TIP3   OH228955   1.359   4.255   0.754  0.6663  0.1298  0.2365
 9664TIP3    H128956   1.373   4.349   0.745  0.4860  0.2352  1.0383
 9664TIP3    H228957   1.412   4.216   0.684 -2.0146  0.9863 -2.5236
 9665TIP3   OH228958   4.242   4.492   5.721 -0.3130  0.2443  0.0053
 9665TIP3    H128959   4.180   4.497   5.649  0.2837  1.3754 -0.4581
 9665TIP3    H228960   4.323   4.530   5.686  0.5545 -0.8695  0.6951
 9666TIP3   OH228961   2.942   1.921   1.866 -0.5135  0.1121 -0.0733
 9666TIP3    H128962   2.901   1.860   1.928 -1.0576  0.9003  0.3525
 9666TIP3    H228963   2.894   2.002   1.877  1.5737  1.2980  0.9236
 9667TIP3   OH228964   5.991   5.039   1.966 -0.0749 -0.2362  0.1583
 9667TIP3    H128965   6.061   5.103   1.949  0.4664 -1.6536 -3.9482
 9667TIP3    H228966   6.035   4.968   2.013  0.3372  0.4562  0.8495
 9668TIP3   OH228967   7.102   1.041   1.335  0.3533 -0.3068  0.2184
 9668TIP3    H128968   7.117   1.009   1.246  1.7158  0.5198  0.1328
 9668TIP3    H228969   7.066   1.129   1.323 -0.0995 -0.4487  0.4924
 9669TIP3   OH228970   3.510   1.252   3.847  0.5516 -0.0579 -0.2234
 9669TIP3    H128971   3.537   1.344   3.848 -0.6971  0.3527 -1.1149
 9669TIP3    H228972   3.577   1.207   3.897  1.1428  1.3558  0.3238
 9670TIP3   OH228973   3.286   3.356   0.336 -0.3989 -0.5808 -0.0223
 9670TIP3    H128974   3.345   3.291   0.374  1.2981  0.0798 -1.3855
 9670TIP3    H228975   3.250   3.314   0.258  0.0050 -0.2268 -0.4084
 9671TIP3   OH228976   0.623   6.792   4.892 -0.1203 -0.2404 -0.3752
 9671TIP3    H128977   0.701   6.775   4.944 -0.0169  0.3162 -0.3471
 9671TIP3    H228978   0.584   6.705   4.878  2.1262 -0.9648 -2.9860
 9672TIP3   OH228979   4.920   6.137   3.284 -0.0949  0.8030  0.3531
 9672TIP3    H128980   4.871   6.063   3.248  1.9298 -0.3896 -0.1205
 9672TIP3    H228981   4.915   6.126   3.379  0.6598 -0.3202  0.2847
 9673TIP3   OH228982   3.770   1.266   2.572 -0.8921 -0.3315 -0.0947
 9673TIP3    H128983   3.693   1.245   2.625 -0.5374 -0.1598  0.4909
 9673TIP3    H228984   3.820   1.184   2.569 -1.0755 -0.4334 -0.4467
 9674TIP3   OH228985   4.336   5.524   1.450  0.1116  0.1533 -0.6571
 9674TIP3    H128986   4.428   5.532   1.477 -0.3533  1.1321  0.7081
 9674TIP3    H228987   4.317   5.606   1.404 -0.6458  0.8566  0.8762
 9675TIP3   OH228988   2.828   0.111   2.106  0.2630  0.1116 -0.5732
 9675TIP3    H128989   2.750   0.115   2.160  0.4277 -1.0583 -0.2309
 9675TIP3    H228990   2.796   0.120   2.016 -0.3402 -1.0071 -0.4772
 9676TIP3   OH228991   4.497   0.980   0.962 -0.2105  0.0255  0.3358
 9676TIP3    H128992   4.490   0.888   0.937  0.7323  0.1343 -0.3647
 9676TIP3    H228993   4.568   1.015   0.908 -0.5028  1.1492  0.6420
 9677TIP3   OH228994   5.804   3.608   1.454 -0.3590  0.2688 -0.3459
 9677TIP3    H128995   5.873   3.552   1.421 -0.5567 -0.4016  0.3654
 9677TIP3    H228996   5.828   3.696   1.423  1.3076  0.2104  0.6695
 9678TIP3   OH228997   6.611   0.227   5.915 -0.0703  0.4156 -0.5582
 9678TIP3    H128998   6.625   0.137   5.888  0.0569  0.1843  0.2684
 9678TIP3    H228999   6.584   0.272   5.834 -0.6471 -0.4579 -0.8675
 9679TIP3   OH229000   4.770   2.875   2.101  0.4541  0.6193 -0.2670
 9679TIP3    H129001   4.829   2.944   2.070  0.3404  0.1065 -1.6967
 9679TIP3    H229002   4.701   2.922   2.148  0.8799  1.4056 -0.4112
 9680TIP3   OH229003   4.462   2.232   5.194 -0.0870 -0.0454  0.0858
 9680TIP3    H129004   4.509   2.157   5.231  0.1634  0.0106 -0.1133
 9680TIP3    H229005   4.492   2.306   5.246  0.0097 -0.0160 -0.0122
 9681TIP3   OH229006   1.071   6.134   1.947 -0.6914  0.2331  0.5431
 9681TIP3    H129007   1.105   6.045   1.953  1.1186  0.6509 -2.1493
 9681TIP3    H229008   0.998   6.128   1.885  0.3412  0.8129 -0.7610
 9682TIP3   OH229009   0.961   3.643   5.645 -0.4550 -0.2433 -0.3128
 9682TIP3    H129010   0.944   3.720   5.698  1.3706  0.0715 -0.1423
 9682TIP3    H229011   0.875   3.600   5.638 -0.8686 -0.1065  2.5521
 9683TIP3   OH229012   1.914   0.877   5.428  0.4909  0.0936 -0.4958
 9683TIP3    H129013   1.833   0.839   5.463 -0.5830  0.2796 -2.5874
 9683TIP3    H229014   1.943   0.938   5.495 -0.7653 -0.4433  0.5827
 9684TIP3   OH229015   3.219   0.904   4.793 -0.6776 -0.2886  0.6343
 9684TIP3    H129016   3.241   0.854   4.714 -1.5663 -0.7912  0.6935
 9684TIP3    H229017   3.189   0.838   4.856 -0.7123  0.1938  1.1314
 9685TIP3   OH229018   3.018   6.119   2.512  0.7806  0.4676 -0.0405
 9685TIP3    H129019   3.109   6.131   2.486  0.7613 -0.0821 -0.3937
 9685TIP3    H229020   2.992   6.202   2.551  1.6167  0.4286  0.6116
 9686TIP3   OH229021   4.671   2.279   3.309  0.2793 -0.5103 -0.0358
 9686TIP3    H129022   4.658   2.229   3.228 -2.0675 -0.1182  0.0378
 9686TIP3    H229023   4.758   2.253   3.339 -0.2080 -3.3776 -0.8104
 9687TIP3   OH229024   3.533   4.280   2.409 -0.4519  0.4676  0.5233
 9687TIP3    H129025   3.586   4.352   2.445  0.8430 -0.2684  0.1580
 9687TIP3    H229026   3.492   4.241   2.486  1.0680 -0.1288  1.0608
 9688TIP3   OH229027   2.936   0.203   5.358 -0.3246  0.1611  0.2896
 9688TIP3    H129028   3.029   0.226   5.353 -0.1932 -0.2484  0.7672
 9688TIP3    H229029   2.931   0.117   5.316 -0.3186 -0.2614  1.1338
 9689TIP3   OH229030   3.034   4.002   0.482  0.2123  0.0626  0.3074
 9689TIP3    H129031   3.045   4.020   0.388 -0.5640  0.0471  0.2057
 9689TIP3    H229032   3.019   3.908   0.487  2.3485 -0.2995  0.6619
 9690TIP3   OH229033   4.170   1.710   0.458 -0.4512 -0.0726 -0.3520
 9690TIP3    H129034   4.079   1.719   0.429 -0.4827  0.8896  0.0151
 9690TIP3    H229035   4.198   1.627   0.421 -1.3544 -0.1903 -0.8146
 9691TIP3   OH229036   6.042   4.392   5.046 -0.4454  0.2549 -0.5024
 9691TIP3    H129037   6.040   4.308   5.091 -1.6444  1.1034  1.1490
 9691TIP3    H229038   5.956   4.399   5.005  0.0644  0.1994 -1.6151
 9692TIP3   OH229039   1.604   3.447   0.315 -0.3159 -0.0200  0.2616
 9692TIP3    H129040   1.578   3.516   0.253  0.6203 -0.2139 -0.3760
 9692TIP3    H229041   1.631   3.494   0.393 -1.8468  0.2161  0.6785
 9693TIP3   OH229042   6.177   2.025   4.442  0.2538 -0.0597  0.0539
 9693TIP3    H129043   6.249   2.088   4.436 -0.9780  1.6035  1.5545
 9693TIP3    H229044   6.109   2.071   4.492 -1.9986 -1.4042 -1.5754
 9694TIP3   OH229045   3.647   5.866   4.556  0.1991  0.0127 -0.0458
 9694TIP3    H129046   3.662   5.798   4.491  0.6657 -0.4431  0.5355
 9694TIP3    H229047   3.675   5.828   4.639  0.9723  1.0838  0.2134
 9695TIP3   OH229048   7.026   4.657   0.370  0.1243  0.4157 -0.3782
 9695TIP3    H129049   7.061   4.582   0.418  1.9135  2.6682  2.0986
 9695TIP3    H229050   7.076   4.658   0.288  0.5107 -0.7039 -0.1716
 9696TIP3   OH229051   7.159   5.928   4.127 -0.7473 -0.0096 -0.2496
 9696TIP3    H129052   7.159   5.911   4.221  0.6919  0.0949 -0.2105
 9696TIP3    H229053   7.250   5.917   4.100 -0.9381  1.0582 -1.4369
 9697TIP3   OH229054   5.569   3.291   0.969 -0.1996  0.0768  0.2815
 9697TIP3    H129055   5.532   3.341   0.896 -0.8880  0.2003  0.7099
 9697TIP3    H229056   5.652   3.335   0.988  0.2529 -0.2747 -0.7596
 9698TIP3   OH229057   0.058   5.957   2.986 -0.1134  0.1158  0.1022
 9698TIP3    H129058   0.104   5.997   2.912 -1.2329 -0.5292 -0.9907
 9698TIP3    H229059   0.041   5.867   2.958 -0.7754 -0.0755  1.0585
 9699TIP3   OH229060   5.711   0.643   0.401  0.4122 -0.7782  0.4415
 9699TIP3    H129061   5.761   0.623   0.480 -0.1475  0.6792  1.1823
 9699TIP3    H229062   5.640   0.579   0.401  1.7037 -2.2952 -0.1551
 9700TIP3   OH229063   6.190   5.417   5.549 -0.2764 -0.0419 -0.6948
 9700TIP3    H129064   6.098   5.439   5.532 -1.0519 -2.0829  0.5367
 9700TIP3    H229065   6.221   5.488   5.605 -1.0510  0.7231 -1.2029
 9701TIP3   OH229066   3.921   4.654   5.345  0.4374 -0.0059  0.0200
 9701TIP3    H129067   3.940   4.735   5.392  1.1838  0.0178 -0.3139
 9701TIP3    H229068   3.860   4.607   5.402  2.1247 -0.4723  1.5404
 9702TIP3   OH229069   0.199   1.548   0.405  0.4976 -0.1210 -0.2716
 9702TIP3    H129070   0.235   1.558   0.317  1.9158 -1.5063  0.0962
 9702TIP3    H229071   0.242   1.469   0.439 -1.2941 -0.5952  1.0350
 9703TIP3   OH229072   6.213   6.719   1.186  0.4459 -0.4121  0.2633
 9703TIP3    H129073   6.295   6.674   1.208  0.3070 -0.4339  0.7372
 9703TIP3    H229074   6.152   6.693   1.255  0.1489 -0.0888  0.1247
 9704TIP3   OH229075   0.657   0.344   2.378  0.2052  0.0397  0.6333
 9704TIP3    H129076   0.726   0.398   2.417  0.2003  2.9636 -2.8975
 9704TIP3    H229077   0.698   0.304   2.302 -1.6790  1.0252 -0.9777
 9705TIP3   OH229078   3.834   1.908   3.950  0.1257  0.4572  0.4122
 9705TIP3    H129079   3.903   1.960   3.910  0.5145  0.3164  0.8881
 9705TIP3    H229080   3.818   1.951   4.035 -0.0567  0.2287  0.4932
 9706TIP3   OH229081   2.340   1.766   3.368 -0.2162  0.2285  0.2456
 9706TIP3    H129082   2.416   1.713   3.345  0.3631  1.8281 -1.8046
 9706TIP3    H229083   2.283   1.706   3.417  1.3970 -1.6014  0.0008
 9707TIP3   OH229084   6.180   1.603   1.012 -0.2734  0.1343  0.0110
 9707TIP3    H129085   6.163   1.667   0.943  0.2956 -0.5801 -0.8113
 9707TIP3    H229086   6.102   1.607   1.068 -1.2551 -0.0643 -1.3027
 9708TIP3   OH229087   1.479   0.610   4.238  0.3673  0.4328 -0.0965
 9708TIP3    H129088   1.385   0.594   4.235  0.2091  1.2465 -3.0202
 9708TIP3    H229089   1.515   0.537   4.288 -1.7834  0.0834  1.0455
 9709TIP3   OH229090   0.402   6.551   1.896  0.5215 -0.3776  0.0459
 9709TIP3    H129091   0.387   6.486   1.828 -0.6243 -0.1984  0.1181
 9709TIP3    H229092   0.494   6.538   1.922  1.0325 -0.3438 -1.6320
 9710TIP3   OH229093   0.331   5.338   0.948  0.2827  0.0391 -0.1449
 9710TIP3    H129094   0.347   5.429   0.923  1.2344  0.0936  0.6034
 9710TIP3    H229095   0.382   5.286   0.885 -0.9508 -0.0310 -1.1142
 9711TIP3   OH229096   3.676   6.798   3.766  0.3895  0.1840  0.5179
 9711TIP3    H129097   3.631   6.726   3.721  0.5748  0.6502 -0.4308
 9711TIP3    H229098   3.749   6.756   3.812 -0.0331 -0.3500  0.7109
 9712TIP3   OH229099   2.898   5.584   1.618 -0.0049 -0.3079  0.2317
 9712TIP3    H129100   2.947   5.664   1.603 -1.7993  0.8471  0.2211
 9712TIP3    H229101   2.807   5.606   1.597 -0.6813 -2.1175  0.9676
 9713TIP3   OH229102   6.047   2.999   5.471  0.4540  0.1364 -0.1035
 9713TIP3    H129103   5.968   3.048   5.448 -0.5204 -1.6732 -0.8141
 9713TIP3    H229104   6.098   2.996   5.390  0.0135 -0.8928 -0.3477
 9714TIP3   OH229105   1.202   5.014   5.169  0.2746 -0.0992 -0.2002
 9714TIP3    H129106   1.187   5.056   5.085  1.6575 -0.4281 -0.6250
 9714TIP3    H229107   1.208   5.087   5.231 -0.4372  0.1588 -0.4238
 9715TIP3   OH229108   5.754   0.406   3.160 -0.1253  0.6576  0.6410
 9715TIP3    H129109   5.666   0.442   3.162 -0.5501 -0.3208  0.1970
 9715TIP3    H229110   5.801   0.454   3.228 -0.4722  2.4676 -0.3431
 9716TIP3   OH229111   3.748   0.360   5.134 -0.2646  0.1820  0.3740
 9716TIP3    H129112   3.697   0.430   5.094  2.2207  1.6878 -0.3834
 9716TIP3    H229113   3.834   0.366   5.092 -0.2157 -4.1168 -0.6407
 9717TIP3   OH229114   3.272   1.300   4.059 -0.4429 -0.3219  0.1063
 9717TIP3    H129115   3.355   1.262   4.027 -0.7558 -1.7248  0.8820
 9717TIP3    H229116   3.205   1.237   4.031 -0.9417 -0.5767  1.7816
 9718TIP3   OH229117   2.423   1.331   0.627  0.2694  0.4690  0.4177
 9718TIP3    H129118   2.398   1.308   0.716  1.2525 -0.7922  0.4027
 9718TIP3    H229119   2.428   1.426   0.627 -1.7712  0.6281  1.1268
 9719TIP3   OH229120   1.964   4.570   3.418  0.1792  0.0278  0.3501
 9719TIP3    H129121   1.910   4.513   3.472  0.6378 -1.3417 -0.5923
 9719TIP3    H229122   1.970   4.525   3.334  3.0510 -0.0718  0.5052
 9720TIP3   OH229123   5.426   5.509   5.738  0.1938  0.2519 -0.0562
 9720TIP3    H129124   5.494   5.575   5.747  0.4692 -0.0515  0.1220
 9720TIP3    H229125   5.425   5.489   5.644  1.6646 -1.0911  0.1654
 9721TIP3   OH229126   2.114   3.215   4.017 -0.1950  0.4580 -0.2364
 9721TIP3    H129127   2.043   3.236   3.958 -1.3936  0.7390  1.2412
 9721TIP3    H229128   2.099   3.124   4.043 -0.0441  0.5350  0.1293
 9722TIP3   OH229129   3.874   4.780   4.530  0.5077  0.0162 -0.1458
 9722TIP3    H129130   3.908   4.866   4.505  1.3278 -0.8662 -2.2124
 9722TIP3    H229131   3.909   4.720   4.466 -2.0975 -1.5260 -0.2797
 9723TIP3   OH229132   0.665   0.303   5.335 -0.0443  0.4894 -0.2465
 9723TIP3    H129133   0.710   0.321   5.418  0.1496  0.0566 -0.2531
 9723TIP3    H229134   0.608   0.228   5.355  0.6478 -0.1812 -0.7148
 9724TIP3   OH229135   5.786   3.272   4.534 -0.0035 -0.2907  0.4162
 9724TIP3    H129136   5.781   3.213   4.459  0.0808  0.3058 -0.0645
 9724TIP3    H229137   5.726   3.234   4.598  0.6977 -1.3799  0.4594
 9725TIP3   OH229138   3.223   1.885   5.771 -0.1414 -0.1557 -0.0644
 9725TIP3    H129139   3.135   1.847   5.769 -0.0589 -0.3788  0.3820
 9725TIP3    H229140   3.281   1.809   5.777  0.1177 -0.0448 -0.9710
 9726TIP3   OH229141   6.726   0.093   2.519 -0.3144  0.1470  0.2938
 9726TIP3    H129142   6.802   0.041   2.495 -1.7712 -2.1810  0.4784
 9726TIP3    H229143   6.733   0.104   2.614  0.1196  0.5337  0.2214
 9727TIP3   OH229144   1.132   3.799   4.187 -0.0890  0.0871 -0.3890
 9727TIP3    H129145   1.156   3.859   4.257 -1.8998  0.4783 -0.0558
 9727TIP3    H229146   1.126   3.854   4.109 -1.0325  0.2302 -0.2278
 9728TIP3   OH229147  -0.012   2.695   1.010  0.0437 -0.1701  0.6523
 9728TIP3    H129148   0.075   2.731   0.994  0.0320 -1.1543 -2.2821
 9728TIP3    H229149   0.004   2.621   1.069  0.4948  2.2448  3.8279
 9729TIP3   OH229150   5.546   0.640   3.871 -0.2865  0.1179 -0.5893
 9729TIP3    H129151   5.555   0.613   3.963 -0.7564  1.0932 -0.2392
 9729TIP3    H229152   5.599   0.719   3.864 -0.9129  0.5180 -0.9337
 9730TIP3   OH229153   1.310   5.350   1.975 -0.1295  0.3407  0.0079
 9730TIP3    H129154   1.387   5.407   1.973  0.4890 -0.4891 -0.4055
 9730TIP3    H229155   1.274   5.356   1.887 -2.4138  3.1511  0.9642
 9731TIP3   OH229156   6.753   0.141   4.613 -0.3018  0.2222 -0.0009
 9731TIP3    H129157   6.798   0.155   4.697 -1.1825  0.2739  0.4733
 9731TIP3    H229158   6.731   0.048   4.613  1.1100 -0.1495 -0.9144
 9732TIP3   OH229159   5.983   1.954   1.724 -0.4460 -0.1337  0.0997
 9732TIP3    H129160   5.977   1.928   1.815 -1.2663 -0.0531  0.0765
 9732TIP3    H229161   5.909   1.911   1.681 -1.3143  1.4677 -0.1083
 9733TIP3   OH229162   0.666   0.201   4.147  0.0773  0.5296 -0.4288
 9733TIP3    H129163   0.746   0.147   4.148 -0.3284 -0.1203 -1.4755
 9733TIP3    H229164   0.691   0.279   4.097 -0.1492 -0.0623 -1.5171
 9734TIP3   OH229165   4.019   2.546   5.540 -0.0059 -0.1345  0.3549
 9734TIP3    H129166   3.999   2.525   5.631 -1.3577 -1.5435 -0.2081
 9734TIP3    H229167   4.102   2.503   5.523  0.3434  0.2892  0.9744
 9735TIP3   OH229168   5.365   4.711   5.525 -0.3263 -0.2343 -0.4042
 9735TIP3    H129169   5.274   4.691   5.543  0.2654 -0.9967  2.1160
 9735TIP3    H229170   5.402   4.735   5.610  2.1077 -1.1368 -1.1141
 9736TIP3   OH229171   6.925   3.548   5.574  0.1320  0.0880  0.2518
 9736TIP3    H129172   6.941   3.556   5.480 -0.7035  0.7459  0.1478
 9736TIP3    H229173   6.987   3.482   5.604  0.9826  0.4727 -0.6067
 9737TIP3   OH229174   6.661   5.518   3.043 -0.6120 -0.3880 -0.6957
 9737TIP3    H129175   6.743   5.549   3.004  0.0155 -0.8496  0.2323
 9737TIP3    H229176   6.680   5.513   3.137 -2.0641  0.5916 -0.3260
 9738TIP3   OH229177   5.335   6.357   1.915  0.1991 -0.1674  0.1673
 9738TIP3    H129178   5.356   6.434   1.862  1.0735 -1.3219 -1.2472
 9738TIP3    H229179   5.408   6.350   1.977 -0.8046  1.1630  1.5434
 9739TIP3   OH229180   2.687   2.285   5.668 -0.2718 -0.1668 -0.0955
 9739TIP3    H129181   2.607   2.318   5.709 -0.1657 -1.3767  1.1850
 9739TIP3    H229182   2.757   2.312   5.727 -0.2045 -2.7407  1.1748
 9740TIP3   OH229183   6.844   0.381   0.619 -0.0362  0.1396 -0.0008
 9740TIP3    H129184   6.782   0.443   0.658  0.4043  0.0116  0.9530
 9740TIP3    H229185   6.884   0.337   0.695  1.1340  0.1424 -0.5918
 9741TIP3   OH229186   1.886   3.414   2.739  0.7160  0.3520 -0.1218
 9741TIP3    H129187   1.894   3.346   2.673  1.2708 -1.2062  1.4655
 9741TIP3    H229188   1.957   3.396   2.801 -0.6193  0.8754  1.6498
 9742TIP3   OH229189   1.005   3.439   2.186 -0.1422 -0.4169 -0.1483
 9742TIP3    H129190   0.927   3.470   2.140  0.5134 -0.9122 -1.6664
 9742TIP3    H229191   1.076   3.491   2.149  0.3520 -0.5145  0.6557
 9743TIP3   OH229192   3.761   3.363   1.460  0.2657  0.4829 -0.2282
 9743TIP3    H129193   3.735   3.439   1.408 -2.0246  0.4824  0.7598
 9743TIP3    H229194   3.687   3.350   1.521  1.2049 -1.6957  0.5455
 9744TIP3   OH229195   6.239   2.224   1.877 -0.5268  0.6942 -0.6369
 9744TIP3    H129196   6.239   2.133   1.848  1.7289 -0.4716  2.4130
 9744TIP3    H229197   6.168   2.265   1.829 -2.4455 -2.9823 -1.2705
 9745TIP3   OH229198   0.059   1.964   2.554 -0.0695 -0.7133 -0.3939
 9745TIP3    H129199   0.151   1.964   2.578 -0.2143  1.0678  0.3062
 9745TIP3    H229200   0.056   2.012   2.471 -0.3880 -0.5028 -0.2631
 9746TIP3   OH229201   6.002   0.629   1.059  0.3367 -0.2670 -0.4288
 9746TIP3    H129202   6.044   0.601   1.140 -0.1854 -0.0159 -0.0649
 9746TIP3    H229203   6.051   0.585   0.990  0.1818 -1.2426  0.0700
 9747TIP3   OH229204   6.219   3.016   5.208  0.0904  0.0080  0.2461
 9747TIP3    H129205   6.216   3.076   5.133 -1.4448 -1.3034 -0.8041
 9747TIP3    H229206   6.312   3.009   5.230  0.5816  0.4152 -1.5608
 9748TIP3   OH229207   6.489   2.966   4.644 -0.3013 -0.3165  0.0363
 9748TIP3    H129208   6.500   2.901   4.575 -1.0101 -1.5215  1.0275
 9748TIP3    H229209   6.573   2.968   4.689 -0.2023 -0.3554 -0.1446
 9749TIP3   OH229210   7.061   5.687   1.784  0.4910 -0.3070  0.5770
 9749TIP3    H129211   7.039   5.769   1.827  0.3643 -0.7560  1.3780
 9749TIP3    H229212   7.141   5.706   1.734  0.4445  0.3015  0.7313
   7.21282   6.80032   5.88923   0.00000   0.00000  -2.40427   0.00000  -2.40427  -3.40015
