Title
29212
    1ASP      N    1   3.233   2.901   4.680 -0.6695 -0.3664  0.5731
    1ASP    HT1    2   3.183   2.965   4.746  0.6539  0.1782  1.0811
    1ASP    HT2    3   3.226   2.807   4.725  0.0658 -1.0959 -0.7822
    1ASP    HT3    4   3.182   2.896   4.590 -1.9396  0.5605  1.2026
    1ASP     CA    5   3.367   2.950   4.666  0.3949  0.1155 -0.0445
    1ASP     HA    6   3.403   2.966   4.767 -0.8943 -0.3324  0.5098
    1ASP     CB    7   3.465   2.852   4.604  0.4393  0.2547  0.6486
    1ASP    HB1    8   3.565   2.900   4.601  0.7899 -0.2123  2.9425
    1ASP    HB2    9   3.435   2.817   4.503 -0.3136 -2.4386  1.7321
    1ASP     CG   10   3.485   2.730   4.692  0.0850 -0.3563  0.5460
    1ASP    OD1   11   3.411   2.715   4.798  0.4473  0.3747 -0.0306
    1ASP    OD2   12   3.571   2.647   4.658 -0.6989 -0.8080  0.1771
    1ASP      C   13   3.363   3.080   4.594  0.1258  0.2546  0.8322
    1ASP      O   14   3.369   3.188   4.653  0.9952  0.3066  0.1052
    2GLY      N   15   3.356   3.074   4.461  0.2617  0.2170  0.0459
    2GLY     HN   16   3.349   2.982   4.423 -0.3576 -0.9559  2.7366
    2GLY     CA   17   3.338   3.195   4.378 -0.8143 -0.1081 -0.1053
    2GLY    HA1   18   3.376   3.174   4.279  1.8205  0.1834  0.7877
    2GLY    HA2   19   3.395   3.274   4.425 -0.6348 -0.0937 -0.3488
    2GLY      C   20   3.195   3.252   4.381  0.3352  0.1295  0.7115
    2GLY      O   21   3.120   3.236   4.473  0.1573 -0.1781  0.3560
    3ASP      N   22   3.151   3.318   4.273 -0.4809 -0.6399 -0.0155
    3ASP     HN   23   3.217   3.344   4.202 -0.7421 -1.2287 -0.4886
    3ASP     CA   24   3.019   3.377   4.263 -0.5587 -0.3637 -0.4590
    3ASP     HA   25   2.998   3.417   4.360 -0.0319  0.7755 -0.8045
    3ASP     CB   26   2.997   3.485   4.157 -0.3771  0.3772 -0.1848
    3ASP    HB1   27   2.891   3.517   4.149 -0.2760  0.2328 -2.9114
    3ASP    HB2   28   3.014   3.434   4.060  1.5507 -0.7026  0.6582
    3ASP     CG   29   3.083   3.603   4.181 -0.2399  0.8783 -0.5886
    3ASP    OD1   30   3.101   3.680   4.084 -0.2843  0.2509 -0.5374
    3ASP    OD2   31   3.121   3.624   4.299  0.7934 -0.0967  0.1952
    3ASP      C   32   2.919   3.262   4.250  0.5527 -0.7732 -0.4354
    3ASP      O   33   2.951   3.163   4.180  0.2377 -0.2005 -0.5735
    4GLY      N   34   2.796   3.270   4.322 -0.8492  0.0418 -0.5754
    4GLY     HN   35   2.794   3.343   4.390  1.3443  0.6051 -1.0284
    4GLY     CA   36   2.684   3.184   4.300 -0.8670 -0.6583  0.1909
    4GLY    HA1   37   2.619   3.219   4.379  1.1390  0.8996  1.2536
    4GLY    HA2   38   2.705   3.083   4.332  1.0109 -0.3292  0.0948
    4GLY      C   39   2.605   3.194   4.167  0.3362  0.1815 -0.3955
    4GLY      O   40   2.655   3.261   4.079  0.3406  0.1185 -0.4412
    5PRO      N   41   2.487   3.130   4.154 -0.3394  0.4274  0.0745
    5PRO     CD   42   2.413   3.048   4.258 -1.1273  0.3384  0.6004
    5PRO    HD1   43   2.372   3.122   4.331  1.2317 -0.2449  2.6468
    5PRO    HD2   44   2.488   2.982   4.307 -0.6461  0.1786 -0.3373
    5PRO     CA   45   2.412   3.147   4.033 -0.5875 -0.4642  0.2030
    5PRO     HA   46   2.471   3.101   3.955  2.5824 -0.4795  2.4444
    5PRO     CB   47   2.281   3.074   4.061  0.9274 -0.1603  0.3884
    5PRO    HB1   48   2.245   3.021   3.969 -1.8230  0.7708  0.8362
    5PRO    HB2   49   2.203   3.147   4.091  0.4425 -0.0419 -1.0686
    5PRO     CG   50   2.305   2.975   4.174  0.5788  0.0750  0.0709
    5PRO    HG1   51   2.226   2.962   4.251  1.7827  0.3627  1.4095
    5PRO    HG2   52   2.350   2.879   4.140 -1.0242 -1.2174  1.4236
    5PRO      C   53   2.391   3.291   3.977  0.2638 -0.0527  0.4353
    5PRO      O   54   2.359   3.385   4.044 -0.0325  0.3039  0.2005
    6GLY      N   55   2.405   3.301   3.845 -0.2882 -0.1217 -0.0811
    6GLY     HN   56   2.432   3.219   3.796 -2.7497 -1.3951  0.5248
    6GLY     CA   57   2.380   3.425   3.770  0.2555 -0.3208 -0.0977
    6GLY    HA1   58   2.413   3.405   3.669  2.5305  1.0225  0.3096
    6GLY    HA2   59   2.436   3.504   3.818  0.5367 -1.0959  0.8835
    6GLY      C   60   2.229   3.469   3.763  0.2785  1.4324  0.0880
    6GLY      O   61   2.133   3.397   3.792  0.2076 -0.1616  0.3527
    7ASP      N   62   2.208   3.592   3.710  0.2746  0.3506 -0.0154
    7ASP     HN   63   2.276   3.648   3.663 -0.2749 -1.2922 -3.0666
    7ASP     CA   64   2.073   3.642   3.694  0.2253  0.2609 -0.1589
    7ASP     HA   65   2.022   3.630   3.789 -0.3666  1.0977 -0.3621
    7ASP     CB   66   2.064   3.791   3.655  0.0632  0.3772 -0.4866
    7ASP    HB1   67   1.956   3.815   3.647 -0.2211 -0.5360  0.4100
    7ASP    HB2   68   2.112   3.807   3.556  0.6815 -0.7841 -0.3840
    7ASP     CG   69   2.115   3.885   3.765 -0.5067 -0.3615 -0.4398
    7ASP    OD1   70   2.238   3.921   3.760  0.4830 -0.4250  0.0764
    7ASP    OD2   71   2.048   3.910   3.864 -0.1320  0.3788  0.3659
    7ASP      C   72   1.986   3.563   3.594  0.1347 -0.2510 -0.1426
    7ASP      O   73   2.043   3.521   3.494  0.4676  0.3009  0.4016
    8PRO      N   74   1.858   3.535   3.612 -0.2264 -0.2187 -0.2643
    8PRO     CD   75   1.785   3.542   3.737  0.9060  0.3340 -0.2019
    8PRO    HD1   76   1.817   3.634   3.791  1.3696  0.4571 -0.6797
    8PRO    HD2   77   1.806   3.456   3.803  1.4348  0.1218 -0.6436
    8PRO     CA   78   1.768   3.496   3.500 -0.4450 -0.5776  0.5654
    8PRO     HA   79   1.821   3.423   3.440  0.2117  1.5542 -1.6428
    8PRO     CB   80   1.636   3.467   3.561 -0.1832  0.2709 -0.2437
    8PRO    HB1   81   1.641   3.359   3.587  2.1629 -0.3320 -2.7763
    8PRO    HB2   82   1.552   3.473   3.489 -0.9922 -2.8925  0.2933
    8PRO     CG   83   1.640   3.551   3.691 -0.6153 -0.1918 -0.7514
    8PRO    HG1   84   1.609   3.656   3.674  0.7999  0.2703 -0.5549
    8PRO    HG2   85   1.571   3.512   3.769 -0.0523  0.6708  0.2007
    8PRO      C   86   1.743   3.616   3.404  0.1963  0.3850 -0.3744
    8PRO      O   87   1.747   3.730   3.451 -0.2485  0.1975  1.0283
    9GLY      N   88   1.725   3.597   3.273 -0.1409  0.0284 -0.2559
    9GLY     HN   89   1.711   3.510   3.227 -0.8903  0.5854 -1.1227
    9GLY     CA   90   1.704   3.713   3.187 -0.2141 -0.5192 -0.4416
    9GLY    HA1   91   1.653   3.795   3.234 -2.1440 -0.4707 -2.4625
    9GLY    HA2   92   1.646   3.691   3.099 -0.0818  0.1935 -0.7153
    9GLY      C   93   1.840   3.751   3.131  0.0920 -0.0203 -0.1168
    9GLY      O   94   1.917   3.670   3.080 -0.2320  0.1972  0.8316
   10ASP      N   95   1.873   3.886   3.135 -0.1271 -0.0220 -0.2483
   10ASP     HN   96   1.798   3.946   3.161 -1.9142 -1.8185 -0.9604
   10ASP     CA   97   2.001   3.942   3.099 -0.3387  0.5734 -0.1357
   10ASP     HA   98   2.022   3.913   2.998  0.4979 -0.3545  0.2935
   10ASP     CB   99   1.993   4.097   3.100 -0.6157 -0.0873  0.4816
   10ASP    HB1  100   2.092   4.145   3.083 -0.7339  0.1626  0.5000
   10ASP    HB2  101   1.956   4.117   3.202 -0.0508 -0.2701  0.7248
   10ASP     CG  102   1.900   4.153   2.999  0.0497 -0.8770  0.0802
   10ASP    OD1  103   1.862   4.091   2.897  0.2528 -0.2551 -0.3210
   10ASP    OD2  104   1.878   4.276   3.012  0.0962  0.3596 -0.8726
   10ASP      C  105   2.115   3.891   3.186 -0.5859  0.0836 -0.2686
   10ASP      O  106   2.097   3.870   3.307 -0.4208  0.0850 -0.0966
   11GLY      N  107   2.238   3.869   3.128  0.3278 -0.6114 -1.0563
   11GLY     HN  108   2.252   3.888   3.031  0.3377 -2.1453 -1.3772
   11GLY     CA  109   2.357   3.840   3.206  0.6617 -0.8055  0.6390
   11GLY    HA1  110   2.403   3.757   3.154 -1.5071 -1.0335 -1.0196
   11GLY    HA2  111   2.326   3.795   3.299  0.8277 -2.7479 -0.2008
   11GLY      C  112   2.458   3.961   3.218  0.5275  0.4499  0.2350
   11GLY    OT1  113   2.566   3.954   3.161 -0.1152 -0.1205  0.7234
   11GLY    OT2  114   2.427   4.056   3.294 -0.3114  0.2321 -0.0952
   12SOD    SOD  115   2.719   0.057   0.677 -0.0427 -0.1799 -0.1407
   13SOD    SOD  116   3.883   0.772   0.871 -0.0911  0.3626 -0.2859
   14SOD    SOD  117   0.884   3.257   1.507  0.1562  0.2703 -0.0998
   15SOD    SOD  118   6.940   2.069   4.054 -0.0189 -0.0616 -0.4235
   16SOD    SOD  119   7.026   3.575   4.224 -0.4740 -0.3991 -0.1786
   17SOD    SOD  120   5.234   4.551   1.147  0.4871 -0.0059 -0.0582
   18SOD    SOD  121   0.939   6.572   4.318  0.1321  0.1539  0.1095
   19SOD    SOD  122   0.714   3.476   0.490  0.1612 -0.0240 -0.3635
   20SOD    SOD  123   1.890   5.306   4.249  0.1308  0.3315 -0.4200
   21SOD    SOD  124   0.318   2.312   0.903  0.1887  0.2939  0.3490
   22SOD    SOD  125   2.972   4.118   0.655 -0.2730  0.0204 -0.4411
   23SOD    SOD  126   3.184   3.785   3.237  0.2845  0.0918  0.1266
   24SOD    SOD  127   6.792   4.360   3.398  0.4158 -0.2024  0.4311
   25SOD    SOD  128   0.496   4.391   1.177  0.0896 -0.1608  0.6811
   26SOD    SOD  129   3.619   3.840   5.742 -0.8162  0.4983  0.3628
   27SOD    SOD  130   5.699   1.522   4.447  0.3490  0.4847  0.4944
   28SOD    SOD  131   3.919   1.453   1.187 -0.4577  0.1160  0.2053
   29SOD    SOD  132   7.076   3.228   1.325 -0.1448  0.2533 -0.2467
   30SOD    SOD  133   1.789   5.710   2.352 -0.3106  0.4859  0.1796
   31SOD    SOD  134   1.890   0.978   3.790  0.0359  0.0569 -0.5551
   32SOD    SOD  135   4.033   3.044   0.609 -0.0629 -0.1535  0.4482
   33SOD    SOD  136   1.390   3.245   2.787  0.2152 -0.3984 -0.3513
   34SOD    SOD  137   5.008   4.483   0.295 -0.0489  0.1882 -0.2672
   35SOD    SOD  138   4.004   5.425   2.220  0.1097 -0.6778  0.1033
   36SOD    SOD  139   5.617   0.430   1.951  0.1056  0.3854 -0.7045
   37SOD    SOD  140   3.088   6.732   4.175 -0.2740 -0.7668  0.3012
   38SOD    SOD  141   7.041   2.406   3.503 -0.1269  0.1294 -0.0029
   39SOD    SOD  142   0.668   1.561   2.398  0.1473 -0.1501 -0.4026
   40SOD    SOD  143   3.665   0.711   3.272  0.0702 -0.2366  0.1487
   41SOD    SOD  144   1.980   4.262   4.780 -0.4272  0.2457 -0.0838
   42SOD    SOD  145   6.876   5.204   0.766 -0.2551 -0.1861 -0.1302
   43CLA    CLA  146   0.775   6.370   0.427 -0.2234  0.0827  0.4698
   44CLA    CLA  147   3.492   5.341   2.690  0.1421  0.0137 -0.1438
   45CLA    CLA  148   0.935   6.422   4.869  0.2775 -0.1251 -0.0309
   46CLA    CLA  149   4.883   2.906   2.535  0.5390 -0.1319 -0.3671
   47CLA    CLA  150   1.439   0.782   3.502  0.4224 -0.0241 -0.0154
   48CLA    CLA  151   7.029   3.815   2.133  0.3630 -0.0451  0.2654
   49CLA    CLA  152   3.600   6.796   1.272 -0.3103 -0.0116 -0.0713
   50CLA    CLA  153   5.796   1.281   1.629  0.1319 -0.3914 -0.1741
   51CLA    CLA  154   5.898   6.124   4.714  0.4188 -0.0661  0.0409
   52CLA    CLA  155   4.294   6.124   0.419  0.1887 -0.3580  0.3333
   53CLA    CLA  156   5.245   1.480   1.745  0.0384 -0.1946 -0.3678
   54CLA    CLA  157   1.698   1.502   2.708  0.6189 -0.3638  0.3136
   55CLA    CLA  158   1.442   1.148   2.828  0.2753 -0.2226 -0.0003
   56CLA    CLA  159   0.994   4.669   3.245 -0.0902 -0.3677 -0.4584
   57CLA    CLA  160   1.385   2.315   1.369  0.1238 -0.1149  0.0651
   58CLA    CLA  161   6.933   2.280   0.173  0.0452 -0.0608  0.6323
   59CLA    CLA  162   7.050   1.663   4.361 -0.3373 -0.1440 -0.0750
   60CLA    CLA  163   5.108   0.182   4.195  0.0460 -0.1202  0.0853
   61CLA    CLA  164   3.925   6.184   4.439 -0.0107 -0.3195  0.0146
   62CLA    CLA  165   2.265   0.962   2.025  0.0610 -0.0399 -0.2125
   63CLA    CLA  166   0.918   2.653   1.066 -0.1264  0.2420 -0.1747
   64CLA    CLA  167   6.553   4.267   4.455  0.2003  0.2253  0.1961
   65CLA    CLA  168   1.399   3.268   0.142  0.3531  0.1501  0.1913
   66CLA    CLA  169   3.139   3.043   4.940 -0.3332 -0.1243 -0.2294
   67CLA    CLA  170   3.790   2.663   0.976 -0.1851  0.0454 -0.2523
   68CLA    CLA  171   5.979   5.633   1.392  0.2489 -0.2522  0.1239
   69CLA    CLA  172   5.625   2.003   4.793 -0.0671  0.1166  0.2401
   70TIP3   OH2  173   5.280   0.552   0.249 -0.6531 -0.0874  0.2471
   70TIP3    H1  174   5.363   0.596   0.229 -0.8292  0.5196  0.8270
   70TIP3    H2  175   5.268   0.566   0.343 -1.2661 -0.4390  0.2241
   71TIP3   OH2  176   4.469   3.210   2.701 -0.0038  0.8213 -0.0146
   71TIP3    H1  177   4.464   3.164   2.617 -0.3514  1.2195 -0.2159
   71TIP3    H2  178   4.523   3.153   2.756  0.6915  0.8130 -0.6771
   72TIP3   OH2  179   4.411   3.324   2.322 -0.3210 -0.0141  0.5765
   72TIP3    H1  180   4.360   3.282   2.391 -1.1846 -1.7616 -1.0404
   72TIP3    H2  181   4.349   3.385   2.281 -0.6018 -0.8653 -0.2801
   73TIP3   OH2  182   5.957   1.304   2.207 -0.1385 -0.2516 -0.0383
   73TIP3    H1  183   5.892   1.288   2.138 -1.1598  1.1289  0.5429
   73TIP3    H2  184   5.920   1.263   2.285 -0.8729  1.4317  0.5408
   74TIP3   OH2  185   3.336   0.668   2.683  0.2097 -0.2654 -0.3625
   74TIP3    H1  186   3.263   0.615   2.651 -0.6108 -0.3199  1.4867
   74TIP3    H2  187   3.332   0.660   2.778  0.8939  2.0208 -0.0839
   75TIP3   OH2  188   0.323   2.518   3.131 -0.1988 -0.3722  0.4574
   75TIP3    H1  189   0.249   2.481   3.085 -0.3690  1.3199 -0.7335
   75TIP3    H2  190   0.297   2.517   3.223 -1.1650 -0.9723  0.1907
   76TIP3   OH2  191   1.920   2.503   1.494  0.5422  0.0277  0.0743
   76TIP3    H1  192   1.862   2.483   1.421  0.4256  0.4932  0.0354
   76TIP3    H2  193   1.862   2.503   1.571  0.9609 -2.3608  0.4835
   77TIP3   OH2  194   2.464   4.655   5.151 -0.2182 -0.1762 -0.6660
   77TIP3    H1  195   2.546   4.649   5.201 -1.0742 -1.4544  0.6772
   77TIP3    H2  196   2.395   4.646   5.216 -1.4566  0.9656 -1.7631
   78TIP3   OH2  197   5.273   1.353   5.879 -0.2843  1.2450 -0.1036
   78TIP3    H1  198   5.332   1.300   5.825 -1.5078  0.8535 -1.1116
   78TIP3    H2  199   5.251   1.427   5.823 -1.2710  1.0392  0.0034
   79TIP3   OH2  200   6.955   5.604   1.237 -0.4959 -0.2469 -0.5889
   79TIP3    H1  201   6.906   5.684   1.217  1.0648  0.7088 -0.7926
   79TIP3    H2  202   6.909   5.566   1.312 -0.8725  1.2319 -0.0323
   80TIP3   OH2  203   1.145   6.076   3.821 -0.4768  0.2176 -0.3853
   80TIP3    H1  204   1.073   6.127   3.857 -0.0917  1.3739 -1.2040
   80TIP3    H2  205   1.112   5.986   3.821 -0.3622  0.0639  3.0771
   81TIP3   OH2  206   2.560   0.896   4.875 -0.0734 -0.0996 -0.5919
   81TIP3    H1  207   2.617   0.827   4.841  1.8050  1.6889 -1.2510
   81TIP3    H2  208   2.540   0.868   4.965  0.4245 -1.5946 -0.9215
   82TIP3   OH2  209   6.809   5.706   2.716  0.6859 -0.7981  0.5576
   82TIP3    H1  210   6.838   5.765   2.647 -0.4688 -0.7656  0.0659
   82TIP3    H2  211   6.884   5.697   2.774  1.6547 -0.7487 -0.6542
   83TIP3   OH2  212   7.193   0.814   3.007 -0.4492  0.7899  0.1356
   83TIP3    H1  213   7.172   0.814   3.100  2.5597  0.6402  0.9121
   83TIP3    H2  214   7.224   0.902   2.988  0.3645  0.4127 -0.3539
   84TIP3   OH2  215   5.514   4.700   2.605  0.5907  0.3186  1.1203
   84TIP3    H1  216   5.506   4.758   2.681  0.4397 -1.3967  2.4924
   84TIP3    H2  217   5.432   4.650   2.605  1.5537 -1.3296  1.2758
   85TIP3   OH2  218   5.371   1.185   3.256 -0.3960 -0.7257  0.4111
   85TIP3    H1  219   5.300   1.243   3.229  0.6913 -0.0601 -1.2044
   85TIP3    H2  220   5.433   1.186   3.182  0.3229 -2.8928  0.8882
   86TIP3   OH2  221   3.166   1.717   3.028  0.1102 -0.5367 -0.3438
   86TIP3    H1  222   3.101   1.710   3.098 -0.2482 -1.9962 -0.7877
   86TIP3    H2  223   3.248   1.739   3.074 -0.2522 -0.8226  0.4665
   87TIP3   OH2  224   4.664   1.676   1.684  0.2418 -1.0255  0.6712
   87TIP3    H1  225   4.744   1.654   1.637 -0.1088  1.0462 -1.0456
   87TIP3    H2  226   4.684   1.657   1.776  2.6564 -0.7238  0.2697
   88TIP3   OH2  227   4.680   5.605   2.133  0.0467 -0.4832  0.3750
   88TIP3    H1  228   4.726   5.649   2.204 -1.3572  3.8304 -1.0901
   88TIP3    H2  229   4.744   5.603   2.061  0.0996 -0.9450  0.4281
   89TIP3   OH2  230   0.102   2.663   1.450 -0.6255  0.1553 -0.0436
   89TIP3    H1  231   0.162   2.731   1.481  2.2290 -2.4949  0.7045
   89TIP3    H2  232   0.048   2.641   1.527  0.3941 -0.3221  0.5549
   90TIP3   OH2  233   3.416   1.305   5.516  0.2147  0.2507  0.0775
   90TIP3    H1  234   3.351   1.254   5.564 -0.9806 -0.4549 -2.1525
   90TIP3    H2  235   3.379   1.393   5.512  0.3006  0.3033  0.4063
   91TIP3   OH2  236   1.334   3.694   3.078 -0.2852 -0.1171 -0.4178
   91TIP3    H1  237   1.286   3.777   3.083 -0.4889 -0.2322 -0.4786
   91TIP3    H2  238   1.414   3.716   3.029  0.6961  0.5249  1.3760
   92TIP3   OH2  239   6.726   2.353   1.656 -0.2552 -0.1165 -0.3341
   92TIP3    H1  240   6.706   2.437   1.698 -0.1320 -0.3343  0.1735
   92TIP3    H2  241   6.698   2.364   1.565 -3.0811 -0.5159  0.3791
   93TIP3   OH2  242   1.243   5.151   5.652 -0.4352 -0.3369 -0.0385
   93TIP3    H1  243   1.303   5.143   5.578 -0.1069  0.8070  0.0851
   93TIP3    H2  244   1.195   5.232   5.636 -0.6633 -0.2994  0.7740
   94TIP3   OH2  245   7.017   0.652   3.858 -0.1779  0.0759  0.8372
   94TIP3    H1  246   7.038   0.581   3.798 -1.0334  0.7801 -0.3189
   94TIP3    H2  247   7.078   0.639   3.931  0.6495 -1.0019  0.0010
   95TIP3   OH2  248   4.685   2.989   0.173 -0.6374  0.5460  0.1005
   95TIP3    H1  249   4.691   2.960   0.082 -1.9076 -0.3304  0.2782
   95TIP3    H2  250   4.591   2.992   0.191 -0.4462  2.1068  0.9558
   96TIP3   OH2  251   2.444   6.360   4.408 -0.1119 -0.4250  0.4633
   96TIP3    H1  252   2.434   6.370   4.313 -0.9412 -0.5999  0.5271
   96TIP3    H2  253   2.455   6.450   4.440  3.1909 -0.5077 -0.0785
   97TIP3   OH2  254   6.254   0.934   4.646  0.3360  0.0047  0.1248
   97TIP3    H1  255   6.159   0.921   4.652  0.3040 -0.4119 -0.9157
   97TIP3    H2  256   6.287   0.848   4.619  0.9278  0.3262 -0.1799
   98TIP3   OH2  257   1.420   1.032   4.387 -0.2474  0.2483  0.0041
   98TIP3    H1  258   1.366   0.957   4.413  0.0231  0.8463  2.6083
   98TIP3    H2  259   1.477   0.998   4.318 -0.8648 -1.6454  0.3647
   99TIP3   OH2  260   0.692   2.519   1.750  0.4211 -0.4440 -0.4254
   99TIP3    H1  261   0.605   2.559   1.763  0.4530 -0.1143 -1.1860
   99TIP3    H2  262   0.753   2.583   1.785  0.3138 -1.2810  1.4438
  100TIP3   OH2  263   3.915   3.362   4.995  0.6337  0.2830 -0.2473
  100TIP3    H1  264   3.897   3.273   5.025  1.3719 -1.1637 -3.5518
  100TIP3    H2  265   3.829   3.402   4.984  0.1103 -1.0407 -1.2467
  101TIP3   OH2  266   1.509   0.618   2.730 -0.4793  0.4096 -0.5511
  101TIP3    H1  267   1.437   0.606   2.793 -0.1336  1.4604  0.0620
  101TIP3    H2  268   1.467   0.657   2.653 -0.6922  0.3017 -0.4914
  102TIP3   OH2  269   5.330   5.405   3.496  0.5539  0.1883  0.2221
  102TIP3    H1  270   5.360   5.348   3.566 -0.0608  0.5665  0.8059
  102TIP3    H2  271   5.245   5.371   3.471  0.1376  0.8974  0.6441
  103TIP3   OH2  272   6.635   4.726   0.970  0.1977 -0.5010  0.3537
  103TIP3    H1  273   6.568   4.794   0.964  0.2059 -0.4347  0.9289
  103TIP3    H2  274   6.619   4.685   1.055  1.2165 -0.1298  0.7459
  104TIP3   OH2  275   3.345   6.713   0.483  0.0942 -0.0420 -0.0626
  104TIP3    H1  276   3.387   6.733   0.399 -0.1884 -1.3724 -0.5515
  104TIP3    H2  277   3.312   6.623   0.473 -0.1183 -0.1642  1.4024
  105TIP3   OH2  278   2.782   1.044   0.957  0.2624  0.9894  0.2406
  105TIP3    H1  279   2.811   1.132   0.982  0.7420  1.6182 -2.2333
  105TIP3    H2  280   2.800   1.039   0.863  0.8501 -1.9979  0.4091
  106TIP3   OH2  281   5.249   2.334   3.513  0.1026 -0.3903  0.1726
  106TIP3    H1  282   5.321   2.279   3.546  0.0055 -0.2069  0.6952
  106TIP3    H2  283   5.176   2.317   3.573 -0.0980 -0.0965  0.0161
  107TIP3   OH2  284   5.635   0.379   4.740 -0.0887  0.3481 -0.4665
  107TIP3    H1  285   5.656   0.454   4.794 -0.5853 -0.6714  1.2256
  107TIP3    H2  286   5.661   0.303   4.793 -0.9523 -0.7092 -1.4984
  108TIP3   OH2  287   1.685   0.973   1.299  0.0645 -0.0852 -0.9851
  108TIP3    H1  288   1.699   0.886   1.261 -0.4707 -0.0314 -1.3287
  108TIP3    H2  289   1.626   1.016   1.237  0.3693  0.5422 -0.8395
  109TIP3   OH2  290   4.303   4.528   0.937 -0.3172 -0.2960  0.4030
  109TIP3    H1  291   4.359   4.605   0.930 -0.2995 -0.3382  0.0539
  109TIP3    H2  292   4.290   4.515   1.031 -0.0406 -0.0706  0.4705
  110TIP3   OH2  293   0.303   3.652   3.836  0.1985 -0.1572 -0.3310
  110TIP3    H1  294   0.363   3.624   3.905  0.1146 -0.1722 -0.2629
  110TIP3    H2  295   0.235   3.583   3.835  0.7297 -0.6868 -1.1081
  111TIP3   OH2  296   1.817   0.043   2.573 -0.7622 -0.1934 -0.3293
  111TIP3    H1  297   1.857   0.127   2.555  0.8577 -0.3365  2.0768
  111TIP3    H2  298   1.786   0.012   2.488  3.7924  0.1841 -2.4132
  112TIP3   OH2  299   4.751   6.608   0.352 -0.2796 -0.5938  0.3404
  112TIP3    H1  300   4.688   6.614   0.424 -0.7131  0.1718 -0.0945
  112TIP3    H2  301   4.697   6.606   0.273  0.1896 -1.4449  0.0248
  113TIP3   OH2  302   5.138   1.973   4.076 -0.1312 -0.0061 -0.1790
  113TIP3    H1  303   5.227   1.999   4.103 -0.5499 -0.7442  2.0804
  113TIP3    H2  304   5.086   2.052   4.090 -0.6331 -0.7728  2.8404
  114TIP3   OH2  305   5.624   1.266   3.366 -0.1752 -0.1348 -0.3976
  114TIP3    H1  306   5.556   1.198   3.374 -1.3349  1.1458  2.2303
  114TIP3    H2  307   5.694   1.237   3.424 -0.2265  0.3888 -0.0619
  115TIP3   OH2  308   4.265   1.575   1.769  0.4852 -0.3275  0.3782
  115TIP3    H1  309   4.332   1.558   1.702  1.1214 -0.7516  1.1104
  115TIP3    H2  310   4.203   1.635   1.726  0.6697 -0.8879 -0.7213
  116TIP3   OH2  311   1.324   0.270   5.518  0.1807  0.1371  0.0261
  116TIP3    H1  312   1.419   0.280   5.509  0.1961 -0.9172 -1.3219
  116TIP3    H2  313   1.293   0.263   5.428 -1.3291  1.5761  0.3914
  117TIP3   OH2  314   1.549   2.091   4.019 -0.7837  0.1970  0.1872
  117TIP3    H1  315   1.613   2.021   4.007 -0.8474  0.2550 -0.5123
  117TIP3    H2  316   1.543   2.101   4.114 -0.6848 -0.6627  0.2970
  118TIP3   OH2  317   4.973   3.475   0.069 -0.1545 -0.0325  0.0234
  118TIP3    H1  318   4.998   3.525  -0.009 -0.5425 -1.0464 -0.7862
  118TIP3    H2  319   4.936   3.394   0.034 -1.0065 -0.2091  1.2553
  119TIP3   OH2  320   7.137   1.488   3.014  0.0950  0.4713  1.1107
  119TIP3    H1  321   7.104   1.564   3.063 -0.0855  1.5688 -0.6030
  119TIP3    H2  322   7.200   1.526   2.952  1.3804 -1.0478  1.4442
  120TIP3   OH2  323   0.355   6.605   4.788  1.1389 -0.5464 -0.7882
  120TIP3    H1  324   0.372   6.528   4.843 -0.7965 -0.9883 -0.7497
  120TIP3    H2  325   0.304   6.664   4.843  1.7301  0.3403 -1.1628
  121TIP3   OH2  326   1.495   3.815   5.596  0.1544  0.2520 -0.2129
  121TIP3    H1  327   1.518   3.792   5.506  0.8043  0.1154 -0.0146
  121TIP3    H2  328   1.577   3.844   5.635 -0.0196 -0.1616  0.4832
  122TIP3   OH2  329   2.194   5.495   1.829 -0.2966  0.4263 -0.3060
  122TIP3    H1  330   2.257   5.568   1.833 -1.7539  1.7912 -1.3146
  122TIP3    H2  331   2.239   5.427   1.780  0.2619  1.5366 -1.3699
  123TIP3   OH2  332   3.816   3.136   0.703 -0.2613  0.1381 -0.0565
  123TIP3    H1  333   3.732   3.154   0.661 -0.9227  0.0034  1.1847
  123TIP3    H2  334   3.794   3.108   0.792  1.1326  2.2373  1.0558
  124TIP3   OH2  335   6.200   1.964   3.499  0.2618 -0.0116  0.0911
  124TIP3    H1  336   6.143   1.947   3.424  2.1735 -0.4891 -1.3243
  124TIP3    H2  337   6.220   1.878   3.535 -0.4867  0.2015  1.0797
  125TIP3   OH2  338   1.676   0.991   4.830  0.2947 -0.1812  0.1738
  125TIP3    H1  339   1.608   0.926   4.814 -0.0918  0.3273 -0.2909
  125TIP3    H2  340   1.750   0.941   4.866 -0.2310 -0.7727  0.4436
  126TIP3   OH2  341   6.357   4.176   3.305  0.1232 -0.9102  0.2252
  126TIP3    H1  342   6.328   4.262   3.338  0.9589 -0.1853 -0.8619
  126TIP3    H2  343   6.312   4.167   3.221  0.0637 -1.5391  0.3212
  127TIP3   OH2  344   1.102   3.291   5.146 -0.1457  0.3294  0.0313
  127TIP3    H1  345   1.014   3.255   5.147  0.2876 -0.7767  1.0365
  127TIP3    H2  346   1.150   3.235   5.084  0.2180 -0.0777  0.6601
  128TIP3   OH2  347   2.436   4.174   0.196 -0.1471  0.5608  0.8628
  128TIP3    H1  348   2.350   4.211   0.214  0.0086  1.5970 -0.3701
  128TIP3    H2  349   2.496   4.248   0.209  0.6690 -0.3436  2.5022
  129TIP3   OH2  350   1.601   6.599   0.054  0.1875 -0.0356 -0.0753
  129TIP3    H1  351   1.649   6.525   0.090  0.7629 -0.1069 -0.9593
  129TIP3    H2  352   1.510   6.571   0.053 -0.0092  0.3256  2.1944
  130TIP3   OH2  353   3.834   1.135   4.624  0.3294 -0.2949 -0.0227
  130TIP3    H1  354   3.852   1.147   4.717  1.0351  1.7851 -0.3869
  130TIP3    H2  355   3.920   1.131   4.583  0.0330  0.8082 -0.7965
  131TIP3   OH2  356   4.215   1.681   0.074  0.2984 -0.2698  0.0248
  131TIP3    H1  357   4.284   1.646   0.018 -0.1143 -1.0241 -0.0341
  131TIP3    H2  358   4.261   1.713   0.151  0.5615 -3.4798  1.3757
  132TIP3   OH2  359   4.110   4.941   3.365 -0.2345 -0.2027  0.0334
  132TIP3    H1  360   4.095   4.878   3.295 -2.1256  0.1050  0.1119
  132TIP3    H2  361   4.039   4.925   3.428 -0.6442  1.8144  0.1600
  133TIP3   OH2  362   2.302   5.020   3.520  1.0190  0.2514  0.2007
  133TIP3    H1  363   2.338   5.102   3.487  0.7231  0.8050  1.2111
  133TIP3    H2  364   2.379   4.967   3.542  1.2129  0.4481 -0.0011
  134TIP3   OH2  365   6.176   3.756   2.758  0.2580  0.2479 -0.2246
  134TIP3    H1  366   6.272   3.752   2.754  0.2729  0.0072  0.2411
  134TIP3    H2  367   6.147   3.708   2.680  0.5160 -0.4449  0.0935
  135TIP3   OH2  368   4.977   3.376   3.252  0.0435 -0.2274  0.0407
  135TIP3    H1  369   4.952   3.447   3.311 -1.9796 -0.2697 -0.7079
  135TIP3    H2  370   4.966   3.412   3.164 -0.7275 -1.3717 -0.3496
  136TIP3   OH2  371   2.433   2.721   0.755  0.0908 -0.3892  0.2525
  136TIP3    H1  372   2.454   2.767   0.674  0.8899 -1.2537 -0.0508
  136TIP3    H2  373   2.469   2.634   0.743  0.0163 -0.6030  1.4520
  137TIP3   OH2  374   1.380   3.189   2.563  0.0555  0.6442  0.3199
  137TIP3    H1  375   1.401   3.236   2.483  0.1700  0.5668  0.3040
  137TIP3    H2  376   1.375   3.097   2.536 -0.8572  0.7117  0.2047
  138TIP3   OH2  377   1.209   6.020   2.149 -0.2231 -0.1026 -0.3287
  138TIP3    H1  378   1.297   6.005   2.113  0.5537 -1.1471  1.8308
  138TIP3    H2  379   1.194   6.114   2.137  2.0528  0.5162  1.0011
  139TIP3   OH2  380   4.401   5.678   2.556 -0.3062 -0.0738  0.5015
  139TIP3    H1  381   4.334   5.730   2.512  0.3312  0.8466  0.5823
  139TIP3    H2  382   4.483   5.701   2.512  0.0740 -0.5563  0.9365
  140TIP3   OH2  383   5.007   3.331   5.168 -0.1879 -0.1005 -0.5395
  140TIP3    H1  384   5.063   3.407   5.182 -0.1619 -0.0252 -1.0320
  140TIP3    H2  385   4.943   3.335   5.239  0.2982 -0.0676 -0.0972
  141TIP3   OH2  386   6.848   0.391   0.573 -0.1300 -0.6902  0.2088
  141TIP3    H1  387   6.866   0.307   0.615  0.8358  0.0316  1.2944
  141TIP3    H2  388   6.757   0.384   0.544 -0.8894 -1.2271  2.4812
  142TIP3   OH2  389   6.192   1.516   5.006 -0.4630 -0.1929 -0.7985
  142TIP3    H1  390   6.117   1.459   5.022 -1.2977  0.5518 -2.0037
  142TIP3    H2  391   6.239   1.474   4.933  0.1184 -0.4638 -0.2838
  143TIP3   OH2  392   1.403   1.341   2.344  0.2222  0.4841  0.1679
  143TIP3    H1  393   1.311   1.316   2.349 -0.2980  2.0720 -0.9923
  143TIP3    H2  394   1.442   1.303   2.423 -1.6913  0.8680  1.3548
  144TIP3   OH2  395   0.903   5.305   4.283 -0.1975 -0.2826 -0.1111
  144TIP3    H1  396   0.819   5.350   4.273 -0.1930 -0.3982 -0.7405
  144TIP3    H2  397   0.879   5.213   4.295 -0.2912  0.0208  2.8989
  145TIP3   OH2  398   5.524   2.574   1.323 -0.3644 -0.4337 -0.0028
  145TIP3    H1  399   5.477   2.630   1.262 -4.3223 -3.2538  0.0740
  145TIP3    H2  400   5.500   2.608   1.410  1.0998  0.4933  0.0700
  146TIP3   OH2  401   1.545   4.665   0.411 -0.0167 -0.0893  0.0092
  146TIP3    H1  402   1.562   4.678   0.317  0.0511 -0.1012  0.0193
  146TIP3    H2  403   1.507   4.748   0.440  0.4223  0.0921  0.0757
  147TIP3   OH2  404   6.569   3.711   2.275  0.3181  0.4360  0.0261
  147TIP3    H1  405   6.562   3.745   2.365  0.3686  0.9163 -0.1469
  147TIP3    H2  406   6.496   3.752   2.228 -0.6208 -0.9794  0.1933
  148TIP3   OH2  407   2.283   1.369   0.204  0.0609 -0.7818  0.1269
  148TIP3    H1  408   2.246   1.301   0.148 -1.0464  0.3840 -0.6399
  148TIP3    H2  409   2.326   1.429   0.143 -0.8289  0.3033  0.5130
  149TIP3   OH2  410   6.132   1.514   0.151 -0.0233 -0.0603  1.3531
  149TIP3    H1  411   6.146   1.608   0.140 -1.5517  0.1405  0.8278
  149TIP3    H2  412   6.056   1.495   0.095  2.1763 -2.2441 -1.1862
  150TIP3   OH2  413   3.455   2.053   0.366  0.4262  0.4092  0.1446
  150TIP3    H1  414   3.396   2.000   0.312  0.8922 -1.2058  1.1361
  150TIP3    H2  415   3.446   2.015   0.454  1.4237  1.4545  0.7216
  151TIP3   OH2  416   5.609   1.699   1.906 -0.1661  0.1880 -0.0047
  151TIP3    H1  417   5.575   1.783   1.876  2.4919  1.5287  0.4322
  151TIP3    H2  418   5.654   1.663   1.830  0.2174  0.0164  0.3001
  152TIP3   OH2  419   4.378   3.035   1.499  0.1015 -0.0669  0.7775
  152TIP3    H1  420   4.374   2.952   1.452  2.3779  0.5149 -0.5417
  152TIP3    H2  421   4.433   3.017   1.575 -2.0553 -0.5210  2.3332
  153TIP3   OH2  422   6.122   6.232   1.530 -0.7884  0.1547  0.6058
  153TIP3    H1  423   6.045   6.174   1.526 -0.9070 -0.0340  3.5775
  153TIP3    H2  424   6.195   6.174   1.549 -0.0168  0.4654 -1.2139
  154TIP3   OH2  425   4.273   4.224   3.614  0.2864  0.2626 -0.5296
  154TIP3    H1  426   4.325   4.173   3.676 -2.2002 -0.1441  1.4201
  154TIP3    H2  427   4.272   4.313   3.651  1.5020  0.8700 -1.8654
  155TIP3   OH2  428   5.980   6.471   1.707 -0.1762 -0.0836  0.2191
  155TIP3    H1  429   6.040   6.542   1.729 -1.6864  0.8219  1.6430
  155TIP3    H2  430   6.037   6.399   1.680  1.4421  1.3051 -0.2079
  156TIP3   OH2  431   0.703   4.697   0.443 -0.2667 -0.4228 -0.4022
  156TIP3    H1  432   0.662   4.754   0.377 -0.6348  0.1590  0.3246
  156TIP3    H2  433   0.673   4.732   0.527  1.1605 -0.4227  0.1230
  157TIP3   OH2  434   4.812   3.066   1.430  0.0277 -0.0296  0.3013
  157TIP3    H1  435   4.734   3.100   1.387  0.6244  0.0687 -0.7457
  157TIP3    H2  436   4.791   2.975   1.450  0.1669 -0.4500 -1.3540
  158TIP3   OH2  437   1.163   2.115   0.646  0.2884  0.3912  0.1989
  158TIP3    H1  438   1.150   2.100   0.740 -2.5418  0.1323 -0.1616
  158TIP3    H2  439   1.119   2.198   0.629  0.1818  0.0956 -1.0217
  159TIP3   OH2  440   5.577   6.456   5.279  0.0395  0.2257  0.3602
  159TIP3    H1  441   5.637   6.500   5.339  0.0196 -0.2877  0.7623
  159TIP3    H2  442   5.498   6.511   5.278 -0.0740  0.0798  1.0375
  160TIP3   OH2  443   6.110   2.075   3.137 -0.1016 -0.1349 -0.0787
  160TIP3    H1  444   6.022   2.070   3.098 -0.1896  0.4761  0.0332
  160TIP3    H2  445   6.139   2.164   3.119  0.7875 -0.5448 -0.7201
  161TIP3   OH2  446   4.491   6.344   1.627  0.8696  0.1589 -0.2872
  161TIP3    H1  447   4.518   6.324   1.716  2.1658  0.7390 -0.5221
  161TIP3    H2  448   4.421   6.281   1.608  1.6950 -1.0695  0.5689
  162TIP3   OH2  449   2.379   5.052   1.149 -0.0250  0.3435 -0.7893
  162TIP3    H1  450   2.355   5.054   1.056  0.2688 -0.0101 -0.8752
  162TIP3    H2  451   2.328   4.979   1.185 -1.3790  1.4715 -0.3131
  163TIP3   OH2  452   0.433   3.193   3.719  0.1057  0.9239 -0.2323
  163TIP3    H1  453   0.524   3.199   3.690  0.9514  1.3204  2.2780
  163TIP3    H2  454   0.397   3.280   3.704 -0.3533  0.4084 -2.5160
  164TIP3   OH2  455   4.449   5.510   4.117  0.5002 -0.0585  0.3660
  164TIP3    H1  456   4.409   5.482   4.199 -2.1238  2.9849  0.2822
  164TIP3    H2  457   4.397   5.468   4.048  1.7787 -1.4066  0.1430
  165TIP3   OH2  458   3.583   2.147   5.596  0.2492  0.4959 -0.7418
  165TIP3    H1  459   3.496   2.175   5.622  0.3339 -0.4887  0.7567
  165TIP3    H2  460   3.589   2.168   5.503 -1.3685  1.0848 -0.7369
  166TIP3   OH2  461   5.582   0.600   1.262  0.4344  0.2335  0.0396
  166TIP3    H1  462   5.611   0.672   1.319 -1.2208  1.7388 -0.9074
  166TIP3    H2  463   5.505   0.635   1.218 -0.8097 -2.3883 -0.0190
  167TIP3   OH2  464   0.009   5.737   5.814 -0.3672 -0.5183 -0.8438
  167TIP3    H1  465   0.058   5.814   5.786  0.5376 -0.2879  1.2515
  167TIP3    H2  466   0.075   5.674   5.839 -1.1031 -0.6120  0.9801
  168TIP3   OH2  467   1.450   5.662   2.051  0.3416  0.1507 -0.1702
  168TIP3    H1  468   1.440   5.656   1.956  0.0991 -0.5971 -0.1075
  168TIP3    H2  469   1.456   5.756   2.069  1.5881  0.2519 -1.0413
  169TIP3   OH2  470   1.202   3.315   3.602 -0.1445  0.0941 -0.4898
  169TIP3    H1  471   1.286   3.273   3.624 -1.3486 -1.7813  0.8125
  169TIP3    H2  472   1.156   3.320   3.686 -1.5717  0.5452 -1.2804
  170TIP3   OH2  473   1.765   4.361   0.701 -0.2758 -0.0877 -0.0724
  170TIP3    H1  474   1.749   4.267   0.695  0.7389 -0.1738 -2.1785
  170TIP3    H2  475   1.683   4.401   0.673 -0.0202 -0.3958 -1.3176
  171TIP3   OH2  476   0.919   1.742   0.647  0.4909  0.0550 -0.1232
  171TIP3    H1  477   0.904   1.801   0.574 -0.9697  1.2897  1.1251
  171TIP3    H2  478   0.883   1.787   0.723  0.5553 -1.8554  1.1142
  172TIP3   OH2  479   5.730   5.125   1.502 -0.0421 -0.0177  0.2488
  172TIP3    H1  480   5.775   5.198   1.544 -2.2361  2.4980 -1.3988
  172TIP3    H2  481   5.694   5.074   1.575  1.6648  0.4083  1.4551
  173TIP3   OH2  482   1.361   2.963   2.914  0.3425  0.3022 -0.2396
  173TIP3    H1  483   1.412   3.024   2.967  0.0597  0.8152 -0.5393
  173TIP3    H2  484   1.304   2.918   2.976  0.6551  0.2410  0.0044
  174TIP3   OH2  485   6.912   4.036   4.771 -0.1966  0.1742  0.0676
  174TIP3    H1  486   6.938   4.057   4.861  0.6624 -0.8515  0.0722
  174TIP3    H2  487   6.964   4.094   4.716 -1.5172  1.5858  0.2417
  175TIP3   OH2  488   3.556   6.365   0.018 -0.2111 -0.6204  0.3360
  175TIP3    H1  489   3.532   6.357   0.110 -1.4636  2.9314  0.4317
  175TIP3    H2  490   3.499   6.302  -0.027 -2.8434  0.7099  1.5960
  176TIP3   OH2  491   5.592   2.304   4.790  1.1017  0.0984 -0.0394
  176TIP3    H1  492   5.605   2.209   4.793  1.8244  0.2158  2.0044
  176TIP3    H2  493   5.498   2.314   4.775  0.6617 -0.9956  1.7533
  177TIP3   OH2  494   0.880   3.321   0.080  0.5246  0.2387  0.9147
  177TIP3    H1  495   0.952   3.285   0.132  1.4802 -0.7280 -0.9353
  177TIP3    H2  496   0.923   3.372   0.012 -0.4348 -0.9565 -0.6749
  178TIP3   OH2  497   4.120   3.985   4.418  0.4238 -0.1763 -0.2292
  178TIP3    H1  498   4.104   4.043   4.493  0.2170 -1.2091  0.5519
  178TIP3    H2  499   4.039   3.991   4.367  0.2051 -0.1674  0.1123
  179TIP3   OH2  500   5.061   2.891   3.210 -0.6142 -0.5408 -0.3988
  179TIP3    H1  501   5.104   2.887   3.125 -0.6091  1.3412 -0.5304
  179TIP3    H2  502   5.131   2.916   3.271 -1.2270  1.4331 -0.4333
  180TIP3   OH2  503   1.292   3.778   1.391  0.5498 -0.0069 -0.8200
  180TIP3    H1  504   1.252   3.711   1.446 -2.9926  0.6704 -2.3110
  180TIP3    H2  505   1.278   3.749   1.301  0.0531  2.0542 -1.4776
  181TIP3   OH2  506   3.866   4.931   1.931 -0.0254 -0.3473  0.3280
  181TIP3    H1  507   3.793   4.923   1.993  1.2639 -1.4998  1.7921
  181TIP3    H2  508   3.868   4.846   1.886  1.6855 -1.2134  1.8759
  182TIP3   OH2  509   4.374   4.856   0.971 -0.1693  0.7156 -0.4928
  182TIP3    H1  510   4.375   4.896   1.058 -1.6757  1.2054 -0.6678
  182TIP3    H2  511   4.433   4.780   0.978  0.4796  1.3024  0.6612
  183TIP3   OH2  512   7.072   0.237   3.662 -0.2495 -0.0040 -0.1593
  183TIP3    H1  513   7.144   0.174   3.660  2.5883  2.9121  1.3817
  183TIP3    H2  514   7.077   0.282   3.577  1.0388  1.4068  0.6160
  184TIP3   OH2  515   4.022   1.783   2.686 -0.2770  0.1399 -0.6357
  184TIP3    H1  516   3.946   1.841   2.697  0.9863  1.4440  2.3647
  184TIP3    H2  517   4.094   1.842   2.664  0.7707 -0.3532  1.2408
  185TIP3   OH2  518   2.411   1.404   1.689 -0.3898  0.3067 -0.0887
  185TIP3    H1  519   2.429   1.484   1.738  0.1989 -0.3115  0.7276
  185TIP3    H2  520   2.371   1.345   1.753  2.5930 -1.3967  0.3861
  186TIP3   OH2  521   6.024   1.786   0.169 -0.2625  0.2567 -0.1523
  186TIP3    H1  522   6.039   1.830   0.253 -0.5677  1.1045 -0.5270
  186TIP3    H2  523   5.930   1.772   0.166 -0.3143  0.6673 -0.5588
  187TIP3   OH2  524   3.062   1.219   0.646  0.6896  0.3656 -0.1116
  187TIP3    H1  525   3.114   1.183   0.718  0.6945 -0.8242 -0.6920
  187TIP3    H2  526   3.109   1.193   0.567 -0.2626  0.1165 -0.6088
  188TIP3   OH2  527   5.638   0.182   0.678  0.0320  0.0199  0.0040
  188TIP3    H1  528   5.662   0.208   0.589  2.1037  1.4780  0.9077
  188TIP3    H2  529   5.573   0.112   0.666 -2.4861  2.5097 -2.6366
  189TIP3   OH2  530   2.750   3.816   0.183  0.1931 -0.5413 -0.1803
  189TIP3    H1  531   2.714   3.877   0.247  1.1772 -0.5862  0.4399
  189TIP3    H2  532   2.832   3.784   0.223  0.6683 -0.8065 -1.3167
  190TIP3   OH2  533   5.426   1.317   4.627 -0.6153 -0.4083 -0.4853
  190TIP3    H1  534   5.344   1.319   4.676  0.4004 -0.2980  1.3181
  190TIP3    H2  535   5.480   1.254   4.675  0.2959 -0.6207 -1.7533
  191TIP3   OH2  536   3.939   4.099   5.421  0.1220 -0.0435  0.0087
  191TIP3    H1  537   3.899   4.175   5.462  0.2784  0.0419  0.0031
  191TIP3    H2  538   3.871   4.064   5.363 -0.7035 -1.1234  1.5296
  192TIP3   OH2  539   5.693   5.202   1.870  0.3401 -0.5287  0.3051
  192TIP3    H1  540   5.737   5.118   1.889  1.3931 -0.2078 -0.5675
  192TIP3    H2  541   5.761   5.255   1.828 -0.2870  0.8090  0.9213
  193TIP3   OH2  542   5.877   3.257   1.580 -0.6812 -0.7637 -0.8334
  193TIP3    H1  543   5.806   3.321   1.578 -1.2584 -1.3809 -3.3488
  193TIP3    H2  544   5.956   3.307   1.561 -0.4175 -0.1642  1.4655
  194TIP3   OH2  545   5.286   1.467   1.132  0.0200  0.3691 -0.1301
  194TIP3    H1  546   5.221   1.492   1.067  0.4027 -0.6695 -0.9372
  194TIP3    H2  547   5.367   1.509   1.102 -0.1395  1.2103  0.5730
  195TIP3   OH2  548   6.138   4.149   2.106 -0.4760  0.2020  0.3269
  195TIP3    H1  549   6.109   4.094   2.034  1.9757 -2.2381  1.0623
  195TIP3    H2  550   6.093   4.114   2.183 -0.7921  0.8601  0.4524
  196TIP3   OH2  551   5.803   5.321   0.586 -0.1254 -0.2896  0.6109
  196TIP3    H1  552   5.858   5.379   0.533  0.8179  0.7315  2.6030
  196TIP3    H2  553   5.725   5.373   0.604 -0.0549 -0.3075  0.9581
  197TIP3   OH2  554   3.380   4.149   0.535  0.1823  0.2077  0.1648
  197TIP3    H1  555   3.425   4.226   0.570 -1.8579  1.1047  0.9423
  197TIP3    H2  556   3.300   4.183   0.495 -0.7001 -1.4834  0.3896
  198TIP3   OH2  557   0.837   6.125   2.581 -0.5087 -0.0178 -0.2939
  198TIP3    H1  558   0.753   6.122   2.536  0.6048 -1.0708 -2.4692
  198TIP3    H2  559   0.866   6.034   2.584  0.5204  0.3165  0.5158
  199TIP3   OH2  560   0.413   1.659   1.375 -0.1670  0.3797  0.1836
  199TIP3    H1  561   0.499   1.689   1.344 -0.0532 -0.8930 -0.7762
  199TIP3    H2  562   0.433   1.597   1.445 -0.3843  1.6936  1.4660
  200TIP3   OH2  563   3.107   4.818   3.686 -0.2249 -0.2859  0.7333
  200TIP3    H1  564   3.114   4.899   3.636 -0.1731 -0.2774  0.7540
  200TIP3    H2  565   3.022   4.782   3.660 -0.4048 -0.0511  0.9843
  201TIP3   OH2  566   6.211   0.444   3.960  0.0868  0.4760  0.2188
  201TIP3    H1  567   6.266   0.386   4.012  0.8861 -0.3374 -1.4963
  201TIP3    H2  568   6.222   0.530   4.001  0.2199 -0.2376  1.7419
  202TIP3   OH2  569   6.597   2.909   0.872 -0.0739 -0.1423 -0.2629
  202TIP3    H1  570   6.565   2.949   0.953  0.6834 -0.9521  0.4548
  202TIP3    H2  571   6.672   2.963   0.848 -0.7677  0.5745 -0.8755
  203TIP3   OH2  572   6.259   1.271   0.737  0.5773 -0.0346 -0.3760
  203TIP3    H1  573   6.286   1.181   0.755  0.6426 -0.1184 -0.8770
  203TIP3    H2  574   6.184   1.286   0.794  0.3716 -0.5122 -0.5184
  204TIP3   OH2  575   2.057   6.625   4.581  0.3454  0.2794  0.2320
  204TIP3    H1  576   1.999   6.701   4.574 -1.1406 -0.9438 -1.6743
  204TIP3    H2  577   2.064   6.608   4.675 -2.6348  0.3041  0.5348
  205TIP3   OH2  578   1.936   3.497   5.263 -0.2912  0.1679 -0.1849
  205TIP3    H1  579   1.852   3.493   5.309 -0.6275  0.4212 -0.7654
  205TIP3    H2  580   1.973   3.410   5.273 -0.0419  0.4003  1.1332
  206TIP3   OH2  581   2.454   3.830   3.887 -0.6369  0.0144  0.1842
  206TIP3    H1  582   2.406   3.769   3.943 -0.7866 -1.5314 -1.5450
  206TIP3    H2  583   2.393   3.851   3.816  0.7032 -0.8708 -1.2955
  207TIP3   OH2  584   1.861   3.265   2.687  0.1367 -0.0889 -0.2308
  207TIP3    H1  585   1.956   3.272   2.690  0.0543  1.0252  1.7485
  207TIP3    H2  586   1.833   3.336   2.630  0.4790 -0.3772 -0.7645
  208TIP3   OH2  587   6.569   0.926   1.865 -0.1400  0.2028 -0.8139
  208TIP3    H1  588   6.577   0.919   1.770  0.1916 -0.2778 -0.7571
  208TIP3    H2  589   6.570   1.020   1.883  1.8246  0.2840 -1.1244
  209TIP3   OH2  590   4.216   4.391   1.715 -0.1428  0.7273  0.1293
  209TIP3    H1  591   4.304   4.428   1.723  0.1609  0.1273 -0.3874
  209TIP3    H2  592   4.177   4.405   1.802  0.9809 -0.3166  0.8359
  210TIP3   OH2  593   1.186   0.957   3.521 -0.1284  0.2185 -1.0888
  210TIP3    H1  594   1.260   0.897   3.517 -0.7808 -0.6111 -1.0059
  210TIP3    H2  595   1.135   0.927   3.597 -0.6958  0.5938 -1.3170
  211TIP3   OH2  596   5.224   0.128   0.460  0.2489 -0.2249 -0.2637
  211TIP3    H1  597   5.153   0.077   0.421  0.6642 -0.9534 -0.0882
  211TIP3    H2  598   5.278   0.155   0.386  0.0895 -0.1323 -0.3469
  212TIP3   OH2  599   5.495   3.527   4.878 -0.3699  0.2360 -0.6747
  212TIP3    H1  600   5.517   3.450   4.931 -1.7965  0.5859  0.5250
  212TIP3    H2  601   5.560   3.593   4.902 -0.6157  0.1759  0.2029
  213TIP3   OH2  602   1.124   0.538   0.510 -0.5057  0.4276 -0.5879
  213TIP3    H1  603   1.149   0.594   0.436  0.4146 -1.6639 -1.9603
  213TIP3    H2  604   1.070   0.470   0.471 -1.2359  0.0748  0.9536
  214TIP3   OH2  605   2.354   4.213   3.103  0.0206 -0.2739 -0.5211
  214TIP3    H1  606   2.388   4.298   3.130 -0.8304  0.5554 -1.9713
  214TIP3    H2  607   2.387   4.152   3.170  0.5347  1.1930  0.6193
  215TIP3   OH2  608   0.042   1.197   4.194 -0.2141 -0.2572  0.0238
  215TIP3    H1  609   0.072   1.246   4.271  0.5545 -1.2482  0.3808
  215TIP3    H2  610   0.028   1.264   4.127 -3.1794  0.9452  1.6638
  216TIP3   OH2  611   6.388   0.802   5.202  0.0786 -0.5655 -0.6034
  216TIP3    H1  612   6.367   0.852   5.280 -2.5362 -2.7687  0.2619
  216TIP3    H2  613   6.411   0.715   5.234 -0.6078 -1.3916 -2.2496
  217TIP3   OH2  614   1.251   1.041   1.851  0.4046  0.3994  0.7957
  217TIP3    H1  615   1.298   1.116   1.888  1.1034 -0.1257  1.0198
  217TIP3    H2  616   1.321   0.985   1.816 -0.1880  0.4790 -0.5692
  218TIP3   OH2  617   5.181   0.346   3.920 -0.2755  0.0212  0.2897
  218TIP3    H1  618   5.157   0.303   4.002  0.0066  0.5119  0.6352
  218TIP3    H2  619   5.265   0.306   3.896 -0.1428  0.1842  0.4740
  219TIP3   OH2  620   5.117   4.394   3.650  0.2021 -0.5778 -0.3475
  219TIP3    H1  621   5.177   4.460   3.685 -0.1758 -1.2560  1.6962
  219TIP3    H2  622   5.156   4.369   3.566  1.8795  0.1853  0.1591
  220TIP3   OH2  623   3.357   5.634   0.432  0.6004 -0.3990 -0.2695
  220TIP3    H1  624   3.270   5.641   0.392  1.0367 -0.4125 -1.2489
  220TIP3    H2  625   3.404   5.712   0.401  1.8220 -1.7292 -2.0322
  221TIP3   OH2  626   4.394   6.210   5.321 -0.1171 -0.2193 -0.3108
  221TIP3    H1  627   4.482   6.189   5.289  0.0111 -0.3202  0.0998
  221TIP3    H2  628   4.406   6.226   5.414 -0.0096  2.8256 -0.7519
  222TIP3   OH2  629   5.162   4.682   1.606  0.6147 -0.5637 -0.2035
  222TIP3    H1  630   5.210   4.604   1.634 -1.0026 -1.7883 -0.7339
  222TIP3    H2  631   5.115   4.710   1.685 -0.2174 -1.2168 -0.4522
  223TIP3   OH2  632   4.607   4.276   2.633  0.3088  0.5943  1.3732
  223TIP3    H1  633   4.559   4.279   2.716 -1.0103  0.8256  0.6398
  223TIP3    H2  634   4.559   4.337   2.577 -0.4297 -1.4806 -0.3800
  224TIP3   OH2  635   1.786   5.001   5.637 -0.5053  0.1596 -0.2302
  224TIP3    H1  636   1.744   4.953   5.709 -2.9156 -1.3334 -2.4381
  224TIP3    H2  637   1.784   5.093   5.665  0.9622 -0.5738  2.6021
  225TIP3   OH2  638   6.351   2.850   2.031 -0.3758 -0.4824  0.3250
  225TIP3    H1  639   6.384   2.940   2.028  2.3118 -1.3132  1.4474
  225TIP3    H2  640   6.324   2.837   2.122 -1.0943 -0.7246  0.0863
  226TIP3   OH2  641   0.104   0.325   0.154 -0.1234 -0.1878  0.4932
  226TIP3    H1  642   0.156   0.244   0.150 -1.1540 -1.0205  2.5158
  226TIP3    H2  643   0.038   0.314   0.085  0.8110 -0.2423 -0.4207
  227TIP3   OH2  644   4.911   0.063   1.607  0.4925 -0.1735 -0.0856
  227TIP3    H1  645   4.876  -0.003   1.546  1.4266  1.1387 -2.1450
  227TIP3    H2  646   4.978   0.015   1.657  0.5010 -1.0260 -0.8735
  228TIP3   OH2  647   0.964   2.361   2.192 -0.1744 -0.5805 -0.5115
  228TIP3    H1  648   1.019   2.379   2.115  1.5209 -0.7884  0.5982
  228TIP3    H2  649   1.004   2.284   2.232 -1.5522 -0.9900  0.1336
  229TIP3   OH2  650   1.069   2.117   2.547 -0.6745 -0.2098 -0.3831
  229TIP3    H1  651   1.163   2.107   2.562 -0.5066  1.5195 -0.0915
  229TIP3    H2  652   1.039   2.029   2.526  0.7951 -1.0303  0.7124
  230TIP3   OH2  653   6.022   4.463   4.147 -0.4048  0.0089  0.5374
  230TIP3    H1  654   5.946   4.421   4.186  0.6245 -0.2843  2.3493
  230TIP3    H2  655   6.036   4.542   4.201  0.1097  0.4744 -0.2573
  231TIP3   OH2  656   3.483   2.839   0.423 -0.0301 -0.1622 -0.3678
  231TIP3    H1  657   3.423   2.794   0.483  0.2353 -0.1715 -0.1064
  231TIP3    H2  658   3.465   2.801   0.338  0.7727 -1.3722 -0.0253
  232TIP3   OH2  659   4.946   1.641   5.683 -0.1367 -0.5182 -0.2897
  232TIP3    H1  660   4.853   1.658   5.697  0.0726  0.5848 -0.1804
  232TIP3    H2  661   4.967   1.691   5.604  0.7789  0.7418  0.7281
  233TIP3   OH2  662   0.136   1.537   5.401 -0.0896  0.3483  0.0139
  233TIP3    H1  663   0.208   1.519   5.461  0.5137 -0.2454 -0.8741
  233TIP3    H2  664   0.062   1.488   5.438 -0.1048  1.0979  1.0201
  234TIP3   OH2  665   1.442   6.268   1.268 -0.2646  0.5426  0.0095
  234TIP3    H1  666   1.452   6.361   1.284 -3.3021  1.5171 -2.6288
  234TIP3    H2  667   1.489   6.253   1.185 -2.3559  0.5481 -1.2527
  235TIP3   OH2  668   2.544   1.661   4.227 -0.2129  0.0908 -0.2234
  235TIP3    H1  669   2.545   1.689   4.135  1.8205 -0.0101 -0.2668
  235TIP3    H2  670   2.634   1.671   4.256 -0.9812  1.0312  2.0672
  236TIP3   OH2  671   3.665   2.628   4.402  0.1136 -0.6957  0.4580
  236TIP3    H1  672   3.621   2.613   4.486  1.2846  1.4106  1.5271
  236TIP3    H2  673   3.758   2.616   4.422  0.5375  1.3868 -0.1257
  237TIP3   OH2  674   7.120   1.617   4.068  0.2787  0.1393  0.1741
  237TIP3    H1  675   7.042   1.587   4.023  0.4737  3.1702 -2.6087
  237TIP3    H2  676   7.094   1.625   4.159 -1.8084 -1.4328 -0.2191
  238TIP3   OH2  677   0.171   0.794   1.530  0.2187 -0.0867 -0.2352
  238TIP3    H1  678   0.123   0.838   1.459  1.1314  0.4944 -0.5131
  238TIP3    H2  679   0.171   0.858   1.601 -1.3303 -0.9489  0.5889
  239TIP3   OH2  680   0.435   3.933   5.372  0.1006  0.1251  0.6032
  239TIP3    H1  681   0.401   3.897   5.454 -0.0340 -2.6634 -0.5777
  239TIP3    H2  682   0.527   3.952   5.390  0.1507 -0.7498  1.3313
  240TIP3   OH2  683   3.076   3.728   2.395 -0.1244  0.1831  0.1884
  240TIP3    H1  684   2.986   3.699   2.378  0.0851  0.8323 -2.5543
  240TIP3    H2  685   3.072   3.823   2.389  0.7411  0.2195  0.0509
  241TIP3   OH2  686   5.961   5.265   4.687  0.0564  0.7485 -0.2358
  241TIP3    H1  687   6.009   5.343   4.715  0.8741  0.6065 -1.2187
  241TIP3    H2  688   5.888   5.259   4.749 -0.5802  2.8376 -0.6968
  242TIP3   OH2  689   6.315   4.233   4.626 -0.4179 -0.2233  0.3017
  242TIP3    H1  690   6.349   4.236   4.716 -0.9450  0.8081  0.4703
  242TIP3    H2  691   6.394   4.236   4.571 -0.0943 -0.8435  0.7131
  243TIP3   OH2  692   2.604   2.717   4.407 -0.0349  0.1691 -0.7724
  243TIP3    H1  693   2.591   2.642   4.466 -2.0158 -0.2531 -1.6787
  243TIP3    H2  694   2.585   2.793   4.462  0.0359 -0.1005 -0.3632
  244TIP3   OH2  695   6.610   5.409   5.119 -0.0353  0.0970 -0.4738
  244TIP3    H1  696   6.532   5.464   5.111  0.2745  0.5574 -0.3576
  244TIP3    H2  697   6.583   5.338   5.177 -0.0717  0.7973  0.3785
  245TIP3   OH2  698   0.937   0.571   2.135  0.0775 -0.3439 -0.1471
  245TIP3    H1  699   1.029   0.553   2.115  0.1281  1.6239 -2.0168
  245TIP3    H2  700   0.888   0.510   2.081  0.2457 -1.4114  0.8674
  246TIP3   OH2  701   1.768   3.169   1.581  0.3396  0.2283  1.0797
  246TIP3    H1  702   1.806   3.096   1.532  0.5154  2.3752 -2.3490
  246TIP3    H2  703   1.843   3.211   1.624  1.4825  2.0220 -2.2766
  247TIP3   OH2  704   3.631   0.864   1.967  0.0353  0.4995  0.0628
  247TIP3    H1  705   3.669   0.787   2.009  0.4842  0.5980 -0.1507
  247TIP3    H2  706   3.675   0.869   1.882  1.6158  2.2058  0.8921
  248TIP3   OH2  707   5.021   6.120   2.083 -0.1696  0.3030 -0.0320
  248TIP3    H1  708   5.042   6.075   2.165  0.5624 -0.5871 -0.6733
  248TIP3    H2  709   4.992   6.207   2.109 -0.8623 -0.2771  1.2193
  249TIP3   OH2  710   1.741   3.029   4.385 -0.1614 -0.7416  0.6313
  249TIP3    H1  711   1.694   3.107   4.415 -0.2530 -1.4031  2.2879
  249TIP3    H2  712   1.831   3.060   4.371 -0.3126 -0.2289  0.7672
  250TIP3   OH2  713   6.121   4.062   0.370  0.2187 -0.3438 -0.1798
  250TIP3    H1  714   6.183   3.994   0.395  0.4022 -0.4434 -0.8862
  250TIP3    H2  715   6.149   4.139   0.420  1.4676 -0.1470 -1.1248
  251TIP3   OH2  716   1.288   6.761   5.155 -0.0430  0.6250  0.4910
  251TIP3    H1  717   1.255   6.691   5.098 -0.6202  1.0773  0.2512
  251TIP3    H2  718   1.211   6.789   5.205  0.3680  0.5233  1.1955
  252TIP3   OH2  719   6.816   3.154   4.011  0.8670  0.2336 -0.4825
  252TIP3    H1  720   6.868   3.202   3.946 -0.1881  1.9605 -0.1025
  252TIP3    H2  721   6.729   3.193   4.005  1.0274  1.3313  2.8049
  253TIP3   OH2  722   2.754   1.535   0.586 -0.0185  0.3086 -0.2142
  253TIP3    H1  723   2.765   1.524   0.680 -1.2326  0.0805 -0.0818
  253TIP3    H2  724   2.660   1.521   0.571  0.2329 -0.1456 -1.5188
  254TIP3   OH2  725   6.369   0.795   5.726 -0.1600  0.1257 -0.6970
  254TIP3    H1  726   6.379   0.700   5.717 -1.6656 -0.2977  1.3352
  254TIP3    H2  727   6.457   0.827   5.748  0.0077 -1.1101  0.5851
  255TIP3   OH2  728   1.572   1.498   5.177 -0.5751 -0.2768 -0.0425
  255TIP3    H1  729   1.663   1.469   5.170 -0.8501 -0.7636 -2.3702
  255TIP3    H2  730   1.534   1.480   5.091 -3.1847 -1.1115  1.1614
  256TIP3   OH2  731   5.223   3.500   5.251 -0.1235 -0.4354  0.6870
  256TIP3    H1  732   5.208   3.584   5.207 -0.7005 -1.1040 -0.4339
  256TIP3    H2  733   5.224   3.522   5.344 -2.1934  0.5685  0.5322
  257TIP3   OH2  734   3.452   5.489   4.722 -0.1342 -0.0035 -0.2896
  257TIP3    H1  735   3.450   5.532   4.636 -1.4524 -1.2890 -0.9382
  257TIP3    H2  736   3.433   5.560   4.784  1.4679  1.0759 -0.9514
  258TIP3   OH2  737   2.813   1.827   1.602 -0.8648  0.4920 -0.0791
  258TIP3    H1  738   2.824   1.733   1.591 -1.4165  0.6020 -1.8416
  258TIP3    H2  739   2.718   1.841   1.594 -0.6321  1.3763 -1.6257
  259TIP3   OH2  740   0.594   3.642   3.525  0.0095  0.3647 -0.1497
  259TIP3    H1  741   0.574   3.604   3.439  0.0343 -0.8051  0.3548
  259TIP3    H2  742   0.659   3.710   3.506 -1.0380  1.1260 -1.2381
  260TIP3   OH2  743   6.553   1.094   5.732 -0.3941  0.3863 -0.7354
  260TIP3    H1  744   6.465   1.065   5.758 -0.2539  1.1946  0.7723
  260TIP3    H2  745   6.539   1.175   5.684 -0.4979  0.3529 -0.7616
  261TIP3   OH2  746   0.727   2.334   5.049  0.4181 -0.5061  0.1028
  261TIP3    H1  747   0.692   2.416   5.084 -0.9020 -0.5206 -1.0926
  261TIP3    H2  748   0.728   2.274   5.123 -0.0596  0.1458  0.6387
  262TIP3   OH2  749   3.380   6.177   0.269  0.2579  0.0132 -0.1302
  262TIP3    H1  750   3.308   6.116   0.289  2.5618 -2.5049  1.0930
  262TIP3    H2  751   3.366   6.250   0.329 -1.5705 -0.1051 -0.3425
  263TIP3   OH2  752   7.161   0.442   4.719  0.2049  0.5825  0.3288
  263TIP3    H1  753   7.080   0.393   4.735  0.6837  0.2954  1.9991
  263TIP3    H2  754   7.139   0.533   4.738  0.5613  0.3492  1.9285
  264TIP3   OH2  755   2.138   5.246   3.319  0.4425  0.1100 -0.1534
  264TIP3    H1  756   2.095   5.168   3.354 -1.2165  0.7487 -0.6566
  264TIP3    H2  757   2.188   5.215   3.243 -1.4248 -0.2793 -1.2844
  265TIP3   OH2  758   3.389   5.053   0.117  0.1459  0.3635 -0.2455
  265TIP3    H1  759   3.358   5.144   0.126 -0.5265  0.1927 -0.7285
  265TIP3    H2  760   3.483   5.058   0.134 -0.0364  1.0001  0.7013
  266TIP3   OH2  761   0.181   2.944   4.652 -0.0404 -0.1660 -0.0999
  266TIP3    H1  762   0.234   2.919   4.576  1.8611  2.1189  0.3480
  266TIP3    H2  763   0.233   2.917   4.728 -0.2576  0.6726  0.3548
  267TIP3   OH2  764   6.468   0.019   2.339 -0.8696 -0.2799 -0.2970
  267TIP3    H1  765   6.525  -0.057   2.353 -1.0988 -0.2518  0.8794
  267TIP3    H2  766   6.528   0.092   2.323 -0.5611 -0.2860  0.7595
  268TIP3   OH2  767   4.896   5.144   2.006  0.6883  0.1822 -0.4406
  268TIP3    H1  768   4.804   5.169   2.007  0.5183 -0.3921  1.3435
  268TIP3    H2  769   4.901   5.069   2.065  2.2909  0.1551 -0.5687
  269TIP3   OH2  770   3.701   3.755   4.536 -0.0221 -0.1749 -0.2721
  269TIP3    H1  771   3.690   3.696   4.610  2.1856  0.6628  0.8391
  269TIP3    H2  772   3.791   3.742   4.508  0.4142  2.2547 -0.2754
  270TIP3   OH2  773   6.122   4.318   0.110 -0.1405 -0.1775 -0.8900
  270TIP3    H1  774   6.159   4.367   0.183 -1.2668 -0.2203 -0.2622
  270TIP3    H2  775   6.055   4.376   0.074 -0.0361 -0.4183 -1.4909
  271TIP3   OH2  776   4.768   1.857   2.629 -0.5659  0.6436 -0.6891
  271TIP3    H1  777   4.766   1.936   2.575  3.0300 -1.0728 -3.8673
  271TIP3    H2  778   4.733   1.788   2.572 -0.4289 -0.6067  0.6809
  272TIP3   OH2  779   4.716   3.535   4.495 -0.6229 -0.0447 -0.2027
  272TIP3    H1  780   4.696   3.578   4.412 -0.6564  0.4412  0.0529
  272TIP3    H2  781   4.678   3.593   4.561  0.6519  0.3233  0.2293
  273TIP3   OH2  782   5.585   2.310   3.427 -0.5006 -0.2289  0.1186
  273TIP3    H1  783   5.549   2.256   3.497 -1.5910  0.4324  0.0956
  273TIP3    H2  784   5.560   2.400   3.450  0.9711  0.2474 -0.0254
  274TIP3   OH2  785   6.116  -0.000   3.221  0.2252  0.2763  0.1196
  274TIP3    H1  786   6.070   0.046   3.151  0.6681  1.6096  0.6718
  274TIP3    H2  787   6.188  -0.045   3.177  0.2481  0.7520 -0.3364
  275TIP3   OH2  788   3.632   3.418   3.098  0.1421 -0.0279  0.4099
  275TIP3    H1  789   3.540   3.397   3.112 -0.3693 -1.9760 -4.1689
  275TIP3    H2  790   3.678   3.370   3.168 -2.1375 -2.6467  0.2882
  276TIP3   OH2  791   3.440   0.860   2.933  0.7586  0.1203  0.3868
  276TIP3    H1  792   3.375   0.914   2.889  0.2546 -0.2848  0.6181
  276TIP3    H2  793   3.388   0.794   2.980  1.3698 -0.9226 -0.3538
  277TIP3   OH2  794   7.024   1.837   5.731 -0.0103 -0.0351  0.3406
  277TIP3    H1  795   6.956   1.805   5.790  2.1124 -0.8855  2.4916
  277TIP3    H2  796   7.018   1.932   5.737 -1.5219 -0.0635 -0.2094
  278TIP3   OH2  797   3.941   0.131   0.023  0.0027  0.0554 -0.1531
  278TIP3    H1  798   3.998   0.207   0.034  0.1633 -0.0767 -0.0549
  278TIP3    H2  799   3.884   0.153  -0.051  1.8262 -0.7746 -1.9061
  279TIP3   OH2  800   5.396   3.789   1.351  0.0995  0.3546 -0.1013
  279TIP3    H1  801   5.485   3.761   1.372 -0.8051 -2.1182  0.8314
  279TIP3    H2  802   5.358   3.715   1.304 -1.8061  0.8643  0.5513
  280TIP3   OH2  803   5.049   5.843   5.739  0.1344  0.0004  0.3199
  280TIP3    H1  804   5.130   5.876   5.777 -1.7825  2.2359  2.8023
  280TIP3    H2  805   5.029   5.764   5.790  1.0568 -1.0257 -0.8308
  281TIP3   OH2  806   3.109   4.449   2.900  0.1928  0.4229 -0.5044
  281TIP3    H1  807   3.101   4.498   2.981  0.3727  1.8743 -1.3304
  281TIP3    H2  808   3.018   4.433   2.872  0.1356  0.6262 -0.4326
  282TIP3   OH2  809   6.673   0.266   4.877 -0.1756  0.1341  0.5758
  282TIP3    H1  810   6.676   0.358   4.900  2.2690  0.5925 -1.1169
  282TIP3    H2  811   6.664   0.220   4.961 -1.9788  1.8614  1.3965
  283TIP3   OH2  812   1.898   3.324   2.224  0.2317 -0.1525 -0.1455
  283TIP3    H1  813   1.837   3.250   2.229  0.0690  0.0879  3.1488
  283TIP3    H2  814   1.984   3.284   2.214 -0.0607 -0.6392 -0.8465
  284TIP3   OH2  815   7.153   0.686   5.386  0.3148 -0.7417  0.1325
  284TIP3    H1  816   7.111   0.763   5.349  0.2786 -1.0577 -0.5027
  284TIP3    H2  817   7.224   0.720   5.441 -0.3947 -0.2251  0.7467
  285TIP3   OH2  818   3.836   0.657   1.523  0.1419  0.1861 -0.4332
  285TIP3    H1  819   3.860   0.743   1.487  2.1656  0.4017  1.2400
  285TIP3    H2  820   3.853   0.596   1.452  1.7799  0.8512 -0.6593
  286TIP3   OH2  821   6.200   0.459   2.044  0.1404  0.4356 -0.0218
  286TIP3    H1  822   6.192   0.530   2.108  1.9062 -0.0265  0.7606
  286TIP3    H2  823   6.254   0.393   2.088 -2.9346 -2.3036  0.0170
  287TIP3   OH2  824   0.599   3.797   4.617  0.0329  0.0428  0.1397
  287TIP3    H1  825   0.596   3.745   4.537  0.1037  1.2100 -0.6385
  287TIP3    H2  826   0.690   3.789   4.648 -0.3715 -1.7155  1.0268
  288TIP3   OH2  827   1.748   5.197   2.428 -0.4116  0.7712 -0.0854
  288TIP3    H1  828   1.690   5.226   2.499 -0.2939 -0.6409  0.6312
  288TIP3    H2  829   1.831   5.179   2.471 -0.3076 -0.0007 -0.5971
  289TIP3   OH2  830   6.926   2.257   5.416  0.3809  0.1861  0.1205
  289TIP3    H1  831   6.916   2.279   5.509 -0.0334 -4.1598  1.3189
  289TIP3    H2  832   7.019   2.239   5.406  0.4732  0.9273 -0.4297
  290TIP3   OH2  833   0.219   0.587   4.183  0.3588 -0.2619 -0.2212
  290TIP3    H1  834   0.249   0.658   4.126  0.6209  0.3809  0.7027
  290TIP3    H2  835   0.166   0.531   4.125 -0.0347  0.7883 -0.9146
  291TIP3   OH2  836   6.870   3.738   1.217 -0.0590  0.3719 -0.6653
  291TIP3    H1  837   6.885   3.766   1.308  0.0875 -0.7050 -0.3366
  291TIP3    H2  838   6.814   3.806   1.180  0.5485  1.2499 -0.0171
  292TIP3   OH2  839   5.384   4.018   4.302 -0.0754 -0.7464  0.4554
  292TIP3    H1  840   5.463   4.053   4.344  1.6193 -1.4759 -1.8660
  292TIP3    H2  841   5.346   4.093   4.257 -0.6328 -0.4213  1.4576
  293TIP3   OH2  842   6.233   4.760   1.579  0.0846 -0.1481  0.2119
  293TIP3    H1  843   6.246   4.725   1.667 -1.9815  1.0098  1.0465
  293TIP3    H2  844   6.211   4.852   1.593 -0.4437  0.0252 -1.5055
  294TIP3   OH2  845   2.125   5.800   3.384  0.4135  0.4184 -0.1508
  294TIP3    H1  846   2.080   5.771   3.305  0.2759  1.2432 -0.3830
  294TIP3    H2  847   2.104   5.733   3.450 -0.5679  0.4229 -0.4483
  295TIP3   OH2  848   3.550   3.757   1.522  0.5258  0.3474  0.3528
  295TIP3    H1  849   3.611   3.701   1.570 -0.6109 -0.7105  0.6092
  295TIP3    H2  850   3.551   3.724   1.432 -1.6470 -1.5173  0.9075
  296TIP3   OH2  851   6.794   4.897   5.533 -0.3076 -0.0731 -0.0459
  296TIP3    H1  852   6.722   4.856   5.485 -0.3962  0.9442 -0.8205
  296TIP3    H2  853   6.803   4.983   5.492  2.0692 -0.5731 -0.6850
  297TIP3   OH2  854   2.094   4.444   5.459  0.1883 -0.2307 -0.3679
  297TIP3    H1  855   2.002   4.459   5.484  0.1002  3.1213 -2.1633
  297TIP3    H2  856   2.141   4.441   5.543 -1.1646  1.6177  0.5314
  298TIP3   OH2  857   6.756   2.172   1.153 -0.2075  0.2249 -0.3088
  298TIP3    H1  858   6.777   2.084   1.123 -0.4796  0.0111  0.1170
  298TIP3    H2  859   6.834   2.224   1.135  1.1112 -0.7504  2.1435
  299TIP3   OH2  860   1.415   0.080   0.024 -0.3223  0.5236 -0.2857
  299TIP3    H1  861   1.410   0.047  -0.066  0.8785  0.6318 -0.4008
  299TIP3    H2  862   1.381   0.008   0.077 -0.6967  0.3178 -0.7871
  300TIP3   OH2  863   4.816   4.623   1.630  0.0028  0.3374 -0.2552
  300TIP3    H1  864   4.746   4.581   1.680 -0.2627 -0.1792 -1.0525
  300TIP3    H2  865   4.864   4.673   1.695  0.7108 -1.6794  0.8559
  301TIP3   OH2  866   0.132   3.687   2.643  0.3891  0.0255 -0.0416
  301TIP3    H1  867   0.113   3.700   2.550  0.5281  0.5940  0.0055
  301TIP3    H2  868   0.073   3.748   2.687  0.9930  0.4401  0.1978
  302TIP3   OH2  869   7.222   4.529   0.251  0.2560  0.3464  0.3200
  302TIP3    H1  870   7.172   4.516   0.169  1.1312  0.4589 -0.2438
  302TIP3    H2  871   7.188   4.462   0.310  0.1797 -0.2809 -0.4151
  303TIP3   OH2  872   5.402   2.466   1.798 -0.9750  0.2145 -0.1060
  303TIP3    H1  873   5.399   2.521   1.876  0.9373  0.6043 -0.2602
  303TIP3    H2  874   5.379   2.379   1.829  0.2569  0.2629  1.0246
  304TIP3   OH2  875   6.216   5.114   4.936 -0.2981 -0.1244  0.2581
  304TIP3    H1  876   6.199   5.207   4.919  1.2145 -0.0301 -0.9366
  304TIP3    H2  877   6.305   5.099   4.903 -0.6941 -2.1118 -0.0271
  305TIP3   OH2  878   7.166   3.923   3.023  0.1789 -0.1162  0.1177
  305TIP3    H1  879   7.161   4.010   2.985  1.1310  0.1935  0.6709
  305TIP3    H2  880   7.082   3.883   3.001  0.4882  0.2033 -1.8904
  306TIP3   OH2  881   6.085   3.205   0.999  0.4484  0.1273  0.1729
  306TIP3    H1  882   6.160   3.150   0.974 -0.3479 -0.7821 -0.2900
  306TIP3    H2  883   6.117   3.294   0.989  0.9385 -0.2209 -1.7943
  307TIP3   OH2  884   4.295   3.634   4.813  0.7099 -0.2127 -0.1345
  307TIP3    H1  885   4.253   3.564   4.763 -1.9978  1.2660 -0.0864
  307TIP3    H2  886   4.335   3.691   4.747  0.4403 -0.2899 -0.3624
  308TIP3   OH2  887   2.970   3.538   3.598  0.1539 -0.5250 -0.0755
  308TIP3    H1  888   2.998   3.570   3.684  0.8702  1.1518 -0.8905
  308TIP3    H2  889   2.887   3.581   3.582  0.8181  0.5003 -0.9101
  309TIP3   OH2  890   5.472   3.670   0.198 -0.0238 -0.0769  0.0971
  309TIP3    H1  891   5.524   3.623   0.134  1.0191  0.4813  0.5064
  309TIP3    H2  892   5.384   3.674   0.160  0.4896 -0.0562 -1.1255
  310TIP3   OH2  893   6.655   1.476   2.059  0.1095  0.7483 -0.9990
  310TIP3    H1  894   6.649   1.572   2.053  0.5499  0.8207 -0.4526
  310TIP3    H2  895   6.622   1.456   2.147  0.5218  0.4545 -0.9068
  311TIP3   OH2  896   2.390   3.165   5.570  0.0008  0.2402 -0.0511
  311TIP3    H1  897   2.326   3.164   5.641  0.2884 -0.6206  0.2080
  311TIP3    H2  898   2.395   3.074   5.541 -1.4267  0.7900 -2.3870
  312TIP3   OH2  899   2.250   2.862   4.521 -0.1645  0.4056 -0.0618
  312TIP3    H1  900   2.342   2.880   4.542  0.0536  1.5639 -1.7772
  312TIP3    H2  901   2.249   2.773   4.488  0.2008  0.1245  0.6613
  313TIP3   OH2  902   0.449   2.050   2.845 -0.5721  0.1494 -0.3526
  313TIP3    H1  903   0.480   1.984   2.907 -0.1021  0.9447  0.2921
  313TIP3    H2  904   0.415   2.120   2.900  2.3620  2.1302 -0.7835
  314TIP3   OH2  905   1.536   4.481   0.644  0.3027 -0.0294 -0.1621
  314TIP3    H1  906   1.520   4.545   0.714  2.4369 -0.0889  0.4509
  314TIP3    H2  907   1.512   4.526   0.564  0.4890  1.0757  0.3847
  315TIP3   OH2  908   6.327   5.332   3.762 -0.3857  0.2919  0.0646
  315TIP3    H1  909   6.256   5.342   3.698 -0.7011  1.9988  0.6169
  315TIP3    H2  910   6.341   5.421   3.795  1.1678 -0.2292  0.8777
  316TIP3   OH2  911   0.236   2.907   3.100 -0.0523 -0.4127  0.2559
  316TIP3    H1  912   0.191   2.938   3.021  0.7560  1.0769  0.3518
  316TIP3    H2  913   0.176   2.930   3.171 -1.3591 -2.8668  0.0423
  317TIP3   OH2  914   2.690   1.099   2.939  0.1359 -0.2295 -0.0483
  317TIP3    H1  915   2.708   1.173   2.882  2.2686  0.3822  1.3267
  317TIP3    H2  916   2.608   1.121   2.983  0.1948  0.7997 -0.4451
  318TIP3   OH2  917   6.158   0.738   1.516  0.0993  0.6800 -0.1007
  318TIP3    H1  918   6.110   0.668   1.470  1.4156  0.7934 -1.7523
  318TIP3    H2  919   6.105   0.816   1.501 -1.0002  0.2230  1.1336
  319TIP3   OH2  920   3.867   0.984   3.973  0.3117  0.1792  0.2107
  319TIP3    H1  921   3.781   0.941   3.975  0.0370  0.3871 -2.8416
  319TIP3    H2  922   3.905   0.958   3.889  2.5161  1.4932  0.7253
  320TIP3   OH2  923   0.425   6.787   3.076 -0.8915 -0.6625  0.5075
  320TIP3    H1  924   0.447   6.860   3.133  2.0427 -1.5795  0.7502
  320TIP3    H2  925   0.455   6.710   3.123 -2.3654 -1.8808 -0.4554
  321TIP3   OH2  926   1.589   5.609   4.485 -0.1809 -0.0066 -0.8379
  321TIP3    H1  927   1.575   5.699   4.456  0.2693  0.5040  0.4409
  321TIP3    H2  928   1.623   5.618   4.574 -2.7918 -1.5157  0.4031
  322TIP3   OH2  929   3.431   0.994   2.618 -0.4124  0.1372 -0.0456
  322TIP3    H1  930   3.363   1.041   2.666 -2.1928 -0.7958 -1.5191
  322TIP3    H2  931   3.420   0.902   2.645 -0.2928 -0.1398 -0.8980
  323TIP3   OH2  932   0.327   4.175  -0.008 -0.1931  0.0470 -0.1374
  323TIP3    H1  933   0.322   4.270  -0.001 -1.9082 -0.0947  1.4161
  323TIP3    H2  934   0.398   4.150   0.050  1.4551  0.4261 -1.8749
  324TIP3   OH2  935   6.481   3.803   4.678 -0.2199  0.1723 -0.0989
  324TIP3    H1  936   6.535   3.731   4.710 -0.2162  0.3183  0.2203
  324TIP3    H2  937   6.526   3.882   4.706 -0.1123  0.3066 -0.6292
  325TIP3   OH2  938   1.882   1.222   2.622 -0.1457 -0.3860 -0.5834
  325TIP3    H1  939   1.828   1.286   2.669  0.7389 -0.1682  0.1596
  325TIP3    H2  940   1.838   1.138   2.636 -1.1998  0.0101 -1.3873
  326TIP3   OH2  941   1.185   5.449   3.798 -0.2881  0.0240  0.1354
  326TIP3    H1  942   1.137   5.421   3.876  1.8812 -0.9145  1.2094
  326TIP3    H2  943   1.192   5.370   3.744  1.6384 -0.3515  0.8838
  327TIP3   OH2  944   0.572   5.695   2.468 -0.0717 -0.1686 -0.3573
  327TIP3    H1  945   0.627   5.671   2.394  0.1853 -1.8100  0.3149
  327TIP3    H2  946   0.498   5.634   2.464 -0.9566  0.8699 -0.2554
  328TIP3   OH2  947   2.025   3.427   4.046  0.5139  0.7308  0.7666
  328TIP3    H1  948   2.052   3.397   3.960  0.5735 -0.2069  1.1012
  328TIP3    H2  949   2.012   3.521   4.036 -0.8406  0.4295 -0.6278
  329TIP3   OH2  950   7.001   0.189   4.791 -0.1546  0.3356 -0.7376
  329TIP3    H1  951   6.950   0.139   4.727 -0.3728  1.2978 -1.3220
  329TIP3    H2  952   6.949   0.183   4.871 -1.5782  1.8591 -1.4907
  330TIP3   OH2  953   5.516   3.985   2.708  0.2053 -0.0053  0.4623
  330TIP3    H1  954   5.550   3.947   2.789 -2.3754 -0.5096  1.4021
  330TIP3    H2  955   5.566   4.066   2.697  4.3600 -2.3585 -0.4343
  331TIP3   OH2  956   3.618   0.224   0.297 -0.4409  0.0884 -0.1695
  331TIP3    H1  957   3.684   0.168   0.257  0.0423  0.3455  0.2682
  331TIP3    H2  958   3.589   0.176   0.374 -2.3414 -1.0391 -1.4890
  332TIP3   OH2  959   0.863   2.526   3.604  0.3467 -0.4235  0.3485
  332TIP3    H1  960   0.909   2.588   3.661  0.1180  1.2569 -1.2074
  332TIP3    H2  961   0.916   2.523   3.524 -0.3615 -1.2165 -0.1053
  333TIP3   OH2  962   2.047   1.959   4.943 -0.3274  0.0528  0.0560
  333TIP3    H1  963   2.077   1.947   4.853 -0.7820 -2.6939  0.1797
  333TIP3    H2  964   2.094   2.037   4.973  0.8219  0.2956 -2.1272
  334TIP3   OH2  965   6.995   4.745   0.086 -0.5683  0.0032  0.0876
  334TIP3    H1  966   7.009   4.650   0.088 -2.0771 -0.2698 -0.6399
  334TIP3    H2  967   6.946   4.760   0.004  0.1754  1.4909 -0.1090
  335TIP3   OH2  968   0.806   4.274   4.765  0.1862 -0.3832  0.0425
  335TIP3    H1  969   0.723   4.230   4.747 -0.7796  1.4219 -0.1887
  335TIP3    H2  970   0.790   4.366   4.741  1.5580  0.4445  2.0084
  336TIP3   OH2  971   4.324   6.123   2.059  0.3350  0.0556  0.0864
  336TIP3    H1  972   4.237   6.132   2.018 -0.0002 -0.9625  0.5635
  336TIP3    H2  973   4.349   6.032   2.044  1.1572  0.2391  0.2963
  337TIP3   OH2  974   4.085   3.663   0.789 -0.1338  0.7093 -0.4251
  337TIP3    H1  975   4.072   3.582   0.740  2.4937  0.8837 -1.5860
  337TIP3    H2  976   4.120   3.633   0.874  2.8426  0.5754 -1.5930
  338TIP3   OH2  977   1.648   5.746   1.248 -0.3557 -0.1136  0.2601
  338TIP3    H1  978   1.642   5.713   1.337 -2.5958 -1.5204 -0.3438
  338TIP3    H2  979   1.740   5.769   1.237  0.4267 -2.0329  2.1947
  339TIP3   OH2  980   1.654   4.875   1.110  0.0176 -0.1660  0.5145
  339TIP3    H1  981   1.692   4.828   1.184  2.5647  0.3427 -0.3489
  339TIP3    H2  982   1.675   4.819   1.034  1.1648  1.2509 -0.2667
  340TIP3   OH2  983   6.469   6.033   2.469 -0.6001 -0.6852  1.0543
  340TIP3    H1  984   6.407   6.006   2.536 -0.4106  0.3090  1.6474
  340TIP3    H2  985   6.524   5.956   2.454  0.8675 -0.2784  3.7458
  341TIP3   OH2  986   3.955   1.769   4.697  0.0420  0.1432  0.0670
  341TIP3    H1  987   3.973   1.805   4.610  2.1700 -1.9219 -0.4415
  341TIP3    H2  988   3.872   1.724   4.688  0.0286  0.3270 -0.7717
  342TIP3   OH2  989   2.326   6.587   5.056  0.1532 -0.3736  0.2359
  342TIP3    H1  990   2.300   6.679   5.049 -0.9706 -0.5196  1.8925
  342TIP3    H2  991   2.243   6.539   5.058  0.6937 -1.3147  0.6184
  343TIP3   OH2  992   3.022   1.688   3.255  0.1194  0.1920 -0.0741
  343TIP3    H1  993   2.932   1.712   3.276  0.0466  1.1051 -1.3376
  343TIP3    H2  994   3.054   1.645   3.334 -1.1724  0.5454  0.6738
  344TIP3   OH2  995   3.820   4.441   1.968 -0.0579 -0.2745 -0.0606
  344TIP3    H1  996   3.802   4.454   2.061 -3.0954  1.6507 -0.7674
  344TIP3    H2  997   3.763   4.367   1.944 -0.1200 -0.0491 -0.6101
  345TIP3   OH2  998   0.869   2.083   2.918 -0.2924  0.2281  0.2762
  345TIP3    H1  999   0.798   2.092   2.982 -0.5216  0.8662 -0.0634
  345TIP3    H2 1000   0.927   2.157   2.936 -0.1988  0.2365 -0.0556
  346TIP3   OH2 1001   4.672   6.189   0.204  0.9935 -0.3736 -0.0088
  346TIP3    H1 1002   4.643   6.217   0.291 -0.1546  0.7165 -0.7148
  346TIP3    H2 1003   4.698   6.098   0.216  1.1592 -0.1541  1.5428
  347TIP3   OH2 1004   4.314   3.274   3.264 -0.0611 -0.2937 -0.1456
  347TIP3    H1 1005   4.269   3.281   3.348 -0.6930  1.8512 -0.5899
  347TIP3    H2 1006   4.406   3.287   3.285 -0.0770 -0.9631  0.3467
  348TIP3   OH2 1007   5.217   4.116   4.782 -0.1067 -0.3018 -0.6873
  348TIP3    H1 1008   5.144   4.054   4.778 -1.2299  0.9718 -0.7291
  348TIP3    H2 1009   5.255   4.103   4.869 -1.0854 -0.2463 -0.2380
  349TIP3   OH2 1010   7.037   1.952   3.682  0.0474 -0.0438 -0.1938
  349TIP3    H1 1011   6.964   1.898   3.651  1.4637 -0.6514 -2.7239
  349TIP3    H2 1012   7.114   1.895   3.673  1.0160  0.9891  1.2251
  350TIP3   OH2 1013   0.269   5.109   4.258  0.5177 -0.0316  0.1605
  350TIP3    H1 1014   0.346   5.163   4.244 -1.3932  2.9967  0.4981
  350TIP3    H2 1015   0.251   5.116   4.351 -1.3028  1.0714 -0.2301
  351TIP3   OH2 1016   4.322   3.105   4.310  0.4349 -0.0287 -0.5990
  351TIP3    H1 1017   4.397   3.112   4.251  1.7369  0.7062  1.0661
  351TIP3    H2 1018   4.355   3.057   4.386 -0.7109  0.4729  0.2553
  352TIP3   OH2 1019   6.024   2.482   5.023  0.3051  0.0431  0.2166
  352TIP3    H1 1020   6.035   2.401   4.972 -0.1901  0.4135 -0.5044
  352TIP3    H2 1021   5.953   2.528   4.979  0.2837  0.6703  0.8902
  353TIP3   OH2 1022   4.673   4.891   5.038  0.0334 -0.0848 -0.1655
  353TIP3    H1 1023   4.695   4.883   4.946 -0.9727 -0.3451 -0.3975
  353TIP3    H2 1024   4.622   4.971   5.044  0.0738 -0.0792  0.1633
  354TIP3   OH2 1025   0.451   4.895   5.782 -0.2151  0.2760  0.5929
  354TIP3    H1 1026   0.437   4.844   5.702 -0.8195 -0.3536  1.0876
  354TIP3    H2 1027   0.540   4.872   5.809  0.3124  1.1215 -0.3213
  355TIP3   OH2 1028   1.872   0.225   0.386  0.2119 -0.1030 -0.6901
  355TIP3    H1 1029   1.924   0.250   0.309 -0.0638  2.3464 -0.1639
  355TIP3    H2 1030   1.782   0.217   0.352 -0.2175  2.6693 -0.4193
  356TIP3   OH2 1031   4.315   1.995   0.838  0.2294  0.5573 -0.2697
  356TIP3    H1 1032   4.286   2.005   0.748 -0.7331 -1.7443 -0.2626
  356TIP3    H2 1033   4.411   2.002   0.834  0.3093 -1.0656 -1.7122
  357TIP3   OH2 1034   0.690   3.623   0.702 -0.1372  0.2335 -0.0435
  357TIP3    H1 1035   0.608   3.658   0.736 -0.7297  0.2070 -1.3717
  357TIP3    H2 1036   0.757   3.657   0.761 -1.0838  0.3572  0.9917
  358TIP3   OH2 1037   3.896   0.976   1.370  0.7059  0.4259  0.7836
  358TIP3    H1 1038   3.973   0.998   1.317 -1.4206 -0.5603 -3.0331
  358TIP3    H2 1039   3.837   1.050   1.358 -0.6272 -0.7267 -0.0063
  359TIP3   OH2 1040   6.732   5.576   2.316  0.0191  0.4869 -0.5459
  359TIP3    H1 1041   6.705   5.491   2.283  0.4133  1.3228 -3.3083
  359TIP3    H2 1042   6.788   5.557   2.390 -1.2085 -1.5676 -0.0697
  360TIP3   OH2 1043   4.688   4.726   2.169 -0.0553 -0.4713  0.3338
  360TIP3    H1 1044   4.626   4.796   2.151 -1.2051 -1.9169 -1.8186
  360TIP3    H2 1045   4.774   4.767   2.162 -0.6720  1.3084  2.1780
  361TIP3   OH2 1046   5.236   0.118   1.927 -0.2327 -0.8757  0.0633
  361TIP3    H1 1047   5.243   0.140   1.834  2.1439 -0.3275  0.2992
  361TIP3    H2 1048   5.275   0.031   1.934  0.3736 -0.5730  0.6238
  362TIP3   OH2 1049   0.286   5.310   2.391 -0.8448  0.2901  0.6464
  362TIP3    H1 1050   0.259   5.282   2.304 -0.1669  1.3192  0.0778
  362TIP3    H2 1051   0.361   5.255   2.413 -0.7336  0.3355  0.3790
  363TIP3   OH2 1052   2.093   5.477   2.092 -0.1623  0.2321 -0.1592
  363TIP3    H1 1053   2.026   5.418   2.127  1.4006  0.0393  2.9218
  363TIP3    H2 1054   2.143   5.423   2.031 -1.3147 -0.3082 -0.6603
  364TIP3   OH2 1055   5.903   3.281   4.037  0.1546 -0.3418  0.3622
  364TIP3    H1 1056   5.976   3.241   3.991  2.0830  2.5302  0.6801
  364TIP3    H2 1057   5.851   3.323   3.968  1.1830  1.1257  0.4393
  365TIP3   OH2 1058   5.743   5.439   0.167 -0.0903  0.2765  0.5583
  365TIP3    H1 1059   5.679   5.378   0.131  0.3628 -1.0226  1.8460
  365TIP3    H2 1060   5.702   5.470   0.249 -0.0208  1.2001  0.2588
  366TIP3   OH2 1061   2.805   2.123   4.862  0.3842  0.3700 -0.5536
  366TIP3    H1 1062   2.711   2.133   4.879 -0.0792 -0.5401 -2.2501
  366TIP3    H2 1063   2.848   2.178   4.927 -1.3020  0.3212  0.6663
  367TIP3   OH2 1064   1.197   3.546   4.721 -0.1645  0.1332  0.3419
  367TIP3    H1 1065   1.160   3.466   4.683 -1.4610  0.2833  1.2569
  367TIP3    H2 1066   1.161   3.550   4.809  0.8950  1.0701  0.7556
  368TIP3   OH2 1067   6.787   6.687   5.590 -0.4841  0.2355  0.0937
  368TIP3    H1 1068   6.700   6.719   5.615  0.6249  3.4026  0.3551
  368TIP3    H2 1069   6.848   6.744   5.637  1.7908 -1.8347 -0.1356
  369TIP3   OH2 1070   6.712   1.097   0.196  1.1257  0.1319  0.2782
  369TIP3    H1 1071   6.775   1.025   0.199  0.9929 -0.1095 -1.5516
  369TIP3    H2 1072   6.626   1.055   0.204  0.9203 -0.2348 -2.6771
  370TIP3   OH2 1073   5.570   4.694   5.792 -0.2401  0.2424  0.4973
  370TIP3    H1 1074   5.620   4.741   5.725 -2.1088 -0.2876 -1.3803
  370TIP3    H2 1075   5.635   4.670   5.859  2.1611 -0.8904 -2.0352
  371TIP3   OH2 1076   0.303   0.607   3.598 -0.4467  0.0138  0.0944
  371TIP3    H1 1077   0.283   0.699   3.615 -1.4913  0.1272 -1.5231
  371TIP3    H2 1078   0.233   0.559   3.643 -0.1339  0.0153  0.5932
  372TIP3   OH2 1079   4.747   4.130   0.258 -0.4137  0.1034  0.0415
  372TIP3    H1 1080   4.736   4.038   0.234  1.3463 -0.6490  1.8413
  372TIP3    H2 1081   4.658   4.163   0.270 -1.0808 -1.2769 -0.8952
  373TIP3   OH2 1082   4.402   3.032   2.463 -0.5780  0.8703  0.3517
  373TIP3    H1 1083   4.475   3.027   2.401 -0.3834 -1.7216  0.6644
  373TIP3    H2 1084   4.333   3.078   2.416  0.2528  0.7513 -1.0337
  374TIP3   OH2 1085   2.203   5.809   1.498  0.6502 -0.3344 -0.5299
  374TIP3    H1 1086   2.210   5.862   1.418  0.5727 -1.0425 -1.0061
  374TIP3    H2 1087   2.287   5.763   1.503  1.3608  0.9802  0.7272
  375TIP3   OH2 1088   6.699   2.502   2.948  0.3329  0.4701 -0.1867
  375TIP3    H1 1089   6.780   2.468   2.910  1.3370  2.0258  0.5074
  375TIP3    H2 1090   6.641   2.426   2.950  1.7671 -0.6919 -0.6724
  376TIP3   OH2 1091   5.071   0.578   3.380  0.1054 -0.1975 -0.4643
  376TIP3    H1 1092   5.060   0.502   3.437 -1.7523 -1.3777 -2.2476
  376TIP3    H2 1093   5.130   0.549   3.311 -0.5749 -0.0220 -1.1353
  377TIP3   OH2 1094   3.948   6.569   1.035  0.1226 -0.2890 -0.3548
  377TIP3    H1 1095   4.018   6.504   1.032  0.4579  0.0725 -0.5104
  377TIP3    H2 1096   3.887   6.536   1.101  0.4329 -0.6182 -0.2291
  378TIP3   OH2 1097   6.197   6.781   3.127  0.6379 -0.6318 -0.6769
  378TIP3    H1 1098   6.259   6.827   3.070 -0.3293  1.3737 -0.2147
  378TIP3    H2 1099   6.238   6.781   3.213  0.3853 -0.0933 -0.5544
  379TIP3   OH2 1100   1.962   3.839   1.318  0.2896 -0.1499  0.1034
  379TIP3    H1 1101   1.892   3.819   1.381 -1.3110 -0.8494 -1.7952
  379TIP3    H2 1102   2.041   3.800   1.357 -1.1890 -3.1867  0.3552
  380TIP3   OH2 1103   3.770   5.354   1.434  0.3340 -0.3349 -0.0109
  380TIP3    H1 1104   3.812   5.290   1.377  1.9573 -0.7871  1.5894
  380TIP3    H2 1105   3.787   5.438   1.392 -1.3238 -0.8464 -1.8395
  381TIP3   OH2 1106   1.695   6.573   5.827  0.6076 -0.1819  0.2587
  381TIP3    H1 1107   1.658   6.509   5.889  0.1109  1.1564  1.4055
  381TIP3    H2 1108   1.637   6.569   5.751  0.8024 -1.3538  0.1614
  382TIP3   OH2 1109   1.482   3.415   4.655  0.1494  0.0581 -1.0046
  382TIP3    H1 1110   1.546   3.486   4.641  0.0472  0.6318  1.1547
  382TIP3    H2 1111   1.412   3.455   4.706 -1.0891 -1.0280 -1.7953
  383TIP3   OH2 1112   3.137   5.860   5.015 -0.2610  0.3473  0.1198
  383TIP3    H1 1113   3.194   5.859   5.092 -0.0175  2.5792  0.0341
  383TIP3    H2 1114   3.049   5.857   5.051 -0.1517  1.5326  0.5159
  384TIP3   OH2 1115   5.350   6.778   3.741 -0.0157  0.0088  0.5590
  384TIP3    H1 1116   5.406   6.856   3.743 -0.5988  0.4785 -0.8254
  384TIP3    H2 1117   5.396   6.717   3.682  0.0192 -0.3821  0.9828
  385TIP3   OH2 1118   0.501   3.360   0.908 -0.2057  0.1606 -0.2722
  385TIP3    H1 1119   0.422   3.357   0.855 -0.4148 -1.7271  0.0810
  385TIP3    H2 1120   0.526   3.453   0.909 -0.8823  0.4327 -2.6158
  386TIP3   OH2 1121   0.255   4.256   1.530 -0.2507 -0.3868 -0.1338
  386TIP3    H1 1122   0.266   4.178   1.584 -1.3368 -0.3736  0.1457
  386TIP3    H2 1123   0.185   4.305   1.574 -1.8026 -0.7958 -2.0130
  387TIP3   OH2 1124   6.666   3.088   2.985  0.2183  0.2007  0.3032
  387TIP3    H1 1125   6.733   3.151   2.961 -0.4684  0.9997  0.4582
  387TIP3    H2 1126   6.649   3.039   2.904  0.7729  0.1774  0.1946
  388TIP3   OH2 1127   2.231   4.475   2.102  0.0095  0.1689  0.8795
  388TIP3    H1 1128   2.170   4.548   2.092  2.2021  1.8019 -2.0307
  388TIP3    H2 1129   2.195   4.406   2.046  0.4975  0.9384 -0.4220
  389TIP3   OH2 1130   0.241   2.708   2.290 -0.2697 -0.4661  0.9105
  389TIP3    H1 1131   0.235   2.797   2.326  0.9084 -0.7434  1.8507
  389TIP3    H2 1132   0.165   2.701   2.234 -0.4430  1.1189  0.8783
  390TIP3   OH2 1133   4.465   1.609   0.965 -0.2494 -0.0374  0.1136
  390TIP3    H1 1134   4.386   1.661   0.949  0.2612  0.8854  0.4981
  390TIP3    H2 1135   4.507   1.602   0.879  0.0689  0.8686  0.1786
  391TIP3   OH2 1136   0.497   6.607   3.279  0.1637  0.0898  0.4018
  391TIP3    H1 1137   0.424   6.547   3.262 -0.3163  0.5061  0.9756
  391TIP3    H2 1138   0.461   6.674   3.336  0.0233  2.2989 -2.1034
  392TIP3   OH2 1139   3.543   0.024   0.471  0.1457 -0.6896  0.4260
  392TIP3    H1 1140   3.522  -0.021   0.552  0.0404  0.5168  1.0854
  392TIP3    H2 1141   3.459   0.034   0.426  0.2331 -1.5438  0.0574
  393TIP3   OH2 1142   5.277   0.107   5.620 -0.8072 -0.0022 -0.3621
  393TIP3    H1 1143   5.322   0.097   5.536  0.3085  1.9853 -0.0752
  393TIP3    H2 1144   5.186   0.125   5.596 -0.9690 -1.6129 -1.0421
  394TIP3   OH2 1145   3.117   0.729   1.838  0.3007 -0.3039 -0.3318
  394TIP3    H1 1146   3.085   0.681   1.915 -0.6181  0.7149 -0.0543
  394TIP3    H2 1147   3.185   0.787   1.873  1.0272 -0.9883 -0.5767
  395TIP3   OH2 1148   4.660   5.702   5.018 -0.6337  0.5525 -0.3213
  395TIP3    H1 1149   4.569   5.675   5.028 -0.6049  0.8308  0.7745
  395TIP3    H2 1150   4.664   5.742   4.931 -1.5614  0.5867 -0.3517
  396TIP3   OH2 1151   5.920   6.643   2.889  0.5956  0.0620 -0.2926
  396TIP3    H1 1152   5.908   6.668   2.980  0.9476  0.5764 -0.3804
  396TIP3    H2 1153   5.939   6.726   2.844  0.8190 -0.2402 -0.7597
  397TIP3   OH2 1154   6.873   0.587   5.781 -0.1957 -0.1662 -0.3336
  397TIP3    H1 1155   6.959   0.587   5.739  0.5880  1.2489  1.1630
  397TIP3    H2 1156   6.891   0.565   5.872 -1.4673 -0.0916 -0.0476
  398TIP3   OH2 1157   0.203   6.739   0.143  0.6830 -0.2578 -0.5198
  398TIP3    H1 1158   0.223   6.649   0.171 -0.0257  0.2995  2.0102
  398TIP3    H2 1159   0.284   6.771   0.105  1.5336 -1.3527  0.3068
  399TIP3   OH2 1160   3.949   0.082   3.582 -0.1228  0.1419 -0.4455
  399TIP3    H1 1161   3.961   0.033   3.664  0.4570 -1.3704 -1.3976
  399TIP3    H2 1162   4.003   0.161   3.594 -0.1841  0.0272  0.6921
  400TIP3   OH2 1163   2.992   0.633   2.059 -0.3510 -0.2736  0.0012
  400TIP3    H1 1164   2.896   0.635   2.049 -0.3520 -1.1484 -0.1982
  400TIP3    H2 1165   3.006   0.617   2.152 -0.4110 -1.0539 -0.1193
  401TIP3   OH2 1166   2.166   0.234   3.293 -0.0762 -0.0952  0.5744
  401TIP3    H1 1167   2.192   0.155   3.245  1.3528  0.9732 -0.5256
  401TIP3    H2 1168   2.082   0.259   3.255 -0.4541 -0.9929  0.8142
  402TIP3   OH2 1169   4.325   0.894   0.186 -0.0065 -0.3628 -0.6691
  402TIP3    H1 1170   4.281   0.908   0.270  1.4383  1.6766 -0.1629
  402TIP3    H2 1171   4.370   0.810   0.196  2.1201  0.9283  1.5889
  403TIP3   OH2 1172   5.183   2.921   2.422  0.1322  0.1337 -0.0543
  403TIP3    H1 1173   5.102   2.948   2.465  0.7031  1.4606  0.2568
  403TIP3    H2 1174   5.156   2.857   2.357 -1.1974  0.7047 -0.0939
  404TIP3   OH2 1175   0.379   1.658   2.644 -0.3259  0.5461  0.0178
  404TIP3    H1 1176   0.414   1.604   2.574 -0.9583 -0.3971  0.4020
  404TIP3    H2 1177   0.387   1.748   2.613 -0.2130  0.1596 -1.0807
  405TIP3   OH2 1178   4.649   1.892   0.395  0.6266 -0.0544 -0.0877
  405TIP3    H1 1179   4.675   1.854   0.311 -0.0145 -2.1257  0.6022
  405TIP3    H2 1180   4.699   1.844   0.460 -0.7972 -0.3004  0.8750
  406TIP3   OH2 1181   3.181   6.029   0.323  0.1862 -0.7414 -0.1042
  406TIP3    H1 1182   3.230   5.955   0.287  1.8969 -0.8142  2.1377
  406TIP3    H2 1183   3.139   5.993   0.401 -0.4254  0.2397  0.0286
  407TIP3   OH2 1184   5.041   1.278   1.089 -0.3742  0.3768  0.5629
  407TIP3    H1 1185   4.996   1.312   1.012 -0.8230  1.0161  1.0881
  407TIP3    H2 1186   4.972   1.235   1.140  0.2486 -1.8158 -0.3022
  408TIP3   OH2 1187   0.556   1.136   2.960  0.2104  0.6380  0.4749
  408TIP3    H1 1188   0.499   1.209   2.936  0.2345  0.8064  0.9254
  408TIP3    H2 1189   0.569   1.145   3.054  0.9860  0.6125  0.3826
  409TIP3   OH2 1190   4.569   4.508   4.446  0.1673 -0.1253  0.0773
  409TIP3    H1 1191   4.544   4.530   4.356 -1.2551 -1.1208  0.1942
  409TIP3    H2 1192   4.587   4.414   4.445 -1.8995 -0.6119  1.1909
  410TIP3   OH2 1193   3.636   5.581   2.462 -0.1578 -0.3220 -0.1895
  410TIP3    H1 1194   3.623   5.504   2.517 -1.2470 -0.8382 -1.1353
  410TIP3    H2 1195   3.600   5.654   2.513  0.0534 -0.5768  0.3288
  411TIP3   OH2 1196   0.987   6.508   3.523 -0.1257 -0.1529  0.1829
  411TIP3    H1 1197   1.056   6.518   3.457  0.7025  0.6882  1.1591
  411TIP3    H2 1198   1.005   6.422   3.563  0.6587  0.2633  0.7529
  412TIP3   OH2 1199   1.915   2.243   0.445  0.6654 -0.4256  0.0254
  412TIP3    H1 1200   1.890   2.155   0.474 -4.3738  0.8046  0.3034
  412TIP3    H2 1201   1.935   2.233   0.352 -1.4925 -1.7009 -0.3651
  413TIP3   OH2 1202   6.373   3.548   4.904 -0.4308  0.4523 -0.6164
  413TIP3    H1 1203   6.307   3.610   4.870 -0.0797  0.5643 -1.0925
  413TIP3    H2 1204   6.366   3.558   4.999 -3.4838 -1.9651 -0.4181
  414TIP3   OH2 1205   6.266   0.187   3.425  0.0259  0.4583  0.1624
  414TIP3    H1 1206   6.258   0.101   3.382  2.7885  0.0716  0.2215
  414TIP3    H2 1207   6.335   0.174   3.491 -1.6781  1.9523  2.3735
  415TIP3   OH2 1208   1.122   6.702   3.830 -0.2622  0.4418  0.0962
  415TIP3    H1 1209   1.169   6.765   3.885 -0.1586  0.3907  0.0679
  415TIP3    H2 1210   1.174   6.698   3.749  0.3158 -0.4404  0.4818
  416TIP3   OH2 1211   3.533   0.157   4.388  0.2694 -0.1764  0.6209
  416TIP3    H1 1212   3.571   0.238   4.423  0.4509 -0.6374  1.5220
  416TIP3    H2 1213   3.450   0.185   4.348 -0.3106  0.2862  2.0776
  417TIP3   OH2 1214   5.837   0.991   5.908 -0.1385  0.0959  0.1297
  417TIP3    H1 1215   5.912   0.936   5.884  0.3381  1.2774 -1.2452
  417TIP3    H2 1216   5.768   0.965   5.847  0.1142  1.0454 -0.5798
  418TIP3   OH2 1217   2.344   0.567   5.756 -0.0138 -0.0462 -0.4889
  418TIP3    H1 1218   2.323   0.518   5.677 -0.8305 -0.6482  0.0877
  418TIP3    H2 1219   2.436   0.547   5.774 -0.0252 -0.4573 -0.8899
  419TIP3   OH2 1220   5.704   5.675   4.670 -0.9353 -0.1286 -0.2315
  419TIP3    H1 1221   5.722   5.643   4.759  0.6765  2.3699  0.4562
  419TIP3    H2 1222   5.676   5.766   4.683 -0.9033  0.2126 -2.2667
  420TIP3   OH2 1223   6.631   0.076   5.079 -0.3176  0.1208 -0.1626
  420TIP3    H1 1224   6.704   0.047   5.134 -0.1166 -1.1845 -1.0708
  420TIP3    H2 1225   6.575  -0.002   5.070 -2.0786  1.2001  0.8693
  421TIP3   OH2 1226   5.463   6.283   2.771 -0.0711 -0.1988 -0.3154
  421TIP3    H1 1227   5.431   6.370   2.745  0.2489  0.0808  0.1974
  421TIP3    H2 1228   5.431   6.224   2.703 -1.3345  0.1260 -0.0146
  422TIP3   OH2 1229   0.439   4.233   1.355  0.2608  0.0582 -0.2112
  422TIP3    H1 1230   0.371   4.231   1.423 -1.6562  0.0646 -2.0179
  422TIP3    H2 1231   0.515   4.272   1.399 -0.2686 -1.5773  2.3980
  423TIP3   OH2 1232   3.888   1.801   0.031  0.1811 -0.0296 -0.6076
  423TIP3    H1 1233   3.837   1.733  -0.013 -1.3825  0.1741  0.7755
  423TIP3    H2 1234   3.946   1.752   0.090  1.4492 -0.2514 -1.9848
  424TIP3   OH2 1235   4.429   2.916   4.497  0.0273 -0.3882 -0.5997
  424TIP3    H1 1236   4.491   2.961   4.554 -0.5990  1.2076 -1.1419
  424TIP3    H2 1237   4.373   2.866   4.557  0.3156  0.0808  0.0733
  425TIP3   OH2 1238   0.593   5.916   0.732 -0.0369  0.2467  0.3854
  425TIP3    H1 1239   0.674   5.958   0.703  0.6146  0.3540  2.2099
  425TIP3    H2 1240   0.593   5.927   0.827 -2.1777  0.1874  0.4423
  426TIP3   OH2 1241   1.894   4.622   5.537 -0.1268 -0.4583 -0.2781
  426TIP3    H1 1242   1.906   4.549   5.598  1.4248 -1.1119 -1.2951
  426TIP3    H2 1243   1.964   4.684   5.558 -0.4811  0.0011 -0.4364
  427TIP3   OH2 1244   4.415   1.207   4.744 -0.2401  0.1811  0.0993
  427TIP3    H1 1245   4.366   1.276   4.700 -0.3987 -0.2918 -0.4902
  427TIP3    H2 1246   4.506   1.232   4.736 -0.3726  1.2501  1.5086
  428TIP3   OH2 1247   6.862   6.765   3.264  0.5026 -0.4049 -0.1851
  428TIP3    H1 1248   6.776   6.805   3.274  0.9241  1.0876 -1.9712
  428TIP3    H2 1249   6.876   6.718   3.347 -2.2448 -1.2244 -0.0757
  429TIP3   OH2 1250   4.652   4.189   0.943 -0.2000 -0.1034 -0.7502
  429TIP3    H1 1251   4.651   4.195   0.847  1.4843 -0.6191 -0.8289
  429TIP3    H2 1252   4.560   4.180   0.967 -0.5994 -0.8643 -2.3857
  430TIP3   OH2 1253   0.459   5.352   2.125 -0.6013  0.7668 -0.1951
  430TIP3    H1 1254   0.496   5.300   2.196  0.1128  3.1519  1.2848
  430TIP3    H2 1255   0.511   5.327   2.048 -0.7196 -1.1219  0.2873
  431TIP3   OH2 1256   1.646   2.722   4.898 -0.3888 -0.7074 -0.3845
  431TIP3    H1 1257   1.604   2.646   4.858  2.5007 -3.0670  0.6620
  431TIP3    H2 1258   1.660   2.783   4.826 -1.8519 -1.5998 -1.4668
  432TIP3   OH2 1259   4.030   5.440   0.442 -0.4567  0.3820  0.2698
  432TIP3    H1 1260   3.951   5.410   0.485 -0.1218  1.1466  1.4607
  432TIP3    H2 1261   4.102   5.407   0.496  0.1631 -1.7911 -1.7303
  433TIP3   OH2 1262   0.540   1.514   2.203  0.2896 -0.2876  0.1888
  433TIP3    H1 1263   0.564   1.555   2.120 -0.3226 -0.9938 -0.3489
  433TIP3    H2 1264   0.444   1.513   2.203  0.1789  1.7031  1.9146
  434TIP3   OH2 1265   6.334   0.272   2.174 -0.2659  0.1102  0.3945
  434TIP3    H1 1266   6.348   0.213   2.100 -2.9613  0.2242 -0.3047
  434TIP3    H2 1267   6.268   0.228   2.228 -0.7393  1.4961  0.9856
  435TIP3   OH2 1268   4.401   5.402   0.281 -0.0627  1.1549 -0.2957
  435TIP3    H1 1269   4.456   5.479   0.270  0.5103  1.0964  1.8208
  435TIP3    H2 1270   4.444   5.334   0.229  0.1048  1.9189 -1.1844
  436TIP3   OH2 1271   2.841   5.883   5.102 -0.0825  0.6231 -0.0909
  436TIP3    H1 1272   2.826   5.923   5.016 -2.1701  1.1064  0.4412
  436TIP3    H2 1273   2.802   5.945   5.164 -0.3526 -0.6395  1.0453
  437TIP3   OH2 1274   4.845   3.944   1.738 -0.2133 -0.1056 -0.0584
  437TIP3    H1 1275   4.915   3.902   1.689  0.5676  0.6858  0.3608
  437TIP3    H2 1276   4.813   4.013   1.680  1.7763  1.8831  1.0806
  438TIP3   OH2 1277   2.372   0.788   1.597 -0.6326  0.5689  0.0037
  438TIP3    H1 1278   2.354   0.878   1.571 -1.8670  0.3229 -0.0391
  438TIP3    H2 1279   2.390   0.793   1.691  0.4572  0.9993 -0.2124
  439TIP3   OH2 1280   4.613   2.319   1.250 -0.0687  0.5712  0.0957
  439TIP3    H1 1281   4.657   2.249   1.201 -1.3186  0.0464 -0.2962
  439TIP3    H2 1282   4.660   2.322   1.333  0.8804  0.2007 -0.4065
  440TIP3   OH2 1283   5.650   4.418   2.230 -0.0653 -0.0974 -0.1566
  440TIP3    H1 1284   5.592   4.474   2.282 -0.4399  0.2005 -0.8836
  440TIP3    H2 1285   5.733   4.465   2.229  0.1843 -0.4951  0.8382
  441TIP3   OH2 1286   1.041   0.690   0.288 -0.0282  0.0133 -0.0929
  441TIP3    H1 1287   0.963   0.636   0.304 -0.0070  0.4546  1.7086
  441TIP3    H2 1288   1.013   0.751   0.220 -1.0283 -0.2995  0.0098
  442TIP3   OH2 1289   5.827   5.441   2.325  0.0423 -0.4397  0.0074
  442TIP3    H1 1290   5.778   5.361   2.343 -0.4911 -0.0637  0.2593
  442TIP3    H2 1291   5.837   5.443   2.230  0.1070 -0.8310  0.0037
  443TIP3   OH2 1292   2.421   4.397   4.387  0.0810 -0.2693 -0.5336
  443TIP3    H1 1293   2.352   4.462   4.402  1.4332  1.8407 -2.6996
  443TIP3    H2 1294   2.433   4.397   4.292  2.4431 -1.2530 -0.3015
  444TIP3   OH2 1295   6.323   6.484   0.121  0.2384  0.1961  0.1253
  444TIP3    H1 1296   6.246   6.485   0.064  1.0866 -1.4858 -1.1425
  444TIP3    H2 1297   6.387   6.539   0.074  0.0564  1.0437  0.8452
  445TIP3   OH2 1298   6.652   2.609   0.332 -0.2755  0.1544  0.0059
  445TIP3    H1 1299   6.739   2.575   0.349 -0.8730 -0.7161  1.4876
  445TIP3    H2 1300   6.635   2.585   0.241  0.4855 -0.9194  0.1279
  446TIP3   OH2 1301   4.843   5.644   2.362 -0.9853  0.0474  0.0017
  446TIP3    H1 1302   4.891   5.698   2.298 -1.2228  0.0249 -0.1966
  446TIP3    H2 1303   4.866   5.682   2.447 -0.0073 -0.4431 -0.0322
  447TIP3   OH2 1304   4.682   0.829   0.651  0.1489 -0.0081  0.0152
  447TIP3    H1 1305   4.710   0.849   0.561  0.9106 -1.1417 -0.0142
  447TIP3    H2 1306   4.720   0.743   0.670 -1.4664 -0.5968  0.8005
  448TIP3   OH2 1307   6.141   1.408   3.616 -0.6375  0.0061 -0.2792
  448TIP3    H1 1308   6.063   1.445   3.575 -1.0760 -0.5226  0.0778
  448TIP3    H2 1309   6.200   1.391   3.542  0.4122  3.2353 -0.3510
  449TIP3   OH2 1310   3.619   5.290   3.128 -0.4829 -0.0990 -0.3421
  449TIP3    H1 1311   3.706   5.293   3.167 -0.2548 -0.6059 -0.7830
  449TIP3    H2 1312   3.593   5.198   3.135 -1.1332  0.1101  0.0949
  450TIP3   OH2 1313   2.493   6.365   5.698  0.0010 -0.5867 -0.5612
  450TIP3    H1 1314   2.402   6.388   5.680 -0.5320 -2.2835 -0.1541
  450TIP3    H2 1315   2.526   6.438   5.750 -1.3003 -0.2154 -0.2144
  451TIP3   OH2 1316   4.569   2.223   2.035  0.2695 -0.5179  0.2709
  451TIP3    H1 1317   4.534   2.287   2.097  0.4064 -1.4393  1.3240
  451TIP3    H2 1318   4.542   2.256   1.949  2.7936  2.5444  0.4769
  452TIP3   OH2 1319   5.393   1.862   4.365 -0.1522 -0.3064  0.7182
  452TIP3    H1 1320   5.338   1.812   4.305  0.8187 -0.1554 -0.3422
  452TIP3    H2 1321   5.451   1.912   4.307  0.3595  0.3649  1.7874
  453TIP3   OH2 1322   2.868   3.078   1.901  0.1117 -0.4726 -0.1296
  453TIP3    H1 1323   2.927   3.073   1.975  0.0674 -2.1142 -0.1624
  453TIP3    H2 1324   2.820   2.994   1.902  2.0096 -1.8264 -3.5221
  454TIP3   OH2 1325   1.850   2.676   0.634 -0.1197  0.7055 -0.6446
  454TIP3    H1 1326   1.889   2.609   0.578  1.1289  1.2247 -0.4134
  454TIP3    H2 1327   1.759   2.681   0.604 -0.1586 -0.8647 -0.8728
  455TIP3   OH2 1328   6.823   6.550   2.505  0.2851 -0.3722 -0.1076
  455TIP3    H1 1329   6.881   6.591   2.568  0.7388  0.7193 -1.2030
  455TIP3    H2 1330   6.779   6.623   2.461 -1.8403 -1.1496  0.5815
  456TIP3   OH2 1331   1.481   3.125   5.063 -0.6544 -0.3336 -0.5044
  456TIP3    H1 1332   1.512   3.148   4.976  0.1567  0.5367  0.0011
  456TIP3    H2 1333   1.547   3.161   5.123 -0.6358 -1.8423  0.4300
  457TIP3   OH2 1334   4.271   3.928   2.507  0.1224 -0.2171 -0.1490
  457TIP3    H1 1335   4.354   3.934   2.553  0.8301  1.4080 -1.5274
  457TIP3    H2 1336   4.290   3.957   2.418 -1.9907  0.5925 -0.4143
  458TIP3   OH2 1337   2.453   4.122   2.733  0.3011  0.0132 -0.1190
  458TIP3    H1 1338   2.476   4.070   2.809  0.8641 -0.2908 -0.4918
  458TIP3    H2 1339   2.359   4.109   2.722 -0.1408  1.4545  1.5551
  459TIP3   OH2 1340   4.975   1.752   1.349 -0.4504  0.2286 -0.1594
  459TIP3    H1 1341   4.980   1.739   1.444 -2.1163  0.3725 -0.0238
  459TIP3    H2 1342   4.993   1.845   1.337  1.4366 -0.0956 -0.1796
  460TIP3   OH2 1343   3.152   4.391   1.872 -0.0819 -0.0092 -0.4398
  460TIP3    H1 1344   3.153   4.481   1.906  1.4228  0.2073 -0.9415
  460TIP3    H2 1345   3.085   4.392   1.804  1.0367  1.2473 -1.6044
  461TIP3   OH2 1346   1.379   1.780   4.497 -0.7124  0.1740  0.1499
  461TIP3    H1 1347   1.433   1.737   4.563  0.6248 -1.4834 -1.9035
  461TIP3    H2 1348   1.383   1.722   4.421 -1.7984  2.2088 -1.5614
  462TIP3   OH2 1349   0.106   4.664   4.891  0.0201 -0.1544  0.2969
  462TIP3    H1 1350   0.059   4.696   4.969 -0.4633 -0.7866  0.2741
  462TIP3    H2 1351   0.048   4.687   4.818 -0.6895 -1.6946  0.3397
  463TIP3   OH2 1352   6.875   3.316   2.645  0.3801  0.1879 -0.2382
  463TIP3    H1 1353   6.899   3.391   2.591  0.4936  1.0591  0.9888
  463TIP3    H2 1354   6.956   3.265   2.654  0.2812 -0.1531 -1.1457
  464TIP3   OH2 1355   0.431   5.028   5.498  0.8945  0.1716 -0.0281
  464TIP3    H1 1356   0.510   5.082   5.502 -0.0175  1.7131 -1.4380
  464TIP3    H2 1357   0.406   5.029   5.405  0.0828 -1.6088  0.1251
  465TIP3   OH2 1358   0.772   1.649   5.674  0.3559  0.5894  0.1006
  465TIP3    H1 1359   0.717   1.619   5.601  0.4231  1.2959 -0.2551
  465TIP3    H2 1360   0.861   1.647   5.639  0.4673  0.2267  0.4063
  466TIP3   OH2 1361   7.016   4.530   2.737  0.5892  0.0177  0.5182
  466TIP3    H1 1362   7.067   4.552   2.815  0.0452 -0.3311  0.9824
  466TIP3    H2 1363   7.054   4.449   2.706  0.8191  0.1664  0.4082
  467TIP3   OH2 1364   0.342   3.852   3.233  0.0552 -0.2525 -0.0743
  467TIP3    H1 1365   0.332   3.842   3.138  0.1099 -0.7952 -0.0301
  467TIP3    H2 1366   0.430   3.820   3.251  0.8228  1.7117 -0.0765
  468TIP3   OH2 1367   2.212   4.637   3.624  0.4432  0.0641 -0.0905
  468TIP3    H1 1368   2.298   4.614   3.588  0.7223  0.1196  0.5234
  468TIP3    H2 1369   2.156   4.563   3.600  0.9322 -0.4893  0.4450
  469TIP3   OH2 1370   3.216   0.789   3.260  0.0135 -0.3279 -0.1557
  469TIP3    H1 1371   3.229   0.875   3.219 -0.3999 -0.2873 -0.2127
  469TIP3    H2 1372   3.121   0.780   3.265  0.0377 -1.0693 -0.7682
  470TIP3   OH2 1373   0.809   4.885   0.627  0.5310  0.1460  0.3710
  470TIP3    H1 1374   0.739   4.949   0.614  1.9906  1.9862  1.0351
  470TIP3    H2 1375   0.791   4.845   0.712 -0.4888 -0.5097 -0.1273
  471TIP3   OH2 1376   1.080   2.285   1.759 -0.1143 -0.0460 -0.1181
  471TIP3    H1 1377   1.155   2.238   1.723 -0.1603 -0.5671  0.4450
  471TIP3    H2 1378   1.017   2.217   1.781 -0.3595  0.3120  0.3119
  472TIP3   OH2 1379   2.475   4.639   4.594  0.3510 -0.3318  0.4841
  472TIP3    H1 1380   2.448   4.646   4.503  0.7784  0.1903  0.3934
  472TIP3    H2 1381   2.446   4.552   4.621  2.1271 -1.3664 -0.7855
  473TIP3   OH2 1382   3.903   4.784   2.777 -0.8565  0.4246  0.3649
  473TIP3    H1 1383   3.874   4.860   2.726 -0.5637  0.0561 -0.3748
  473TIP3    H2 1384   3.972   4.819   2.834  0.6862  0.3892 -1.3596
  474TIP3   OH2 1385   1.906   0.959   3.474  0.2386  0.0104 -0.2106
  474TIP3    H1 1386   1.843   0.896   3.508  1.9502 -0.9469  1.3912
  474TIP3    H2 1387   1.919   0.934   3.382 -2.3409  0.8326 -0.8738
  475TIP3   OH2 1388   1.777   5.187   3.619 -0.3102  0.1766 -0.3155
  475TIP3    H1 1389   1.806   5.203   3.708 -0.4515 -0.4034 -0.1632
  475TIP3    H2 1390   1.813   5.101   3.596  1.2367  1.0743 -1.4606
  476TIP3   OH2 1391   3.151   5.163   4.421 -0.3405 -0.2022 -0.1006
  476TIP3    H1 1392   3.197   5.220   4.359 -1.2563 -1.3311 -1.9282
  476TIP3    H2 1393   3.219   5.128   4.478  0.5832  0.6681 -0.6434
  477TIP3   OH2 1394   4.270   4.464   4.538 -0.5505  0.4793 -0.0734
  477TIP3    H1 1395   4.364   4.478   4.527 -0.5648  1.6238  0.9964
  477TIP3    H2 1396   4.259   4.451   4.632 -1.4633  0.4289 -0.1824
  478TIP3   OH2 1397   3.518   3.013   5.482  0.5965 -0.0481  0.1415
  478TIP3    H1 1398   3.459   3.087   5.466 -1.1759 -0.7434  2.7111
  478TIP3    H2 1399   3.495   2.949   5.415  0.7981  0.9724 -0.9270
  479TIP3   OH2 1400   6.317   6.336   3.111  0.0125 -0.0532 -0.5845
  479TIP3    H1 1401   6.274   6.294   3.036 -1.6522 -0.2295  0.4072
  479TIP3    H2 1402   6.311   6.430   3.093 -3.4851  0.1425  0.7709
  480TIP3   OH2 1403   1.539   6.712   0.597  0.4025  0.4392  0.2817
  480TIP3    H1 1404   1.603   6.723   0.526 -1.5400  1.0862 -1.4820
  480TIP3    H2 1405   1.460   6.682   0.553 -1.5457  2.9210  1.8150
  481TIP3   OH2 1406   3.773   2.577   4.011  0.6448 -0.6355 -0.9842
  481TIP3    H1 1407   3.692   2.582   3.960 -0.8412  0.1257  1.3137
  481TIP3    H2 1408   3.752   2.522   4.086  1.8102  0.6816  0.3967
  482TIP3   OH2 1409   2.961   0.937   3.514  0.4049 -0.1395  0.0040
  482TIP3    H1 1410   2.964   0.880   3.437 -0.1541  1.6997 -1.4432
  482TIP3    H2 1411   2.871   0.927   3.546  0.8298 -1.4260  0.8778
  483TIP3   OH2 1412   2.759   3.141   0.318  0.0355  0.3295  0.2075
  483TIP3    H1 1413   2.666   3.137   0.342 -0.0982  1.3615 -0.0976
  483TIP3    H2 1414   2.774   3.062   0.267 -0.7186  0.2326  0.1265
  484TIP3   OH2 1415   0.800   0.956   0.558  0.5701 -0.1073  0.2696
  484TIP3    H1 1416   0.808   1.038   0.607  1.2270 -0.3931  0.6444
  484TIP3    H2 1417   0.874   0.957   0.496  0.6593 -0.4798  0.3688
  485TIP3   OH2 1418   0.362   1.473   4.574 -0.2702  0.3341  0.1177
  485TIP3    H1 1419   0.433   1.417   4.606 -0.4518 -0.6893 -1.1787
  485TIP3    H2 1420   0.365   1.550   4.630  1.9679  0.3925  0.0126
  486TIP3   OH2 1421   5.794   5.572   5.335 -0.1398  0.0567 -0.4632
  486TIP3    H1 1422   5.702   5.560   5.311 -0.7660  0.7850  1.4285
  486TIP3    H2 1423   5.819   5.655   5.294 -0.7265  0.4998  0.0541
  487TIP3   OH2 1424   3.921   6.247   2.442  0.2806 -0.0961  0.2149
  487TIP3    H1 1425   3.838   6.224   2.400 -0.0665 -0.5433  1.1219
  487TIP3    H2 1426   3.966   6.303   2.378 -0.2024 -0.8060 -0.7668
  488TIP3   OH2 1427   1.751   5.316   4.724 -0.2108 -0.1657  0.3261
  488TIP3    H1 1428   1.796   5.264   4.791  0.9246 -1.4557 -1.3657
  488TIP3    H2 1429   1.820   5.373   4.689 -0.3022 -0.8127 -0.9767
  489TIP3   OH2 1430   1.762   1.671   4.093 -0.2014 -0.3205 -0.0256
  489TIP3    H1 1431   1.709   1.746   4.120 -2.0181 -0.5700 -2.5476
  489TIP3    H2 1432   1.853   1.700   4.105 -0.7923  2.8191 -2.0659
  490TIP3   OH2 1433   3.830   4.374   5.881  0.0746  0.1287  0.2309
  490TIP3    H1 1434   3.847   4.336   5.795 -0.6159  1.5597 -0.5797
  490TIP3    H2 1435   3.739   4.354   5.899 -0.1621  0.9673  0.0069
  491TIP3   OH2 1436   6.761   6.694   3.010  0.2753 -0.2329 -0.1626
  491TIP3    H1 1437   6.798   6.733   2.931  2.4126 -0.1311  0.8222
  491TIP3    H2 1438   6.797   6.746   3.082  0.4606 -1.8679  1.0031
  492TIP3   OH2 1439   1.689   1.657   2.224 -0.4581  0.5020  0.0013
  492TIP3    H1 1440   1.657   1.720   2.160  0.5126  0.4725 -0.5391
  492TIP3    H2 1441   1.734   1.590   2.172 -1.4085 -0.6114  0.5653
  493TIP3   OH2 1442   1.829   3.450   2.494  0.2783  0.2610  0.3266
  493TIP3    H1 1443   1.784   3.400   2.425 -0.2146  0.9943  0.0980
  493TIP3    H2 1444   1.798   3.540   2.481 -1.7908  0.0588  3.0230
  494TIP3   OH2 1445   4.484   3.982   3.431 -0.3007  0.0070  0.0438
  494TIP3    H1 1446   4.468   3.987   3.525  0.6533 -0.4468  0.2366
  494TIP3    H2 1447   4.527   4.065   3.409  0.6989 -0.4549  0.2544
  495TIP3   OH2 1448   5.835   6.556   2.223  0.3967 -0.0176  0.3969
  495TIP3    H1 1449   5.899   6.544   2.153 -1.2385 -1.0925 -0.9840
  495TIP3    H2 1450   5.810   6.467   2.248 -0.2978  0.3795  1.1501
  496TIP3   OH2 1451   5.199   2.449   1.582 -0.1556  0.7889 -0.1485
  496TIP3    H1 1452   5.164   2.513   1.520 -2.1384  1.1057  1.2036
  496TIP3    H2 1453   5.157   2.470   1.665 -0.3121 -1.8119  0.5296
  497TIP3   OH2 1454   2.070   5.036   5.826  0.0791 -0.2750 -0.8266
  497TIP3    H1 1455   2.120   4.984   5.889 -1.7433 -0.1961  0.7790
  497TIP3    H2 1456   1.987   5.053   5.870 -0.5393  1.4244 -2.5314
  498TIP3   OH2 1457   7.171   0.977   0.259  0.0187 -0.4788  0.5748
  498TIP3    H1 1458   7.264   0.990   0.277  0.3098 -1.0995 -0.4223
  498TIP3    H2 1459   7.144   1.059   0.217  0.7602 -1.2224 -1.4976
  499TIP3   OH2 1460   2.222   2.954   3.615 -0.2634 -0.0324 -0.2547
  499TIP3    H1 1461   2.183   3.041   3.607  0.2036  0.1777 -0.2866
  499TIP3    H2 1462   2.147   2.894   3.615 -0.5860  0.3645 -0.2740
  500TIP3   OH2 1463   1.918   5.395   0.283  0.2001  0.4956  0.1456
  500TIP3    H1 1464   1.882   5.331   0.345 -0.9233  0.9077 -0.0510
  500TIP3    H2 1465   1.903   5.480   0.325 -0.0582  0.7405 -0.4266
  501TIP3   OH2 1466   2.693   3.955   1.161  0.1256  0.1131  0.0344
  501TIP3    H1 1467   2.650   4.036   1.134  0.7030  0.1862 -0.6909
  501TIP3    H2 1468   2.687   3.955   1.257 -0.1975  0.8303  0.0154
  502TIP3   OH2 1469   6.115   4.954   3.720  0.1102  0.9279  0.0687
  502TIP3    H1 1470   6.210   4.962   3.730  0.3108  0.5994 -1.3636
  502TIP3    H2 1471   6.103   4.882   3.659 -1.0130  1.6219 -0.5662
  503TIP3   OH2 1472   0.098   0.083   3.692 -0.4220  0.4488 -0.4939
  503TIP3    H1 1473   0.143   0.105   3.610 -0.3007  0.2132 -0.4900
  503TIP3    H2 1474   0.163   0.095   3.760  0.5105 -2.5267 -0.7230
  504TIP3   OH2 1475   6.225   3.406   1.264  0.7230  0.4715  0.2358
  504TIP3    H1 1476   6.206   3.439   1.177 -1.2415  0.2509  0.5504
  504TIP3    H2 1477   6.306   3.356   1.254 -0.3263 -0.9429 -1.8235
  505TIP3   OH2 1478   2.653   0.671   1.063  0.1246  0.5676  0.6934
  505TIP3    H1 1479   2.648   0.617   1.142 -1.8539 -0.8531 -0.3183
  505TIP3    H2 1480   2.566   0.709   1.054  0.8133  2.0622  0.0714
  506TIP3   OH2 1481   5.637   4.271   0.231 -0.0758 -0.1093 -0.4831
  506TIP3    H1 1482   5.726   4.249   0.256  0.0269  1.3175  0.5759
  506TIP3    H2 1483   5.609   4.200   0.173  0.5753 -2.3659  1.7762
  507TIP3   OH2 1484   5.752   4.900   3.447  0.4754  0.4004 -0.0800
  507TIP3    H1 1485   5.818   4.883   3.515  0.7824  1.6653 -0.0364
  507TIP3    H2 1486   5.670   4.907   3.495  0.6508  1.0233  0.1342
  508TIP3   OH2 1487   6.607   3.273   1.813  0.2494  0.0796  0.0925
  508TIP3    H1 1488   6.650   3.357   1.831 -1.5606  1.4648 -1.5706
  508TIP3    H2 1489   6.651   3.240   1.735  0.0081  0.2316 -0.1113
  509TIP3   OH2 1490   6.476   3.962   1.043  0.3593 -0.0360 -0.1349
  509TIP3    H1 1491   6.394   3.916   1.026 -0.5773  0.7943  1.8769
  509TIP3    H2 1492   6.498   4.003   0.959  0.5472 -2.9431 -1.6302
  510TIP3   OH2 1493   7.206   3.649   3.906 -0.8129 -0.0318  0.1148
  510TIP3    H1 1494   7.180   3.728   3.953 -2.8418 -0.6018  0.0861
  510TIP3    H2 1495   7.202   3.580   3.972  0.8587 -0.1421  0.1235
  511TIP3   OH2 1496   1.633   2.438   3.739  0.0425 -0.0002  0.4659
  511TIP3    H1 1497   1.666   2.439   3.649 -1.2844  1.0002 -0.0386
  511TIP3    H2 1498   1.570   2.366   3.740  1.7880 -1.6068  1.3031
  512TIP3   OH2 1499   2.389   0.952   5.200  0.2715 -0.0640 -0.2620
  512TIP3    H1 1500   2.398   0.942   5.295  0.5885 -1.1520 -0.3878
  512TIP3    H2 1501   2.375   1.046   5.186 -0.6860 -0.0159  0.9246
  513TIP3   OH2 1502   5.579   3.738   5.188 -0.9185  0.7188  0.7290
  513TIP3    H1 1503   5.650   3.796   5.214  0.3488 -0.3048 -0.3616
  513TIP3    H2 1504   5.604   3.652   5.223 -1.3740  0.2493 -0.0680
  514TIP3   OH2 1505   5.888   0.020   4.321  0.1871 -0.1569  0.4668
  514TIP3    H1 1506   5.962  -0.030   4.355 -1.0844 -2.1423  0.5036
  514TIP3    H2 1507   5.860   0.075   4.394  1.9006  1.0094  0.2876
  515TIP3   OH2 1508   0.234   1.097   2.860 -0.0085 -0.1437  0.9473
  515TIP3    H1 1509   0.167   1.072   2.796  1.2406  1.2394 -1.0260
  515TIP3    H2 1510   0.279   1.015   2.881  0.7735 -0.4331 -1.5051
  516TIP3   OH2 1511   2.594   2.936   0.118  0.0298  0.4333  0.0528
  516TIP3    H1 1512   2.631   2.926   0.030 -0.0161  0.6643  0.0072
  516TIP3    H2 1513   2.502   2.958   0.103  0.1554  1.0429  0.1488
  517TIP3   OH2 1514   3.086   6.668   2.718  0.0848  0.4699 -0.2323
  517TIP3    H1 1515   3.153   6.603   2.698  0.5956  0.9418 -0.0751
  517TIP3    H2 1516   3.135   6.748   2.734 -0.3815  0.4210  1.6230
  518TIP3   OH2 1517   6.658   2.572   1.790 -0.7855 -0.4669  0.2261
  518TIP3    H1 1518   6.654   2.667   1.803 -0.3906  0.2027 -3.5921
  518TIP3    H2 1519   6.602   2.537   1.860  0.4852  2.3493  2.9041
  519TIP3   OH2 1520   0.449   3.871   0.137 -0.1950 -0.5678  0.0893
  519TIP3    H1 1521   0.378   3.862   0.072  1.3150  0.5153 -1.8370
  519TIP3    H2 1522   0.405   3.863   0.221 -3.0409  2.2476 -0.8997
  520TIP3   OH2 1523   1.459   2.354   1.954  0.4871  0.3489  0.3121
  520TIP3    H1 1524   1.397   2.286   1.981  1.0920  0.0156  0.9233
  520TIP3    H2 1525   1.465   2.345   1.859 -1.1413  1.0594  0.1217
  521TIP3   OH2 1526   7.050   4.375   2.345  0.0203  0.3421  0.3564
  521TIP3    H1 1527   7.129   4.401   2.297  2.1730 -1.7123  2.4966
  521TIP3    H2 1528   7.024   4.454   2.393  0.4769  1.1812 -0.7430
  522TIP3   OH2 1529   3.535   4.483   5.080  0.6088 -0.4305 -0.5665
  522TIP3    H1 1530   3.454   4.527   5.106  1.1731  0.8039 -0.8479
  522TIP3    H2 1531   3.544   4.412   5.144  0.2400  0.5222  0.5972
  523TIP3   OH2 1532   2.025   6.249   1.697  0.4022  0.0269 -0.3570
  523TIP3    H1 1533   2.104   6.228   1.647 -0.2745  1.5264 -2.1866
  523TIP3    H2 1534   1.977   6.166   1.702  0.3712 -0.1395 -2.5292
  524TIP3   OH2 1535   2.895   4.176   5.131  0.5917  0.2637  0.0155
  524TIP3    H1 1536   2.894   4.187   5.036 -0.1941 -1.4278 -0.2176
  524TIP3    H2 1537   2.988   4.169   5.154  0.8983  2.6341 -0.3274
  525TIP3   OH2 1538   1.022   1.494   5.781 -0.1230  0.1388  0.3679
  525TIP3    H1 1539   1.042   1.543   5.701  1.0365  1.4190  1.3833
  525TIP3    H2 1540   1.019   1.561   5.849  1.0742 -1.1485  1.7464
  526TIP3   OH2 1541   1.929   3.106   1.922  0.4185  0.3652  0.5192
  526TIP3    H1 1542   1.954   3.178   1.864 -0.3059  0.1847 -0.0231
  526TIP3    H2 1543   1.849   3.137   1.965  0.2300 -0.0189  0.4503
  527TIP3   OH2 1544   1.530   4.656   4.361  0.7673  0.5928  0.1137
  527TIP3    H1 1545   1.518   4.749   4.343  0.3567  0.4901 -0.1579
  527TIP3    H2 1546   1.586   4.653   4.439  0.3948  1.0691  0.4000
  528TIP3   OH2 1547   4.610   4.764   0.060 -0.1647 -0.0176 -0.5616
  528TIP3    H1 1548   4.608   4.683   0.008  0.1722 -0.3120 -0.1273
  528TIP3    H2 1549   4.534   4.757   0.118  2.3512 -2.3641  2.8800
  529TIP3   OH2 1550   1.378   0.895   0.902 -0.2322  0.5578 -0.1812
  529TIP3    H1 1551   1.472   0.888   0.885 -0.3036 -1.5987  0.0120
  529TIP3    H2 1552   1.337   0.841   0.834 -1.2458  0.5783  0.3899
  530TIP3   OH2 1553   4.091   4.097   3.183  0.0360 -0.2688  0.2282
  530TIP3    H1 1554   4.125   4.023   3.234  0.2238 -0.4824 -0.2076
  530TIP3    H2 1555   4.020   4.061   3.132 -0.8101  0.1572  1.0641
  531TIP3   OH2 1556   3.388   1.112   3.986 -0.4825 -0.4591  0.2587
  531TIP3    H1 1557   3.442   1.183   4.022 -2.0936  0.8530  0.1991
  531TIP3    H2 1558   3.447   1.037   3.983  0.8713  0.4699  1.7297
  532TIP3   OH2 1559   7.140   6.174   2.640  0.0296 -0.3517 -0.1910
  532TIP3    H1 1560   7.205   6.108   2.664 -0.8589 -1.0263  0.4084
  532TIP3    H2 1561   7.170   6.254   2.685  0.2809 -0.7298  0.3272
  533TIP3   OH2 1562   4.180   6.392   0.318  0.0824 -0.1327 -0.1266
  533TIP3    H1 1563   4.266   6.419   0.287  0.8564 -1.3254  0.8861
  533TIP3    H2 1564   4.192   6.301   0.347 -1.7060 -0.5971 -0.7088
  534TIP3   OH2 1565   1.559   3.086   4.122 -0.3892  0.0474  0.5050
  534TIP3    H1 1566   1.510   3.006   4.142 -1.1606  0.4412  0.2412
  534TIP3    H2 1567   1.581   3.122   4.207 -0.0572 -0.4331  0.6271
  535TIP3   OH2 1568   4.816   0.184   4.009  0.2748 -0.4467  0.4675
  535TIP3    H1 1569   4.899   0.201   4.053 -0.6973  1.0959  1.8598
  535TIP3    H2 1570   4.749   0.213   4.072 -1.2833 -0.6017 -1.0223
  536TIP3   OH2 1571   0.838   5.055   4.352  0.0232  0.1209 -0.7950
  536TIP3    H1 1572   0.912   4.996   4.349  2.2782  2.4977  1.9436
  536TIP3    H2 1573   0.775   5.012   4.410  0.5099 -0.6782 -0.8442
  537TIP3   OH2 1574   4.526   1.205   3.148 -0.2378  0.6030 -0.5901
  537TIP3    H1 1575   4.533   1.236   3.238 -0.7738  3.1710 -1.3510
  537TIP3    H2 1576   4.616   1.185   3.122 -0.1268 -0.6297  0.5984
  538TIP3   OH2 1577   3.220   5.561   2.461 -0.3592 -0.1036 -0.3000
  538TIP3    H1 1578   3.287   5.492   2.455 -0.2136 -0.1592  1.4084
  538TIP3    H2 1579   3.137   5.516   2.444 -0.0930 -0.3261 -1.0138
  539TIP3   OH2 1580   6.522   3.533   4.111  0.3803 -0.1516  0.0287
  539TIP3    H1 1581   6.536   3.626   4.131  2.2557  0.0122 -1.7061
  539TIP3    H2 1582   6.448   3.531   4.052  0.3064  0.2389  0.1099
  540TIP3   OH2 1583   4.700   1.860   0.117  0.4612 -0.2449  0.4002
  540TIP3    H1 1584   4.679   1.947   0.082  0.3265  0.3018  1.7584
  540TIP3    H2 1585   4.794   1.851   0.104  0.3583 -0.2349 -0.4347
  541TIP3   OH2 1586   2.838   5.288   0.675  0.1031 -0.2951 -0.0144
  541TIP3    H1 1587   2.891   5.274   0.753 -1.4198 -2.3598  0.7387
  541TIP3    H2 1588   2.880   5.235   0.607  0.6111  0.3867 -0.2559
  542TIP3   OH2 1589   1.802   6.621   5.154 -0.4058  0.5845  0.3199
  542TIP3    H1 1590   1.731   6.667   5.110 -0.2704  0.6008  0.1155
  542TIP3    H2 1591   1.758   6.555   5.208 -0.5330 -0.5774 -1.1232
  543TIP3   OH2 1592   0.118   3.410   1.708 -0.5093  0.2203 -0.5563
  543TIP3    H1 1593   0.179   3.362   1.652 -0.2084 -0.3211  0.2323
  543TIP3    H2 1594   0.152   3.400   1.796 -3.3023 -2.6015  0.3642
  544TIP3   OH2 1595   3.982   3.162   0.415  0.1738 -0.5108 -0.3705
  544TIP3    H1 1596   4.057   3.172   0.357  0.8630 -0.6512  0.4660
  544TIP3    H2 1597   3.922   3.232   0.390  1.1121  0.3486 -0.2755
  545TIP3   OH2 1598   1.798   1.325   0.980 -1.1021  0.1347 -0.3640
  545TIP3    H1 1599   1.835   1.409   0.954  0.2780  0.0614  1.1447
  545TIP3    H2 1600   1.753   1.343   1.062 -1.2751 -0.4810 -0.3193
  546TIP3   OH2 1601   2.158   5.008   0.514  0.6764  0.1666 -0.4522
  546TIP3    H1 1602   2.121   5.062   0.444  0.6207 -0.0751 -0.6097
  546TIP3    H2 1603   2.240   5.051   0.537 -0.6582  1.9464  1.3546
  547TIP3   OH2 1604   6.703   4.107   2.620 -0.0986 -0.0233 -0.0509
  547TIP3    H1 1605   6.650   4.112   2.541 -0.3554  0.9484  0.1667
  547TIP3    H2 1606   6.720   4.198   2.643  0.2003 -0.2987  0.8603
  548TIP3   OH2 1607   7.239   5.783   1.474  0.1092  0.4035 -0.2016
  548TIP3    H1 1608   7.192   5.706   1.504  0.2685  1.1776  2.2982
  548TIP3    H2 1609   7.173   5.851   1.467  0.4411  0.8566  0.8677
  549TIP3   OH2 1610   1.609   6.177   4.250 -0.1724 -0.3198 -0.1927
  549TIP3    H1 1611   1.692   6.172   4.202  0.5446  1.7027  0.7377
  549TIP3    H2 1612   1.623   6.120   4.326 -0.9284 -2.6725 -1.7021
  550TIP3   OH2 1613   5.088   3.426   0.380 -0.7714  0.0373  0.3144
  550TIP3    H1 1614   5.092   3.396   0.289 -0.9140  0.9240 -0.0004
  550TIP3    H2 1615   5.068   3.347   0.430 -0.5063 -0.5018 -0.4002
  551TIP3   OH2 1616   4.087   0.746   5.038 -0.8263  0.4531  0.0996
  551TIP3    H1 1617   4.172   0.756   5.080  0.0321 -0.2815 -1.3887
  551TIP3    H2 1618   4.044   0.831   5.050 -0.1370  0.6496  1.3657
  552TIP3   OH2 1619   2.840   3.744   0.752 -0.1480 -0.1843  0.5191
  552TIP3    H1 1620   2.905   3.804   0.715  0.3767  0.0911  1.8351
  552TIP3    H2 1621   2.818   3.685   0.679 -0.1054  1.1022 -0.5849
  553TIP3   OH2 1622   4.020   0.674   1.237 -0.1339  0.2846  0.2541
  553TIP3    H1 1623   4.086   0.634   1.294 -2.0272 -1.4441  1.4352
  553TIP3    H2 1624   3.940   0.624   1.256 -1.8598  2.4340 -0.8647
  554TIP3   OH2 1625   3.015   5.220   0.874 -0.5152  0.5017  0.3508
  554TIP3    H1 1626   3.013   5.298   0.929 -0.7377 -0.5661  1.9208
  554TIP3    H2 1627   3.106   5.191   0.876 -0.9247 -0.8626  2.1856
  555TIP3   OH2 1628   6.327   3.377   2.985 -0.8021 -0.6693  0.2375
  555TIP3    H1 1629   6.305   3.324   2.909 -2.1100 -0.5671  0.5288
  555TIP3    H2 1630   6.391   3.324   3.033  0.9648 -0.2174 -1.5093
  556TIP3   OH2 1631   2.233   2.414   3.813  0.0604 -0.8009 -0.0572
  556TIP3    H1 1632   2.322   2.384   3.796  0.1993  0.8454 -2.8056
  556TIP3    H2 1633   2.240   2.468   3.891  1.7554  0.3229 -0.9392
  557TIP3   OH2 1634   6.314   6.202   2.139  0.3059 -0.1896  0.0024
  557TIP3    H1 1635   6.275   6.159   2.063 -0.0396  1.1401 -0.6129
  557TIP3    H2 1636   6.245   6.200   2.206 -1.4723  3.1877 -1.4574
  558TIP3   OH2 1637   4.011   0.836   1.863 -0.2774  0.6621  0.3038
  558TIP3    H1 1638   3.972   0.755   1.829  0.4197  0.2832  0.4016
  558TIP3    H2 1639   4.039   0.883   1.785  2.3998 -0.7376  0.3041
  559TIP3   OH2 1640   2.665   1.762   3.634  0.6213 -0.2872 -0.4124
  559TIP3    H1 1641   2.720   1.756   3.556  0.2358 -1.2001 -0.6227
  559TIP3    H2 1642   2.697   1.692   3.692  0.7051  0.1848  0.1225
  560TIP3   OH2 1643   6.406   5.183   0.518 -0.2998 -0.4601  0.1811
  560TIP3    H1 1644   6.314   5.170   0.494 -0.3230 -1.7354  0.8842
  560TIP3    H2 1645   6.404   5.192   0.614 -0.1214  3.5925 -0.0166
  561TIP3   OH2 1646   2.437   5.617   0.861 -0.1928 -0.0352  0.2093
  561TIP3    H1 1647   2.412   5.618   0.768 -0.3213  1.3296  0.2296
  561TIP3    H2 1648   2.362   5.579   0.906  0.5481 -2.3404 -0.3874
  562TIP3   OH2 1649   5.047   5.648   0.804 -0.1677  0.8447 -0.1059
  562TIP3    H1 1650   5.043   5.668   0.710  1.7067 -0.8170 -0.5980
  562TIP3    H2 1651   5.114   5.708   0.838  0.0249  0.6111 -0.0739
  563TIP3   OH2 1652   1.567   5.408   1.772 -0.0117 -0.0070  0.2180
  563TIP3    H1 1653   1.633   5.392   1.705  0.0250 -1.1563  0.4976
  563TIP3    H2 1654   1.488   5.364   1.740  0.7140 -2.9141  2.0531
  564TIP3   OH2 1655   0.120   3.085   2.576 -0.0290  0.2506 -0.0386
  564TIP3    H1 1656   0.135   2.991   2.585 -0.0713 -0.0833 -2.5460
  564TIP3    H2 1657   0.173   3.126   2.644 -0.1384 -1.5844  1.2005
  565TIP3   OH2 1658   6.230   2.794   5.415  0.2439  0.5957  0.3236
  565TIP3    H1 1659   6.154   2.851   5.399  0.9751  1.0124 -1.9012
  565TIP3    H2 1660   6.211   2.714   5.365  0.9579  0.4186  0.3284
  566TIP3   OH2 1661   3.573   4.274   1.842 -0.3683 -0.3459  0.0710
  566TIP3    H1 1662   3.593   4.230   1.759 -1.2253 -2.6332  1.0017
  566TIP3    H2 1663   3.581   4.367   1.822 -1.2195 -0.7863 -2.7545
  567TIP3   OH2 1664   4.652   4.449   3.866 -0.3185  0.2147 -0.1670
  567TIP3    H1 1665   4.716   4.439   3.795  1.3740  2.4839  0.9049
  567TIP3    H2 1666   4.596   4.521   3.836  0.2449  1.0056  0.6144
  568TIP3   OH2 1667   6.203   4.047   4.419 -0.3414  0.5142 -0.5459
  568TIP3    H1 1668   6.252   4.102   4.481 -2.3804  2.1811 -0.2687
  568TIP3    H2 1669   6.197   3.962   4.463  2.0857  0.2657 -0.5445
  569TIP3   OH2 1670   4.848   0.217   0.633  0.2589  0.9045  0.1687
  569TIP3    H1 1671   4.879   0.152   0.697  1.1952 -1.4332 -2.4231
  569TIP3    H2 1672   4.927   0.241   0.584 -0.7279  0.8308 -1.5404
  570TIP3   OH2 1673   2.684   0.891   0.223  0.1472 -0.2945 -0.3215
  570TIP3    H1 1674   2.658   0.832   0.153 -2.4431 -0.7005  0.8326
  570TIP3    H2 1675   2.642   0.974   0.201  1.9214  0.5073 -0.8035
  571TIP3   OH2 1676   0.418   3.255   4.398  0.1593 -0.4092  0.3305
  571TIP3    H1 1677   0.392   3.229   4.486 -1.6088 -1.9838 -0.6011
  571TIP3    H2 1678   0.453   3.175   4.359 -0.4613 -0.1173 -0.8752
  572TIP3   OH2 1679   4.766   4.071   2.495 -0.3461  0.0816  0.3998
  572TIP3    H1 1680   4.854   4.080   2.530  0.0040  0.1286 -0.4655
  572TIP3    H2 1681   4.720   4.150   2.524 -0.5991 -0.7107  2.2250
  573TIP3   OH2 1682   0.631   2.713   4.161 -0.0443  0.0878  0.4508
  573TIP3    H1 1683   0.672   2.793   4.128  0.7028 -0.7371 -0.7069
  573TIP3    H2 1684   0.657   2.645   4.098  0.2771 -1.2972  2.0206
  574TIP3   OH2 1685   1.195   2.113   5.084 -0.2415  0.0303 -0.1720
  574TIP3    H1 1686   1.204   2.193   5.135  2.8869 -0.4552  0.2849
  574TIP3    H2 1687   1.136   2.136   5.012 -0.2004  2.4343  0.4767
  575TIP3   OH2 1688   1.064   3.575   5.624  0.3419 -0.3268  0.0907
  575TIP3    H1 1689   1.101   3.541   5.543  3.1106 -0.7053  1.4162
  575TIP3    H2 1690   1.130   3.636   5.657 -1.0060  0.3081  1.7713
  576TIP3   OH2 1691   7.224   5.902   2.456 -0.4533 -0.3894  0.4797
  576TIP3    H1 1692   7.262   5.908   2.544 -1.9026 -2.9850  1.3925
  576TIP3    H2 1693   7.131   5.919   2.469 -0.8214 -1.6224 -0.3976
  577TIP3   OH2 1694   2.304   0.251   2.605 -0.2373 -0.0376 -0.1847
  577TIP3    H1 1695   2.222   0.261   2.654 -0.3258 -0.5034 -0.2380
  577TIP3    H2 1696   2.282   0.276   2.515 -0.0027  1.1164  0.0572
  578TIP3   OH2 1697   6.557   2.442   2.013 -0.3407  0.2558  0.3628
  578TIP3    H1 1698   6.468   2.417   2.040 -1.2364 -0.8891 -3.1806
  578TIP3    H2 1699   6.611   2.366   2.035 -0.6451  0.0888  0.5366
  579TIP3   OH2 1700   4.050   1.667   0.676 -0.3598 -0.6641 -0.7621
  579TIP3    H1 1701   4.029   1.757   0.700  1.7225  0.0609 -1.3993
  579TIP3    H2 1702   3.988   1.613   0.725 -1.5278  1.1061 -0.2286
  580TIP3   OH2 1703   0.483   5.723   3.740 -0.1762 -0.2001  0.3816
  580TIP3    H1 1704   0.453   5.660   3.675  0.3968  0.5410 -0.6285
  580TIP3    H2 1705   0.576   5.734   3.722  0.0126 -0.0477  1.3938
  581TIP3   OH2 1706   6.846   2.482   2.583  0.3394  0.1016  0.3361
  581TIP3    H1 1707   6.755   2.475   2.612  0.4271  2.3408  1.4193
  581TIP3    H2 1708   6.844   2.550   2.516  1.2037  0.1427  0.3425
  582TIP3   OH2 1709   5.398   3.736   0.851  0.1074  0.0880  0.1013
  582TIP3    H1 1710   5.347   3.659   0.875  2.2117 -0.1942  4.7833
  582TIP3    H2 1711   5.489   3.713   0.874  1.0627  3.3558  0.1869
  583TIP3   OH2 1712   4.508   2.032   2.748 -0.1071 -0.1689 -0.5021
  583TIP3    H1 1713   4.533   2.063   2.661 -1.1629  0.0678 -0.7326
  583TIP3    H2 1714   4.588   1.991   2.783  0.3806 -0.0863 -1.4923
  584TIP3   OH2 1715   2.582   2.757   0.974 -0.0752  0.0906 -0.4655
  584TIP3    H1 1716   2.592   2.848   1.001  0.3749  0.5586 -2.1242
  584TIP3    H2 1717   2.518   2.759   0.902 -1.1458 -1.1009  0.3870
  585TIP3   OH2 1718   3.000   4.960   1.921  0.1078  0.3122  0.2455
  585TIP3    H1 1719   3.024   5.052   1.913 -2.7279  1.1547  0.2124
  585TIP3    H2 1720   3.036   4.932   2.005 -0.7466  2.1021  1.2639
  586TIP3   OH2 1721   6.871   3.976   1.746 -0.5237 -0.2966 -0.2071
  586TIP3    H1 1722   6.951   4.026   1.731  0.2480 -1.2316  0.6247
  586TIP3    H2 1723   6.851   3.990   1.838  1.5089 -3.8530  1.0136
  587TIP3   OH2 1724   4.527   3.562   5.418  0.0403 -0.3823 -0.7226
  587TIP3    H1 1725   4.541   3.578   5.325  0.6522  2.8794 -0.1874
  587TIP3    H2 1726   4.436   3.533   5.424 -0.2609  0.1825 -2.2495
  588TIP3   OH2 1727   2.458   6.676   2.214  0.5436 -0.3069  0.5066
  588TIP3    H1 1728   2.493   6.631   2.290  0.5246 -0.4853  0.4109
  588TIP3    H2 1729   2.523   6.743   2.193 -0.0688  0.6410  1.4843
  589TIP3   OH2 1730   3.939   5.809   3.709 -0.1348  0.4991 -0.0813
  589TIP3    H1 1731   3.922   5.717   3.728 -0.8608  0.0123 -2.6322
  589TIP3    H2 1732   4.025   5.809   3.668  0.2050  1.0869  0.6166
  590TIP3   OH2 1733   3.302   6.508   3.550 -0.7469 -0.2838  0.2667
  590TIP3    H1 1734   3.281   6.595   3.514  0.4388 -0.7098 -1.5971
  590TIP3    H2 1735   3.220   6.459   3.541 -0.4487 -0.4729 -2.3367
  591TIP3   OH2 1736   2.226   1.730   3.144 -0.3958 -0.9876  0.1389
  591TIP3    H1 1737   2.215   1.637   3.124  0.5717 -1.6635  2.4343
  591TIP3    H2 1738   2.148   1.753   3.194 -0.7088 -0.4984 -0.5594
  592TIP3   OH2 1739   6.965   0.114   2.884 -0.3011 -0.2956 -0.3166
  592TIP3    H1 1740   7.030   0.183   2.870  2.3200 -2.0609  2.0080
  592TIP3    H2 1741   6.983   0.049   2.815  0.4347 -0.7609  0.2967
  593TIP3   OH2 1742   5.698   0.440   0.013 -0.1047  0.0075 -0.2371
  593TIP3    H1 1743   5.764   0.493  -0.031  0.6276 -0.2306  0.5535
  593TIP3    H2 1744   5.649   0.501   0.068  1.2069 -0.2135  1.2330
  594TIP3   OH2 1745   6.687   3.113   4.594  0.5464  1.0965 -0.0017
  594TIP3    H1 1746   6.726   3.120   4.682  1.4887 -0.4751 -0.2627
  594TIP3    H2 1747   6.756   3.074   4.540 -0.0812  1.8882 -1.4192
  595TIP3   OH2 1748   1.506   5.589   0.743 -0.3354  0.3354 -0.5592
  595TIP3    H1 1749   1.520   5.573   0.836  0.6201 -0.1257 -0.7759
  595TIP3    H2 1750   1.559   5.523   0.698 -1.0634  0.3169 -1.4388
  596TIP3   OH2 1751   6.745   2.677   0.889 -0.5364 -0.1951 -0.1681
  596TIP3    H1 1752   6.736   2.757   0.836  1.3860 -0.5108 -1.0385
  596TIP3    H2 1753   6.661   2.670   0.935 -1.2452  1.5990 -1.0749
  597TIP3   OH2 1754   3.246   6.480   4.836 -0.4055  0.0220 -0.2911
  597TIP3    H1 1755   3.211   6.407   4.785  1.1374  0.9863 -2.9565
  597TIP3    H2 1756   3.173   6.542   4.842 -0.6306 -0.1099 -1.3924
  598TIP3   OH2 1757   0.167   3.436   1.003  0.3191 -0.5624 -0.2584
  598TIP3    H1 1758   0.073   3.420   0.995  0.6206 -2.4751 -0.5240
  598TIP3    H2 1759   0.205   3.392   0.926  1.3219  1.5552 -1.0411
  599TIP3   OH2 1760   7.137   6.231   5.265 -0.4877  0.0536  0.2783
  599TIP3    H1 1761   7.097   6.286   5.197  3.4676  1.9213 -0.8426
  599TIP3    H2 1762   7.145   6.289   5.341 -0.6484 -0.5484  0.7600
  600TIP3   OH2 1763   0.386   1.587   5.004 -0.2594 -0.9644 -0.5563
  600TIP3    H1 1764   0.458   1.584   5.066 -1.2520 -1.8565  0.6117
  600TIP3    H2 1765   0.396   1.508   4.951 -0.7407 -1.4260  0.0377
  601TIP3   OH2 1766   3.148   4.870   2.155 -0.1174  0.7382  0.0470
  601TIP3    H1 1767   3.072   4.858   2.212 -0.0033  0.3176  0.1106
  601TIP3    H2 1768   3.219   4.825   2.201  0.0787  0.7926 -0.2065
  602TIP3   OH2 1769   6.828   4.690   3.970 -0.7216 -0.5738  0.1454
  602TIP3    H1 1770   6.806   4.718   4.059  1.1224 -0.1886  0.5276
  602TIP3    H2 1771   6.860   4.600   3.980  1.1863  0.0603  0.1972
  603TIP3   OH2 1772   2.220   5.067   4.156 -0.4199  0.2339 -0.0731
  603TIP3    H1 1773   2.182   5.133   4.098  0.0413 -0.7527 -1.5517
  603TIP3    H2 1774   2.146   5.011   4.180 -0.8932  1.4777  1.5200
  604TIP3   OH2 1775   3.269   4.155   5.744  0.4188 -0.8422  0.0302
  604TIP3    H1 1776   3.175   4.136   5.734  0.2013 -0.0547  0.4775
  604TIP3    H2 1777   3.275   4.203   5.826  1.1693 -0.5751 -0.1744
  605TIP3   OH2 1778   0.712   1.965   1.769 -0.5757  0.3185 -0.5820
  605TIP3    H1 1779   0.788   2.020   1.787  0.7377 -1.3501 -0.8144
  605TIP3    H2 1780   0.727   1.930   1.682 -1.0358 -0.9216 -0.1932
  606TIP3   OH2 1781   3.538   3.373   0.403  0.1896  0.0301 -0.1098
  606TIP3    H1 1782   3.477   3.363   0.330  1.7151 -0.5289 -1.3542
  606TIP3    H2 1783   3.563   3.284   0.426  1.3617  0.2818 -0.3532
  607TIP3   OH2 1784   6.810   6.052   5.076 -0.2702  0.0790 -0.1680
  607TIP3    H1 1785   6.833   5.970   5.118 -2.8209 -0.8792 -0.4903
  607TIP3    H2 1786   6.759   6.099   5.141  1.0550  1.4227 -0.0343
  608TIP3   OH2 1787   6.622   2.913   1.321  0.2249  0.1164  0.0456
  608TIP3    H1 1788   6.599   2.859   1.246  0.3600  1.0719 -0.7048
  608TIP3    H2 1789   6.593   2.863   1.397 -2.4365  0.3215 -0.7357
  609TIP3   OH2 1790   0.170   4.183   3.913  0.1375 -0.0099 -0.2143
  609TIP3    H1 1791   0.129   4.225   3.837  0.0769 -0.5976 -0.5099
  609TIP3    H2 1792   0.106   4.192   3.984 -0.6367 -1.1587 -0.7386
  610TIP3   OH2 1793   6.902   1.639   5.136  0.0298  0.1152  0.0898
  610TIP3    H1 1794   6.877   1.688   5.058 -1.3786 -1.7451 -0.6931
  610TIP3    H2 1795   6.953   1.566   5.102  0.8101  0.1712  1.0969
  611TIP3   OH2 1796   6.946   2.283   3.928 -0.1236  0.6027 -0.1480
  611TIP3    H1 1797   6.850   2.282   3.923 -0.1186  2.3685 -2.8965
  611TIP3    H2 1798   6.968   2.376   3.933  1.4973  0.1963  2.9465
  612TIP3   OH2 1799   4.680   5.000   0.749 -0.3943 -0.5897  0.0438
  612TIP3    H1 1800   4.587   5.015   0.762 -0.3546 -0.9234  0.7313
  612TIP3    H2 1801   4.692   5.002   0.654 -0.9195  0.5376 -0.0203
  613TIP3   OH2 1802   6.850   4.059   5.408 -0.3072  0.1145  0.0210
  613TIP3    H1 1803   6.775   4.040   5.465 -0.4597  1.5655  0.3345
  613TIP3    H2 1804   6.919   4.002   5.441 -1.3225 -1.4717 -0.4603
  614TIP3   OH2 1805   3.120   6.695   2.404  0.3288  0.0350 -0.5220
  614TIP3    H1 1806   3.104   6.611   2.446  0.0669  0.4836  0.3208
  614TIP3    H2 1807   3.133   6.756   2.478 -0.2107  0.8673 -1.0979
  615TIP3   OH2 1808   1.509   6.172   0.205 -0.0330  0.1705 -0.1713
  615TIP3    H1 1809   1.459   6.240   0.251 -1.5298  1.2668 -3.1533
  615TIP3    H2 1810   1.459   6.092   0.221 -0.5281  0.5257  0.1134
  616TIP3   OH2 1811   3.241   2.085   1.690  0.5119 -0.5341  0.6154
  616TIP3    H1 1812   3.147   2.069   1.699  0.2202  0.4783 -0.3948
  616TIP3    H2 1813   3.257   2.164   1.742  1.1830 -1.7371  2.3213
  617TIP3   OH2 1814   5.465   6.428   4.262  0.4361  0.5270 -0.1769
  617TIP3    H1 1815   5.539   6.384   4.303  1.7629 -0.2433 -3.1506
  617TIP3    H2 1816   5.492   6.520   4.256  0.6614  0.4558 -0.2443
  618TIP3   OH2 1817   2.189   1.476   0.457 -0.4747 -0.0434 -0.3063
  618TIP3    H1 1818   2.201   1.466   0.362 -2.2547  1.4383 -0.7348
  618TIP3    H2 1819   2.223   1.563   0.476 -0.5523 -0.1536  0.3488
  619TIP3   OH2 1820   6.150   2.335   3.054  0.1205  0.3521  0.6675
  619TIP3    H1 1821   6.115   2.415   3.093 -0.4929  0.8180 -0.7652
  619TIP3    H2 1822   6.180   2.362   2.967  0.8961 -0.7651  0.5663
  620TIP3   OH2 1823   1.578   2.646   0.558 -0.3127 -0.2026 -0.5289
  620TIP3    H1 1824   1.538   2.564   0.530 -0.3218  0.0219 -1.1729
  620TIP3    H2 1825   1.530   2.669   0.638 -0.4331 -0.7221 -0.4412
  621TIP3   OH2 1826   2.521   6.499   3.888  0.7425  0.3747 -0.0170
  621TIP3    H1 1827   2.462   6.573   3.900  1.1759  0.4346  2.2651
  621TIP3    H2 1828   2.601   6.525   3.934  0.9508 -1.4262  0.7104
  622TIP3   OH2 1829   0.504   2.838   3.079 -0.0297 -0.0594 -0.4552
  622TIP3    H1 1830   0.417   2.878   3.088 -1.4500 -2.1664 -2.9872
  622TIP3    H2 1831   0.543   2.844   3.166 -2.4503  1.5194  0.6404
  623TIP3   OH2 1832   6.502   5.578   4.819 -0.3894 -0.4599  0.0325
  623TIP3    H1 1833   6.536   5.658   4.859  0.3589 -1.3658  1.2939
  623TIP3    H2 1834   6.521   5.589   4.725  0.3878  0.5094  0.2753
  624TIP3   OH2 1835   0.720   2.918   4.569 -0.2073 -0.3092 -0.0954
  624TIP3    H1 1836   0.787   2.851   4.585  1.7197  1.6336  0.4272
  624TIP3    H2 1837   0.668   2.920   4.649  0.2209 -0.6283  0.1960
  625TIP3   OH2 1838   3.421   2.015   4.731 -0.1203  0.2529 -0.5082
  625TIP3    H1 1839   3.366   1.964   4.672 -0.6386  1.4596 -1.1199
  625TIP3    H2 1840   3.369   2.024   4.810  0.2703 -0.7438 -0.1202
  626TIP3   OH2 1841   0.267   3.792   2.952 -0.1550 -0.0603 -0.1026
  626TIP3    H1 1842   0.352   3.778   2.912 -0.2449 -1.4750  0.1562
  626TIP3    H2 1843   0.219   3.711   2.936 -0.8148  0.0170  1.3066
  627TIP3   OH2 1844   4.456   1.171   4.037 -0.1311  0.4451  0.2003
  627TIP3    H1 1845   4.477   1.100   4.098 -0.1480  0.5836  0.3697
  627TIP3    H2 1846   4.523   1.237   4.054  0.8254 -0.1763 -1.0442
  628TIP3   OH2 1847   4.628   2.470   3.119 -0.6100 -0.1574  0.1898
  628TIP3    H1 1848   4.662   2.412   3.051  1.0426  0.7485  0.1889
  628TIP3    H2 1849   4.614   2.554   3.074 -0.7869  0.0721  0.6625
  629TIP3   OH2 1850   4.022   3.028   2.739 -0.0558  0.0573  0.5724
  629TIP3    H1 1851   3.957   2.958   2.738  0.8149 -0.7974  1.5541
  629TIP3    H2 1852   3.994   3.086   2.810  0.5954 -0.6808  1.4591
  630TIP3   OH2 1853   5.100   3.671   1.430 -0.5226  0.3484  0.5413
  630TIP3    H1 1854   5.076   3.758   1.398 -0.6089 -0.4020 -1.5561
  630TIP3    H2 1855   5.159   3.636   1.364 -1.7074 -1.7747  0.5091
  631TIP3   OH2 1856   1.828   6.771   0.086 -0.4343 -0.2910  0.2221
  631TIP3    H1 1857   1.831   6.836   0.015  0.8099 -2.1801 -1.5997
  631TIP3    H2 1858   1.745   6.725   0.073 -0.6273 -0.0435  0.5744
  632TIP3   OH2 1859   3.221   3.864   4.336  0.4558  0.1864 -0.0090
  632TIP3    H1 1860   3.172   3.782   4.330 -1.5231  1.4251 -2.2329
  632TIP3    H2 1861   3.242   3.887   4.246  2.2477  1.4506  0.6665
  633TIP3   OH2 1862   3.676   2.867   4.280  0.0909  0.3729  0.1276
  633TIP3    H1 1863   3.607   2.897   4.221  1.8265  0.1012 -2.1982
  633TIP3    H2 1864   3.645   2.783   4.312 -0.2509 -0.2775 -1.7517
  634TIP3   OH2 1865   1.029   1.689   5.564  0.1412 -0.2301 -0.4208
  634TIP3    H1 1866   1.021   1.779   5.532 -0.6302 -0.9034 -2.2584
  634TIP3    H2 1867   1.106   1.655   5.518  1.2924 -0.1129  1.3490
  635TIP3   OH2 1868   4.738   2.915   5.498 -0.1233 -0.2035  0.0157
  635TIP3    H1 1869   4.699   2.889   5.414  1.4260 -0.2341 -0.7190
  635TIP3    H2 1870   4.740   2.835   5.550  0.0579 -0.4562 -0.3811
  636TIP3   OH2 1871   2.985   0.974   1.407 -0.3123  0.5112  0.4190
  636TIP3    H1 1872   2.965   0.880   1.406  0.2720  0.3818  0.6638
  636TIP3    H2 1873   2.899   1.017   1.412 -0.8036  0.0746 -2.3295
  637TIP3   OH2 1874   4.513   1.044   0.664  0.4868 -0.0448 -0.8021
  637TIP3    H1 1875   4.545   0.954   0.672  1.1679 -0.1351 -3.4367
  637TIP3    H2 1876   4.458   1.042   0.586 -0.4045  1.6164 -0.2523
  638TIP3   OH2 1877   7.142   4.084   0.440  0.9726  0.3698 -0.0916
  638TIP3    H1 1878   7.233   4.098   0.416  0.4610  2.0820 -1.2189
  638TIP3    H2 1879   7.094   4.092   0.358 -0.2304 -0.1276  0.5423
  639TIP3   OH2 1880   4.752   0.243   2.437 -0.3177  0.4126  0.1249
  639TIP3    H1 1881   4.842   0.216   2.424 -0.4518 -0.7560  1.4030
  639TIP3    H2 1882   4.758   0.328   2.480  0.3001 -1.0840  3.2395
  640TIP3   OH2 1883   2.777   0.659   2.733 -0.0023  0.2418 -0.4156
  640TIP3    H1 1884   2.764   0.700   2.647  0.6344  2.9101  0.6707
  640TIP3    H2 1885   2.872   0.660   2.746 -0.0999 -0.0111  0.3841
  641TIP3   OH2 1886   4.629   5.224   2.003 -0.6255  1.0859 -0.0431
  641TIP3    H1 1887   4.539   5.242   2.033 -1.0228  1.5409 -1.4402
  641TIP3    H2 1888   4.651   5.298   1.948 -0.3032 -0.1625 -1.6718
  642TIP3   OH2 1889   3.054   1.362   4.546  0.6010 -0.3723  0.3491
  642TIP3    H1 1890   3.121   1.430   4.538 -0.6130  0.9443  0.9019
  642TIP3    H2 1891   3.099   1.281   4.523  1.4309  0.9247 -3.1729
  643TIP3   OH2 1892   4.661   3.665   4.779 -0.1441 -0.7411  0.3585
  643TIP3    H1 1893   4.691   3.595   4.836  1.8346  0.1146  0.4492
  643TIP3    H2 1894   4.741   3.700   4.739 -1.2513  0.1968 -1.1767
  644TIP3   OH2 1895   4.755   5.762   5.394 -0.1554  0.0786 -0.1287
  644TIP3    H1 1896   4.720   5.839   5.350  0.3388  0.1987 -0.3173
  644TIP3    H2 1897   4.849   5.766   5.379 -0.1219 -0.5613 -0.1396
  645TIP3   OH2 1898   4.301   4.708   5.058  0.0695  0.1127 -0.2516
  645TIP3    H1 1899   4.309   4.767   4.983 -1.2049  1.5776  0.7012
  645TIP3    H2 1900   4.228   4.650   5.035  1.0071 -0.8089 -0.9831
  646TIP3   OH2 1901   7.152   5.047   1.355  0.3740  0.8593  0.1504
  646TIP3    H1 1902   7.149   5.057   1.450 -0.1861  2.5359 -0.0194
  646TIP3    H2 1903   7.073   4.997   1.334 -0.2120  1.6372  0.4523
  647TIP3   OH2 1904   1.158   2.684   2.246 -0.1973 -0.0330  0.0535
  647TIP3    H1 1905   1.233   2.734   2.216  0.5455 -0.9339  0.3398
  647TIP3    H2 1906   1.192   2.595   2.261 -1.1869 -0.3329  0.7105
  648TIP3   OH2 1907   3.703   0.809   3.066 -0.1038 -0.4074 -0.0270
  648TIP3    H1 1908   3.756   0.881   3.031  0.2517  0.1308  1.4920
  648TIP3    H2 1909   3.620   0.814   3.018 -0.1360  1.1287  0.1379
  649TIP3   OH2 1910   0.462   4.869   2.934 -0.0401 -0.0699 -0.2670
  649TIP3    H1 1911   0.450   4.813   3.011 -0.8846  1.1637  0.5347
  649TIP3    H2 1912   0.373   4.882   2.900  0.2053  0.3659 -0.7479
  650TIP3   OH2 1913   2.297   0.506   1.550 -0.1881 -0.4982 -0.5685
  650TIP3    H1 1914   2.286   0.598   1.577 -0.6447 -0.3916 -1.0875
  650TIP3    H2 1915   2.360   0.510   1.478  0.7302 -0.7374  0.2067
  651TIP3   OH2 1916   6.330   5.921   3.826 -0.2935  0.5559  0.0130
  651TIP3    H1 1917   6.327   5.886   3.915 -0.9354  1.4612  0.3694
  651TIP3    H2 1918   6.331   5.844   3.769  1.2292 -0.0487  0.8070
  652TIP3   OH2 1919   1.809   2.843   0.839 -0.3414 -0.0447 -0.4395
  652TIP3    H1 1920   1.821   2.792   0.919  0.8522  0.6117 -0.1689
  652TIP3    H2 1921   1.849   2.790   0.770  1.9452  0.9298  0.0209
  653TIP3   OH2 1922   6.671   2.016   4.546 -0.1123 -0.5932 -1.0704
  653TIP3    H1 1923   6.648   2.068   4.470  0.3451 -1.4504 -1.8132
  653TIP3    H2 1924   6.657   1.925   4.518  0.3175 -0.9334 -0.2228
  654TIP3   OH2 1925   5.859   0.498   2.936  0.2523  0.4845  0.5560
  654TIP3    H1 1926   5.931   0.527   2.881  0.5470 -1.1003  0.0494
  654TIP3    H2 1927   5.901   0.457   3.012 -0.0081 -1.9348 -0.5172
  655TIP3   OH2 1928   3.069   0.619   4.936 -0.6031 -0.1023 -0.2838
  655TIP3    H1 1929   3.112   0.553   4.882  0.8728  0.9353 -0.4407
  655TIP3    H2 1930   3.003   0.658   4.879 -0.8247 -0.7753 -0.4959
  656TIP3   OH2 1931   1.921   4.239   1.751 -0.3162 -0.1547  0.5933
  656TIP3    H1 1932   1.858   4.311   1.755 -0.4233 -0.0444 -1.5986
  656TIP3    H2 1933   1.889   4.175   1.814 -1.2840  0.9115  1.2222
  657TIP3   OH2 1934   5.841   4.974   3.788 -0.1812  0.0292  0.0662
  657TIP3    H1 1935   5.922   4.928   3.765 -0.6851 -1.8771  1.7830
  657TIP3    H2 1936   5.858   5.013   3.874 -0.8167  0.3233  0.0672
  658TIP3   OH2 1937   5.919   2.485   1.757  0.6274  0.0443 -0.3214
  658TIP3    H1 1938   5.901   2.415   1.694 -0.7872 -0.8135  0.9548
  658TIP3    H2 1939   5.997   2.528   1.724  1.9068 -2.5110 -0.8458
  659TIP3   OH2 1940   7.020   2.887   2.702  0.0706  0.2908 -0.3553
  659TIP3    H1 1941   7.019   2.887   2.798 -1.9975 -1.7077 -0.2728
  659TIP3    H2 1942   7.057   2.802   2.679  0.0982  0.5537 -1.3116
  660TIP3   OH2 1943   4.317   5.824   5.568 -0.6001 -0.1518 -0.2038
  660TIP3    H1 1944   4.273   5.746   5.602  0.1189 -0.5597 -0.1945
  660TIP3    H2 1945   4.343   5.872   5.647 -0.2665 -0.3402 -0.2004
  661TIP3   OH2 1946   2.799   4.148   1.537 -0.1876  0.5638  0.1655
  661TIP3    H1 1947   2.890   4.128   1.560 -0.0860  1.0689  0.2244
  661TIP3    H2 1948   2.801   4.158   1.442 -0.4673 -0.8212 -0.0016
  662TIP3   OH2 1949   5.657   0.761   1.462 -0.1807 -0.2260  0.3954
  662TIP3    H1 1950   5.729   0.744   1.523 -0.9921  0.2776  1.5366
  662TIP3    H2 1951   5.581   0.773   1.519 -1.0437 -0.1369 -0.7552
  663TIP3   OH2 1952   6.729   5.473   2.620 -0.1593 -0.4064 -0.2875
  663TIP3    H1 1953   6.750   5.562   2.650 -0.9021  0.1066 -1.2580
  663TIP3    H2 1954   6.634   5.469   2.623 -0.1885 -0.7591 -1.4081
  664TIP3   OH2 1955   0.262   1.603   0.124  0.1256 -0.2436  0.1624
  664TIP3    H1 1956   0.331   1.658   0.162 -0.4213 -0.8897  2.1922
  664TIP3    H2 1957   0.203   1.666   0.081  0.1396  0.6820  1.4231
  665TIP3   OH2 1958   3.348   1.714   1.345  0.2958  0.0630 -0.1593
  665TIP3    H1 1959   3.328   1.803   1.318  0.3572  0.4405  0.9887
  665TIP3    H2 1960   3.267   1.682   1.385  0.3814 -0.2639 -0.2464
  666TIP3   OH2 1961   2.827   6.174   1.632 -0.2032 -0.4490  0.2071
  666TIP3    H1 1962   2.792   6.195   1.546  0.9685 -0.4588 -0.2908
  666TIP3    H2 1963   2.883   6.249   1.654  0.2408 -0.8659  0.5362
  667TIP3   OH2 1964   4.768   5.814   0.748  0.5237 -0.4036  0.2157
  667TIP3    H1 1965   4.863   5.817   0.740  0.7301 -0.6953  2.1214
  667TIP3    H2 1966   4.744   5.724   0.725  0.9142 -0.8121  1.3414
  668TIP3   OH2 1967   6.607   4.450   3.504  0.4008 -0.0307  0.3730
  668TIP3    H1 1968   6.572   4.482   3.587  1.6101  0.2010  0.8030
  668TIP3    H2 1969   6.539   4.472   3.440 -0.1730  0.5430  1.1627
  669TIP3   OH2 1970   4.292   1.265   2.829  0.0938  0.0995  0.1819
  669TIP3    H1 1971   4.348   1.259   2.752 -0.5061 -0.4837 -0.2227
  669TIP3    H2 1972   4.203   1.267   2.794 -0.2387 -1.3292  0.8931
  670TIP3   OH2 1973   3.513   6.378   3.105  0.4795 -0.7271 -0.0465
  670TIP3    H1 1974   3.597   6.411   3.134 -0.7325  0.9461  1.7974
  670TIP3    H2 1975   3.468   6.351   3.185 -0.8405 -1.3533 -0.9501
  671TIP3   OH2 1976   0.661   3.203   3.204 -0.0226  0.4675  0.1071
  671TIP3    H1 1977   0.723   3.183   3.134  1.5089 -0.1064  1.5472
  671TIP3    H2 1978   0.714   3.250   3.270 -1.0963 -0.0685  1.3959
  672TIP3   OH2 1979   4.968   3.344   3.688  0.8240 -0.2355 -0.4583
  672TIP3    H1 1980   4.938   3.361   3.777  0.3570 -0.1812 -0.6233
  672TIP3    H2 1981   5.024   3.267   3.696 -0.0786 -0.8940 -0.2690
  673TIP3   OH2 1982   5.792   0.148   1.473 -0.3828 -0.2437  0.4717
  673TIP3    H1 1983   5.840   0.094   1.411  0.9100 -0.2391  1.4294
  673TIP3    H2 1984   5.757   0.220   1.420 -1.4288 -1.5177 -0.6671
  674TIP3   OH2 1985   3.882   6.423   2.049  0.0118  0.2847  0.5299
  674TIP3    H1 1986   3.863   6.514   2.075  1.4919  0.2200  1.9431
  674TIP3    H2 1987   3.972   6.425   2.019 -0.9631 -0.0984 -2.7660
  675TIP3   OH2 1988   5.855   3.903   1.573  0.3969 -0.2955  0.6004
  675TIP3    H1 1989   5.802   3.933   1.500  1.9906 -0.4629 -0.6867
  675TIP3    H2 1990   5.887   3.817   1.547 -1.7112 -1.9453  2.9906
  676TIP3   OH2 1991   2.688   1.184   5.157  0.1932 -0.5156 -0.1647
  676TIP3    H1 1992   2.647   1.172   5.243  0.5942 -2.0229 -0.1519
  676TIP3    H2 1993   2.663   1.272   5.130 -1.2647 -0.6103  0.7930
  677TIP3   OH2 1994   5.341   1.548   3.156  0.3586  0.3157  0.2446
  677TIP3    H1 1995   5.280   1.609   3.114  0.3477  0.8007  0.9607
  677TIP3    H2 1996   5.302   1.462   3.142 -0.5473  0.6327  0.7886
  678TIP3   OH2 1997   3.443   2.814   5.288 -0.4326 -0.0168 -0.3308
  678TIP3    H1 1998   3.488   2.730   5.299 -1.4998 -0.7948 -1.5563
  678TIP3    H2 1999   3.424   2.818   5.194 -0.9443  1.3230 -0.1894
  679TIP3   OH2 2000   5.532   0.504   3.892 -0.2794 -0.5353  0.3658
  679TIP3    H1 2001   5.476   0.426   3.882 -2.3300  0.9704 -0.7023
  679TIP3    H2 2002   5.471   0.574   3.914  1.3280  1.0532 -0.0332
  680TIP3   OH2 2003   3.318   0.559   4.184  0.5819 -0.0378 -0.4084
  680TIP3    H1 2004   3.413   0.577   4.181  1.7518 -4.0018  3.1503
  680TIP3    H2 2005   3.291   0.591   4.270 -0.8094 -0.9943 -0.4657
  681TIP3   OH2 2006   3.594   5.579   1.385  0.0826  0.1546 -0.1550
  681TIP3    H1 2007   3.577   5.565   1.292  1.5394  0.1043 -0.4338
  681TIP3    H2 2008   3.556   5.502   1.428  1.8877 -1.2612 -1.0012
  682TIP3   OH2 2009   0.384   1.305   1.355  0.2387  0.1382 -0.7841
  682TIP3    H1 2010   0.361   1.308   1.262  0.3581  1.2490 -0.7882
  682TIP3    H2 2011   0.471   1.265   1.356 -0.3931 -1.2990 -1.0118
  683TIP3   OH2 2012   2.839   6.090   4.649 -0.6653 -0.2868  0.0829
  683TIP3    H1 2013   2.772   6.158   4.650  1.0388  1.4885 -0.2895
  683TIP3    H2 2014   2.910   6.125   4.702  0.8638 -1.1000 -1.3304
  684TIP3   OH2 2015   6.794   3.102   5.443  0.4843 -0.3771 -0.4177
  684TIP3    H1 2016   6.741   3.163   5.392  2.2827  0.7672 -1.0175
  684TIP3    H2 2017   6.883   3.113   5.409  1.4381 -0.9261  1.7302
  685TIP3   OH2 2018   4.011   4.685   1.243  0.3413 -0.0354 -0.1535
  685TIP3    H1 2019   4.011   4.592   1.221  1.2422 -0.0837  0.0177
  685TIP3    H2 2020   4.061   4.691   1.324  0.1842  0.5841 -0.0979
  686TIP3   OH2 2021   2.140   2.652   5.229  0.0326 -0.3517  0.0815
  686TIP3    H1 2022   2.082   2.581   5.258  2.4540 -3.4066 -1.8819
  686TIP3    H2 2023   2.088   2.700   5.164 -2.3376  1.1125  2.8093
  687TIP3   OH2 2024   2.933   4.372   2.583 -0.0654 -0.0926  0.5463
  687TIP3    H1 2025   3.016   4.361   2.537  0.6914  0.8367  1.6520
  687TIP3    H2 2026   2.899   4.457   2.554  0.3017  0.3913  1.4963
  688TIP3   OH2 2027   2.208   4.205   1.708 -0.4674  0.8712  0.4703
  688TIP3    H1 2028   2.117   4.222   1.732  0.1621  2.5448  1.8944
  688TIP3    H2 2029   2.217   4.110   1.712 -1.9265  0.7393  1.1541
  689TIP3   OH2 2030   5.251   3.206   4.875 -0.3968 -0.0558  0.2728
  689TIP3    H1 2031   5.203   3.249   4.804  0.1880  1.3799  0.7213
  689TIP3    H2 2032   5.296   3.133   4.832  0.4082  1.1308 -0.9780
  690TIP3   OH2 2033   5.049   2.283   0.639 -0.1188 -0.4954 -0.5365
  690TIP3    H1 2034   4.984   2.216   0.619 -0.5895 -0.5607  1.0913
  690TIP3    H2 2035   5.006   2.365   0.615  0.1703 -0.7009 -1.8169
  691TIP3   OH2 2036   0.383   3.272   5.833 -0.1285 -0.1442  0.2532
  691TIP3    H1 2037   0.412   3.359   5.806  2.1829 -0.8188  0.3554
  691TIP3    H2 2038   0.410   3.214   5.761 -2.5596 -0.6966 -0.2997
  692TIP3   OH2 2039   4.693   2.985   1.948 -0.1933 -0.7208 -0.4226
  692TIP3    H1 2040   4.762   2.919   1.951 -0.1842 -0.7603 -1.2357
  692TIP3    H2 2041   4.618   2.943   1.991 -0.2175 -1.3096 -1.0201
  693TIP3   OH2 2042   3.254   4.427   0.157 -0.4173 -0.0614 -0.0783
  693TIP3    H1 2043   3.316   4.398   0.090  2.2461 -0.9212  2.5761
  693TIP3    H2 2044   3.207   4.348   0.182 -1.9076  0.3832 -1.2724
  694TIP3   OH2 2045   5.600   4.066   3.054  0.1886  0.7210 -0.3277
  694TIP3    H1 2046   5.572   4.008   3.125 -0.9228  2.9866  1.2349
  694TIP3    H2 2047   5.684   4.032   3.026 -0.3601 -1.5249  0.5898
  695TIP3   OH2 2048   4.370   3.003   3.271  0.7489  0.4087  0.2329
  695TIP3    H1 2049   4.370   3.004   3.367  3.3086  0.6439  0.2897
  695TIP3    H2 2050   4.389   3.094   3.247  0.6420  0.2403 -0.4810
  696TIP3   OH2 2051   2.685   6.324   4.734  0.0208  0.2852  0.5533
  696TIP3    H1 2052   2.684   6.364   4.647  2.0501  1.3240  0.9542
  696TIP3    H2 2053   2.619   6.373   4.784 -1.4540 -0.5841 -0.4519
  697TIP3   OH2 2054   2.690   2.195   1.167  0.5655 -0.2744 -0.2346
  697TIP3    H1 2055   2.761   2.198   1.231  1.0522 -2.1968 -0.6194
  697TIP3    H2 2056   2.734   2.200   1.083 -0.0758  2.2820 -0.5184
  698TIP3   OH2 2057   6.790   0.692   1.355 -0.2369  0.1230 -0.3325
  698TIP3    H1 2058   6.762   0.626   1.419  0.7784  0.2024  0.2232
  698TIP3    H2 2059   6.861   0.650   1.307  0.6303  0.8943  0.2340
  699TIP3   OH2 2060   0.054   2.087   3.511  0.3557  0.0474 -0.1779
  699TIP3    H1 2061   0.037   1.998   3.541 -0.2388  0.5980  1.2103
  699TIP3    H2 2062  -0.023   2.110   3.460 -0.0575  0.1864  0.4957
  700TIP3   OH2 2063   2.335   3.411   4.399  0.0411 -0.1748  0.4084
  700TIP3    H1 2064   2.405   3.378   4.455  3.3080  0.8097 -2.6508
  700TIP3    H2 2065   2.356   3.504   4.387 -2.3769  0.4019  0.0322
  701TIP3   OH2 2066   2.210   3.429   0.828  0.1301 -0.7404 -1.1738
  701TIP3    H1 2067   2.135   3.381   0.864  0.2563 -0.1779 -0.1200
  701TIP3    H2 2068   2.179   3.519   0.822  0.9279 -0.3751 -0.0690
  702TIP3   OH2 2069   6.601   6.649   1.846  0.0622 -0.1233 -0.5456
  702TIP3    H1 2070   6.524   6.618   1.798  0.7156 -0.0047 -1.6878
  702TIP3    H2 2071   6.574   6.734   1.880  0.0752  0.4782 -1.9762
  703TIP3   OH2 2072   6.197   1.200   4.196 -0.1660 -0.3701 -0.7383
  703TIP3    H1 2073   6.209   1.197   4.101  1.9471 -0.6395 -0.5188
  703TIP3    H2 2074   6.190   1.293   4.216 -1.8243 -0.3592 -1.2508
  704TIP3   OH2 2075   4.787   6.164   2.356 -0.3030  0.0132 -0.0864
  704TIP3    H1 2076   4.858   6.224   2.332  0.5795 -0.5794  0.9076
  704TIP3    H2 2077   4.828   6.103   2.418 -1.4109 -1.0266 -0.3341
  705TIP3   OH2 2078   4.824   6.610   3.347 -0.5900  0.1076 -0.0277
  705TIP3    H1 2079   4.767   6.575   3.415 -0.0301 -0.2250  0.2785
  705TIP3    H2 2080   4.907   6.625   3.392 -0.2504 -0.0064 -0.6127
  706TIP3   OH2 2081   5.060   1.244   1.977  0.7738 -0.5088  0.0285
  706TIP3    H1 2082   5.034   1.166   1.928  0.3435 -0.0417 -0.5035
  706TIP3    H2 2083   5.109   1.297   1.915  1.2669 -0.4620  0.4547
  707TIP3   OH2 2084   2.055   0.673   2.349 -0.0534  0.2890  0.1363
  707TIP3    H1 2085   2.086   0.702   2.435 -0.3846 -0.0969  0.3944
  707TIP3    H2 2086   1.960   0.683   2.354 -0.5384 -3.3502  1.2762
  708TIP3   OH2 2087   5.673   3.100   5.787 -0.0311  0.0495 -0.3793
  708TIP3    H1 2088   5.655   3.017   5.743  0.1753  0.0071 -0.3863
  708TIP3    H2 2089   5.655   3.167   5.721  0.7334 -0.0346 -0.6827
  709TIP3   OH2 2090   5.783   2.668   3.074 -0.0486 -0.3365 -0.1373
  709TIP3    H1 2091   5.797   2.727   3.000  1.1489 -0.3180  0.0851
  709TIP3    H2 2092   5.738   2.592   3.037  2.3362 -1.2563 -1.3463
  710TIP3   OH2 2093   1.855   3.395   0.459  0.0509 -0.6762 -0.3456
  710TIP3    H1 2094   1.925   3.329   0.457  0.8233  0.1344 -0.5561
  710TIP3    H2 2095   1.793   3.362   0.524  0.9622 -1.0770  0.3373
  711TIP3   OH2 2096   3.230   5.534   3.438 -0.8719 -0.0149 -0.7610
  711TIP3    H1 2097   3.252   5.441   3.427 -1.0820  0.0044 -1.4060
  711TIP3    H2 2098   3.299   5.580   3.389 -0.0736  0.2370  0.5514
  712TIP3   OH2 2099   4.219   2.267   0.715  0.2824  0.4891  0.5113
  712TIP3    H1 2100   4.134   2.227   0.698 -0.1905  1.4633  0.5148
  712TIP3    H2 2101   4.218   2.286   0.809 -0.0457  1.7073  0.2758
  713TIP3   OH2 2102   2.348   3.054   0.031 -0.0671  0.1831 -0.1788
  713TIP3    H1 2103   2.324   3.134   0.079 -0.2462  0.2790 -0.4284
  713TIP3    H2 2104   2.353   3.082  -0.061  0.9811  0.1711 -0.1424
  714TIP3   OH2 2105   2.511   3.850   5.596  0.1868  0.3244  0.2810
  714TIP3    H1 2106   2.587   3.824   5.649 -0.1449  1.3773  1.2813
  714TIP3    H2 2107   2.443   3.870   5.659 -0.6047  0.4198 -0.5893
  715TIP3   OH2 2108   0.481   1.209   2.319  0.1227  0.5793  0.5108
  715TIP3    H1 2109   0.517   1.233   2.234  0.1646 -0.2194  0.2885
  715TIP3    H2 2110   0.549   1.156   2.359 -0.0242  0.6935  0.9105
  716TIP3   OH2 2111   4.025   6.643   4.537  0.2571  0.1337  0.2477
  716TIP3    H1 2112   4.078   6.675   4.609  1.4024  0.6070 -0.7666
  716TIP3    H2 2113   4.085   6.591   4.484 -0.6632 -0.5642 -0.1442
  717TIP3   OH2 2114   3.375   1.237   0.062  0.8360  0.0603 -0.2343
  717TIP3    H1 2115   3.400   1.308   0.121 -1.7255  0.0149  1.0470
  717TIP3    H2 2116   3.374   1.159   0.117 -0.7274 -0.1494 -0.5158
  718TIP3   OH2 2117   0.452   1.027   1.904 -0.2240  0.1226 -0.0569
  718TIP3    H1 2118   0.461   0.933   1.918  2.2810  0.5384  1.8481
  718TIP3    H2 2119   0.450   1.036   1.809 -0.9304 -1.8548 -0.2867
  719TIP3   OH2 2120   3.416   6.342   3.368 -0.3157  0.2297 -0.0286
  719TIP3    H1 2121   3.367   6.260   3.375  0.5890 -0.2475  1.0172
  719TIP3    H2 2122   3.390   6.392   3.446  0.6776  0.0551  0.4304
  720TIP3   OH2 2123   2.761   2.512   3.350  0.1068  0.1451 -0.3656
  720TIP3    H1 2124   2.767   2.419   3.331 -1.3981 -0.1552  0.5061
  720TIP3    H2 2125   2.804   2.555   3.275 -0.4866 -1.1791 -1.4980
  721TIP3   OH2 2126   4.385   1.484   4.630 -0.1607 -0.4519 -0.0995
  721TIP3    H1 2127   4.380   1.579   4.641  0.2722 -0.4715  0.3038
  721TIP3    H2 2128   4.406   1.471   4.538 -2.1806 -0.2219 -0.6517
  722TIP3   OH2 2129   5.144   4.707   3.985 -0.8821  0.3750  0.5997
  722TIP3    H1 2130   5.144   4.614   4.008  0.8085  0.9676  3.6311
  722TIP3    H2 2131   5.215   4.744   4.038 -0.7494  3.2159 -1.3810
  723TIP3   OH2 2132   6.839   5.306   4.593  0.3003 -0.6014  0.3328
  723TIP3    H1 2133   6.829   5.309   4.688  2.7756  1.5006  0.6594
  723TIP3    H2 2134   6.765   5.357   4.559 -0.1215 -0.6364  1.1777
  724TIP3   OH2 2135   6.149   3.204   3.885  0.1589 -0.4990 -0.3012
  724TIP3    H1 2136   6.181   3.239   3.969  2.0715 -1.4453 -0.5765
  724TIP3    H2 2137   6.158   3.277   3.824 -0.1682 -0.1375  0.0785
  725TIP3   OH2 2138   0.105   1.792   3.266 -0.0009 -0.4891  0.5634
  725TIP3    H1 2139   0.196   1.822   3.261  0.0737 -0.7520  0.3497
  725TIP3    H2 2140   0.108   1.700   3.240 -0.6726  0.1146 -1.8930
  726TIP3   OH2 2141   6.643   6.343   0.733  0.0116  0.2525  0.5852
  726TIP3    H1 2142   6.671   6.401   0.804 -0.7846 -0.4078  1.4510
  726TIP3    H2 2143   6.602   6.401   0.669  0.1998  0.7774  0.9352
  727TIP3   OH2 2144   3.266   4.115   4.170  0.4338  0.5304 -0.2806
  727TIP3    H1 2145   3.326   4.103   4.243  0.2115 -0.2242 -0.2148
  727TIP3    H2 2146   3.302   4.062   4.099  0.2963  0.7334 -0.5043
  728TIP3   OH2 2147   2.830   5.590   2.312  0.3225 -0.1089  0.3762
  728TIP3    H1 2148   2.895   5.540   2.361 -1.1828 -1.9770  0.5920
  728TIP3    H2 2149   2.779   5.636   2.378  0.4483  0.1269  0.3112
  729TIP3   OH2 2150   2.698   2.515   4.175 -0.2981 -0.5268 -0.9057
  729TIP3    H1 2151   2.669   2.591   4.124 -1.1329  0.0959  0.4240
  729TIP3    H2 2152   2.653   2.440   4.136 -0.6007 -0.1192 -1.3398
  730TIP3   OH2 2153   1.931   4.263   0.125  0.0348 -0.2445  0.2314
  730TIP3    H1 2154   1.887   4.240   0.043 -1.6799  0.7796  0.8028
  730TIP3    H2 2155   1.935   4.359   0.124  0.5456 -0.2438  1.0768
  731TIP3   OH2 2156   6.005   2.521   3.202 -0.7059 -0.4030 -0.0849
  731TIP3    H1 2157   5.930   2.549   3.149 -1.3945 -1.8416  0.0843
  731TIP3    H2 2158   5.984   2.552   3.291 -0.3979  0.4519 -0.2999
  732TIP3   OH2 2159   6.345   1.695   0.217 -0.1235 -0.7905  0.2670
  732TIP3    H1 2160   6.439   1.676   0.222  0.2744  0.7330 -0.6340
  732TIP3    H2 2161   6.334   1.737   0.132 -1.8512 -1.9939 -0.1517
  733TIP3   OH2 2162   6.181   1.140   2.193  0.4746  0.5251  0.3150
  733TIP3    H1 2163   6.237   1.168   2.121 -0.4695  1.1975 -0.1710
  733TIP3    H2 2164   6.109   1.202   2.193  0.6657  0.7916  2.1121
  734TIP3   OH2 2165   5.866   4.629   4.567  0.3987  0.2229  0.3050
  734TIP3    H1 2166   5.905   4.555   4.614  1.1299  0.4961  0.1507
  734TIP3    H2 2167   5.870   4.605   4.475  2.6642  1.3152  0.0402
  735TIP3   OH2 2168   0.246   2.774   0.742 -0.0177  0.0568 -0.2210
  735TIP3    H1 2169   0.182   2.726   0.691 -0.8918 -0.6953  1.4809
  735TIP3    H2 2170   0.195   2.817   0.811  1.0037  1.6817 -0.4172
  736TIP3   OH2 2171   5.055   2.682   1.154 -0.0027 -0.3585 -0.1342
  736TIP3    H1 2172   5.102   2.674   1.071 -0.9920  0.7995 -0.8348
  736TIP3    H2 2173   5.025   2.593   1.173  3.1226 -1.3622  0.8083
  737TIP3   OH2 2174   1.117   2.189   1.235 -0.1694  0.2807 -0.1144
  737TIP3    H1 2175   1.056   2.252   1.272  0.3641 -0.2884  1.8415
  737TIP3    H2 2176   1.203   2.215   1.269  0.1678 -1.0203  0.1021
  738TIP3   OH2 2177   0.316   4.337   1.960  0.5025  0.1168 -0.1664
  738TIP3    H1 2178   0.274   4.317   1.877 -0.5626  0.1936  0.3431
  738TIP3    H2 2179   0.409   4.323   1.943  0.2580 -0.3428 -1.2285
  739TIP3   OH2 2180   2.427   1.636   1.781  0.1190 -0.2378  0.1462
  739TIP3    H1 2181   2.485   1.674   1.715 -0.0035 -1.0582 -0.4508
  739TIP3    H2 2182   2.463   1.665   1.865  0.3261  0.7421 -0.2739
  740TIP3   OH2 2183   2.410   1.408   5.627 -0.5696  0.5555  0.6419
  740TIP3    H1 2184   2.485   1.392   5.683 -0.1026  0.1094 -0.0896
  740TIP3    H2 2185   2.408   1.503   5.616 -0.7109  0.6509  1.4610
  741TIP3   OH2 2186   6.189   0.577   0.786  0.0331  0.3192  0.0334
  741TIP3    H1 2187   6.108   0.623   0.807 -1.1153 -0.7646 -1.7311
  741TIP3    H2 2188   6.202   0.516   0.858  1.2872  2.8882  2.1396
  742TIP3   OH2 2189   5.907   3.161   5.541  0.4656  0.6493 -0.1768
  742TIP3    H1 2190   5.817   3.189   5.562 -0.3906 -1.1577 -1.1896
  742TIP3    H2 2191   5.917   3.078   5.588  0.8680 -0.1617 -1.6568
  743TIP3   OH2 2192   2.096   0.658   5.295  0.1390  0.2002 -0.4365
  743TIP3    H1 2193   2.109   0.739   5.245  0.4280  1.5227  1.6556
  743TIP3    H2 2194   2.022   0.678   5.352 -0.9808 -1.7001 -1.1278
  744TIP3   OH2 2195   6.325   1.127   0.464 -0.3201 -0.0074 -0.3651
  744TIP3    H1 2196   6.405   1.164   0.501 -1.9938  1.8254  1.6499
  744TIP3    H2 2197   6.331   1.147   0.370  2.7600 -2.3533 -0.8315
  745TIP3   OH2 2198   2.904   0.344   4.148 -0.8474  0.6408  0.1949
  745TIP3    H1 2199   2.997   0.343   4.125 -0.8407  2.1732  0.0696
  745TIP3    H2 2200   2.862   0.297   4.075 -0.3780  1.8020 -0.8669
  746TIP3   OH2 2201   6.816   6.479   2.057  0.5622  0.4963  0.6331
  746TIP3    H1 2202   6.828   6.574   2.064  1.4226  0.3008  2.1396
  746TIP3    H2 2203   6.898   6.447   2.020  0.7474  0.2251  1.2626
  747TIP3   OH2 2204   6.135   3.641   0.104  0.4163  0.9168  0.1994
  747TIP3    H1 2205   6.159   3.732   0.089  1.4625  0.7011  0.5371
  747TIP3    H2 2206   6.176   3.593   0.032 -1.3389  0.8663 -0.8241
  748TIP3   OH2 2207   2.893   2.200   1.342  0.0111  0.1652  0.4144
  748TIP3    H1 2208   2.982   2.185   1.375 -0.0895  0.8125  1.0129
  748TIP3    H2 2209   2.888   2.295   1.328 -0.0726 -0.0377 -1.1525
  749TIP3   OH2 2210   2.589   0.198   5.694 -0.0122  0.1854  0.5768
  749TIP3    H1 2211   2.582   0.111   5.656  0.7682  0.7213 -0.8622
  749TIP3    H2 2212   2.552   0.256   5.628  0.5046  1.0663  1.0403
  750TIP3   OH2 2213   1.216   2.213   0.163 -0.6088  0.0521 -0.2727
  750TIP3    H1 2214   1.213   2.167   0.079  5.5327 -2.9270  0.6103
  750TIP3    H2 2215   1.222   2.306   0.139 -0.3513 -0.5802 -3.0156
  751TIP3   OH2 2216   2.974   6.666   1.932 -0.2666 -0.0539 -0.0084
  751TIP3    H1 2217   3.036   6.650   1.860  1.2631 -0.6657  1.3594
  751TIP3    H2 2218   2.990   6.594   1.992 -1.4768  0.4736  0.9711
  752TIP3   OH2 2219   6.557   0.384   0.172  0.8243  0.5499  0.3374
  752TIP3    H1 2220   6.511   0.306   0.203 -0.1801  1.6926  1.8526
  752TIP3    H2 2221   6.495   0.456   0.185  1.6277  1.5925 -1.2628
  753TIP3   OH2 2222   5.132   3.924   3.968 -0.2635 -0.4949  0.4345
  753TIP3    H1 2223   5.117   3.833   3.994 -0.1443 -0.5343  0.3638
  753TIP3    H2 2224   5.112   3.974   4.046 -1.4221 -0.4922  0.1689
  754TIP3   OH2 2225   3.730   1.997   4.447  0.1464 -0.1183 -0.2382
  754TIP3    H1 2226   3.816   1.959   4.466  0.2562  0.0360 -0.4300
  754TIP3    H2 2227   3.737   2.031   4.358 -0.4208 -0.9819 -0.6257
  755TIP3   OH2 2228   6.485   6.267   4.675  0.1011 -0.6143 -0.3038
  755TIP3    H1 2229   6.518   6.256   4.586  0.8149 -0.4533 -0.0668
  755TIP3    H2 2230   6.426   6.342   4.669 -0.8982 -1.4213 -0.9019
  756TIP3   OH2 2231   1.989   4.494   1.533  0.3693 -0.0011 -0.0791
  756TIP3    H1 2232   1.961   4.402   1.528  1.2985 -0.2964 -0.0290
  756TIP3    H2 2233   2.010   4.507   1.625 -0.9291  0.6356  0.1527
  757TIP3   OH2 2234   0.502   6.533   2.258  0.0723 -0.2312 -0.0252
  757TIP3    H1 2235   0.452   6.531   2.176 -0.8553 -0.8342  0.5398
  757TIP3    H2 2236   0.584   6.488   2.237  1.3128  2.4482 -1.4980
  758TIP3   OH2 2237   6.608   1.799  -0.007 -0.7038  0.1035  0.5715
  758TIP3    H1 2238   6.660   1.880   0.003 -2.0043  0.9160  0.9811
  758TIP3    H2 2239   6.606   1.761   0.081 -1.9690  0.8364  0.8843
  759TIP3   OH2 2240   0.105   2.912   3.894  0.8166 -0.1703 -0.2705
  759TIP3    H1 2241   0.155   2.929   3.814  2.1193  0.1183  0.5678
  759TIP3    H2 2242   0.165   2.862   3.949  0.0709 -0.0682  0.6614
  760TIP3   OH2 2243   5.585   3.753   0.441  0.0020 -0.4049  0.2047
  760TIP3    H1 2244   5.555   3.724   0.355 -1.1246 -0.3862  0.5737
  760TIP3    H2 2245   5.642   3.828   0.423 -0.6068 -0.0992 -0.4929
  761TIP3   OH2 2246   5.363   5.667   3.448  0.6366  0.5882  0.3055
  761TIP3    H1 2247   5.458   5.660   3.436  0.4627 -2.3779  0.0125
  761TIP3    H2 2248   5.335   5.580   3.475 -2.1871  1.0016 -0.8998
  762TIP3   OH2 2249   4.159   4.294   0.987 -0.0552 -0.3422  0.1739
  762TIP3    H1 2250   4.199   4.373   0.950 -0.7073 -0.6620 -1.3129
  762TIP3    H2 2251   4.077   4.325   1.026 -0.1556 -0.2211 -0.1234
  763TIP3   OH2 2252   3.319   2.485   4.862 -0.2303 -0.5525 -0.0158
  763TIP3    H1 2253   3.282   2.487   4.951 -0.9165  0.4359 -0.3089
  763TIP3    H2 2254   3.373   2.564   4.857 -2.1394  0.7445 -1.2681
  764TIP3   OH2 2255   6.327   3.092   2.440  0.0201  0.2559  0.0776
  764TIP3    H1 2256   6.315   3.006   2.479 -2.3530  0.1266 -0.8255
  764TIP3    H2 2257   6.251   3.142   2.469  1.2605  2.0520  0.4539
  765TIP3   OH2 2258   0.346   0.356   0.501  0.1099  0.1456  0.3797
  765TIP3    H1 2259   0.330   0.298   0.576  1.7109 -0.1332  0.5381
  765TIP3    H2 2260   0.421   0.409   0.526  1.5170 -0.8371 -1.4950
  766TIP3   OH2 2261   2.464   1.206   0.031  0.2239  0.4608  0.0214
  766TIP3    H1 2262   2.413   1.128   0.013  0.7508  0.3811 -1.1916
  766TIP3    H2 2263   2.526   1.179   0.099 -0.1491  0.0690  0.2087
  767TIP3   OH2 2264   2.364   6.586   1.618  0.2712  0.6061  0.2537
  767TIP3    H1 2265   2.445   6.540   1.598  0.1432  1.4372 -2.5837
  767TIP3    H2 2266   2.323   6.533   1.687  0.8830 -2.6901 -1.6833
  768TIP3   OH2 2267   0.667   5.464   2.711 -0.3276  0.2499 -0.0399
  768TIP3    H1 2268   0.691   5.378   2.747  0.0662  0.5271  0.3618
  768TIP3    H2 2269   0.748   5.514   2.713 -0.0933  0.0186 -2.0885
  769TIP3   OH2 2270   5.679   5.456   4.124  0.8678 -0.0340 -0.4929
  769TIP3    H1 2271   5.746   5.506   4.077 -0.0830 -0.0696 -1.9662
  769TIP3    H2 2272   5.725   5.416   4.197  1.7558  2.6896  0.5820
  770TIP3   OH2 2273   1.650   5.324   5.156 -0.0861 -0.0914 -0.0507
  770TIP3    H1 2274   1.566   5.301   5.118  0.3899 -1.3249 -0.3910
  770TIP3    H2 2275   1.715   5.284   5.099  0.7513  0.9044  0.1597
  771TIP3   OH2 2276   2.474   0.164   0.369 -0.2984  0.2512  0.0234
  771TIP3    H1 2277   2.397   0.114   0.341  0.9423 -1.2263 -0.9467
  771TIP3    H2 2278   2.539   0.097   0.389  1.6788  1.4458 -2.0147
  772TIP3   OH2 2279   2.500   0.116   0.744  0.1654 -0.2888  0.2357
  772TIP3    H1 2280   2.455   0.197   0.720 -0.3234 -0.9852 -1.3403
  772TIP3    H2 2281   2.435   0.047   0.731  1.3129 -1.2005 -1.0879
  773TIP3   OH2 2282   5.415   6.650   3.024 -0.1218 -0.3222  0.0082
  773TIP3    H1 2283   5.334   6.638   2.975 -1.6533  0.6808  2.1016
  773TIP3    H2 2284   5.398   6.607   3.108  2.1027 -1.3529  0.0089
  774TIP3   OH2 2285   4.823   4.119   1.277  0.0282  0.4142  0.0793
  774TIP3    H1 2286   4.889   4.160   1.221 -0.1930  1.1875  0.3571
  774TIP3    H2 2287   4.739   4.148   1.239 -0.2155 -1.5649 -1.0242
  775TIP3   OH2 2288   1.314   2.979   1.178 -0.1116 -0.0511 -0.8001
  775TIP3    H1 2289   1.268   2.895   1.183 -0.8627  0.4040  0.2795
  775TIP3    H2 2290   1.406   2.955   1.168  0.1392 -1.1205  2.7307
  776TIP3   OH2 2291   2.345   6.829   5.542  0.5706 -0.0318  0.3793
  776TIP3    H1 2292   2.257   6.796   5.527 -0.5305  2.8069  0.1026
  776TIP3    H2 2293   2.382   6.770   5.609 -2.1404 -0.2703  1.7799
  777TIP3   OH2 2294   6.810   1.923   0.724 -0.4609  0.4202 -0.1012
  777TIP3    H1 2295   6.754   1.855   0.688  0.0539  0.8070 -1.6924
  777TIP3    H2 2296   6.893   1.914   0.677 -0.0239  1.4584  0.4288
  778TIP3   OH2 2297   5.445   1.041   3.478  0.3287 -0.0441  0.4090
  778TIP3    H1 2298   5.415   0.950   3.478  0.2702 -0.0265  1.0255
  778TIP3    H2 2299   5.407   1.079   3.398  0.2597 -0.5264  0.2128
  779TIP3   OH2 2300   6.359   4.417   1.793  0.3280 -0.0040  0.3040
  779TIP3    H1 2301   6.297   4.490   1.798  1.6640  1.4997 -2.7808
  779TIP3    H2 2302   6.430   4.441   1.852  1.2859  1.8665 -1.4944
  780TIP3   OH2 2303   6.489   4.774   5.090  0.1827  0.1537 -0.3814
  780TIP3    H1 2304   6.408   4.826   5.092 -0.4750 -0.7773 -1.4469
  780TIP3    H2 2305   6.494   4.742   5.000  1.6873  0.0917 -0.2955
  781TIP3   OH2 2306   2.038   4.650   2.088  0.3835 -0.1151 -0.0521
  781TIP3    H1 2307   2.020   4.712   2.158 -0.2962  0.8232 -1.0359
  781TIP3    H2 2308   1.954   4.607   2.071  0.5910 -0.4818 -0.1738
  782TIP3   OH2 2309   0.727   3.307   5.524 -0.7970 -0.6376 -0.1809
  782TIP3    H1 2310   0.755   3.328   5.435  0.4400 -2.1755 -0.1928
  782TIP3    H2 2311   0.806   3.318   5.577 -1.1507 -1.1707  0.4746
  783TIP3   OH2 2312   0.017   5.824   3.653 -0.2372 -0.5245 -0.3028
  783TIP3    H1 2313   0.105   5.858   3.666 -0.7789  0.4266  1.2286
  783TIP3    H2 2314  -0.038   5.902   3.643 -1.0313 -1.0523 -0.2160
  784TIP3   OH2 2315   1.867   1.976   2.807 -0.1298  0.0878  0.0710
  784TIP3    H1 2316   1.850   2.058   2.854  1.3308  0.8952 -0.7447
  784TIP3    H2 2317   1.841   1.994   2.717 -0.8847 -0.7452  0.1106
  785TIP3   OH2 2318   3.318   2.060   5.269 -0.1690 -0.0326 -0.4957
  785TIP3    H1 2319   3.272   2.091   5.346  0.2727 -0.1610 -0.1768
  785TIP3    H2 2320   3.394   2.118   5.261 -0.5692  0.4066 -1.2273
  786TIP3   OH2 2321   0.899   0.085   1.113  0.2946 -0.0264 -0.4191
  786TIP3    H1 2322   0.951   0.010   1.141  0.7134  1.2276  2.4705
  786TIP3    H2 2323   0.813   0.048   1.093  1.1517 -1.5766 -1.4775
  787TIP3   OH2 2324   2.660   6.485   5.869 -0.2661  0.2946 -0.6330
  787TIP3    H1 2325   2.734   6.537   5.839 -0.7533  0.3052 -1.8533
  787TIP3    H2 2326   2.700   6.410   5.913  0.4376  1.5240  0.8872
  788TIP3   OH2 2327   0.368   4.000   4.476 -0.2877 -0.3193 -0.4077
  788TIP3    H1 2328   0.383   3.977   4.385  1.3541  0.7555 -0.4428
  788TIP3    H2 2329   0.353   3.916   4.520 -0.7567 -0.8667 -1.5787
  789TIP3   OH2 2330   5.959   6.450   4.549  0.0051  0.0243  0.4253
  789TIP3    H1 2331   6.039   6.450   4.496 -1.3457 -2.0177 -1.8541
  789TIP3    H2 2332   5.963   6.367   4.598  0.1371  0.8095  1.7790
  790TIP3   OH2 2333   1.738   1.590   4.840 -0.0056  0.1071  0.0101
  790TIP3    H1 2334   1.782   1.664   4.880  2.6585 -1.7116  0.6834
  790TIP3    H2 2335   1.683   1.554   4.909 -1.0510  1.1767 -0.2249
  791TIP3   OH2 2336   5.180   4.075   0.588  0.1748 -0.1758 -0.1576
  791TIP3    H1 2337   5.258   4.112   0.631 -0.4042  1.0816 -0.1262
  791TIP3    H2 2338   5.214   4.030   0.511  1.0426 -0.7016  0.5176
  792TIP3   OH2 2339   3.248   2.832   2.731  0.0741  0.3349  0.1564
  792TIP3    H1 2340   3.311   2.790   2.672  0.2316  1.4460 -0.4829
  792TIP3    H2 2341   3.180   2.766   2.744 -0.6911  0.5297 -2.3998
  793TIP3   OH2 2342   1.259   1.633   0.471 -0.4235 -0.5904 -0.4039
  793TIP3    H1 2343   1.272   1.701   0.536  0.5243  0.2358 -1.4145
  793TIP3    H2 2344   1.218   1.677   0.397  1.8183 -0.6682 -1.7727
  794TIP3   OH2 2345   1.244   2.063   3.709 -0.1302 -0.3014 -0.4288
  794TIP3    H1 2346   1.153   2.034   3.711 -0.0754 -0.4890 -0.6762
  794TIP3    H2 2347   1.250   2.120   3.632  0.1163 -0.7995 -0.7807
  795TIP3   OH2 2348   5.447   2.731   3.743  0.2003  0.6676  0.6450
  795TIP3    H1 2349   5.429   2.825   3.735  1.4422  1.0070  1.4848
  795TIP3    H2 2350   5.521   2.726   3.803  1.1444 -0.7639 -0.5484
  796TIP3   OH2 2351   2.988   2.543   4.091 -0.1695 -0.5597  0.1882
  796TIP3    H1 2352   2.942   2.620   4.056 -0.4645  0.5107  2.7445
  796TIP3    H2 2353   2.919   2.490   4.130  0.2902 -0.9896  0.4266
  797TIP3   OH2 2354   4.803   3.338   1.552 -0.6626  0.3088  0.3934
  797TIP3    H1 2355   4.886   3.334   1.599  0.2988  2.3269 -1.0203
  797TIP3    H2 2356   4.798   3.254   1.505  0.4476  0.0658  0.6923
  798TIP3   OH2 2357   2.158   1.547   1.574 -0.1399  0.1656 -0.1487
  798TIP3    H1 2358   2.118   1.477   1.523 -1.3475 -0.3468  1.4447
  798TIP3    H2 2359   2.213   1.503   1.638 -0.7282  0.6664  0.7195
  799TIP3   OH2 2360   2.775   2.384   2.843  0.2231  0.3608 -0.0880
  799TIP3    H1 2361   2.786   2.478   2.833 -0.4708  0.4803  0.2221
  799TIP3    H2 2362   2.722   2.358   2.767 -0.3440  0.3729  0.2955
  800TIP3   OH2 2363   2.884   1.016   0.692 -0.1298 -0.4332  0.0216
  800TIP3    H1 2364   2.813   1.009   0.629 -0.4440 -1.0585  0.4333
  800TIP3    H2 2365   2.921   1.103   0.678 -0.5311 -0.3710 -0.6654
  801TIP3   OH2 2366   1.408   1.812   3.725  0.4847 -0.0575 -0.3109
  801TIP3    H1 2367   1.408   1.794   3.631 -0.2177 -0.9188 -0.1629
  801TIP3    H2 2368   1.340   1.879   3.736  0.0592 -0.4807 -0.3335
  802TIP3   OH2 2369   5.496   5.379   1.283 -0.2425  0.8089 -0.2360
  802TIP3    H1 2370   5.446   5.461   1.286 -0.5782  0.5785  1.5972
  802TIP3    H2 2371   5.566   5.391   1.346 -0.6945 -0.5475  0.5650
  803TIP3   OH2 2372   5.336   1.098   0.075 -0.3569  0.5219 -0.6000
  803TIP3    H1 2373   5.415   1.106   0.023  0.3977 -0.1392  0.3978
  803TIP3    H2 2374   5.340   1.170   0.137 -0.6607  0.6290 -0.7026
  804TIP3   OH2 2375   3.932   3.485   1.601 -0.2490 -0.0305  0.1313
  804TIP3    H1 2376   3.877   3.504   1.677  2.8170  2.0970  2.0247
  804TIP3    H2 2377   3.927   3.564   1.547 -2.3730 -1.5026 -2.0702
  805TIP3   OH2 2378   4.779   1.831   4.352  0.2919 -0.0106 -0.6015
  805TIP3    H1 2379   4.819   1.908   4.392  0.1350  0.0736 -0.6082
  805TIP3    H2 2380   4.780   1.849   4.258 -1.3256  0.7514 -0.5055
  806TIP3   OH2 2381   5.593   2.944   4.155 -0.5460  0.0873 -0.2760
  806TIP3    H1 2382   5.609   2.901   4.239 -1.2032 -0.9747 -0.6785
  806TIP3    H2 2383   5.631   3.031   4.165 -0.9096  0.0902  1.2356
  807TIP3   OH2 2384   1.063   3.339   1.690  0.1030 -0.5009  0.1850
  807TIP3    H1 2385   1.060   3.382   1.776 -1.0834  0.5732 -0.3568
  807TIP3    H2 2386   1.143   3.286   1.693  0.7334  0.4478  1.5063
  808TIP3   OH2 2387   2.224   2.819   0.080  0.2927  0.3846 -0.1000
  808TIP3    H1 2388   2.279   2.895   0.065  1.1924  0.2058  1.9624
  808TIP3    H2 2389   2.248   2.789   0.167 -2.9071  0.1320  0.8058
  809TIP3   OH2 2390   4.403   0.739   2.844  0.4991  0.3700 -0.5905
  809TIP3    H1 2391   4.308   0.751   2.850  0.4405 -0.1235 -0.4121
  809TIP3    H2 2392   4.440   0.814   2.890  0.1537 -0.2361  0.7293
  810TIP3   OH2 2393   1.050   6.453   3.932  0.2027 -0.3297  0.1067
  810TIP3    H1 2394   1.077   6.529   3.880  1.7643  0.4825  1.9616
  810TIP3    H2 2395   1.132   6.409   3.954 -0.4951 -1.2319  0.9930
  811TIP3   OH2 2396   6.321   1.096   1.704 -0.3000 -0.5766 -0.4434
  811TIP3    H1 2397   6.322   1.001   1.698 -0.3889 -0.5850 -0.3295
  811TIP3    H2 2398   6.229   1.120   1.690 -0.6171 -0.6298  1.3088
  812TIP3   OH2 2399   4.296   0.060   2.511 -0.2108 -0.2383 -0.7565
  812TIP3    H1 2400   4.321   0.151   2.528  0.3553 -0.4760 -0.2299
  812TIP3    H2 2401   4.368   0.009   2.550 -2.9637 -1.1285  3.9409
  813TIP3   OH2 2402   4.369   0.241   2.109  1.2336 -0.3241  0.1898
  813TIP3    H1 2403   4.402   0.158   2.073 -0.7748 -0.7898 -0.7127
  813TIP3    H2 2404   4.277   0.225   2.126  1.4239  0.8592  2.8154
  814TIP3   OH2 2405   0.744   0.250   4.018 -0.3443  0.4749  0.1839
  814TIP3    H1 2406   0.814   0.309   4.046 -0.2146  0.2720  0.2849
  814TIP3    H2 2407   0.784   0.163   4.019  0.2777  0.6186 -2.4714
  815TIP3   OH2 2408   1.680   4.220   5.131  0.1897 -0.2150  0.4289
  815TIP3    H1 2409   1.765   4.265   5.123  0.9062 -1.6826 -0.6427
  815TIP3    H2 2410   1.615   4.291   5.127  1.3362  0.9352  1.1567
  816TIP3   OH2 2411   3.760   1.980   2.021 -0.6143 -0.9963  0.0519
  816TIP3    H1 2412   3.839   1.995   1.970 -0.7225  0.5200  0.2957
  816TIP3    H2 2413   3.698   2.046   1.990 -1.4625 -1.5500  0.5301
  817TIP3   OH2 2414   4.231   5.486   2.171 -0.3407 -0.6046  0.9077
  817TIP3    H1 2415   4.292   5.447   2.109 -0.3719 -1.4884  1.4168
  817TIP3    H2 2416   4.240   5.580   2.158  2.2672 -0.6295  2.0405
  818TIP3   OH2 2417   2.738   2.102   5.221  0.0706 -0.2630 -0.4198
  818TIP3    H1 2418   2.745   2.193   5.194 -0.5808  0.1335  0.6688
  818TIP3    H2 2419   2.660   2.100   5.277 -0.4820 -1.6884 -1.2059
  819TIP3   OH2 2420   4.458   5.669   1.824  0.2866  0.1514 -0.0632
  819TIP3    H1 2421   4.417   5.651   1.739 -1.6864 -0.0457  0.8620
  819TIP3    H2 2422   4.546   5.700   1.802  0.4330 -1.4805 -2.0901
  820TIP3   OH2 2423   5.805   6.517   1.437  0.3026 -0.1378  0.2478
  820TIP3    H1 2424   5.766   6.466   1.508  0.3123 -0.0501  0.3155
  820TIP3    H2 2425   5.879   6.465   1.407  0.3457 -0.1365  0.3541
  821TIP3   OH2 2426   1.843   5.540   4.371 -0.1064  0.1694  1.1458
  821TIP3    H1 2427   1.753   5.551   4.401 -0.2791 -0.7110  0.9761
  821TIP3    H2 2428   1.891   5.610   4.414 -1.0818  1.4156  0.2875
  822TIP3   OH2 2429   0.672   2.587   0.129  0.7891  0.8144  0.3694
  822TIP3    H1 2430   0.746   2.532   0.155  2.7956  2.9011 -0.6042
  822TIP3    H2 2431   0.659   2.568   0.036 -0.5288 -0.1891  0.7372
  823TIP3   OH2 2432   3.369   1.524   1.618 -0.0557  0.7865 -0.2793
  823TIP3    H1 2433   3.303   1.587   1.590 -0.2148  1.3016  1.1690
  823TIP3    H2 2434   3.446   1.578   1.637  0.6952  0.2298 -1.6133
  824TIP3   OH2 2435   0.964   3.623   1.731 -0.1550  0.0152  0.3596
  824TIP3    H1 2436   0.894   3.688   1.727  0.7182  1.0424  1.1038
  824TIP3    H2 2437   0.951   3.579   1.814  0.1966  0.3499  0.5942
  825TIP3   OH2 2438   5.661   6.425   2.537 -0.3142 -0.3057 -0.4309
  825TIP3    H1 2439   5.647   6.415   2.631  0.8908  1.5427  0.0056
  825TIP3    H2 2440   5.574   6.445   2.502 -0.5692  0.2944  0.5075
  826TIP3   OH2 2441   0.325   5.662   3.970  0.3516  0.2423 -0.1974
  826TIP3    H1 2442   0.254   5.725   3.961  0.3982  0.2850 -0.2609
  826TIP3    H2 2443   0.392   5.692   3.909  2.4918  3.0018  3.1429
  827TIP3   OH2 2444   0.151   3.480   3.607 -0.4459 -0.5946  0.2886
  827TIP3    H1 2445   0.108   3.449   3.686 -1.0923 -0.3278  0.0456
  827TIP3    H2 2446   0.243   3.454   3.618  0.0627  1.7022  2.3384
  828TIP3   OH2 2447   2.114   2.626   5.545 -0.2887  0.2612  0.4158
  828TIP3    H1 2448   2.049   2.603   5.479  0.5634 -0.8485 -0.0813
  828TIP3    H2 2449   2.063   2.643   5.624 -1.1356 -2.1804  0.4942
  829TIP3   OH2 2450   6.443   2.174   2.668 -0.0393  0.4458 -0.4017
  829TIP3    H1 2451   6.518   2.213   2.623 -0.5478  0.8119 -0.9311
  829TIP3    H2 2452   6.383   2.148   2.598 -0.8037  0.9466  0.0568
  830TIP3   OH2 2453   5.573   1.822   2.600  0.0595  0.1065  0.5334
  830TIP3    H1 2454   5.594   1.800   2.691  0.4040  0.1367  0.4652
  830TIP3    H2 2455   5.657   1.813   2.554  0.6128  3.0648  0.7731
  831TIP3   OH2 2456   0.768   1.355   2.919  0.6416  0.3809  0.3903
  831TIP3    H1 2457   0.722   1.438   2.919  0.6933  0.4720 -2.2200
  831TIP3    H2 2458   0.855   1.375   2.885  1.0797 -0.5610  0.8975
  832TIP3   OH2 2459   1.741   5.487   4.119 -0.4580  0.3596  0.3041
  832TIP3    H1 2460   1.721   5.552   4.052 -1.0802 -0.2764 -0.1395
  832TIP3    H2 2461   1.783   5.537   4.189  0.9127  0.9197 -0.8606
  833TIP3   OH2 2462   2.098   5.119   1.715 -0.5398  0.6819 -0.5109
  833TIP3    H1 2463   2.083   5.199   1.664  1.4723  1.2632 -0.2727
  833TIP3    H2 2464   2.182   5.086   1.683 -0.4067 -0.2738  0.7630
  834TIP3   OH2 2465   1.218   1.097   2.159  1.6087  0.2099 -0.0591
  834TIP3    H1 2466   1.313   1.089   2.165  1.5495  0.6170  2.3846
  834TIP3    H2 2467   1.201   1.190   2.146  1.5233  0.4420  1.5569
  835TIP3   OH2 2468   4.291   1.466   5.353 -0.5335 -0.0318 -0.1658
  835TIP3    H1 2469   4.340   1.531   5.303  0.2269 -0.6463 -0.2604
  835TIP3    H2 2470   4.355   1.396   5.369 -1.7524 -1.5374 -1.5211
  836TIP3   OH2 2471   1.380   5.125   4.525 -0.3740 -0.4325  0.0833
  836TIP3    H1 2472   1.315   5.166   4.582 -0.7825  0.2275 -0.8290
  836TIP3    H2 2473   1.436   5.198   4.497  1.4009 -1.1218  1.6194
  837TIP3   OH2 2474   3.982   5.968   2.857 -0.1788  0.0983 -0.0825
  837TIP3    H1 2475   3.896   5.926   2.850 -0.4789  0.5847  0.5746
  837TIP3    H2 2476   3.963   6.055   2.892  0.5874  0.2090  0.0765
  838TIP3   OH2 2477   1.657   3.897   1.071 -0.0511 -0.1328 -0.2506
  838TIP3    H1 2478   1.751   3.878   1.074 -0.1003 -0.2904  0.3264
  838TIP3    H2 2479   1.651   3.981   1.026  0.4354  0.3092  0.4938
  839TIP3   OH2 2480   2.460   2.189   3.219  0.1491  0.4388  0.0620
  839TIP3    H1 2481   2.420   2.240   3.290 -0.2578 -1.3619  1.2162
  839TIP3    H2 2482   2.531   2.244   3.186  0.8187  1.0727  2.3762
  840TIP3   OH2 2483   4.335   1.293   0.234  0.1888  0.0169  0.2483
  840TIP3    H1 2484   4.271   1.288   0.164 -0.7646  1.8452  0.9288
  840TIP3    H2 2485   4.420   1.295   0.188 -0.3986  0.9540 -0.8613
  841TIP3   OH2 2486   2.200   3.431   4.681 -0.0132 -0.0063  0.5916
  841TIP3    H1 2487   2.154   3.513   4.698  0.7785  0.1085  2.4443
  841TIP3    H2 2488   2.266   3.453   4.616  0.4364  0.9421  1.3439
  842TIP3   OH2 2489   6.542   5.869   5.193  0.1537  0.1668  0.0211
  842TIP3    H1 2490   6.515   5.807   5.261 -0.5573  2.1789  1.6589
  842TIP3    H2 2491   6.638   5.864   5.194  0.1176 -1.8257 -0.8462
  843TIP3   OH2 2492   4.107   5.042   2.573 -0.0155  0.6104  0.2765
  843TIP3    H1 2493   4.169   4.976   2.542 -1.0301 -0.1741 -0.1549
  843TIP3    H2 2494   4.159   5.102   2.627  1.2799  0.5075 -0.8340
  844TIP3   OH2 2495   1.058   2.831   2.770 -0.3666 -0.1303 -0.3619
  844TIP3    H1 2496   1.102   2.763   2.720 -1.4457 -0.5308 -0.7849
  844TIP3    H2 2497   0.999   2.874   2.707 -0.0702  0.8683  0.0119
  845TIP3   OH2 2498   2.048   6.646   0.697  0.5819 -0.4629 -0.2079
  845TIP3    H1 2499   2.009   6.634   0.610  1.6514  2.0731 -1.1133
  845TIP3    H2 2500   2.012   6.729   0.728  0.4942 -1.1642  1.6619
  846TIP3   OH2 2501   6.121   5.739   2.194 -0.3102 -0.1838 -0.0751
  846TIP3    H1 2502   6.084   5.739   2.282 -0.1225  0.0692  0.0026
  846TIP3    H2 2503   6.061   5.792   2.143  0.5346  1.1653  0.2977
  847TIP3   OH2 2504   6.644   5.334   1.397  0.2040  0.6693  0.0070
  847TIP3    H1 2505   6.728   5.372   1.374  0.4294  0.3467  0.2775
  847TIP3    H2 2506   6.599   5.321   1.314  1.0923 -0.6762 -0.3022
  848TIP3   OH2 2507   4.434   1.310   5.091  0.2251 -0.2529  0.3458
  848TIP3    H1 2508   4.507   1.259   5.055 -0.4400 -1.1486  0.2308
  848TIP3    H2 2509   4.367   1.245   5.111 -1.6109  0.7801 -2.0670
  849TIP3   OH2 2510   0.427   2.446   4.504 -0.8324 -0.1302 -0.2808
  849TIP3    H1 2511   0.499   2.507   4.487 -0.1692 -1.1209 -1.2228
  849TIP3    H2 2512   0.430   2.430   4.598 -0.6491  0.8408 -0.1202
  850TIP3   OH2 2513   5.626   4.296   0.645  0.0340 -0.1710  0.3970
  850TIP3    H1 2514   5.692   4.365   0.641 -2.3698  2.4777  2.5242
  850TIP3    H2 2515   5.572   4.309   0.567 -0.0715 -0.0491  0.4911
  851TIP3   OH2 2516   1.396   5.563   4.262 -0.3256  0.5327 -0.3923
  851TIP3    H1 2517   1.378   5.557   4.168  1.3687 -1.5366 -0.6467
  851TIP3    H2 2518   1.480   5.608   4.267 -0.6598  1.1179  0.1986
  852TIP3   OH2 2519   5.353   5.423   0.614  0.0845 -0.1696 -0.7428
  852TIP3    H1 2520   5.370   5.332   0.586  0.8093  0.3757 -2.1954
  852TIP3    H2 2521   5.258   5.429   0.619 -0.0278 -0.6660 -1.9474
  853TIP3   OH2 2522   4.855   2.055   1.530  0.0407  0.0775 -0.4191
  853TIP3    H1 2523   4.942   2.087   1.554  0.5136  0.8889 -2.9510
  853TIP3    H2 2524   4.817   2.025   1.613  2.4575  0.2989  0.8583
  854TIP3   OH2 2525   1.303   6.492   4.042  0.4217  0.7594  0.0150
  854TIP3    H1 2526   1.392   6.526   4.042 -0.2073  2.5327  0.5517
  854TIP3    H2 2527   1.300   6.430   4.114  1.5573 -0.3543 -0.8611
  855TIP3   OH2 2528   0.528   0.626   1.541 -0.2817  0.3223  0.3889
  855TIP3    H1 2529   0.462   0.596   1.478 -0.5402  0.9274  0.3673
  855TIP3    H2 2530   0.576   0.546   1.564  1.9492  0.4926 -2.9825
  856TIP3   OH2 2531   4.858   0.070   3.517  0.0042  0.5916 -0.1138
  856TIP3    H1 2532   4.929   0.096   3.577  1.9434  1.4479 -2.5769
  856TIP3    H2 2533   4.840  -0.021   3.539  0.4377  0.9558  1.9275
  857TIP3   OH2 2534   4.092   3.432   2.564 -0.1573 -0.6782 -0.3686
  857TIP3    H1 2535   4.057   3.517   2.589  1.8014 -0.4325  1.9691
  857TIP3    H2 2536   4.073   3.375   2.639 -1.0967 -2.2534 -1.7230
  858TIP3   OH2 2537   2.541   4.542   0.529  0.5781  0.4322  0.3992
  858TIP3    H1 2538   2.553   4.636   0.538  0.1194  0.5917 -0.5297
  858TIP3    H2 2539   2.478   4.519   0.597  0.1132  0.9308  0.1469
  859TIP3   OH2 2540   0.646   4.093   2.424  0.6581  0.1779 -0.0929
  859TIP3    H1 2541   0.686   4.179   2.430  2.1978 -0.3444 -2.0130
  859TIP3    H2 2542   0.713   4.033   2.457  0.5955 -0.5003 -1.1495
  860TIP3   OH2 2543   2.771   2.367   1.868 -0.1146  0.0220 -0.1697
  860TIP3    H1 2544   2.680   2.393   1.879  0.2394  0.7989  1.2528
  860TIP3    H2 2545   2.792   2.390   1.778 -0.9109  1.2482 -0.0705
  861TIP3   OH2 2546   5.698   2.730   2.491 -0.4896  0.3160  0.5087
  861TIP3    H1 2547   5.731   2.641   2.478 -0.2675  0.5923 -0.9758
  861TIP3    H2 2548   5.608   2.718   2.521 -0.6679 -0.4201 -0.2692
  862TIP3   OH2 2549   3.078   1.546   4.251 -0.0523  0.1971  0.0154
  862TIP3    H1 2550   3.067   1.500   4.167  1.2960 -1.7514  0.8314
  862TIP3    H2 2551   3.160   1.511   4.286 -1.1451  0.1343  2.6688
  863TIP3   OH2 2552   0.986   3.512   3.500 -0.0798 -0.1442 -0.0309
  863TIP3    H1 2553   0.956   3.477   3.585  0.6681 -0.9793 -0.0920
  863TIP3    H2 2554   1.081   3.506   3.505 -0.0533 -0.9027 -1.2185
  864TIP3   OH2 2555   5.598   2.481   2.756  0.0956 -0.5811  0.1452
  864TIP3    H1 2556   5.549   2.544   2.809  0.6435 -0.1519  0.1475
  864TIP3    H2 2557   5.690   2.507   2.766  0.1681 -0.0284 -1.6244
  865TIP3   OH2 2558   5.315   4.838   5.445 -0.4646 -0.1259 -0.2885
  865TIP3    H1 2559   5.234   4.888   5.446 -1.0742 -1.0973  0.5226
  865TIP3    H2 2560   5.313   4.790   5.362 -0.7132 -0.1400 -0.2737
  866TIP3   OH2 2561   4.628   4.132   2.240 -0.5750 -0.1580 -0.3302
  866TIP3    H1 2562   4.676   4.093   2.314 -0.0590 -1.6949 -1.4276
  866TIP3    H2 2563   4.682   4.111   2.164 -1.9244 -0.0198 -1.3414
  867TIP3   OH2 2564   6.460   4.924   0.682 -0.2986 -0.2863  0.3806
  867TIP3    H1 2565   6.377   4.970   0.668 -0.0896  0.1477  0.5499
  867TIP3    H2 2566   6.478   4.935   0.775  0.6556  0.8602  0.0918
  868TIP3   OH2 2567   3.995   6.137   4.063  0.5101 -0.4893  0.2850
  868TIP3    H1 2568   4.006   6.048   4.028  0.0739  0.4049 -2.3160
  868TIP3    H2 2569   3.905   6.139   4.094 -0.0903 -0.4415 -1.3814
  869TIP3   OH2 2570   2.674   6.087   1.887 -0.4594 -0.1803 -0.1203
  869TIP3    H1 2571   2.619   6.009   1.875  1.3629 -1.7346  1.0721
  869TIP3    H2 2572   2.681   6.124   1.799 -0.3367 -2.1390 -1.0069
  870TIP3   OH2 2573   6.479   2.174   0.773 -0.2181 -0.3279  0.1166
  870TIP3    H1 2574   6.507   2.247   0.828  1.4797  0.5686 -1.8239
  870TIP3    H2 2575   6.399   2.205   0.731  1.5357  1.3818 -2.2477
  871TIP3   OH2 2576   4.837   4.473   3.686 -0.5932 -0.0316  0.0468
  871TIP3    H1 2577   4.929   4.453   3.704 -0.9623 -1.0199  0.9728
  871TIP3    H2 2578   4.836   4.498   3.593  0.5599 -0.2792 -0.0531
  872TIP3   OH2 2579   2.235   5.066   0.150 -0.3913 -0.1014 -0.2608
  872TIP3    H1 2580   2.183   4.991   0.178  0.1700 -0.1055  0.8126
  872TIP3    H2 2581   2.204   5.139   0.203 -0.2073  0.1870 -0.5434
  873TIP3   OH2 2582   2.623   0.887   2.281  0.4589 -0.0184  0.1468
  873TIP3    H1 2583   2.545   0.938   2.302  0.5773  0.8373 -1.3675
  873TIP3    H2 2584   2.657   0.926   2.201  2.1798 -0.6769  0.4971
  874TIP3   OH2 2585   3.202   1.997   1.998 -0.1483  0.4543  0.0637
  874TIP3    H1 2586   3.255   1.917   1.996  1.1492  1.2915  0.4284
  874TIP3    H2 2587   3.159   1.999   1.912  1.0011  0.1514 -0.5373
  875TIP3   OH2 2588   3.950   6.229   0.178  0.6885  0.1243  0.3895
  875TIP3    H1 2589   3.997   6.301   0.135  0.7552 -0.6953 -0.9737
  875TIP3    H2 2590   3.964   6.243   0.271  1.1932  1.5408  0.1174
  876TIP3   OH2 2591   1.349   5.745   5.707  0.3244 -0.1361  0.0402
  876TIP3    H1 2592   1.267   5.697   5.722  1.1737 -1.4980  0.5241
  876TIP3    H2 2593   1.368   5.730   5.615 -0.1247  0.4660 -0.1601
  877TIP3   OH2 2594   3.732   4.555   4.263  0.2204  0.0882  0.0144
  877TIP3    H1 2595   3.689   4.586   4.183  1.4717  1.3250 -0.2229
  877TIP3    H2 2596   3.688   4.602   4.333  1.3458  1.6667 -0.2593
  878TIP3   OH2 2597   2.968   2.346   0.158 -0.2405 -0.3457 -0.0379
  878TIP3    H1 2598   3.015   2.429   0.168 -2.4091  0.9158  0.2674
  878TIP3    H2 2599   3.026   2.282   0.199  1.2708  1.0774  0.1860
  879TIP3   OH2 2600   6.504   3.751   1.620 -0.3471 -0.2320 -0.6590
  879TIP3    H1 2601   6.477   3.691   1.689 -1.5963  1.0148 -0.0216
  879TIP3    H2 2602   6.576   3.706   1.576  0.3476 -1.1700  1.3005
  880TIP3   OH2 2603   2.079   6.460   5.093 -1.3062 -0.4990 -0.2117
  880TIP3    H1 2604   2.101   6.387   5.151 -0.7082 -1.3572 -1.4705
  880TIP3    H2 2605   1.987   6.479   5.112 -1.7235 -2.1301 -0.4339
  881TIP3   OH2 2606   2.386   0.370   3.425  0.1147  0.7952 -0.2415
  881TIP3    H1 2607   2.305   0.327   3.396  0.9317 -0.2171 -1.1356
  881TIP3    H2 2608   2.431   0.394   3.344  0.8630  1.0326  0.2326
  882TIP3   OH2 2609   0.538   1.366   0.270  0.7885  0.2971 -0.1259
  882TIP3    H1 2610   0.634   1.358   0.271  0.9789  2.0018 -1.0645
  882TIP3    H2 2611   0.509   1.296   0.212  1.4101 -0.5635  0.5739
  883TIP3   OH2 2612   6.393   4.367   3.797 -0.0713  0.0395 -0.0163
  883TIP3    H1 2613   6.346   4.397   3.875  0.3016  0.0329  0.2146
  883TIP3    H2 2614   6.470   4.423   3.793  2.1142 -2.5370  1.9739
  884TIP3   OH2 2615   7.108   4.171   2.885  0.6345 -0.4173  0.3894
  884TIP3    H1 2616   7.179   4.224   2.921 -0.0285  1.1548 -0.4717
  884TIP3    H2 2617   7.113   4.186   2.790 -0.1528 -1.1619  0.2184
  885TIP3   OH2 2618   2.140   2.964   1.005 -0.0872 -0.1780 -0.0911
  885TIP3    H1 2619   2.161   2.903   0.935 -0.4689  0.0801 -0.4371
  885TIP3    H2 2620   2.204   3.034   0.995  0.2056 -0.4070  0.1630
  886TIP3   OH2 2621   2.194   1.189   2.637  0.1420  0.2049  0.1611
  886TIP3    H1 2622   2.224   1.275   2.608 -0.5406  0.7718  1.0776
  886TIP3    H2 2623   2.113   1.175   2.588 -0.0320  0.3318  0.4097
  887TIP3   OH2 2624   7.053   2.356   1.964  0.4944 -0.4332  0.1486
  887TIP3    H1 2625   7.119   2.287   1.961  0.2429 -0.6423 -0.9969
  887TIP3    H2 2626   7.061   2.393   2.052  1.1969 -1.3649  0.4912
  888TIP3   OH2 2627   0.888   2.332   1.336 -0.7873 -0.3937 -0.0066
  888TIP3    H1 2628   0.845   2.331   1.251 -0.2443  0.7568 -0.3106
  888TIP3    H2 2629   0.832   2.387   1.391  0.3959  1.4042 -0.5013
  889TIP3   OH2 2630   0.072   2.663   3.050  0.2550  0.2864 -0.0946
  889TIP3    H1 2631   0.134   2.691   3.118  0.5377  0.3028 -0.3571
  889TIP3    H2 2632   0.011   2.736   3.042 -0.0094  0.1293  0.4115
  890TIP3   OH2 2633   2.699   1.042   3.640 -0.2933 -0.2085 -0.3728
  890TIP3    H1 2634   2.747   1.099   3.701  0.7248  0.0664 -1.3913
  890TIP3    H2 2635   2.628   1.005   3.693  0.8240 -0.3461  1.1024
  891TIP3   OH2 2636   1.773   5.525   3.361  0.6560 -0.0236  0.5349
  891TIP3    H1 2637   1.773   5.432   3.338  1.1117  0.7402 -3.1142
  891TIP3    H2 2638   1.684   5.554   3.345  0.5513  0.2383  1.5252
  892TIP3   OH2 2639   5.229   1.659   5.227 -0.1420  0.4789 -0.2701
  892TIP3    H1 2640   5.222   1.678   5.321 -0.2161  0.8450 -0.3498
  892TIP3    H2 2641   5.255   1.567   5.224 -1.3775  0.1060  0.0847
  893TIP3   OH2 2642   3.820   4.441   5.282  0.3805  0.8967 -0.0778
  893TIP3    H1 2643   3.848   4.457   5.192  1.3840 -3.7985 -0.8675
  893TIP3    H2 2644   3.734   4.399   5.273  0.2503  0.8662  1.2054
  894TIP3   OH2 2645   3.573   4.761   2.382 -0.1196 -0.2138 -0.1451
  894TIP3    H1 2646   3.663   4.732   2.370 -0.2672 -1.2178  0.9844
  894TIP3    H2 2647   3.570   4.795   2.471 -0.6433  0.6913 -0.4943
  895TIP3   OH2 2648   6.045   0.655   2.785  0.3351  0.2635  0.1602
  895TIP3    H1 2649   6.120   0.660   2.725 -0.4687 -0.6792 -0.9701
  895TIP3    H2 2650   5.971   0.685   2.734 -0.2595  0.0588  0.8876
  896TIP3   OH2 2651   6.306   0.416   4.947  0.3120  0.2408 -0.2613
  896TIP3    H1 2652   6.227   0.374   4.979  1.4635  0.4235  3.3605
  896TIP3    H2 2653   6.372   0.395   5.013  2.5245  2.5210 -1.5691
  897TIP3   OH2 2654   6.276   4.343   2.379 -0.1019  0.4369 -0.2844
  897TIP3    H1 2655   6.291   4.400   2.455 -1.1185 -1.8479  1.7703
  897TIP3    H2 2656   6.239   4.263   2.416 -0.8836 -0.7171 -3.2619
  898TIP3   OH2 2657   4.402   6.519   5.481  0.1099  0.0008  0.1734
  898TIP3    H1 2658   4.343   6.540   5.553  0.1310 -0.8377  0.4419
  898TIP3    H2 2659   4.473   6.583   5.488 -0.9984  1.3721 -0.4684
  899TIP3   OH2 2660   6.213   5.379   0.903  0.0986 -0.1318 -0.6782
  899TIP3    H1 2661   6.121   5.365   0.881  0.4442 -2.2551 -0.9679
  899TIP3    H2 2662   6.237   5.458   0.854 -1.6829  0.7998 -0.1405
  900TIP3   OH2 2663   5.705   4.980   4.248  0.0962  0.1944 -0.2970
  900TIP3    H1 2664   5.628   5.023   4.285 -0.7045 -2.5852  1.6256
  900TIP3    H2 2665   5.769   4.979   4.319  0.4430 -0.8664 -0.6029
  901TIP3   OH2 2666   0.529   0.182   2.323  0.1295  0.0359  0.0406
  901TIP3    H1 2667   0.614   0.168   2.282 -0.1022 -1.7373  0.0904
  901TIP3    H2 2668   0.473   0.213   2.252  0.4989  0.0268 -0.2614
  902TIP3   OH2 2669   5.456   5.990   1.592 -0.1779  0.6739  0.0951
  902TIP3    H1 2670   5.457   5.938   1.511 -1.4390  0.1297  0.4162
  902TIP3    H2 2671   5.491   5.932   1.659  1.9985  1.5016 -0.2248
  903TIP3   OH2 2672   5.891   5.810   0.266  0.0149  0.0925  0.2686
  903TIP3    H1 2673   5.957   5.757   0.222  0.1928  0.1786  0.4321
  903TIP3    H2 2674   5.941   5.874   0.317 -0.1934  0.7261 -0.2955
  904TIP3   OH2 2675   5.848   1.515   0.434 -0.0846  0.4451 -0.2365
  904TIP3    H1 2676   5.852   1.536   0.340  0.0802  0.6881 -0.1743
  904TIP3    H2 2677   5.937   1.486   0.455  0.3566  2.0575  0.2420
  905TIP3   OH2 2678   1.694   5.975   3.290 -0.2410 -0.5352  0.3676
  905TIP3    H1 2679   1.625   5.938   3.235 -1.2137  1.0520  0.4800
  905TIP3    H2 2680   1.748   6.027   3.230 -0.5402  0.1443  0.6819
  906TIP3   OH2 2681   0.812   6.349   5.757 -0.0523  0.1312 -0.7016
  906TIP3    H1 2682   0.884   6.298   5.795 -0.2141 -0.8885 -1.7228
  906TIP3    H2 2683   0.785   6.408   5.828  0.2333 -1.0999  0.4804
  907TIP3   OH2 2684   3.162   1.437   0.554  0.0804  0.8132 -0.1580
  907TIP3    H1 2685   3.105   1.382   0.609  0.5697 -0.6014 -1.0125
  907TIP3    H2 2686   3.108   1.459   0.479  0.0429  1.0876 -0.0499
  908TIP3   OH2 2687   5.820   5.211   4.921 -0.3223  0.0558 -0.3017
  908TIP3    H1 2688   5.863   5.135   4.960 -2.2170 -1.1407 -0.4186
  908TIP3    H2 2689   5.741   5.224   4.975 -0.7590  1.0458 -1.1455
  909TIP3   OH2 2690   2.085   3.544   1.519  0.3050  0.0057 -0.0718
  909TIP3    H1 2691   2.174   3.513   1.501  0.5747  0.8069 -0.1829
  909TIP3    H2 2692   2.041   3.542   1.434  0.5818  0.7022 -0.2424
  910TIP3   OH2 2693   5.533   1.812   3.454  0.0785  0.1888  0.6192
  910TIP3    H1 2694   5.558   1.892   3.499  0.9211  0.0338  0.4396
  910TIP3    H2 2695   5.551   1.742   3.517  0.4990  0.0416  0.3411
  911TIP3   OH2 2696   5.025   4.204   1.091 -0.2003 -0.5722  0.0381
  911TIP3    H1 2697   5.038   4.154   1.011  1.7015  0.3709 -0.2849
  911TIP3    H2 2698   5.009   4.294   1.062 -1.9277 -0.6408  0.6667
  912TIP3   OH2 2699   5.101   6.259   4.240 -0.7353  0.3959 -0.2737
  912TIP3    H1 2700   5.038   6.188   4.241  0.8269 -1.0501  0.2475
  912TIP3    H2 2701   5.143   6.256   4.326  0.0118  1.3290 -0.5827
  913TIP3   OH2 2702   1.071   6.402   2.562 -0.0154  0.2092  0.8710
  913TIP3    H1 2703   0.986   6.425   2.601 -0.0386  1.1878  0.2896
  913TIP3    H2 2704   1.108   6.337   2.621 -2.0755 -1.8440  0.0766
  914TIP3   OH2 2705   2.674   1.870   5.668 -0.0990  0.2930 -0.4673
  914TIP3    H1 2706   2.759   1.907   5.642  0.5456  0.2149  1.3658
  914TIP3    H2 2707   2.620   1.947   5.687  0.1518  0.3449  0.0710
  915TIP3   OH2 2708   0.877   4.159   2.142  0.3799  0.0620  0.4945
  915TIP3    H1 2709   0.865   4.141   2.049 -1.3721 -4.7982  1.3514
  915TIP3    H2 2710   0.970   4.142   2.158  0.7873  1.3276 -0.3153
  916TIP3   OH2 2711   6.280   0.975   2.598 -0.3256 -0.3436  0.3300
  916TIP3    H1 2712   6.356   0.940   2.644  0.3082 -0.9984 -1.1187
  916TIP3    H2 2713   6.217   0.994   2.666  0.5090 -1.3892  1.4415
  917TIP3   OH2 2714   2.503   0.265   1.953  0.1693 -0.5285  0.2183
  917TIP3    H1 2715   2.444   0.215   1.898  1.8827 -1.4579 -0.8670
  917TIP3    H2 2716   2.511   0.350   1.910 -1.0740 -0.0477  0.8923
  918TIP3   OH2 2717   1.991   4.910   4.205  0.1792 -0.1192 -0.1153
  918TIP3    H1 2718   1.981   4.876   4.294  1.7090 -1.0417 -0.2724
  918TIP3    H2 2719   1.979   4.834   4.149 -1.2171  0.5346 -0.7628
  919TIP3   OH2 2720   3.933   2.881   1.593  0.0877 -0.2232  0.6989
  919TIP3    H1 2721   3.916   2.916   1.506 -0.2860 -0.5643  0.6321
  919TIP3    H2 2722   3.868   2.812   1.605  0.5034 -0.5710  1.0191
  920TIP3   OH2 2723   1.583   0.189   4.326  0.1575 -0.0811 -0.1327
  920TIP3    H1 2724   1.673   0.162   4.345 -0.1870 -0.8038  0.5032
  920TIP3    H2 2725   1.532   0.159   4.401 -0.3581  1.8181  0.3368
  921TIP3   OH2 2726   2.015   5.220   5.633 -0.4150 -0.1090  0.3058
  921TIP3    H1 2727   1.993   5.203   5.541  1.6533  0.9794 -0.4644
  921TIP3    H2 2728   2.023   5.134   5.673 -1.8104 -0.5914 -0.4053
  922TIP3   OH2 2729   2.351   2.163   1.520  0.0516 -0.2279  0.0105
  922TIP3    H1 2730   2.338   2.069   1.511 -0.8623 -0.2701  1.4547
  922TIP3    H2 2731   2.370   2.194   1.431 -1.5257 -1.4857 -0.8018
  923TIP3   OH2 2732   1.156   2.395   1.993  0.0771 -0.0019  0.4493
  923TIP3    H1 2733   1.119   2.369   1.909 -0.8570 -0.2668  0.9227
  923TIP3    H2 2734   1.209   2.472   1.973  0.1564 -0.2730 -0.4342
  924TIP3   OH2 2735   2.822   0.224   3.916 -0.2444  0.1302  0.1384
  924TIP3    H1 2736   2.787   0.161   3.852  1.5656 -0.3812 -0.4152
  924TIP3    H2 2737   2.910   0.242   3.885 -0.2615  1.9645  1.0404
  925TIP3   OH2 2738   3.088   5.035   0.235 -0.8418  0.6161  0.3348
  925TIP3    H1 2739   3.083   5.098   0.163  2.0827 -0.5076 -0.9767
  925TIP3    H2 2740   3.093   4.949   0.192 -1.4139 -0.2879  1.9768
  926TIP3   OH2 2741   2.195   0.787   5.017  0.5785  0.3246  1.0202
  926TIP3    H1 2742   2.269   0.734   4.988  0.5971  1.1949 -0.6236
  926TIP3    H2 2743   2.235   0.864   5.058  0.6246  0.8909 -0.0446
  927TIP3   OH2 2744   5.045   3.684   2.427  0.8765 -0.0042  0.6406
  927TIP3    H1 2745   4.992   3.612   2.461  1.3039  0.6221  2.8235
  927TIP3    H2 2746   5.133   3.667   2.461  1.8053 -0.2627 -1.7314
  928TIP3   OH2 2747   0.942   5.685   4.225 -0.2403 -0.2224  0.3170
  928TIP3    H1 2748   0.998   5.625   4.274  1.3933  0.1719 -0.9900
  928TIP3    H2 2749   0.891   5.730   4.293  0.1237 -1.4665  1.4609
  929TIP3   OH2 2750   6.813   5.715   4.812 -0.1742 -0.4406 -0.3968
  929TIP3    H1 2751   6.866   5.674   4.880 -2.2444 -0.5424  1.2458
  929TIP3    H2 2752   6.727   5.673   4.819 -0.4604 -0.5410 -3.1850
  930TIP3   OH2 2753   0.262   1.229   1.668 -0.3100  0.3076 -0.3317
  930TIP3    H1 2754   0.338   1.173   1.655 -0.6950 -0.1609 -0.5813
  930TIP3    H2 2755   0.212   1.221   1.587 -1.5864 -0.8515  0.5361
  931TIP3   OH2 2756   1.963   2.718   1.330 -0.0248  0.5744  0.5293
  931TIP3    H1 2757   1.916   2.673   1.259 -0.7325 -0.0710  1.3770
  931TIP3    H2 2758   1.967   2.653   1.401  0.8815  1.1199  0.9974
  932TIP3   OH2 2759   5.608   1.906   2.946 -0.0424  0.2828  0.2918
  932TIP3    H1 2760   5.605   1.904   3.041 -0.6907 -0.1511  0.2651
  932TIP3    H2 2761   5.547   1.975   2.921  1.0306  1.2341  0.2225
  933TIP3   OH2 2762   1.655   2.190   1.688  0.0508 -0.2383 -0.0367
  933TIP3    H1 2763   1.564   2.215   1.673 -0.1269 -1.2222 -0.7039
  933TIP3    H2 2764   1.690   2.173   1.600  1.0129  0.5357  0.1745
  934TIP3   OH2 2765   1.879   4.555   0.068  0.0984 -0.2780  0.3543
  934TIP3    H1 2766   1.867   4.529  -0.023 -0.9167  0.3731  0.2771
  934TIP3    H2 2767   1.794   4.592   0.093  1.0558  1.7970  0.8001
  935TIP3   OH2 2768   2.300   6.354   3.107  0.6087  0.4520  0.1308
  935TIP3    H1 2769   2.249   6.303   3.170 -0.3017 -0.0407 -0.9621
  935TIP3    H2 2770   2.384   6.309   3.102 -0.4715 -1.5412 -1.4544
  936TIP3   OH2 2771   3.652   3.747   1.949  0.4688 -0.4048  0.2282
  936TIP3    H1 2772   3.695   3.697   2.019  0.0770  0.3914  1.0524
  936TIP3    H2 2773   3.662   3.838   1.975 -0.2181 -0.1298 -0.4508
  937TIP3   OH2 2774   5.758   6.241   0.012  0.0868  0.1568 -0.2383
  937TIP3    H1 2775   5.814   6.167   0.037 -0.9185 -0.8875 -0.9975
  937TIP3    H2 2776   5.672   6.202  -0.002 -0.6468  1.6094  0.0926
  938TIP3   OH2 2777   6.335   2.526   4.582  0.2570  0.2775  0.3598
  938TIP3    H1 2778   6.335   2.493   4.672 -0.0925 -2.4948 -0.5757
  938TIP3    H2 2779   6.427   2.524   4.556  0.7377  3.4847  1.3515
  939TIP3   OH2 2780   3.496   0.785   5.683 -0.0345  0.2051  0.0705
  939TIP3    H1 2781   3.415   0.784   5.734  0.0110  0.7926  0.1645
  939TIP3    H2 2782   3.497   0.872   5.643  0.1835 -0.0677 -0.5263
  940TIP3   OH2 2783   7.189   3.038   0.568 -0.0644 -0.1961 -0.5818
  940TIP3    H1 2784   7.110   3.090   0.553  0.1885  0.0827 -0.9732
  940TIP3    H2 2785   7.208   3.049   0.661 -0.4291 -0.1823 -0.5096
  941TIP3   OH2 2786   6.789   4.270   4.646 -0.3781 -0.7191  0.2963
  941TIP3    H1 2787   6.882   4.261   4.627 -0.1376  2.8573 -0.8731
  941TIP3    H2 2788   6.746   4.254   4.562 -0.4699  1.0652 -0.0336
  942TIP3   OH2 2789   5.985   4.236   4.683 -0.2170  0.1473  0.1028
  942TIP3    H1 2790   6.033   4.282   4.614  1.4275 -2.4060 -0.5989
  942TIP3    H2 2791   6.052   4.214   4.748 -1.1970 -0.0960  1.0650
  943TIP3   OH2 2792   3.326   4.461   2.179  0.8151  0.2525  0.7744
  943TIP3    H1 2793   3.248   4.474   2.125 -0.8621 -1.9621  2.4235
  943TIP3    H2 2794   3.397   4.500   2.130 -0.9345  0.1797 -2.0133
  944TIP3   OH2 2795   0.158   4.047   5.580  0.8211 -0.3526 -1.1033
  944TIP3    H1 2796   0.209   4.114   5.535  0.4742  0.7985  0.1334
  944TIP3    H2 2797   0.067   4.065   5.555  0.5845  0.5355  0.2627
  945TIP3   OH2 2798   3.152   5.267   3.354 -0.1647  0.4934 -0.1795
  945TIP3    H1 2799   3.076   5.292   3.300  0.8414  0.3369 -1.7509
  945TIP3    H2 2800   3.217   5.236   3.290  0.1976 -2.1196  1.3205
  946TIP3   OH2 2801   0.123   0.487   0.377 -0.0890  0.4699 -0.1729
  946TIP3    H1 2802   0.085   0.444   0.300  0.4043 -0.5700  0.1527
  946TIP3    H2 2803   0.194   0.429   0.405  1.2708  1.9976 -0.3086
  947TIP3   OH2 2804   2.129   2.975   0.351  0.1115  0.2920 -0.0242
  947TIP3    H1 2805   2.078   2.973   0.432  0.4058  1.3671  0.2042
  947TIP3    H2 2806   2.077   3.028   0.290  0.4557  0.5128 -0.1319
  948TIP3   OH2 2807   6.528   5.100   0.032  0.3916  0.3583 -0.2316
  948TIP3    H1 2808   6.559   5.119   0.120 -0.5249  1.4821 -0.1158
  948TIP3    H2 2809   6.524   5.186  -0.010 -3.3926  0.5063  0.0873
  949TIP3   OH2 2810   4.586   2.358   4.401  0.1674  0.0355  0.0886
  949TIP3    H1 2811   4.669   2.401   4.382 -0.3595  1.0921  0.0907
  949TIP3    H2 2812   4.521   2.407   4.350 -0.5863 -0.1222  0.8717
  950TIP3   OH2 2813   4.213   6.797   5.540  0.4035 -0.1333 -0.0645
  950TIP3    H1 2814   4.132   6.796   5.489 -0.1888  3.8842  0.4908
  950TIP3    H2 2815   4.201   6.727   5.605 -2.2424 -0.2066 -0.5400
  951TIP3   OH2 2816   3.211   2.474   1.414 -0.1748 -0.0208  0.0079
  951TIP3    H1 2817   3.286   2.494   1.359 -0.2366  0.0067 -0.0659
  951TIP3    H2 2818   3.217   2.538   1.486 -0.5699  0.5014 -0.4148
  952TIP3   OH2 2819   3.416   4.322   3.481  0.0896  0.2538  0.4834
  952TIP3    H1 2820   3.398   4.414   3.459 -1.5780 -0.3772 -1.0589
  952TIP3    H2 2821   3.356   4.272   3.425  0.5408 -1.7661  1.7032
  953TIP3   OH2 2822   6.893   3.021   0.447 -0.4719 -0.1274 -0.5748
  953TIP3    H1 2823   6.920   2.940   0.404 -2.5597 -1.1767 -0.0413
  953TIP3    H2 2824   6.799   3.027   0.430 -0.5870  1.5657  0.4187
  954TIP3   OH2 2825   0.765   5.476   0.754  0.5139  0.5050  0.0986
  954TIP3    H1 2826   0.706   5.508   0.822 -0.8563  0.3047 -0.9719
  954TIP3    H2 2827   0.717   5.488   0.672  2.7098  2.1627 -1.0477
  955TIP3   OH2 2828   3.896   4.790   4.758 -0.1469  0.3427  0.4465
  955TIP3    H1 2829   3.962   4.834   4.704 -0.1922 -1.0551 -0.8356
  955TIP3    H2 2830   3.944   4.759   4.835  0.3298  0.7939  0.3321
  956TIP3   OH2 2831   2.322   4.496   3.856  0.4244 -0.4756 -0.4610
  956TIP3    H1 2832   2.323   4.407   3.821 -0.9439 -1.1172  0.9931
  956TIP3    H2 2833   2.261   4.544   3.799  0.9282 -0.5498 -1.0643
  957TIP3   OH2 2834   2.802   2.730   4.873  0.4041 -0.2943 -0.0062
  957TIP3    H1 2835   2.737   2.662   4.858  0.9683 -1.1100  1.1103
  957TIP3    H2 2836   2.753   2.812   4.872 -0.5659 -0.8633  0.3701
  958TIP3   OH2 2837   0.100   4.343   3.075  0.1048 -0.0837  0.3907
  958TIP3    H1 2838   0.135   4.260   3.109  0.0148 -0.9600 -1.5020
  958TIP3    H2 2839   0.174   4.403   3.079  0.6906 -0.7685  0.2112
  959TIP3   OH2 2840   5.072   3.615   3.432 -0.1472 -0.1808 -0.2265
  959TIP3    H1 2841   4.995   3.576   3.472 -0.3886  0.8232  0.3221
  959TIP3    H2 2842   5.135   3.624   3.504  0.0119  0.1608 -0.4062
  960TIP3   OH2 2843   2.361   2.382   0.568 -0.0359  0.3492 -0.0774
  960TIP3    H1 2844   2.417   2.365   0.644 -0.6563 -3.4152 -0.2620
  960TIP3    H2 2845   2.272   2.378   0.602 -0.2940  0.5625 -0.7101
  961TIP3   OH2 2846   4.382   5.790   5.252  0.0426 -0.7192 -0.2231
  961TIP3    H1 2847   4.369   5.816   5.343 -0.4121 -2.0779  0.1339
  961TIP3    H2 2848   4.366   5.696   5.252 -0.7600 -0.6207 -1.8559
  962TIP3   OH2 2849   2.722   3.174   2.308 -0.1389 -0.3812  0.0791
  962TIP3    H1 2850   2.784   3.101   2.304 -0.5582 -0.6993 -0.8929
  962TIP3    H2 2851   2.759   3.233   2.375  0.2772 -1.4004  0.7716
  963TIP3   OH2 2852   5.343   4.578   2.289 -0.0933 -0.0113 -0.0752
  963TIP3    H1 2853   5.377   4.594   2.201  1.2201 -0.2914  0.3532
  963TIP3    H2 2854   5.329   4.483   2.292 -1.8572  0.1942 -0.5428
  964TIP3   OH2 2855   5.073   1.620   0.080 -0.1592  0.2970  0.2364
  964TIP3    H1 2856   5.144   1.658   0.133 -1.1901 -0.6981  2.4506
  964TIP3    H2 2857   5.115   1.600  -0.004  1.3328  2.7579  0.2885
  965TIP3   OH2 2858   1.309   0.251   4.257  0.4294  0.2665 -0.1175
  965TIP3    H1 2859   1.280   0.298   4.335  1.7571 -0.3006  0.7422
  965TIP3    H2 2860   1.404   0.247   4.264  0.3706 -3.4238  0.4124
  966TIP3   OH2 2861   6.316   0.861   4.365  0.5913 -0.2265 -0.4898
  966TIP3    H1 2862   6.369   0.869   4.285  1.3029  0.3978  0.0286
  966TIP3    H2 2863   6.380   0.845   4.434  0.1599  0.9422  0.2053
  967TIP3   OH2 2864   5.029   2.555   0.172  0.2493 -0.2332 -0.2675
  967TIP3    H1 2865   5.111   2.572   0.125 -1.1838  0.9033 -2.5010
  967TIP3    H2 2866   4.994   2.642   0.192 -0.3698 -0.7002  0.7689
  968TIP3   OH2 2867   3.204   2.772   2.036 -0.0513 -0.6835 -0.2953
  968TIP3    H1 2868   3.141   2.756   2.105  1.9833 -1.8412  1.4352
  968TIP3    H2 2869   3.178   2.713   1.965 -1.6760 -0.0893 -0.2358
  969TIP3   OH2 2870   6.684   4.523   2.385 -0.9141  0.0282  0.2274
  969TIP3    H1 2871   6.698   4.465   2.310  0.6528 -0.9476  1.2353
  969TIP3    H2 2872   6.591   4.544   2.381 -1.0573 -0.7360 -1.4519
  970TIP3   OH2 2873   5.639   3.916   2.476 -0.4994  0.0607  0.0973
  970TIP3    H1 2874   5.686   3.843   2.514  2.5343  1.7508 -0.0762
  970TIP3    H2 2875   5.561   3.926   2.530  0.6705 -1.2739  2.1459
  971TIP3   OH2 2876   0.459   6.754   4.238  0.5452  0.2540 -0.2298
  971TIP3    H1 2877   0.419   6.681   4.285 -0.7439 -0.4990 -2.3590
  971TIP3    H2 2878   0.518   6.794   4.302 -2.0619  0.1695  2.4821
  972TIP3   OH2 2879   1.792   4.395   5.326 -0.1318 -0.5310 -0.4261
  972TIP3    H1 2880   1.713   4.411   5.377 -1.4949 -1.2209 -2.2105
  972TIP3    H2 2881   1.813   4.303   5.339 -1.6779 -1.2658 -2.5680
  973TIP3   OH2 2882   7.052   6.388   5.040 -0.5188 -0.1379  0.2296
  973TIP3    H1 2883   6.966   6.382   4.998 -0.4562  1.2398 -0.1660
  973TIP3    H2 2884   7.114   6.379   4.968 -0.4116  2.4917 -0.0887
  974TIP3   OH2 2885   2.409   4.089   1.076  0.2500  0.4683  0.2241
  974TIP3    H1 2886   2.339   4.055   1.133  0.6166 -1.7468 -0.5438
  974TIP3    H2 2887   2.363   4.133   1.005 -0.5729 -2.2217 -1.0734
  975TIP3   OH2 2888   0.347   2.832   4.044 -0.1604 -0.5558  0.0134
  975TIP3    H1 2889   0.413   2.798   3.985  1.8441  0.6592  1.4325
  975TIP3    H2 2890   0.351   2.776   4.121 -1.7471 -1.2522 -0.3565
  976TIP3   OH2 2891   3.924   5.914   5.123  0.0486 -0.5898 -0.3819
  976TIP3    H1 2892   3.956   5.828   5.095  0.1296 -0.2024 -1.5178
  976TIP3    H2 2893   3.997   5.953   5.170  1.4043  0.3414 -3.0531
  977TIP3   OH2 2894   5.376   2.658   2.253 -0.7292 -0.5081  0.8090
  977TIP3    H1 2895   5.396   2.680   2.344  0.5320  1.0375  0.2016
  977TIP3    H2 2896   5.313   2.725   2.226  0.5076  0.3584 -0.0477
  978TIP3   OH2 2897   4.502   3.048   2.226  0.0687  0.0509  0.4486
  978TIP3    H1 2898   4.478   2.984   2.159 -0.3066  0.9611 -0.2974
  978TIP3    H2 2899   4.450   3.125   2.206  0.7789  0.7243  1.1272
  979TIP3   OH2 2900   6.417   3.927   2.154 -0.1924  0.2691  0.5340
  979TIP3    H1 2901   6.477   3.884   2.093 -0.0525  0.7069  0.3555
  979TIP3    H2 2902   6.333   3.927   2.109  0.4608  3.0248 -0.8952
  980TIP3   OH2 2903   1.153   1.919   1.252 -0.3064 -0.0219  0.7343
  980TIP3    H1 2904   1.193   1.901   1.337  0.6498 -0.6628  0.1699
  980TIP3    H2 2905   1.122   2.010   1.259 -0.7953 -0.2527  1.9583
  981TIP3   OH2 2906   5.457   5.746   5.426  0.6143  0.6913 -0.1811
  981TIP3    H1 2907   5.364   5.760   5.443  0.6517  2.4203 -1.1694
  981TIP3    H2 2908   5.472   5.654   5.447 -1.3542  0.3431 -0.1472
  982TIP3   OH2 2909   1.181   6.417   1.031  0.1107 -0.1520 -0.3330
  982TIP3    H1 2910   1.095   6.377   1.043  0.0573 -0.1493 -0.6942
  982TIP3    H2 2911   1.191   6.475   1.106 -0.8641  1.0120 -1.0769
  983TIP3   OH2 2912   5.550   1.540   1.016 -0.7519  0.1716  0.4999
  983TIP3    H1 2913   5.508   1.460   0.984 -0.4764  0.0888  0.3478
  983TIP3    H2 2914   5.603   1.511   1.090  0.1526  0.0449 -0.1879
  984TIP3   OH2 2915   4.079   3.832   1.771 -0.1128 -0.1744 -0.0715
  984TIP3    H1 2916   4.108   3.819   1.861 -0.4950  0.6283  0.1741
  984TIP3    H2 2917   4.074   3.927   1.761  0.0778 -0.2520 -0.9922
  985TIP3   OH2 2918   1.384   1.494   1.039  0.1789 -0.2138 -0.3199
  985TIP3    H1 2919   1.417   1.420   0.989 -1.2377  0.0409 -1.7324
  985TIP3    H2 2920   1.298   1.512   1.001 -1.4649 -0.6281  2.8822
  986TIP3   OH2 2921   5.910   1.757   5.131 -0.3319 -0.1165 -0.2784
  986TIP3    H1 2922   5.967   1.764   5.055  1.7874 -2.6545  0.9458
  986TIP3    H2 2923   5.952   1.811   5.198 -0.3050 -0.5911  0.0943
  987TIP3   OH2 2924   4.420   6.375   0.743 -0.2652  0.0963  0.0410
  987TIP3    H1 2925   4.469   6.416   0.813 -1.8625  1.9021  0.1893
  987TIP3    H2 2926   4.486   6.342   0.682  1.1138 -0.1421  1.6173
  988TIP3   OH2 2927   6.368   6.789   3.363 -0.4765  0.2608 -0.1902
  988TIP3    H1 2928   6.432   6.833   3.308  0.2857  0.1431  0.5716
  988TIP3    H2 2929   6.412   6.708   3.391 -1.2361 -0.1793 -0.2484
  989TIP3   OH2 2930   3.721   3.580   1.734  0.0453 -0.3869  0.1637
  989TIP3    H1 2931   3.670   3.503   1.758 -0.3619 -0.4304 -0.8222
  989TIP3    H2 2932   3.721   3.634   1.813 -0.9108 -0.7201  0.3987
  990TIP3   OH2 2933   6.446   2.396   2.929 -0.5970  0.5941  0.1332
  990TIP3    H1 2934   6.401   2.375   2.848  0.1611  2.2195 -0.7560
  990TIP3    H2 2935   6.401   2.474   2.962 -0.1060  0.6800  0.6099
  991TIP3   OH2 2936   3.596   0.510   3.394  0.3055 -0.0249  0.2563
  991TIP3    H1 2937   3.609   0.505   3.489 -0.3811  1.2609  0.4354
  991TIP3    H2 2938   3.504   0.536   3.384  0.1978 -0.7398 -0.7857
  992TIP3   OH2 2939   2.628   3.579   0.813 -0.0180 -0.3676 -0.0463
  992TIP3    H1 2940   2.569   3.580   0.888 -1.0560 -2.4858 -0.7607
  992TIP3    H2 2941   2.659   3.670   0.805 -5.2612  1.6998 -1.2636
  993TIP3   OH2 2942   6.490   0.320   0.493  0.0619  0.4275 -0.2658
  993TIP3    H1 2943   6.469   0.365   0.411 -1.8149 -0.7557 -0.5026
  993TIP3    H2 2944   6.453   0.376   0.561  0.4271  0.7497 -0.3344
  994TIP3   OH2 2945   4.900   0.419   3.568  0.0275 -0.5549 -0.7348
  994TIP3    H1 2946   4.912   0.391   3.658  2.4549  0.0327 -0.7941
  994TIP3    H2 2947   4.882   0.513   3.574  0.5391 -0.4445 -0.8529
  995TIP3   OH2 2948   6.183   5.329   1.427  0.4687  0.0769 -0.3564
  995TIP3    H1 2949   6.238   5.405   1.447  0.7027 -0.1113 -0.2763
  995TIP3    H2 2950   6.105   5.366   1.386  0.1569  0.4359  0.5304
  996TIP3   OH2 2951   2.384   4.083   1.474  0.2881 -0.1413  0.8401
  996TIP3    H1 2952   2.442   4.008   1.484 -0.2455 -0.5855  0.6962
  996TIP3    H2 2953   2.399   4.135   1.553  2.4108  0.8682 -0.1561
  997TIP3   OH2 2954   2.047   1.909   2.479 -0.6530  0.0716  0.5212
  997TIP3    H1 2955   2.041   1.853   2.557 -0.1809 -1.6745 -0.6409
  997TIP3    H2 2956   2.025   1.851   2.406 -0.8813  1.6140 -0.6842
  998TIP3   OH2 2957   3.621   2.245   0.539  0.0358  0.2005  0.1625
  998TIP3    H1 2958   3.638   2.158   0.575 -0.3547 -0.6371 -1.5600
  998TIP3    H2 2959   3.708   2.287   0.537  0.2825 -0.2711  0.6707
  999TIP3   OH2 2960   0.496   1.735   2.394 -0.1257  0.1066  0.6559
  999TIP3    H1 2961   0.514   1.829   2.390  0.4159 -0.0298 -0.3738
  999TIP3    H2 2962   0.425   1.722   2.332 -0.6973 -0.0632  1.3365
 1000TIP3   OH2 2963   4.686   2.194   0.340  0.2841  0.0354 -0.0274
 1000TIP3    H1 2964   4.650   2.121   0.391  0.5220  1.3353  2.1453
 1000TIP3    H2 2965   4.772   2.164   0.311  0.1737 -0.7316  0.4305
 1001TIP3   OH2 2966   5.121   2.176   1.596 -0.1440  0.0151 -0.2421
 1001TIP3    H1 2967   5.116   2.272   1.593 -1.3268 -0.0033  0.4753
 1001TIP3    H2 2968   5.131   2.155   1.688  0.8451 -0.5375 -0.4691
 1002TIP3   OH2 2969   6.452   6.679   0.954  0.5856 -0.2312  0.4204
 1002TIP3    H1 2970   6.527   6.723   0.913 -0.9969  2.1787 -0.0819
 1002TIP3    H2 2971   6.491   6.620   1.019  2.9420  3.0801  2.3107
 1003TIP3   OH2 2972   3.093   5.926   2.070 -0.1434 -0.0823 -0.1146
 1003TIP3    H1 2973   3.068   5.999   2.127  0.0913 -1.1148  1.3695
 1003TIP3    H2 2974   3.090   5.849   2.127 -0.2784 -1.2287 -1.6121
 1004TIP3   OH2 2975   4.762   2.186   5.808 -0.0884  0.7989 -0.6062
 1004TIP3    H1 2976   4.789   2.237   5.732 -0.1146 -1.9073 -2.5935
 1004TIP3    H2 2977   4.803   2.100   5.795 -0.3615  0.1021  2.3024
 1005TIP3   OH2 2978   6.978   4.757   4.524 -0.1649 -0.0341  0.2398
 1005TIP3    H1 2979   7.020   4.769   4.439 -2.9167 -0.2642 -1.2578
 1005TIP3    H2 2980   6.921   4.834   4.533 -2.1207 -1.4429  0.4437
 1006TIP3   OH2 2981   1.327   0.603   3.271  0.1198 -0.0424  0.1194
 1006TIP3    H1 2982   1.324   0.523   3.322 -2.1161 -0.1130 -0.0256
 1006TIP3    H2 2983   1.351   0.671   3.334  1.7485 -0.7417  0.2950
 1007TIP3   OH2 2984   6.186   4.191   1.500 -0.1962  0.1439 -0.2250
 1007TIP3    H1 2985   6.278   4.217   1.492  0.0252 -0.2692  0.7981
 1007TIP3    H2 2986   6.190   4.096   1.512 -0.7408  0.1518  0.0181
 1008TIP3   OH2 2987   6.957   0.498   4.207  0.1535  0.2679  0.5388
 1008TIP3    H1 2988   6.885   0.523   4.148 -0.7296  0.6887  1.7501
 1008TIP3    H2 2989   6.926   0.419   4.251  0.8345 -0.0865  0.3864
 1009TIP3   OH2 2990   0.929   1.105   4.151  0.0575 -0.0703 -0.0584
 1009TIP3    H1 2991   0.970   1.185   4.184 -0.3195 -0.5762  1.7338
 1009TIP3    H2 2992   0.876   1.134   4.076  3.2865  0.6565 -2.2536
 1010TIP3   OH2 2993   2.460   2.326   2.440 -0.0175 -0.2324  0.2421
 1010TIP3    H1 2994   2.372   2.289   2.428 -0.0182 -0.3503  0.6091
 1010TIP3    H2 2995   2.496   2.279   2.515  1.0056 -1.3684 -0.9161
 1011TIP3   OH2 2996   4.841   0.986   5.483 -0.6536  0.1486  0.0623
 1011TIP3    H1 2997   4.914   0.972   5.543 -0.5620 -1.2109 -0.3550
 1011TIP3    H2 2998   4.823   0.900   5.445 -3.8712 -0.0697  1.7230
 1012TIP3   OH2 2999   1.247   2.102   1.601 -0.2339  0.0977  0.3190
 1012TIP3    H1 3000   1.292   2.143   1.528 -0.4113  0.3000  0.3223
 1012TIP3    H2 3001   1.315   2.054   1.648 -0.1661 -0.2433 -0.1255
 1013TIP3   OH2 3002   4.220   4.683   2.820  0.0954  0.2274 -0.8037
 1013TIP3    H1 3003   4.314   4.694   2.830  0.0139 -0.4735  1.3685
 1013TIP3    H2 3004   4.183   4.768   2.843  0.1492 -0.0624  0.4600
 1014TIP3   OH2 3005   2.394   5.629   5.898  0.0908 -0.1591 -0.0684
 1014TIP3    H1 3006   2.399   5.682   5.819 -0.7641  0.5134  0.3123
 1014TIP3    H2 3007   2.312   5.656   5.940 -0.2004 -1.5545  0.3037
 1015TIP3   OH2 3008   1.834   1.602   0.981  0.0840 -0.4849 -0.5921
 1015TIP3    H1 3009   1.749   1.594   1.022  1.3511  0.8582  2.5972
 1015TIP3    H2 3010   1.825   1.677   0.921 -1.1652 -0.9631 -1.0367
 1016TIP3   OH2 3011   3.738   1.930   0.410 -0.2840  0.5433  0.2582
 1016TIP3    H1 3012   3.786   1.955   0.331 -0.7321  0.7641  0.0522
 1016TIP3    H2 3013   3.660   1.986   0.409  0.1948  1.2594  1.3808
 1017TIP3   OH2 3014   3.019   5.615   0.967 -0.3185 -0.0213 -0.7083
 1017TIP3    H1 3015   2.959   5.629   0.894  0.3172  0.2921 -1.1808
 1017TIP3    H2 3016   2.963   5.611   1.044 -0.9455  0.2316 -1.1468
 1018TIP3   OH2 3017   0.723   6.674   2.481 -0.1538  0.6047  0.4687
 1018TIP3    H1 3018   0.643   6.622   2.470  0.8499 -0.6002 -1.7972
 1018TIP3    H2 3019   0.714   6.745   2.419  0.8005  0.0820 -0.2898
 1019TIP3   OH2 3020   0.613   4.684   2.592 -0.2480  0.7404 -0.3175
 1019TIP3    H1 3021   0.581   4.771   2.614 -0.5792  0.4995  0.1677
 1019TIP3    H2 3022   0.538   4.626   2.609  0.2420  0.2530  0.1979
 1020TIP3   OH2 3023   5.620   3.265   1.272 -0.6517  0.5438  0.2383
 1020TIP3    H1 3024   5.608   3.302   1.360  0.2754 -0.7654  0.9588
 1020TIP3    H2 3025   5.715   3.254   1.264 -0.4774  2.5751 -1.8012
 1021TIP3   OH2 3026   3.197   1.792   5.410  0.1449  0.1702 -0.1480
 1021TIP3    H1 3027   3.133   1.739   5.362  0.4550 -0.6821  0.3569
 1021TIP3    H2 3028   3.178   1.882   5.384 -1.9877  0.0613  0.8011
 1022TIP3   OH2 3029   3.743   1.659   4.100 -0.1816  0.6062  0.5939
 1022TIP3    H1 3030   3.813   1.713   4.062  1.1868 -1.4714 -0.0134
 1022TIP3    H2 3031   3.785   1.614   4.173 -0.2921 -2.0413 -0.8517
 1023TIP3   OH2 3032   0.746   0.265   2.901  0.3416 -0.0619 -0.1770
 1023TIP3    H1 3033   0.789   0.219   2.972 -1.5996 -0.7730  0.5966
 1023TIP3    H2 3034   0.668   0.213   2.882 -1.9871  2.7989  0.7373
 1024TIP3   OH2 3035   3.760   0.603   4.892  0.6763  0.5180  0.1046
 1024TIP3    H1 3036   3.792   0.617   4.981 -0.7635 -0.4093  0.8052
 1024TIP3    H2 3037   3.726   0.514   4.892  1.0631  0.3309 -1.5237
 1025TIP3   OH2 3038   6.060   0.742   4.130 -0.4175  0.4717 -0.1482
 1025TIP3    H1 3039   5.993   0.686   4.091  0.4229 -0.1655 -0.7153
 1025TIP3    H2 3040   6.024   0.766   4.215 -2.1924  1.6820 -1.1609
 1026TIP3   OH2 3041   0.186   4.174   2.660  0.1273 -0.1339 -0.4251
 1026TIP3    H1 3042   0.199   4.141   2.749  3.3501  1.9828  0.0518
 1026TIP3    H2 3043   0.213   4.266   2.664 -1.6804  0.6232 -3.1636
 1027TIP3   OH2 3044   2.633   5.261   5.101  0.0729  0.5184  0.0199
 1027TIP3    H1 3045   2.664   5.271   5.012  0.4995 -0.4310  0.0432
 1027TIP3    H2 3046   2.537   5.258   5.093  0.1214 -0.0508 -0.4760
 1028TIP3   OH2 3047   5.856   0.355   1.883 -0.4717  0.2109  0.2678
 1028TIP3    H1 3048   5.904   0.333   1.963 -0.1245  0.9650  0.2743
 1028TIP3    H2 3049   5.901   0.307   1.814  0.2672  0.8578  0.2846
 1029TIP3   OH2 3050   1.315   4.863   1.614  0.6008  0.3892  0.3617
 1029TIP3    H1 3051   1.239   4.884   1.669  0.5560 -1.2670  0.9975
 1029TIP3    H2 3052   1.290   4.890   1.526 -1.1060 -0.9157  0.4017
 1030TIP3   OH2 3053   2.240   4.065   2.921  0.2623  0.0639 -0.2914
 1030TIP3    H1 3054   2.164   4.123   2.924  0.4639  0.4067 -1.3305
 1030TIP3    H2 3055   2.302   4.103   2.983  0.6047  1.2951 -1.3460
 1031TIP3   OH2 3056   0.571   6.414   2.572  0.1825 -0.4873  0.3650
 1031TIP3    H1 3057   0.504   6.382   2.512 -0.9497  2.4449 -0.1291
 1031TIP3    H2 3058   0.651   6.417   2.519 -0.4758  0.6668 -0.6394
 1032TIP3   OH2 3059   2.078   0.254   0.627 -0.8052  0.4885  0.4329
 1032TIP3    H1 3060   2.109   0.311   0.556  0.7436  0.4714  1.0442
 1032TIP3    H2 3061   2.052   0.174   0.583 -0.9074  0.8724 -0.2299
 1033TIP3   OH2 3062   6.778   1.873   2.912 -0.5657 -0.2513  0.2697
 1033TIP3    H1 3063   6.711   1.818   2.871  0.0814 -0.5185 -0.4573
 1033TIP3    H2 3064   6.737   1.905   2.992 -2.2336  1.1005 -1.0448
 1034TIP3   OH2 3065   0.469   2.979   0.136  0.2781 -0.4948 -0.2283
 1034TIP3    H1 3066   0.480   3.062   0.090  0.3046 -0.5556 -0.3313
 1034TIP3    H2 3067   0.558   2.947   0.150  0.3729  0.4946  1.6359
 1035TIP3   OH2 3068   5.920   4.453   5.294 -0.2506 -0.4894 -0.2427
 1035TIP3    H1 3069   5.833   4.456   5.334 -0.1097 -1.9209  0.2249
 1035TIP3    H2 3070   5.980   4.442   5.368  0.4092  1.1716 -0.5011
 1036TIP3   OH2 3071   6.121   0.843   3.751  0.5423  0.0094 -0.1759
 1036TIP3    H1 3072   6.034   0.839   3.790  0.5988 -1.4887 -0.1667
 1036TIP3    H2 3073   6.132   0.936   3.729 -1.2239  0.1651 -0.5772
 1037TIP3   OH2 3074   5.004   2.300   2.800 -0.2181  0.1514 -0.1667
 1037TIP3    H1 3075   4.977   2.323   2.711 -0.5194  1.7425  0.3061
 1037TIP3    H2 3076   4.961   2.217   2.817 -1.3227  0.5313 -0.9963
 1038TIP3   OH2 3077   6.723   1.070   1.683  0.0137 -0.4062  0.0392
 1038TIP3    H1 3078   6.783   1.071   1.609  0.7729 -0.8033  0.6245
 1038TIP3    H2 3079   6.716   1.162   1.709  1.3890 -0.4688  0.7360
 1039TIP3   OH2 3080   2.999   4.485   5.130  0.8001  0.6649  0.3021
 1039TIP3    H1 3081   3.046   4.415   5.083  0.3109  1.1789 -1.0121
 1039TIP3    H2 3082   2.941   4.523   5.064 -0.5829  0.8567  1.5793
 1040TIP3   OH2 3083   0.275   1.384   2.157 -0.0521  0.0022 -0.1979
 1040TIP3    H1 3084   0.321   1.303   2.136  1.7922  0.6460  1.0736
 1040TIP3    H2 3085   0.242   1.416   2.073  3.0188  0.1598 -1.4598
 1041TIP3   OH2 3086   2.482   3.689   0.181 -0.1349 -0.0715  0.0971
 1041TIP3    H1 3087   2.498   3.650   0.267 -1.0981 -3.3188 -1.0513
 1041TIP3    H2 3088   2.570   3.705   0.146  0.2678  1.0971  1.5480
 1042TIP3   OH2 3089   2.595   1.432   0.278  0.1003  0.1021  0.1831
 1042TIP3    H1 3090   2.551   1.499   0.330  0.8204  0.5001  0.2905
 1042TIP3    H2 3091   2.549   1.351   0.300 -0.1947  0.4146  0.7370
 1043TIP3   OH2 3092   0.352   4.470   0.669  0.2885  0.0302 -0.9617
 1043TIP3    H1 3093   0.432   4.418   0.660  0.6951  0.5293 -0.3316
 1043TIP3    H2 3094   0.314   4.441   0.752  0.3255  0.4575 -0.7883
 1044TIP3   OH2 3095   2.267   1.389   5.379 -0.2000  0.2424 -0.0753
 1044TIP3    H1 3096   2.283   1.377   5.473 -0.7912 -0.8785 -0.0970
 1044TIP3    H2 3097   2.300   1.477   5.360 -0.6954  0.7690  1.3241
 1045TIP3   OH2 3098   4.692   3.399   2.496  0.2385 -0.1205 -0.2977
 1045TIP3    H1 3099   4.597   3.387   2.490  0.2889 -0.8738  0.2850
 1045TIP3    H2 3100   4.728   3.312   2.476  0.7825  0.0310  0.0257
 1046TIP3   OH2 3101   1.710   2.794   0.353  0.0628 -0.1888  0.5961
 1046TIP3    H1 3102   1.669   2.720   0.397 -2.2244  1.0867  0.7590
 1046TIP3    H2 3103   1.638   2.855   0.335  1.5244  1.0714 -1.4314
 1047TIP3   OH2 3104   2.697   2.080   1.538 -0.3471  0.5746  0.1484
 1047TIP3    H1 3105   2.741   2.001   1.572 -0.4800  1.0253  1.4438
 1047TIP3    H2 3106   2.762   2.121   1.481 -0.4525 -0.7209 -0.9341
 1048TIP3   OH2 3107   3.281   3.905   4.615 -0.0623 -0.6450  0.0048
 1048TIP3    H1 3108   3.241   3.902   4.528 -0.6566  0.2245  0.2342
 1048TIP3    H2 3109   3.361   3.956   4.602 -0.8205  0.6429  0.1992
 1049TIP3   OH2 3110   3.115   4.623   3.110  0.6683  0.5611 -0.9269
 1049TIP3    H1 3111   3.163   4.629   3.193  0.0773  0.2534 -0.5526
 1049TIP3    H2 3112   3.109   4.713   3.080 -0.3004  0.8507  0.0692
 1050TIP3   OH2 3113   4.793   1.340   5.699 -0.0138 -0.1529  0.9444
 1050TIP3    H1 3114   4.703   1.315   5.678  0.6192 -0.6862 -1.5598
 1050TIP3    H2 3115   4.787   1.432   5.723 -1.0394  0.4121 -1.2222
 1051TIP3   OH2 3116   0.211   2.193   0.154 -0.1817 -0.4658 -0.1871
 1051TIP3    H1 3117   0.207   2.250   0.230 -1.4638  0.8758 -1.2118
 1051TIP3    H2 3118   0.127   2.204   0.111  0.6328 -0.9076 -1.9971
 1052TIP3   OH2 3119   3.163   3.530   0.091  0.9304 -0.1458 -0.3003
 1052TIP3    H1 3120   3.201   3.476   0.160  1.7443 -1.4364 -1.6900
 1052TIP3    H2 3121   3.178   3.620   0.120 -0.4421 -0.6040  2.0707
 1053TIP3   OH2 3122   2.271   1.650   5.315 -0.4087  0.1478 -0.3835
 1053TIP3    H1 3123   2.228   1.734   5.330  0.5619  0.5276  0.3601
 1053TIP3    H2 3124   2.359   1.672   5.284  0.0616 -0.5639  0.3890
 1054TIP3   OH2 3125   1.525   0.686   2.303 -0.5000  0.0850  0.1928
 1054TIP3    H1 3126   1.473   0.649   2.373  1.5439 -1.0224  1.2007
 1054TIP3    H2 3127   1.465   0.691   2.228 -2.3963  0.2092  1.6657
 1055TIP3   OH2 3128   6.212   3.545   0.515  0.2814 -0.4203  0.0831
 1055TIP3    H1 3129   6.198   3.451   0.504 -1.6962 -0.1852  0.2989
 1055TIP3    H2 3130   6.248   3.573   0.431  2.9216 -1.6464  0.6837
 1056TIP3   OH2 3131   4.721   2.008   5.287 -0.3410 -0.0732 -0.1226
 1056TIP3    H1 3132   4.748   1.946   5.355 -1.0758 -0.8058 -0.4700
 1056TIP3    H2 3133   4.722   1.956   5.206 -0.2494  0.5703 -0.5413
 1057TIP3   OH2 3134   5.618   5.149   4.709  0.0957  0.0967  0.5518
 1057TIP3    H1 3135   5.615   5.158   4.804  0.6828  0.1679  0.5661
 1057TIP3    H2 3136   5.629   5.238   4.677 -0.7074  0.1409  0.3848
 1058TIP3   OH2 3137   4.331   2.276   2.381 -0.0339 -0.1485 -0.3634
 1058TIP3    H1 3138   4.284   2.281   2.464  2.1859 -1.9614  1.0998
 1058TIP3    H2 3139   4.311   2.189   2.347  1.9990 -0.8547  0.1707
 1059TIP3   OH2 3140   7.142   1.505   2.593 -0.1910 -0.4428  0.0881
 1059TIP3    H1 3141   7.215   1.515   2.532  1.6490 -0.4774  2.1602
 1059TIP3    H2 3142   7.129   1.410   2.598 -0.9133 -0.4066 -0.8356
 1060TIP3   OH2 3143   5.200   5.681   2.039 -0.1172 -0.4103  0.7708
 1060TIP3    H1 3144   5.180   5.768   2.002  0.6984 -0.2859  0.5939
 1060TIP3    H2 3145   5.296   5.677   2.037 -0.1674 -1.7551 -0.2423
 1061TIP3   OH2 3146   3.541   1.806   0.053  0.2004 -0.0059  0.2377
 1061TIP3    H1 3147   3.562   1.882  -0.001 -2.9227 -0.7647 -2.3482
 1061TIP3    H2 3148   3.610   1.742   0.031  0.5556  0.6791 -0.7230
 1062TIP3   OH2 3149   4.644   0.880   3.259 -0.4320 -0.0518 -0.8441
 1062TIP3    H1 3150   4.661   0.964   3.303 -0.1174 -0.9467  0.8352
 1062TIP3    H2 3151   4.657   0.815   3.327 -0.2973 -1.5131 -2.2121
 1063TIP3   OH2 3152   3.905   6.771   5.512  0.3363  0.0819  0.7406
 1063TIP3    H1 3153   3.870   6.848   5.468  0.6946 -1.0655 -1.7515
 1063TIP3    H2 3154   3.854   6.698   5.476  1.8581 -1.1064  0.8945
 1064TIP3   OH2 3155   5.897   3.882   2.740  0.6549  0.1578  0.1473
 1064TIP3    H1 3156   5.877   3.799   2.697  0.8439  0.7574 -1.1613
 1064TIP3    H2 3157   5.980   3.910   2.700  0.5413  1.0309  0.4910
 1065TIP3   OH2 3158   4.315   1.653   4.353 -0.5049  0.1817 -0.2648
 1065TIP3    H1 3159   4.241   1.693   4.399  0.9094  2.7986 -0.1022
 1065TIP3    H2 3160   4.388   1.714   4.366  1.4617 -1.8209 -1.2209
 1066TIP3   OH2 3161   6.432   4.498   5.684 -0.1206  0.5501 -0.0435
 1066TIP3    H1 3162   6.347   4.524   5.720 -0.1149 -1.0142  1.2661
 1066TIP3    H2 3163   6.419   4.407   5.656  1.3815 -0.1191  1.2665
 1067TIP3   OH2 3164   2.328   3.734   5.098  0.0494 -0.1844 -0.0863
 1067TIP3    H1 3165   2.250   3.769   5.141  0.4591  1.8549 -0.8525
 1067TIP3    H2 3166   2.389   3.714   5.170 -0.0503  1.1876  0.4224
 1068TIP3   OH2 3167   5.828   5.041   4.549  0.0217  0.0565  0.1132
 1068TIP3    H1 3168   5.889   5.104   4.588  1.3302 -1.5842  0.8320
 1068TIP3    H2 3169   5.742   5.067   4.582  0.2478  2.3974 -0.8803
 1069TIP3   OH2 3170   2.934   4.846   5.022  0.3672 -0.1449  0.0330
 1069TIP3    H1 3171   2.935   4.761   4.979  0.8307 -0.0724 -0.1083
 1069TIP3    H2 3172   2.846   4.880   5.007 -0.0413 -0.8808  0.6635
 1070TIP3   OH2 3173   3.319   6.329   1.485 -0.3148  0.0903  0.4855
 1070TIP3    H1 3174   3.277   6.250   1.452 -1.2251  0.2545  1.2320
 1070TIP3    H2 3175   3.352   6.305   1.572  0.0361  0.3249  0.4217
 1071TIP3   OH2 3176   1.332   3.923   3.782  0.2591  0.2952 -0.1093
 1071TIP3    H1 3177   1.292   3.836   3.784  0.1032  0.3347 -1.1122
 1071TIP3    H2 3178   1.426   3.906   3.792  0.0182  0.2965  3.9866
 1072TIP3   OH2 3179   4.391   1.390   1.276 -0.1209  0.6498 -0.1500
 1072TIP3    H1 3180   4.340   1.470   1.285  0.7545  1.0034  2.6942
 1072TIP3    H2 3181   4.482   1.418   1.286  0.2140 -0.6602  0.7720
 1073TIP3   OH2 3182   1.187   0.701   5.568  0.4067  0.1792  0.1899
 1073TIP3    H1 3183   1.134   0.684   5.490 -0.3929  0.5384  0.6469
 1073TIP3    H2 3184   1.149   0.645   5.636 -1.0447  2.2879  1.2076
 1074TIP3   OH2 3185   0.612   4.036   5.748  0.7424 -0.5652  0.5143
 1074TIP3    H1 3186   0.554   3.973   5.791 -1.8756  1.3406 -0.0239
 1074TIP3    H2 3187   0.652   3.987   5.676 -2.4337 -1.3022 -0.8954
 1075TIP3   OH2 3188   4.282   0.258   1.592 -0.3240 -0.1105  0.5082
 1075TIP3    H1 3189   4.269   0.318   1.666  0.5053 -0.5209  1.0005
 1075TIP3    H2 3190   4.264   0.171   1.628  0.1394 -0.3155  0.2469
 1076TIP3   OH2 3191   6.583   3.741   5.387 -0.1487  0.2634 -0.3505
 1076TIP3    H1 3192   6.552   3.831   5.382  1.5102  0.8841 -0.0719
 1076TIP3    H2 3193   6.675   3.746   5.362 -0.1229 -1.4213 -0.7151
 1077TIP3   OH2 3194   6.960   0.140   3.985  0.0271  0.2144 -0.6803
 1077TIP3    H1 3195   7.008   0.064   3.952  0.6904  0.3866 -0.1508
 1077TIP3    H2 3196   6.933   0.115   4.074  1.1555  0.9602 -0.1006
 1078TIP3   OH2 3197   2.711   3.544   4.382 -0.0563  0.3645 -0.1957
 1078TIP3    H1 3198   2.644   3.503   4.437 -0.9799  1.6686 -0.2866
 1078TIP3    H2 3199   2.671   3.548   4.295  0.3079  0.7522 -0.3469
 1079TIP3   OH2 3200   4.564   6.150   0.563 -0.5335 -0.3686 -0.2856
 1079TIP3    H1 3201   4.620   6.205   0.508 -1.1933  1.6640  0.9750
 1079TIP3    H2 3202   4.476   6.161   0.525 -0.6984 -0.3813  0.0849
 1080TIP3   OH2 3203   5.283   3.987   1.504 -0.1208  0.2098 -0.2188
 1080TIP3    H1 3204   5.316   3.919   1.444  0.0670 -0.1270  0.2585
 1080TIP3    H2 3205   5.343   3.984   1.578 -0.1081  0.9169 -0.2009
 1081TIP3   OH2 3206   2.271   0.887   2.458 -0.2368  0.6455  0.4130
 1081TIP3    H1 3207   2.349   0.904   2.511  0.7805 -1.4866 -0.2928
 1081TIP3    H2 3208   2.224   0.819   2.506  1.3144 -2.2101 -1.8363
 1082TIP3   OH2 3209   2.221   1.243   3.887  0.3228 -0.3685 -0.1510
 1082TIP3    H1 3210   2.208   1.328   3.929 -0.8396 -0.1892 -0.8537
 1082TIP3    H2 3211   2.137   1.223   3.846  1.1497 -0.9618 -1.6230
 1083TIP3   OH2 3212   1.083   0.977   0.707 -0.2427 -0.6433  0.3248
 1083TIP3    H1 3213   1.044   0.889   0.710 -0.1510 -0.7149 -0.4867
 1083TIP3    H2 3214   1.164   0.966   0.659  0.1334 -0.2390  0.8560
 1084TIP3   OH2 3215   3.414   0.135   1.662 -0.4272 -0.0490 -0.3764
 1084TIP3    H1 3216   3.494   0.187   1.655  0.1054 -0.7308  0.4103
 1084TIP3    H2 3217   3.346   0.190   1.623 -0.0284  1.5642  1.0838
 1085TIP3   OH2 3218   0.290   2.529   1.227  0.0223 -0.2207  0.3217
 1085TIP3    H1 3219   0.342   2.498   1.302  0.3960  0.8038  0.5082
 1085TIP3    H2 3220   0.214   2.572   1.266 -0.3369 -0.6262  0.0781
 1086TIP3   OH2 3221   2.789   3.846   3.542  0.1547 -0.0138 -0.5499
 1086TIP3    H1 3222   2.884   3.854   3.537  0.4505 -1.8492  0.6967
 1086TIP3    H2 3223   2.766   3.886   3.626 -0.0058 -0.4867 -0.3594
 1087TIP3   OH2 3224   1.470   0.428   1.583  0.0938 -0.0536 -0.2865
 1087TIP3    H1 3225   1.389   0.378   1.578 -0.7922  1.4118 -1.9308
 1087TIP3    H2 3226   1.442   0.516   1.609  0.8931  0.8701 -2.3355
 1088TIP3   OH2 3227   3.064   4.592   1.480 -0.5370 -0.3586 -0.0025
 1088TIP3    H1 3228   3.047   4.674   1.526 -0.3614 -0.5780  0.4506
 1088TIP3    H2 3229   2.977   4.560   1.456 -0.6072 -0.0445 -0.1812
 1089TIP3   OH2 3230   6.815   5.826   5.276  0.0285 -0.4017 -0.1105
 1089TIP3    H1 3231   6.810   5.806   5.370 -0.1881 -0.5951 -0.1638
 1089TIP3    H2 3232   6.872   5.759   5.240  0.3272 -0.1691 -0.0723
 1090TIP3   OH2 3233   4.095   4.866   5.226  0.1587  0.2818 -0.3152
 1090TIP3    H1 3234   4.053   4.939   5.180  0.1470  0.7801  0.4584
 1090TIP3    H2 3235   4.123   4.806   5.157 -0.3269  0.7564 -0.9325
 1091TIP3   OH2 3236   7.186   3.934   5.797  0.2452  0.3935  0.1538
 1091TIP3    H1 3237   7.139   4.014   5.822  0.2583  0.7586 -0.9268
 1091TIP3    H2 3238   7.271   3.965   5.765  0.3237 -0.0622 -0.0961
 1092TIP3   OH2 3239   2.287   5.902   4.385  0.0405  0.0223 -0.5059
 1092TIP3    H1 3240   2.364   5.880   4.333 -0.4735 -0.3651 -1.1153
 1092TIP3    H2 3241   2.290   5.997   4.395  1.3358 -0.1099  0.6503
 1093TIP3   OH2 3242   0.810   1.365   1.740  0.3801 -0.2749 -0.2874
 1093TIP3    H1 3243   0.865   1.400   1.809  0.3911 -0.6718 -0.0928
 1093TIP3    H2 3244   0.764   1.441   1.705  0.5929 -0.0314 -0.0414
 1094TIP3   OH2 3245   6.308   6.717   3.622  0.7888  0.4615 -0.8482
 1094TIP3    H1 3246   6.384   6.775   3.621 -0.1593  1.7744 -0.7419
 1094TIP3    H2 3247   6.239   6.769   3.665  0.4726 -1.5508  1.3237
 1095TIP3   OH2 3248   6.004   1.001   5.298  0.2144  0.3747  0.1989
 1095TIP3    H1 3249   5.970   1.081   5.336  0.6596  0.8202 -0.3142
 1095TIP3    H2 3250   6.085   1.028   5.254  0.0333 -0.2295 -0.5270
 1096TIP3   OH2 3251   0.792   4.521   2.773 -0.5829  0.7422 -0.1829
 1096TIP3    H1 3252   0.838   4.566   2.844 -1.7617  1.0607  0.3959
 1096TIP3    H2 3253   0.757   4.591   2.719  0.1031  0.4978 -0.9588
 1097TIP3   OH2 3254   5.880   2.823   1.205 -0.2866 -0.0929 -0.4041
 1097TIP3    H1 3255   5.898   2.731   1.227  2.1709 -0.3062 -2.7653
 1097TIP3    H2 3256   5.872   2.866   1.289  0.2985 -2.1779  0.8014
 1098TIP3   OH2 3257   1.381   5.993   2.540  0.5984 -0.2117  0.1267
 1098TIP3    H1 3258   1.378   6.048   2.461  0.1407 -0.4543 -0.0297
 1098TIP3    H2 3259   1.447   6.035   2.596  0.1833  0.5617  0.0516
 1099TIP3   OH2 3260   5.141   3.290   2.356  0.2125 -0.4608  0.7354
 1099TIP3    H1 3261   5.068   3.340   2.318  0.1029 -1.6474 -0.6898
 1099TIP3    H2 3262   5.107   3.260   2.441 -1.6745 -2.4141 -0.5975
 1100TIP3   OH2 3263   2.611   4.386   3.638  0.3200 -0.1056 -0.7828
 1100TIP3    H1 3264   2.625   4.322   3.569  2.7727 -1.2202  0.6164
 1100TIP3    H2 3265   2.692   4.385   3.689 -0.5134  2.3161  0.7850
 1101TIP3   OH2 3266   2.325   2.042   2.062  0.0549  0.7193 -0.2457
 1101TIP3    H1 3267   2.312   1.950   2.085 -0.5469  0.5867 -1.0324
 1101TIP3    H2 3268   2.411   2.064   2.097  0.8739 -0.5856 -1.3283
 1102TIP3   OH2 3269   0.101   0.990   1.337  0.2445  0.1998  0.0750
 1102TIP3    H1 3270   0.135   0.993   1.247 -1.5215  1.1892 -0.6216
 1102TIP3    H2 3271   0.086   1.082   1.359 -0.1170 -0.0913  1.0712
 1103TIP3   OH2 3272   0.998   5.236   5.829 -0.1007 -0.1423 -0.0203
 1103TIP3    H1 3273   1.088   5.258   5.808  0.7129 -2.9021  0.2478
 1103TIP3    H2 3274   0.974   5.167   5.767 -2.5133  1.3240 -0.8985
 1104TIP3   OH2 3275   2.566   0.582   2.185  0.3454  0.3367 -0.6934
 1104TIP3    H1 3276   2.474   0.598   2.204  0.7037  1.0745  0.5646
 1104TIP3    H2 3277   2.607   0.668   2.194  1.5224 -0.3504  1.1537
 1105TIP3   OH2 3278   0.073   4.316   4.766 -0.0646  0.0223 -0.0048
 1105TIP3    H1 3279   0.160   4.355   4.756 -0.2428  0.1438 -1.2704
 1105TIP3    H2 3280   0.015   4.391   4.781 -0.3227  0.2668 -1.8793
 1106TIP3   OH2 3281   5.953   1.430   1.395 -0.0217 -0.1521 -0.4744
 1106TIP3    H1 3282   5.894   1.376   1.448 -0.3543 -2.0399 -2.5888
 1106TIP3    H2 3283   5.924   1.520   1.410 -0.8267 -0.7157  1.5859
 1107TIP3   OH2 3284   3.599   0.425   4.042  0.0627 -0.4750 -0.3152
 1107TIP3    H1 3285   3.691   0.444   4.027 -0.3873  1.5628 -0.8474
 1107TIP3    H2 3286   3.575   0.479   4.117 -0.8827 -0.3577 -0.6854
 1108TIP3   OH2 3287   0.886   5.035   0.230 -0.3024 -0.2374  1.1633
 1108TIP3    H1 3288   0.939   5.115   0.237 -0.6317  0.5518 -2.6715
 1108TIP3    H2 3289   0.949   4.967   0.206 -0.6605  0.4685 -2.3006
 1109TIP3   OH2 3290   1.040   3.151   1.401 -0.3173 -0.7087 -0.0124
 1109TIP3    H1 3291   1.068   3.202   1.325  1.5056 -1.0418  0.3994
 1109TIP3    H2 3292   1.120   3.111   1.434 -0.9321 -0.0734  2.4769
 1110TIP3   OH2 3293   3.972   2.511   1.656 -0.2846  0.3417 -0.2381
 1110TIP3    H1 3294   4.048   2.561   1.627 -1.5910  2.1922 -0.7131
 1110TIP3    H2 3295   3.897   2.564   1.628 -1.7820 -1.8475 -0.6075
 1111TIP3   OH2 3296   2.655   4.830   5.363  0.0408 -0.1980  0.4678
 1111TIP3    H1 3297   2.705   4.764   5.316  0.3666 -0.2850  0.9350
 1111TIP3    H2 3298   2.686   4.914   5.328 -0.2616 -0.2884 -0.0129
 1112TIP3   OH2 3299   6.828   4.155   1.066 -0.4887  0.1896 -0.2212
 1112TIP3    H1 3300   6.804   4.232   1.016 -0.2693  0.7461  0.5072
 1112TIP3    H2 3301   6.874   4.189   1.143 -0.8208 -0.6216  0.3651
 1113TIP3   OH2 3302   4.186   4.274   2.963  0.2437  0.7394  0.3453
 1113TIP3    H1 3303   4.147   4.234   3.040 -0.1286  1.5126  0.5742
 1113TIP3    H2 3304   4.117   4.270   2.896  0.2077  0.9899  0.3669
 1114TIP3   OH2 3305   4.732   6.620   1.827 -0.5551  0.3449  0.2797
 1114TIP3    H1 3306   4.642   6.652   1.819 -1.2356 -1.8903 -2.1414
 1114TIP3    H2 3307   4.784   6.683   1.776 -0.3751  2.5262  2.9368
 1115TIP3   OH2 3308   4.589   5.873   3.462  0.2499  0.3988  0.4990
 1115TIP3    H1 3309   4.633   5.792   3.486 -1.6280 -0.9689 -0.4184
 1115TIP3    H2 3310   4.590   5.873   3.366  0.0037  1.3506  0.4866
 1116TIP3   OH2 3311   4.364   1.947   5.135 -0.3031 -0.3804  0.6668
 1116TIP3    H1 3312   4.412   2.010   5.189  0.6104  0.2272 -0.7901
 1116TIP3    H2 3313   4.280   1.989   5.117  0.6478  0.8943 -1.0539
 1117TIP3   OH2 3314   4.419   0.979   5.285 -0.3509  0.1916 -0.6638
 1117TIP3    H1 3315   4.474   0.942   5.216  0.7707  0.1037  0.2377
 1117TIP3    H2 3316   4.340   0.926   5.285  0.2087 -0.6577 -0.9891
 1118TIP3   OH2 3317   1.807   3.399   5.048  0.0566  0.2924  0.2686
 1118TIP3    H1 3318   1.835   3.389   4.957  0.4458 -0.1341  0.4340
 1118TIP3    H2 3319   1.859   3.473   5.081  1.1850 -0.6429  0.6430
 1119TIP3   OH2 3320   5.950   4.715   0.426 -0.0444 -0.4774 -0.2038
 1119TIP3    H1 3321   5.879   4.775   0.403  0.6634  0.3877 -0.2017
 1119TIP3    H2 3322   5.914   4.660   0.495 -0.4634  0.4817  0.3626
 1120TIP3   OH2 3323   6.103   0.918   0.702  0.6018 -0.1562 -0.1690
 1120TIP3    H1 3324   6.185   0.913   0.751  0.5549 -3.6270 -0.2059
 1120TIP3    H2 3325   6.055   0.839   0.728 -2.0258  0.9145 -1.4201
 1121TIP3   OH2 3326   3.473   1.295   5.121  0.2821  0.1226  0.4366
 1121TIP3    H1 3327   3.453   1.261   5.208  1.4719  0.1577  0.7489
 1121TIP3    H2 3328   3.479   1.218   5.065  0.4522  0.0181  0.5980
 1122TIP3   OH2 3329   5.541   3.856   3.353  0.0380  0.1312  0.6611
 1122TIP3    H1 3330   5.545   3.855   3.449 -1.2200  0.6245  0.7348
 1122TIP3    H2 3331   5.623   3.898   3.326  0.2245  0.3443  1.5327
 1123TIP3   OH2 3332   1.443   4.377   1.847  0.4691  0.3477  0.1140
 1123TIP3    H1 3333   1.415   4.446   1.907  0.1021  1.3013 -1.1112
 1123TIP3    H2 3334   1.425   4.412   1.760  2.7905 -0.1819 -0.6535
 1124TIP3   OH2 3335   3.975   1.442   1.612  0.1605  0.3141  0.0434
 1124TIP3    H1 3336   3.995   1.428   1.519 -0.1569 -1.0931  0.1690
 1124TIP3    H2 3337   3.987   1.536   1.624  1.2762  0.3716 -1.1737
 1125TIP3   OH2 3338   3.909   5.953   0.805 -0.0217  0.2403 -0.2620
 1125TIP3    H1 3339   3.851   5.967   0.880  1.1731  0.4225  0.6689
 1125TIP3    H2 3340   3.974   6.023   0.812  0.6961 -0.3500 -0.8765
 1126TIP3   OH2 3341   7.182   3.211   4.892 -0.4013  0.8203 -0.0718
 1126TIP3    H1 3342   7.184   3.132   4.946  1.3089 -0.8227 -2.3294
 1126TIP3    H2 3343   7.129   3.187   4.816  1.5286  1.1725 -1.6108
 1127TIP3   OH2 3344   1.228   3.907   2.814  0.3110  0.4172 -0.2194
 1127TIP3    H1 3345   1.302   3.849   2.796 -0.1262  0.5825 -3.0215
 1127TIP3    H2 3346   1.267   3.986   2.851  1.2055 -0.5019  0.8689
 1128TIP3   OH2 3347   2.981   1.899   1.791 -0.7786 -0.2116  0.3290
 1128TIP3    H1 3348   2.978   1.823   1.848 -1.0162 -0.3209  0.1686
 1128TIP3    H2 3349   2.933   1.873   1.713  2.2218 -1.2177 -1.3207
 1129TIP3   OH2 3350   0.388   6.256   2.397 -0.0988  0.7945  0.0181
 1129TIP3    H1 3351   0.348   6.326   2.345  0.7237 -0.3078 -2.2640
 1129TIP3    H2 3352   0.349   6.176   2.362  1.3236 -0.0569  0.3028
 1130TIP3   OH2 3353   6.114   3.106   2.657 -0.0515 -0.3702  0.1849
 1130TIP3    H1 3354   6.206   3.130   2.669  0.1789 -0.1592 -1.6326
 1130TIP3    H2 3355   6.072   3.187   2.628 -0.7116 -0.5913  0.5048
 1131TIP3   OH2 3356   5.234  -0.021   2.597 -0.5404 -0.4598 -0.0224
 1131TIP3    H1 3357   5.241   0.057   2.541  1.3218 -1.3813 -1.1806
 1131TIP3    H2 3358   5.290  -0.001   2.672 -1.2507 -0.1067  0.4177
 1132TIP3   OH2 3359   3.926   5.859   1.620  0.1552  0.3075  0.5111
 1132TIP3    H1 3360   3.850   5.839   1.566 -0.6663  1.5451  1.1575
 1132TIP3    H2 3361   4.001   5.852   1.561 -0.1612 -3.0057  0.3349
 1133TIP3   OH2 3362   4.921   4.002   5.325  0.3479  0.0715 -0.4556
 1133TIP3    H1 3363   4.836   4.003   5.368  0.3772  0.5455 -0.4056
 1133TIP3    H2 3364   4.975   3.946   5.380  0.4997  0.9897  0.3610
 1134TIP3   OH2 3365   3.294   0.324   4.314 -0.2402  0.1944 -0.0902
 1134TIP3    H1 3366   3.222   0.298   4.256  0.2425 -0.6207 -0.3316
 1134TIP3    H2 3367   3.312   0.415   4.290 -1.5614  0.6096  0.3706
 1135TIP3   OH2 3368   3.864   5.428   4.611 -0.2684 -0.6081  0.6328
 1135TIP3    H1 3369   3.880   5.507   4.559  0.4018 -1.5664 -0.6665
 1135TIP3    H2 3370   3.836   5.363   4.547  0.4846 -1.8043  1.4900
 1136TIP3   OH2 3371   3.654   3.213   1.588  0.1292  0.9844  0.0813
 1136TIP3    H1 3372   3.593   3.152   1.630  0.6343  1.0202  0.9056
 1136TIP3    H2 3373   3.613   3.299   1.600 -0.3719  0.8568 -0.6920
 1137TIP3   OH2 3374   6.722   5.604   3.478 -0.0949 -0.2784  0.1380
 1137TIP3    H1 3375   6.737   5.584   3.386 -1.8982 -1.8245  0.1032
 1137TIP3    H2 3376   6.627   5.615   3.485 -0.0355 -0.5456  1.8743
 1138TIP3   OH2 3377   5.942   5.087   0.546 -0.5406 -0.0327  0.4005
 1138TIP3    H1 3378   5.925   5.025   0.618  0.8674 -0.0118  0.7828
 1138TIP3    H2 3379   5.885   5.162   0.565 -1.3599 -0.6815  0.6037
 1139TIP3   OH2 3380   2.505   1.876   0.535  0.3658  0.1133 -0.1955
 1139TIP3    H1 3381   2.462   1.959   0.513 -0.6543 -0.2862  0.2117
 1139TIP3    H2 3382   2.598   1.894   0.527  0.1757  1.4151  0.2898
 1140TIP3   OH2 3383   0.821   0.529   3.669 -0.2583 -0.3727  0.0380
 1140TIP3    H1 3384   0.769   0.556   3.745  2.3630  0.1012  1.8334
 1140TIP3    H2 3385   0.884   0.466   3.704  2.0761  1.0330 -1.3128
 1141TIP3   OH2 3386   5.340   6.494   3.232 -0.1860  0.1504 -0.1543
 1141TIP3    H1 3387   5.293   6.416   3.204 -0.9700  0.1040  1.1604
 1141TIP3    H2 3388   5.410   6.461   3.288  0.6521  0.2978 -1.0957
 1142TIP3   OH2 3389   4.525   6.465   2.982  0.2573 -0.3839  0.0430
 1142TIP3    H1 3390   4.496   6.528   2.916  1.9496 -1.0759 -1.4558
 1142TIP3    H2 3391   4.567   6.519   3.050  0.6380  0.1898 -0.6398
 1143TIP3   OH2 3392   0.141   0.303   3.289 -0.0558 -0.3357  0.3297
 1143TIP3    H1 3393   0.192   0.251   3.350  0.5149  2.2701  2.2166
 1143TIP3    H2 3394   0.206   0.354   3.240 -0.6867  0.7100  0.5539
 1144TIP3   OH2 3395   0.857   1.554   4.432  0.3478  0.3112  0.2267
 1144TIP3    H1 3396   0.933   1.577   4.379  0.1056  0.5357 -0.0274
 1144TIP3    H2 3397   0.824   1.638   4.464 -0.8905  0.4040 -1.1780
 1145TIP3   OH2 3398   2.392   6.272   2.393  0.5726  0.0257  0.7252
 1145TIP3    H1 3399   2.444   6.350   2.373  0.5691 -0.0617  0.3816
 1145TIP3    H2 3400   2.365   6.237   2.308 -1.1317  0.7879  0.9065
 1146TIP3   OH2 3401   0.663   6.739   4.007  0.1836 -0.3009 -0.0334
 1146TIP3    H1 3402   0.600   6.744   4.079  0.5628 -0.8727  0.3411
 1146TIP3    H2 3403   0.659   6.648   3.977  1.4116 -0.5601  0.5231
 1147TIP3   OH2 3404   2.968   1.366   3.268  0.1099 -0.5540 -0.1240
 1147TIP3    H1 3405   3.021   1.409   3.336 -0.1732  1.3126 -1.0251
 1147TIP3    H2 3406   3.028   1.355   3.194  0.3848 -2.4781  0.3173
 1148TIP3   OH2 3407   3.625   2.443   4.866  0.0631 -0.0787  0.6520
 1148TIP3    H1 3408   3.625   2.510   4.797 -0.5725 -0.2090  0.5195
 1148TIP3    H2 3409   3.532   2.422   4.879  0.1847 -0.1711  1.4386
 1149TIP3   OH2 3410   5.778   4.748   4.113 -0.1823  0.1602 -0.2045
 1149TIP3    H1 3411   5.868   4.724   4.135 -0.5044 -0.4038  0.5373
 1149TIP3    H2 3412   5.761   4.829   4.162 -0.2728 -0.0573  0.1244
 1150TIP3   OH2 3413   4.824   6.069   1.263 -0.1193  0.2327  0.1022
 1150TIP3    H1 3414   4.908   6.108   1.240 -1.1815  1.8803 -1.3011
 1150TIP3    H2 3415   4.785   6.131   1.325 -1.4212  0.9792 -1.3907
 1151TIP3   OH2 3416   3.572   6.334   5.553  0.1403 -0.0677  0.1882
 1151TIP3    H1 3417   3.572   6.347   5.458  2.2683 -1.2286 -0.0368
 1151TIP3    H2 3418   3.543   6.243   5.564  1.0237 -0.3127  0.5485
 1152TIP3   OH2 3419   4.136   0.263   4.586  0.2884  0.5121 -0.2876
 1152TIP3    H1 3420   4.091   0.297   4.509 -0.7647  1.7831  0.8300
 1152TIP3    H2 3421   4.068   0.220   4.637  0.8042  0.4203  0.3370
 1153TIP3   OH2 3422   6.675   6.664   4.160 -0.5898  0.4432  0.5320
 1153TIP3    H1 3423   6.725   6.592   4.122 -4.2277 -1.5458 -0.9358
 1153TIP3    H2 3424   6.702   6.741   4.109 -0.5551 -0.9664 -1.7205
 1154TIP3   OH2 3425   5.846   1.026   2.106  0.0228 -0.6037  0.1202
 1154TIP3    H1 3426   5.907   0.987   2.043 -0.6143 -2.5353  0.6396
 1154TIP3    H2 3427   5.896   1.033   2.187  1.3439  3.3107 -0.8179
 1155TIP3   OH2 3428   2.668   5.697   2.514  0.2808 -0.7039 -0.8107
 1155TIP3    H1 3429   2.666   5.788   2.484  1.1456 -0.4556 -0.1494
 1155TIP3    H2 3430   2.728   5.697   2.588 -1.1566 -1.4452  0.4229
 1156TIP3   OH2 3431   0.496   0.249   1.127 -0.5416 -0.3303 -0.3236
 1156TIP3    H1 3432   0.527   0.302   1.054 -1.1021  1.6727  0.8076
 1156TIP3    H2 3433   0.527   0.160   1.108  0.5048  0.4014 -2.2703
 1157TIP3   OH2 3434   6.129   0.564   1.818  0.3178 -0.4067  0.4422
 1157TIP3    H1 3435   6.040   0.532   1.801  0.0845  0.8215 -0.8786
 1157TIP3    H2 3436   6.159   0.513   1.893 -2.1892  0.3798  2.1030
 1158TIP3   OH2 3437   0.673   2.591   2.433 -0.3905 -0.0865  0.0932
 1158TIP3    H1 3438   0.591   2.619   2.474  0.5499  0.0994  1.9881
 1158TIP3    H2 3439   0.741   2.625   2.491  1.0460 -0.1586 -1.4777
 1159TIP3   OH2 3440   0.883   4.410   5.662  0.0784  0.0920  0.0178
 1159TIP3    H1 3441   0.966   4.458   5.658  0.1572  0.0633  1.1281
 1159TIP3    H2 3442   0.895   4.336   5.602  0.9007  0.0091  0.2751
 1160TIP3   OH2 3443   1.006   6.725   0.930  0.5197 -0.2686 -0.1211
 1160TIP3    H1 3444   1.007   6.688   1.018 -0.5692  0.9960  0.4637
 1160TIP3    H2 3445   0.934   6.680   0.886  0.1730  0.0570  0.1008
 1161TIP3   OH2 3446   5.948   6.213   2.041  1.0377  0.1144  0.0811
 1161TIP3    H1 3447   5.870   6.231   1.988  0.0764 -1.3446  0.9336
 1161TIP3    H2 3448   5.926   6.245   2.128  1.8203  0.6699  0.0787
 1162TIP3   OH2 3449   3.874   2.530   3.318 -0.6386  0.0307  0.8926
 1162TIP3    H1 3450   3.878   2.435   3.319 -1.1398 -0.0663 -1.4527
 1162TIP3    H2 3451   3.781   2.551   3.313 -0.4916  0.6126  0.4096
 1163TIP3   OH2 3452   4.074   0.406   1.031 -0.3893 -0.3673 -0.3494
 1163TIP3    H1 3453   4.067   0.442   1.119 -2.1622  0.8824 -0.9416
 1163TIP3    H2 3454   3.987   0.372   1.012  0.0032 -0.7593 -1.5753
 1164TIP3   OH2 3455   0.948   6.644   2.652  0.1523 -0.1384 -0.2036
 1164TIP3    H1 3456   0.942   6.574   2.717 -0.3804 -0.5523 -0.6835
 1164TIP3    H2 3457   0.868   6.634   2.599  0.1893  0.6866 -0.4194
 1165TIP3   OH2 3458   1.932   3.560   0.975  0.0689  0.2502  0.3234
 1165TIP3    H1 3459   1.975   3.630   0.927 -0.1574  0.9685  1.1453
 1165TIP3    H2 3460   1.994   3.487   0.973  0.6201  0.7198  0.0982
 1166TIP3   OH2 3461   6.989   5.591   2.490 -0.4135 -0.2299 -0.3145
 1166TIP3    H1 3462   7.065   5.581   2.432  1.7125  1.3071  2.0232
 1166TIP3    H2 3463   6.974   5.504   2.525 -0.2289 -0.6915 -1.3324
 1167TIP3   OH2 3464   0.318   0.796   0.130 -0.1655  0.2229  0.1376
 1167TIP3    H1 3465   0.269   0.731   0.080  0.4149 -0.2979  0.2315
 1167TIP3    H2 3466   0.305   0.878   0.082  1.1386 -0.4290 -1.4290
 1168TIP3   OH2 3467   4.061   6.650   0.569 -0.0565  0.2431 -0.8442
 1168TIP3    H1 3468   4.150   6.618   0.552 -0.0746  0.1166 -0.7019
 1168TIP3    H2 3469   4.043   6.709   0.496  0.6996  1.4518 -0.0798
 1169TIP3   OH2 3470   1.633   6.355   3.059 -0.0216  0.2480  0.0929
 1169TIP3    H1 3471   1.594   6.442   3.058 -0.4590  0.0614 -1.3530
 1169TIP3    H2 3472   1.682   6.351   3.141 -1.3553  1.2452  0.9711
 1170TIP3   OH2 3473   6.088   4.735   1.123 -0.2175  0.5221  0.0131
 1170TIP3    H1 3474   6.158   4.687   1.078 -1.7678 -1.5340 -0.3337
 1170TIP3    H2 3475   6.083   4.695   1.209 -0.3117  1.3486  0.4019
 1171TIP3   OH2 3476   5.449   3.993   0.943 -0.3719 -0.1272  0.1495
 1171TIP3    H1 3477   5.393   3.917   0.926  1.1284 -1.4078  0.6644
 1171TIP3    H2 3478   5.451   4.000   1.038 -1.1509  1.1059  0.0973
 1172TIP3   OH2 3479   2.639   4.950   2.958 -0.2230  0.3273  0.1102
 1172TIP3    H1 3480   2.597   4.901   3.030  0.6993  0.5950  0.8532
 1172TIP3    H2 3481   2.730   4.961   2.987  0.2403  0.1835 -1.2437
 1173TIP3   OH2 3482   4.714   6.133   3.219  0.1154 -0.0243 -0.1674
 1173TIP3    H1 3483   4.642   6.170   3.269  0.3177  1.5287 -0.9763
 1173TIP3    H2 3484   4.685   6.043   3.199 -1.7544  0.6599 -0.7649
 1174TIP3   OH2 3485   2.367   3.742   2.845 -0.3609 -0.1049 -0.0693
 1174TIP3    H1 3486   2.284   3.695   2.846  0.3718 -1.4622  0.4218
 1174TIP3    H2 3487   2.424   3.688   2.789  0.8264 -0.3963  1.3510
 1175TIP3   OH2 3488   4.542   2.772   4.070  0.6563  0.0422 -0.0429
 1175TIP3    H1 3489   4.603   2.841   4.098  0.4617  0.7149 -1.2058
 1175TIP3    H2 3490   4.533   2.785   3.975 -0.6723 -0.5464 -0.0200
 1176TIP3   OH2 3491   2.456   5.018   3.230 -0.6329  0.2042  0.0741
 1176TIP3    H1 3492   2.370   5.038   3.191 -0.2658 -0.2696 -1.0240
 1176TIP3    H2 3493   2.458   4.922   3.235  1.1060 -0.0645 -3.0742
 1177TIP3   OH2 3494   1.668   5.301   1.991  0.4741  0.2009  0.0199
 1177TIP3    H1 3495   1.754   5.343   1.993  0.9116 -0.6091 -1.1191
 1177TIP3    H2 3496   1.614   5.360   1.937  1.2681 -0.9506 -2.1429
 1178TIP3   OH2 3497   5.246   2.563   3.365  0.3076 -0.0655  0.1628
 1178TIP3    H1 3498   5.264   2.498   3.433 -0.5025 -0.6165 -0.1308
 1178TIP3    H2 3499   5.211   2.639   3.413  0.4219 -0.1759  0.4241
 1179TIP3   OH2 3500   3.479   2.759   1.609 -0.0053 -0.1867  0.1922
 1179TIP3    H1 3501   3.403   2.785   1.557  0.9481  0.2182 -1.0432
 1179TIP3    H2 3502   3.466   2.666   1.627 -2.4147  0.5040  2.8495
 1180TIP3   OH2 3503   3.398   1.579   1.088  1.2606 -0.1199  0.3518
 1180TIP3    H1 3504   3.304   1.588   1.070  0.9530 -3.4404 -0.3622
 1180TIP3    H2 3505   3.406   1.593   1.182 -0.0143 -0.1339  0.4819
 1181TIP3   OH2 3506   5.781   6.262   0.604  0.0464 -0.2845  0.1333
 1181TIP3    H1 3507   5.756   6.302   0.521  0.9922 -2.5285 -1.3393
 1181TIP3    H2 3508   5.873   6.286   0.615  0.1280 -0.6031  0.1456
 1182TIP3   OH2 3509   4.985   4.795   2.434  0.0127 -0.0597 -0.2306
 1182TIP3    H1 3510   5.078   4.810   2.418 -0.5524  1.5373 -2.5125
 1182TIP3    H2 3511   4.983   4.727   2.502  2.7993  1.2134  1.2842
 1183TIP3   OH2 3512   0.489   3.070   0.466  0.4537 -0.7854  0.8261
 1183TIP3    H1 3513   0.455   2.983   0.485 -2.6129  0.3514  1.1527
 1183TIP3    H2 3514   0.550   3.057   0.393  1.7966 -3.4102  2.2871
 1184TIP3   OH2 3515   6.522   2.671   1.436  0.0648  0.3431 -0.0654
 1184TIP3    H1 3516   6.476   2.601   1.481  0.5417 -0.0389 -0.1616
 1184TIP3    H2 3517   6.546   2.634   1.351  1.5387  0.1295  0.4075
 1185TIP3   OH2 3518   4.274   3.274   0.157 -0.1286 -0.4838 -0.3232
 1185TIP3    H1 3519   4.185   3.254   0.128 -1.8484  0.7321  3.4850
 1185TIP3    H2 3520   4.295   3.357   0.116 -0.2801 -1.2167 -1.9797
 1186TIP3   OH2 3521   7.116   3.479   2.786 -0.3342  0.3118 -0.5374
 1186TIP3    H1 3522   7.099   3.521   2.702 -2.9625 -0.2211 -0.3687
 1186TIP3    H2 3523   7.042   3.504   2.841  1.1477  0.3724  1.5524
 1187TIP3   OH2 3524   6.064   6.789   2.552 -0.2286 -0.3603  0.3229
 1187TIP3    H1 3525   6.003   6.718   2.537  0.0975 -0.6315  0.2743
 1187TIP3    H2 3526   6.018   6.849   2.611 -0.7232 -0.3214 -0.1028
 1188TIP3   OH2 3527   3.046   3.947   4.045 -0.1581 -0.2181  0.2190
 1188TIP3    H1 3528   3.133   3.963   4.009  0.5642 -0.5720  1.7266
 1188TIP3    H2 3529   3.045   3.853   4.063 -1.2993 -0.4331 -0.8635
 1189TIP3   OH2 3530   2.731   1.581   3.858 -0.2333  0.6098 -0.0936
 1189TIP3    H1 3531   2.750   1.630   3.939 -1.0926 -0.6212  0.8821
 1189TIP3    H2 3532   2.816   1.546   3.832 -0.1693 -0.1890  1.1102
 1190TIP3   OH2 3533   4.614   1.568   5.097  0.3617 -0.2192 -0.0392
 1190TIP3    H1 3534   4.547   1.501   5.111 -0.0326  0.4469  1.3711
 1190TIP3    H2 3535   4.584   1.616   5.020 -0.1083 -0.7226 -0.1784
 1191TIP3   OH2 3536   6.220   3.299   4.128  0.2248 -0.6025 -0.4890
 1191TIP3    H1 3537   6.235   3.394   4.126 -1.2978 -0.2771  1.1490
 1191TIP3    H2 3538   6.275   3.268   4.200 -1.2191 -0.5397  0.6653
 1192TIP3   OH2 3539   2.573   0.327   5.464 -0.6089  0.7649 -0.6040
 1192TIP3    H1 3540   2.565   0.395   5.397  1.8742 -0.3623 -2.2192
 1192TIP3    H2 3541   2.551   0.246   5.418 -0.4604  0.1323  0.4175
 1193TIP3   OH2 3542   2.812   3.251   5.426 -0.1357 -0.1398 -0.2135
 1193TIP3    H1 3543   2.892   3.294   5.395 -0.2212  0.0080 -0.2276
 1193TIP3    H2 3544   2.812   3.166   5.381  0.1105 -0.2177 -0.0694
 1194TIP3   OH2 3545   2.365   3.654   4.069  0.2915  0.2101 -0.0871
 1194TIP3    H1 3546   2.411   3.685   4.147 -0.1162  0.6247 -0.0048
 1194TIP3    H2 3547   2.368   3.558   4.075  2.7623  0.1719 -1.0464
 1195TIP3   OH2 3548   1.111   0.144   0.359 -0.1518  0.2380  0.1783
 1195TIP3    H1 3549   1.087   0.234   0.382 -0.3571  0.7685 -1.8924
 1195TIP3    H2 3550   1.205   0.148   0.340  0.0682 -0.2407  1.0841
 1196TIP3   OH2 3551   6.887   4.953   2.922  0.5359 -0.0054 -0.2423
 1196TIP3    H1 3552   6.973   4.990   2.904  1.5156 -2.3432 -0.6961
 1196TIP3    H2 3553   6.846   4.944   2.835 -0.1608  1.0192 -0.0363
 1197TIP3   OH2 3554   1.116   0.305   3.073 -0.2908  0.2830  0.4448
 1197TIP3    H1 3555   1.096   0.352   2.992  2.3785  1.5454  0.3781
 1197TIP3    H2 3556   1.091   0.366   3.143 -2.6316 -0.8221  0.6617
 1198TIP3   OH2 3557   0.777   6.662   3.221  0.4763 -0.0104  0.1534
 1198TIP3    H1 3558   0.681   6.655   3.223  0.5870 -2.0247  0.3849
 1198TIP3    H2 3559   0.804   6.648   3.311  1.1040 -2.5430 -0.3640
 1199TIP3   OH2 3560   0.013   3.916   5.260  0.2421 -0.1962  0.1261
 1199TIP3    H1 3561   0.104   3.912   5.233  0.3360 -0.3230  0.4522
 1199TIP3    H2 3562  -0.018   4.001   5.229  0.9355  0.5691  1.4162
 1200TIP3   OH2 3563   3.245   2.734   3.180  0.5860 -0.0931  0.5232
 1200TIP3    H1 3564   3.321   2.752   3.125  0.4313 -0.2328  0.2636
 1200TIP3    H2 3565   3.232   2.815   3.229  0.6389  0.0839  0.2500
 1201TIP3   OH2 3566   5.620   4.530   1.524  0.5497  0.2940 -0.0136
 1201TIP3    H1 3567   5.618   4.494   1.436  0.5115 -0.8999  0.4539
 1201TIP3    H2 3568   5.658   4.618   1.514 -1.2621  0.9666 -1.4591
 1202TIP3   OH2 3569   5.890   1.692   1.338 -0.0842  0.2127 -0.3354
 1202TIP3    H1 3570   5.868   1.767   1.284 -0.0744  0.9641  0.6744
 1202TIP3    H2 3571   5.972   1.716   1.380  0.5330 -0.8498 -0.8771
 1203TIP3   OH2 3572   0.879   5.726   0.520 -0.2667 -0.9185 -0.7294
 1203TIP3    H1 3573   0.969   5.703   0.498  0.0762  0.1581 -0.4901
 1203TIP3    H2 3574   0.834   5.642   0.527  0.9232 -1.5139  0.0218
 1204TIP3   OH2 3575   4.198   5.359   3.313 -0.7449  0.2586 -0.0202
 1204TIP3    H1 3576   4.174   5.413   3.238 -1.9914 -0.2123  0.0064
 1204TIP3    H2 3577   4.114   5.330   3.349 -0.1811  0.7327  1.7584
 1205TIP3   OH2 3578   6.972   1.029   5.517  0.2696  0.2810 -0.0064
 1205TIP3    H1 3579   6.899   1.090   5.518  0.8770  1.0518 -0.7193
 1205TIP3    H2 3580   6.963   0.983   5.433 -0.2107 -0.6576  0.5473
 1206TIP3   OH2 3581   1.389   0.685   4.985 -0.0702  0.5259 -0.0253
 1206TIP3    H1 3582   1.419   0.735   4.909  1.3344  1.4779  1.0837
 1206TIP3    H2 3583   1.423   0.597   4.972 -1.8257  0.0439 -1.5910
 1207TIP3   OH2 3584   0.157   6.777   5.565 -0.0685 -0.1912 -0.0674
 1207TIP3    H1 3585   0.121   6.708   5.621  1.0522 -0.3115  0.5352
 1207TIP3    H2 3586   0.105   6.772   5.485 -2.5771  0.8130  1.3739
 1208TIP3   OH2 3587   1.178   3.285   0.533 -0.2916  0.2217 -0.1612
 1208TIP3    H1 3588   1.176   3.268   0.627 -0.7117  1.4296  0.0684
 1208TIP3    H2 3589   1.270   3.304   0.514 -0.0520 -0.8555 -0.1769
 1209TIP3   OH2 3590   4.801   1.760   5.187  0.1919  0.5591  0.2670
 1209TIP3    H1 3591   4.871   1.776   5.123  0.6045  0.0873  0.5929
 1209TIP3    H2 3592   4.758   1.681   5.155  1.0127 -0.2443  1.0731
 1210TIP3   OH2 3593   4.917   3.672   2.762 -0.6063  0.3995 -0.3896
 1210TIP3    H1 3594   4.891   3.733   2.832 -1.3351  1.1152 -1.2514
 1210TIP3    H2 3595   5.002   3.705   2.732 -0.0632 -0.1896  0.4522
 1211TIP3   OH2 3596   6.849   4.784   4.827 -0.0008 -0.0990 -0.2956
 1211TIP3    H1 3597   6.788   4.848   4.792 -0.0559 -0.1459 -0.2844
 1211TIP3    H2 3598   6.931   4.801   4.780 -0.4120 -0.9894 -1.3751
 1212TIP3   OH2 3599   0.553   2.651   2.896 -0.0928  0.3379 -0.1228
 1212TIP3    H1 3600   0.518   2.714   2.958  0.2843  0.8381 -0.4134
 1212TIP3    H2 3601   0.541   2.566   2.938  0.2055  0.6775  0.6534
 1213TIP3   OH2 3602   2.347   0.901   0.424 -0.1927  0.0694  0.2411
 1213TIP3    H1 3603   2.267   0.953   0.429 -0.5505 -0.2668 -1.3084
 1213TIP3    H2 3604   2.380   0.916   0.335  1.3279 -0.0197  0.7489
 1214TIP3   OH2 3605   0.139   4.321   0.535  0.1788  0.2018 -0.3090
 1214TIP3    H1 3606   0.187   4.261   0.592 -0.6898  0.1161  0.3549
 1214TIP3    H2 3607   0.205   4.357   0.476  1.3818  1.4105  1.6724
 1215TIP3   OH2 3608   5.142   1.015   2.208 -0.1373  0.3320 -0.0070
 1215TIP3    H1 3609   5.057   1.058   2.213  1.2815  3.2844  0.6742
 1215TIP3    H2 3610   5.181   1.027   2.295  2.0330  1.4704 -1.0589
 1216TIP3   OH2 3611   1.437   5.566   5.082 -0.4621 -0.1909  0.7251
 1216TIP3    H1 3612   1.356   5.616   5.091 -1.1109 -1.0054 -0.3216
 1216TIP3    H2 3613   1.412   5.490   5.031  0.6930 -1.1449  1.5273
 1217TIP3   OH2 3614   4.763   4.643   4.561 -0.5487  0.2160  0.6529
 1217TIP3    H1 3615   4.684   4.596   4.534 -0.1185  0.1712 -0.6203
 1217TIP3    H2 3616   4.828   4.573   4.577 -0.3953  0.3031  0.4168
 1218TIP3   OH2 3617   6.578   3.936   0.612 -0.2723 -0.4331 -0.1119
 1218TIP3    H1 3618   6.638   3.968   0.545 -2.7733  1.6109 -1.5377
 1218TIP3    H2 3619   6.581   3.840   0.603  0.2813 -0.2494 -2.4006
 1219TIP3   OH2 3620   1.114   5.852   2.349 -0.2557  0.4911 -0.0902
 1219TIP3    H1 3621   1.128   5.905   2.271  0.1820 -0.7059 -0.8661
 1219TIP3    H2 3622   1.201   5.844   2.388 -0.5355  1.4039  0.7563
 1220TIP3   OH2 3623   3.694   6.208   1.990 -0.0588  0.3491  0.1049
 1220TIP3    H1 3624   3.767   6.248   2.037  0.6602 -0.1812 -0.5296
 1220TIP3    H2 3625   3.629   6.278   1.983  1.2439  1.5075 -1.1287
 1221TIP3   OH2 3626   4.168   6.670   4.784 -0.2707 -0.0153  0.0619
 1221TIP3    H1 3627   4.150   6.681   4.877 -0.4604  1.1092 -0.0959
 1221TIP3    H2 3628   4.196   6.579   4.776  0.4243  0.0587  1.3249
 1222TIP3   OH2 3629   2.381   0.238   0.003  0.3865  0.3143  0.4247
 1222TIP3    H1 3630   2.411   0.325   0.028  0.8360 -0.0557  1.1940
 1222TIP3    H2 3631   2.385   0.187   0.083  0.0936 -0.4124 -0.0128
 1223TIP3   OH2 3632   1.664   3.449   0.117 -0.2109 -0.1760  0.0274
 1223TIP3    H1 3633   1.660   3.461   0.022  0.4205  1.1765  0.1444
 1223TIP3    H2 3634   1.580   3.409   0.140 -0.5693 -0.0620 -1.0363
 1224TIP3   OH2 3635   1.033   5.552   0.777 -0.1639  0.2759 -0.2551
 1224TIP3    H1 3636   1.028   5.589   0.689  0.6812  0.4730 -0.2321
 1224TIP3    H2 3637   0.943   5.530   0.800 -0.3882  0.2315 -1.1673
 1225TIP3   OH2 3638   3.360   4.443   1.044 -0.8342  0.0211  0.0797
 1225TIP3    H1 3639   3.287   4.502   1.060 -0.9200 -0.1326  0.2567
 1225TIP3    H2 3640   3.439   4.495   1.063 -0.9468 -0.8114  3.3265
 1226TIP3   OH2 3641   2.219   3.532   1.199  0.2361  0.1977  0.0812
 1226TIP3    H1 3642   2.161   3.460   1.174  0.8399 -0.5943  0.9092
 1226TIP3    H2 3643   2.244   3.513   1.289  0.4617  1.4217  0.2910
 1227TIP3   OH2 3644   1.286   1.596   5.445 -0.0591  0.1874  0.2816
 1227TIP3    H1 3645   1.347   1.558   5.509  0.9485  1.4202  0.0977
 1227TIP3    H2 3646   1.342   1.644   5.384 -1.0130 -0.8122 -1.4691
 1228TIP3   OH2 3647   5.496   2.104   2.609 -0.1561 -0.4186  0.1954
 1228TIP3    H1 3648   5.491   2.011   2.587 -1.0311 -0.6935  1.4545
 1228TIP3    H2 3649   5.551   2.108   2.687 -2.1821 -0.2083  1.6871
 1229TIP3   OH2 3650   1.780   2.033   1.893  0.3242 -0.1099 -0.0179
 1229TIP3    H1 3651   1.856   2.091   1.902  1.1050 -1.1063  0.0254
 1229TIP3    H2 3652   1.725   2.076   1.828  0.7250  0.8252  0.2313
 1230TIP3   OH2 3653   5.390   4.293   4.649 -0.2982  0.1491  0.5668
 1230TIP3    H1 3654   5.319   4.237   4.680  0.3659 -1.0148  0.0459
 1230TIP3    H2 3655   5.383   4.373   4.702 -0.1731 -1.1191  2.5861
 1231TIP3   OH2 3656   5.870   4.344   1.705  0.4783  0.2719 -0.1232
 1231TIP3    H1 3657   5.848   4.291   1.782  2.4118 -0.5624 -0.0889
 1231TIP3    H2 3658   5.870   4.434   1.737 -1.1177  0.1747  0.2401
 1232TIP3   OH2 3659   4.595   2.173   3.438  0.3445  0.5405  0.2569
 1232TIP3    H1 3660   4.660   2.157   3.370  0.9307  0.2618  0.8694
 1232TIP3    H2 3661   4.513   2.137   3.403  1.0730 -1.5673  0.5457
 1233TIP3   OH2 3662   5.602   1.551   4.246 -0.2904 -0.0674 -0.0256
 1233TIP3    H1 3663   5.608   1.543   4.151  0.6972 -1.0456  0.1088
 1233TIP3    H2 3664   5.513   1.584   4.261 -0.0608  1.2677 -1.3382
 1234TIP3   OH2 3665   0.055   4.427   1.006  0.3089  0.2890  0.1953
 1234TIP3    H1 3666   0.054   4.419   1.101  0.5610 -0.6818  0.1306
 1234TIP3    H2 3667  -0.014   4.367   0.976  1.1557 -0.4805 -0.2835
 1235TIP3   OH2 3668   2.574   2.685   3.979  0.2482 -0.1522 -0.0184
 1235TIP3    H1 3669   2.584   2.780   3.970 -0.0858 -0.0913  0.2253
 1235TIP3    H2 3670   2.591   2.651   3.892 -2.3836  0.3662 -0.8234
 1236TIP3   OH2 3671   1.416   3.320   5.854  0.3979 -0.4729  0.8317
 1236TIP3    H1 3672   1.376   3.316   5.941  0.0454  1.5759  0.8159
 1236TIP3    H2 3673   1.461   3.404   5.853  0.0526 -0.2725 -1.1164
 1237TIP3   OH2 3674   3.582   4.310   5.304  0.2552 -0.7982 -0.4145
 1237TIP3    H1 3675   3.607   4.222   5.332  0.5271 -0.2237  1.3079
 1237TIP3    H2 3676   3.497   4.325   5.344  0.4476 -0.1041 -0.2456
 1238TIP3   OH2 3677   5.120   0.703   4.683 -0.0893  0.1658  0.0276
 1238TIP3    H1 3678   5.064   0.773   4.717 -0.0728  0.8248 -1.2400
 1238TIP3    H2 3679   5.081   0.680   4.599  0.8461 -0.2091 -0.3198
 1239TIP3   OH2 3680   0.054   6.292   3.023 -0.2889  0.6064  0.3990
 1239TIP3    H1 3681   0.064   6.330   2.936 -0.9728  0.4914  0.2701
 1239TIP3    H2 3682   0.062   6.197   3.008 -1.8395  0.4810  0.2423
 1240TIP3   OH2 3683   5.753   0.774   0.179  0.3083 -0.2656 -0.4050
 1240TIP3    H1 3684   5.747   0.778   0.274 -3.3299  1.8886 -0.5640
 1240TIP3    H2 3685   5.814   0.844   0.156 -0.2321  0.4319  0.2646
 1241TIP3   OH2 3686   2.596   6.261   3.116 -0.1602  0.8142 -0.2165
 1241TIP3    H1 3687   2.613   6.327   3.049  2.1626  0.3715 -0.1766
 1241TIP3    H2 3688   2.646   6.184   3.086  0.2599  0.3438  1.5988
 1242TIP3   OH2 3689   1.720   0.071   3.154  0.0530  0.0991 -0.0199
 1242TIP3    H1 3690   1.749  -0.004   3.102 -1.5306 -0.2565 -0.4301
 1242TIP3    H2 3691   1.692   0.136   3.090 -2.0110 -0.3808  0.3290
 1243TIP3   OH2 3692   1.681   1.159   3.337  0.7302  0.2612  0.3658
 1243TIP3    H1 3693   1.668   1.253   3.323  0.5991  0.0173 -1.4151
 1243TIP3    H2 3694   1.598   1.119   3.311  1.5254 -0.4981 -1.1527
 1244TIP3   OH2 3695   5.196   5.859   3.321 -0.1643 -0.2851  0.1106
 1244TIP3    H1 3696   5.249   5.782   3.344 -2.3105 -1.4025  1.5635
 1244TIP3    H2 3697   5.152   5.884   3.402 -0.5911  1.6598 -0.6642
 1245TIP3   OH2 3698   2.761   4.639   5.542  0.0063  0.5411 -0.0711
 1245TIP3    H1 3699   2.669   4.634   5.516  0.3769  0.2398 -1.4113
 1245TIP3    H2 3700   2.790   4.725   5.512 -0.3115  1.4897  2.1297
 1246TIP3   OH2 3701   1.712   4.401   1.050 -0.0004 -0.8901 -0.3391
 1246TIP3    H1 3702   1.772   4.396   1.123  0.7080 -2.3614 -0.9820
 1246TIP3    H2 3703   1.626   4.416   1.090  0.6572  0.5363  0.6226
 1247TIP3   OH2 3704   1.852   6.356   0.137  0.1991 -0.1758 -0.0592
 1247TIP3    H1 3705   1.931   6.401   0.107 -0.2122  0.5686 -0.0421
 1247TIP3    H2 3706   1.808   6.329   0.057  1.4709 -2.4405 -0.0873
 1248TIP3   OH2 3707   2.499   3.082   0.386 -0.0675  0.4636 -0.7044
 1248TIP3    H1 3708   2.450   3.071   0.305 -0.9358  0.6287 -0.2098
 1248TIP3    H2 3709   2.434   3.110   0.451  0.2951 -1.1833  0.4447
 1249TIP3   OH2 3710   3.348   0.817   0.340  0.5309  0.0670  0.3047
 1249TIP3    H1 3711   3.343   0.747   0.275  1.0164 -1.1820  1.5540
 1249TIP3    H2 3712   3.303   0.782   0.417  1.1223  0.9678  1.0904
 1250TIP3   OH2 3713   4.708   1.981   1.309  0.4598  0.1933  0.3107
 1250TIP3    H1 3714   4.758   2.027   1.376 -0.4660  1.5312  0.1436
 1250TIP3    H2 3715   4.773   1.940   1.253  1.3130  0.6709  0.9341
 1251TIP3   OH2 3716   2.571   2.614   1.628  0.1620 -0.3161 -0.2209
 1251TIP3    H1 3717   2.570   2.519   1.619  3.0301 -0.6460  1.6876
 1251TIP3    H2 3718   2.658   2.640   1.600 -0.0980  1.5941  0.5885
 1252TIP3   OH2 3719   0.472   4.965   0.518  0.1784  0.0088  0.0468
 1252TIP3    H1 3720   0.409   4.947   0.588 -0.0776 -1.3830 -0.5125
 1252TIP3    H2 3721   0.464   4.890   0.459  0.3999  1.1411 -1.4750
 1253TIP3   OH2 3722   7.142   6.140   2.060 -0.6869 -0.0867 -0.4912
 1253TIP3    H1 3723   7.234   6.123   2.078 -0.1965  1.0004 -1.7965
 1253TIP3    H2 3724   7.101   6.143   2.146  0.1899 -2.0967  0.0378
 1254TIP3   OH2 3725   2.567   1.153   0.300  0.1296 -0.2628 -0.1174
 1254TIP3    H1 3726   2.503   1.171   0.369 -1.4160  1.1911 -1.8386
 1254TIP3    H2 3727   2.651   1.171   0.341 -0.7479  0.9310  1.3004
 1255TIP3   OH2 3728   6.632   1.185   2.033  1.1289  0.3120 -0.0752
 1255TIP3    H1 3729   6.701   1.192   2.098 -0.3119 -0.3513  1.6016
 1255TIP3    H2 3730   6.637   1.268   1.984 -0.3585  2.8719  3.6264
 1256TIP3   OH2 3731   5.725   4.498   2.646  0.5015  0.3067 -0.4811
 1256TIP3    H1 3732   5.721   4.468   2.556  0.0871 -0.6378 -0.1550
 1256TIP3    H2 3733   5.706   4.592   2.641  1.7244  0.5307 -1.4961
 1257TIP3   OH2 3734   5.191   6.284   3.109  0.2671  0.0496 -0.2742
 1257TIP3    H1 3735   5.139   6.335   3.047  0.7580  1.0150  0.0895
 1257TIP3    H2 3736   5.145   6.200   3.116 -0.7141  0.5426 -0.6683
 1258TIP3   OH2 3737   4.689   1.609   4.184 -0.3742  0.2027 -0.0753
 1258TIP3    H1 3738   4.716   1.642   4.270 -0.2806  0.9964 -0.4040
 1258TIP3    H2 3739   4.649   1.684   4.141  2.5995  0.7914 -2.0663
 1259TIP3   OH2 3740   1.749   5.290   3.088  0.3725 -0.4008 -0.3859
 1259TIP3    H1 3741   1.656   5.308   3.082  0.1549 -1.9426 -2.5454
 1259TIP3    H2 3742   1.762   5.261   3.178 -0.8279  1.6239  0.5213
 1260TIP3   OH2 3743   2.154   1.285   0.843 -1.1076 -0.1709  0.4273
 1260TIP3    H1 3744   2.131   1.347   0.911 -1.4861 -0.2835  0.4016
 1260TIP3    H2 3745   2.097   1.307   0.769  0.2568  0.8643 -0.3657
 1261TIP3   OH2 3746   2.305   6.166   2.129  0.2725  0.0266 -0.5995
 1261TIP3    H1 3747   2.344   6.148   2.043  0.6276  0.7393 -0.5967
 1261TIP3    H2 3748   2.214   6.187   2.110 -0.5729 -3.0334 -0.4810
 1262TIP3   OH2 3749   0.832   0.846   0.105 -0.0119 -0.1710 -0.1689
 1262TIP3    H1 3750   0.815   0.915   0.169 -2.3118 -1.3221  0.6013
 1262TIP3    H2 3751   0.760   0.783   0.118  0.3456 -1.2782 -2.7798
 1263TIP3   OH2 3752   5.687   2.032   5.359 -0.4656  0.2067 -0.2761
 1263TIP3    H1 3753   5.776   2.006   5.383  0.0622 -0.4385 -2.6209
 1263TIP3    H2 3754   5.657   1.961   5.301 -2.4033  0.5639  0.2341
 1264TIP3   OH2 3755   0.114   2.387   4.943  0.2713 -0.0685 -0.1079
 1264TIP3    H1 3756   0.067   2.376   5.026  2.2626 -0.0014  1.0861
 1264TIP3    H2 3757   0.117   2.299   4.905  1.4975 -0.5936  1.1371
 1265TIP3   OH2 3758   0.441   2.349   2.902  0.0880 -0.0246 -0.5513
 1265TIP3    H1 3759   0.454   2.285   2.972  2.1679  0.8068 -0.0957
 1265TIP3    H2 3760   0.375   2.409   2.937 -0.5692 -0.8889 -0.2629
 1266TIP3   OH2 3761   5.363   2.772   4.146 -0.4047  0.0646  0.3309
 1266TIP3    H1 3762   5.436   2.832   4.133 -0.9244  0.8868  1.1188
 1266TIP3    H2 3763   5.393   2.689   4.108 -0.3693  1.2515 -2.4458
 1267TIP3   OH2 3764   3.959   3.523   5.604 -0.2837 -0.1041 -0.2832
 1267TIP3    H1 3765   3.902   3.600   5.596 -0.6355 -0.3775 -0.4635
 1267TIP3    H2 3766   4.015   3.542   5.679 -1.2675 -0.2408  0.5174
 1268TIP3   OH2 3767   1.387   2.356   1.683 -0.2098 -0.0197 -0.8752
 1268TIP3    H1 3768   1.314   2.418   1.682  0.8034  1.2145 -1.2609
 1268TIP3    H2 3769   1.397   2.330   1.592  0.3875  0.4824 -0.9504
 1269TIP3   OH2 3770   6.900   1.275   0.310  0.1379 -0.2593 -0.1843
 1269TIP3    H1 3771   6.837   1.215   0.271 -2.1648  1.4082  0.7359
 1269TIP3    H2 3772   6.944   1.223   0.377  1.2826 -2.0256 -2.1869
 1270TIP3   OH2 3773   2.925   4.477   5.698  0.1910 -0.0690  1.0464
 1270TIP3    H1 3774   2.880   4.393   5.700 -1.1520  0.6300  0.8743
 1270TIP3    H2 3775   2.891   4.520   5.620  0.0246  1.0901  1.7460
 1271TIP3   OH2 3776   6.923   5.370   1.698 -0.1538 -0.1715 -0.3909
 1271TIP3    H1 3777   6.954   5.445   1.647 -3.5610  2.2425  0.6756
 1271TIP3    H2 3778   6.979   5.369   1.776 -1.0569  2.5430  0.4185
 1272TIP3   OH2 3779   1.266   5.549   1.346 -0.4158 -0.2643 -0.7101
 1272TIP3    H1 3780   1.328   5.478   1.359  1.4309  1.1141 -1.4551
 1272TIP3    H2 3781   1.289   5.585   1.260 -0.4431  1.9668  0.1535
 1273TIP3   OH2 3782   5.928   6.567   2.549 -0.4754  0.0264  0.3444
 1273TIP3    H1 3783   5.890   6.537   2.632 -0.0840  0.2721  0.6162
 1273TIP3    H2 3784   5.913   6.494   2.488 -0.7235 -0.1749  0.6427
 1274TIP3   OH2 3785   1.871   3.788   1.567  0.0173 -0.1313 -0.2818
 1274TIP3    H1 3786   1.864   3.718   1.631  2.9050 -0.3329 -0.0684
 1274TIP3    H2 3787   1.825   3.862   1.608  2.0657 -0.1270  2.3172
 1275TIP3   OH2 3788   0.821   4.958   2.771  0.3498 -0.0082 -0.0631
 1275TIP3    H1 3789   0.838   4.915   2.855 -0.1045  1.0519  0.5978
 1275TIP3    H2 3790   0.902   4.948   2.722  0.7330 -0.3775  0.6351
 1276TIP3   OH2 3791   4.026   2.046   5.493  0.2943  0.1254 -0.1008
 1276TIP3    H1 3792   4.017   2.039   5.398 -1.3662 -0.8698  0.0923
 1276TIP3    H2 3793   4.097   1.985   5.515  0.1098 -0.2818 -0.6215
 1277TIP3   OH2 3794   3.599   0.184   0.923 -0.0571  0.4574 -0.0094
 1277TIP3    H1 3795   3.512   0.222   0.906 -0.2780  0.0669  0.2141
 1277TIP3    H2 3796   3.581   0.091   0.939  0.4431  0.3168 -0.2736
 1278TIP3   OH2 3797   1.642   1.412   0.067 -0.2469  0.2097  0.0914
 1278TIP3    H1 3798   1.579   1.345   0.093 -1.0134  0.9462  0.1785
 1278TIP3    H2 3799   1.597   1.463  -0.001  0.9540 -0.4035 -1.2263
 1279TIP3   OH2 3800   3.561   1.693   1.734 -0.1086  0.4564  0.4280
 1279TIP3    H1 3801   3.526   1.782   1.736  1.8295  1.3152 -0.9605
 1279TIP3    H2 3802   3.634   1.694   1.796 -0.6257 -0.4380  1.0686
 1280TIP3   OH2 3803   0.718   0.365   5.371  0.0640  0.2989  0.0466
 1280TIP3    H1 3804   0.678   0.339   5.288  0.4536 -2.5690  0.6702
 1280TIP3    H2 3805   0.650   0.348   5.436  0.9851 -1.0148  0.6926
 1281TIP3   OH2 3806   4.633   3.883   5.077 -0.3297 -0.6173  0.3018
 1281TIP3    H1 3807   4.582   3.938   5.135 -1.2335 -1.4092  0.2874
 1281TIP3    H2 3808   4.715   3.931   5.063 -0.4926  0.0180  1.4501
 1282TIP3   OH2 3809   1.724   5.350   1.132 -0.4363 -0.6165 -0.3833
 1282TIP3    H1 3810   1.698   5.315   1.217  0.3378 -0.3548 -0.0290
 1282TIP3    H2 3811   1.675   5.297   1.068  0.5838 -2.2764  0.1327
 1283TIP3   OH2 3812   0.712   6.804   4.610  0.4299 -0.7290  0.1029
 1283TIP3    H1 3813   0.724   6.731   4.550 -0.2964 -0.8584  0.1054
 1283TIP3    H2 3814   0.677   6.765   4.690  1.0903 -0.5158  0.5002
 1284TIP3   OH2 3815   0.568   1.702   0.093  0.2238 -0.0286  0.2883
 1284TIP3    H1 3816   0.641   1.647   0.065 -1.1276 -3.0528  2.1972
 1284TIP3    H2 3817   0.567   1.694   0.188 -0.8092  2.4381  0.5663
 1285TIP3   OH2 3818   2.511   1.808   5.332 -0.3127  0.7836 -0.2249
 1285TIP3    H1 3819   2.505   1.902   5.349 -0.3762  0.7296  0.0644
 1285TIP3    H2 3820   2.596   1.797   5.288 -0.5571  1.0438 -0.7627
 1286TIP3   OH2 3821   7.090   5.308   0.070  0.2283 -0.0912 -0.1566
 1286TIP3    H1 3822   7.115   5.305  -0.022 -1.4848  1.7666 -0.7377
 1286TIP3    H2 3823   7.172   5.288   0.117  1.4706  0.3308 -2.0309
 1287TIP3   OH2 3824   6.719   5.310   1.092 -0.0408 -0.0534  0.3957
 1287TIP3    H1 3825   6.720   5.406   1.085 -0.7264  0.0695  1.6865
 1287TIP3    H2 3826   6.765   5.280   1.014 -1.7804  1.2703 -1.2219
 1288TIP3   OH2 3827   0.544   3.669   2.239 -0.7004  0.5337 -0.1115
 1288TIP3    H1 3828   0.504   3.642   2.157 -3.3865 -0.2732  1.3357
 1288TIP3    H2 3829   0.475   3.717   2.285  0.2303 -0.2063  2.2279
 1289TIP3   OH2 3830   3.475   3.391   1.725  0.1221  0.0531 -0.0417
 1289TIP3    H1 3831   3.424   3.471   1.737 -0.6324 -0.5878  1.3380
 1289TIP3    H2 3832   3.410   3.320   1.733  0.9189 -0.7120 -0.2441
 1290TIP3   OH2 3833   1.827   5.853   4.802 -0.1892  0.3432  1.1545
 1290TIP3    H1 3834   1.818   5.844   4.897  0.3631  2.1385  1.4098
 1290TIP3    H2 3835   1.894   5.790   4.778 -0.7719 -0.5686  1.8525
 1291TIP3   OH2 3836   0.665   3.888   3.233  0.4438  0.3795 -0.0401
 1291TIP3    H1 3837   0.696   3.901   3.323  0.1742  0.5321  0.0328
 1291TIP3    H2 3838   0.739   3.913   3.178 -0.2032  2.7426  0.0736
 1292TIP3   OH2 3839   7.052   6.764   3.687  0.1416  0.0407 -0.0468
 1292TIP3    H1 3840   7.124   6.821   3.662  1.0466 -1.2665 -0.5504
 1292TIP3    H2 3841   7.003   6.750   3.606 -0.7669  1.0145  0.3167
 1293TIP3   OH2 3842   5.495   6.064   2.555 -0.6772 -0.3238 -0.2190
 1293TIP3    H1 3843   5.577   6.070   2.603 -0.8572  1.2183 -0.0382
 1293TIP3    H2 3844   5.447   5.993   2.597 -1.2841  1.6255  2.6922
 1294TIP3   OH2 3845   0.174   6.261   1.745 -0.6569  0.3765 -0.1260
 1294TIP3    H1 3846   0.225   6.231   1.821  1.1705 -0.1493 -1.5045
 1294TIP3    H2 3847   0.101   6.199   1.740  0.1194 -0.5912  0.2225
 1295TIP3   OH2 3848   6.928   0.062   3.393 -0.1457  0.0830 -0.3575
 1295TIP3    H1 3849   6.908   0.048   3.301  0.7637  1.6713 -0.8398
 1295TIP3    H2 3850   6.970   0.148   3.396 -0.1713  0.0846  1.5456
 1296TIP3   OH2 3851   0.285   5.055   0.813 -0.1395 -0.1475 -0.1116
 1296TIP3    H1 3852   0.303   5.144   0.782  0.9341 -0.0556  0.7289
 1296TIP3    H2 3853   0.201   5.032   0.772 -0.9467  1.6280  0.4373
 1297TIP3   OH2 3854   6.707   5.655   3.204  0.2519  0.5748  0.4562
 1297TIP3    H1 3855   6.660   5.633   3.123 -1.6829  0.5081  1.5602
 1297TIP3    H2 3856   6.672   5.740   3.230  0.3711  0.2845  1.5852
 1298TIP3   OH2 3857   3.796   6.305   3.340 -0.2010 -0.1862  0.1047
 1298TIP3    H1 3858   3.890   6.291   3.341 -0.3270 -1.1775  0.8845
 1298TIP3    H2 3859   3.781   6.367   3.269  0.9710 -0.4928 -0.4352
 1299TIP3   OH2 3860   7.001   5.048   2.348 -0.1842  0.4984  0.0406
 1299TIP3    H1 3861   7.088   5.075   2.320  0.1643  0.0374  0.6541
 1299TIP3    H2 3862   7.015   5.005   2.432 -1.0452  0.7074  0.3037
 1300TIP3   OH2 3863   3.095   5.058   2.587 -0.0852  0.6012  0.0208
 1300TIP3    H1 3864   3.004   5.029   2.589  0.2676 -0.6912 -1.0348
 1300TIP3    H2 3865   3.113   5.090   2.675 -0.7787 -1.6736  1.0466
 1301TIP3   OH2 3866   1.269   2.718   0.248  0.0301 -0.0580  0.5092
 1301TIP3    H1 3867   1.303   2.792   0.197  0.4325  1.1432  2.3955
 1301TIP3    H2 3868   1.174   2.724   0.238 -0.0701  1.8542  2.0306
 1302TIP3   OH2 3869   1.065   1.240   3.904  0.8319  0.0199 -0.4759
 1302TIP3    H1 3870   1.051   1.146   3.892 -1.6453  0.1590  0.6043
 1302TIP3    H2 3871   1.072   1.252   3.998  0.2281  0.9889 -0.5396
 1303TIP3   OH2 3872   2.563   6.171   3.504 -0.1829  0.1969  0.0425
 1303TIP3    H1 3873   2.493   6.151   3.567  0.4325  1.9282  1.3250
 1303TIP3    H2 3874   2.516   6.195   3.424 -1.0038 -0.5958  0.2612
 1304TIP3   OH2 3875   2.079   2.953   4.701  0.3066  0.2104 -0.8811
 1304TIP3    H1 3876   2.117   3.033   4.737 -0.4237  0.6761 -1.1158
 1304TIP3    H2 3877   2.139   2.926   4.632  2.8694 -1.8228  1.8576
 1305TIP3   OH2 3878   6.092   1.394   0.440  0.3709 -0.1302 -0.7283
 1305TIP3    H1 3879   6.130   1.400   0.353  0.3471  1.5251 -0.6660
 1305TIP3    H2 3880   6.153   1.339   0.490  2.0382  1.4129 -0.9739
 1306TIP3   OH2 3881   4.643   1.293   3.400  0.4349 -0.0273 -0.2018
 1306TIP3    H1 3882   4.678   1.349   3.470  0.1877 -1.0264  0.7568
 1306TIP3    H2 3883   4.712   1.228   3.384  0.5011  0.2161 -0.9152
 1307TIP3   OH2 3884   6.851   2.084   4.842  0.4836 -0.3101 -0.1443
 1307TIP3    H1 3885   6.782   2.150   4.854  0.4539 -0.3352 -0.1751
 1307TIP3    H2 3886   6.929   2.123   4.881  0.9382  0.5372 -1.7785
 1308TIP3   OH2 3887   5.771   3.172   0.624  0.1857 -0.2513 -0.0565
 1308TIP3    H1 3888   5.709   3.228   0.671  1.0884  0.0338  0.8300
 1308TIP3    H2 3889   5.843   3.160   0.686 -0.1727 -2.7824 -0.0248
 1309TIP3   OH2 3890   6.653   3.095   1.073  0.2301 -0.4237 -0.0900
 1309TIP3    H1 3891   6.590   3.165   1.054  0.5468 -0.2440 -0.4925
 1309TIP3    H2 3892   6.695   3.122   1.155 -0.3316 -0.6259  0.2678
 1310TIP3   OH2 3893   1.926   6.099   5.449  0.1747 -0.0163 -0.4892
 1310TIP3    H1 3894   1.896   6.108   5.358 -0.7432  1.2087 -0.0901
 1310TIP3    H2 3895   1.880   6.169   5.496  1.7376  0.2723  0.6589
 1311TIP3   OH2 3896   4.935   4.942   1.211 -0.3708  0.3969 -0.7188
 1311TIP3    H1 3897   4.932   4.888   1.290 -2.2452 -1.1407 -1.7821
 1311TIP3    H2 3898   4.903   5.028   1.240 -1.2782 -0.2151  0.1395
 1312TIP3   OH2 3899   2.092   6.408   3.341 -0.6826 -0.1969 -0.2080
 1312TIP3    H1 3900   2.034   6.338   3.371  1.9990 -1.5956  2.2531
 1312TIP3    H2 3901   2.036   6.465   3.287 -4.7069 -0.5557  3.0745
 1313TIP3   OH2 3902   6.364   2.342   4.820  0.0795 -0.0330 -0.3073
 1313TIP3    H1 3903   6.451   2.319   4.786  0.7556 -0.4813  1.5967
 1313TIP3    H2 3904   6.322   2.257   4.837 -0.1848  0.1793  0.0966
 1314TIP3   OH2 3905   6.510   3.767   0.236 -0.3261 -0.0770  0.0248
 1314TIP3    H1 3906   6.523   3.860   0.216 -1.2675  0.2242  0.6950
 1314TIP3    H2 3907   6.479   3.767   0.327 -0.3441 -1.0449  0.0282
 1315TIP3   OH2 3908   3.318   5.869   1.030 -0.5350 -0.4989  0.1329
 1315TIP3    H1 3909   3.305   5.793   0.973  1.5781 -0.9098  0.1224
 1315TIP3    H2 3910   3.400   5.852   1.075 -0.4884  1.3661  0.8471
 1316TIP3   OH2 3911   6.882   3.805   1.530  0.6125 -0.0368  0.3098
 1316TIP3    H1 3912   6.902   3.865   1.602 -2.2446  1.9171 -0.3741
 1316TIP3    H2 3913   6.830   3.736   1.571  1.4506 -0.5393  0.5693
 1317TIP3   OH2 3914   5.032   5.753   1.359  0.1241 -0.1428  0.1627
 1317TIP3    H1 3915   5.099   5.806   1.316  0.8778 -0.3841  1.0142
 1317TIP3    H2 3916   4.956   5.811   1.367  0.0552  0.0033 -1.2002
 1318TIP3   OH2 3917   1.674   2.348   2.758 -0.3103 -0.9762 -0.1856
 1318TIP3    H1 3918   1.729   2.417   2.721 -0.9173 -0.3012  0.1567
 1318TIP3    H2 3919   1.704   2.338   2.848 -0.5724 -0.7996 -0.0801
 1319TIP3   OH2 3920   5.611   3.777   1.136 -0.3570 -0.0026 -0.3769
 1319TIP3    H1 3921   5.661   3.850   1.099 -0.4365  0.0596 -0.3621
 1319TIP3    H2 3922   5.596   3.718   1.062 -0.6664  0.2059 -0.4833
 1320TIP3   OH2 3923   6.735   6.446   4.763 -0.0151  0.5328 -0.2131
 1320TIP3    H1 3924   6.702   6.416   4.679 -1.2297  0.1079  0.3887
 1320TIP3    H2 3925   6.806   6.385   4.784 -0.8993 -0.4800 -0.1016
 1321TIP3   OH2 3926   5.783   3.141   4.243  0.3980 -0.0780 -0.4539
 1321TIP3    H1 3927   5.849   3.132   4.312  0.1152 -0.1191 -0.1892
 1321TIP3    H2 3928   5.832   3.176   4.168  0.3979  1.4931  0.2488
 1322TIP3   OH2 3929   3.556   0.828   2.333 -0.5331  0.0451 -0.0623
 1322TIP3    H1 3930   3.556   0.914   2.375 -0.0786  0.9835 -1.8427
 1322TIP3    H2 3931   3.644   0.793   2.350 -0.7755 -0.1581  0.8103
 1323TIP3   OH2 3932   1.560   5.807   5.874 -0.5269  0.0255 -0.3221
 1323TIP3    H1 3933   1.602   5.722   5.874  0.8471  0.6737 -0.6212
 1323TIP3    H2 3934   1.486   5.798   5.813 -1.6876 -1.5110  1.2057
 1324TIP3   OH2 3935   6.410   3.555   1.825  0.4748  0.7439 -0.4084
 1324TIP3    H1 3936   6.497   3.531   1.857  0.2083  1.2640  0.7896
 1324TIP3    H2 3937   6.359   3.475   1.831 -0.3261  1.3335  3.2502
 1325TIP3   OH2 3938   6.108   6.219   2.317 -0.2650  0.6453 -0.0875
 1325TIP3    H1 3939   6.041   6.154   2.338 -0.8996  1.4754  0.5285
 1325TIP3    H2 3940   6.122   6.266   2.399  1.3897  0.2264 -0.0955
 1326TIP3   OH2 3941   6.031   3.595   2.139 -0.5768 -1.1249  0.3777
 1326TIP3    H1 3942   5.975   3.615   2.064 -0.7601  1.0845  1.0250
 1326TIP3    H2 3943   6.083   3.674   2.152  0.7819 -2.1483  1.4537
 1327TIP3   OH2 3944   1.324   3.198   4.697 -0.2198 -0.1067  0.4117
 1327TIP3    H1 3945   1.396   3.253   4.667 -0.0722 -0.0598  0.8405
 1327TIP3    H2 3946   1.247   3.232   4.652 -0.1182  0.4056  0.6209
 1328TIP3   OH2 3947   6.442   5.645   5.335 -0.4402  0.2853  0.7497
 1328TIP3    H1 3948   6.469   5.578   5.398 -0.2052  0.9822  1.3902
 1328TIP3    H2 3949   6.422   5.595   5.255 -2.4250 -0.8259  1.8437
 1329TIP3   OH2 3950   3.127   1.458   5.325  0.0366  0.9366  0.2565
 1329TIP3    H1 3951   3.073   1.490   5.397 -3.3039  1.7087 -2.3260
 1329TIP3    H2 3952   3.083   1.489   5.246  0.4851 -4.0549 -2.3809
 1330TIP3   OH2 3953   1.387   4.233   5.673 -0.7071 -0.1377 -0.1240
 1330TIP3    H1 3954   1.460   4.202   5.621 -0.7667  0.0818 -0.3388
 1330TIP3    H2 3955   1.409   4.208   5.763 -0.1695  0.3011 -0.1316
 1331TIP3   OH2 3956   1.434   3.814   5.092 -0.4253 -0.1819  0.2516
 1331TIP3    H1 3957   1.400   3.738   5.046  1.3602  0.3512 -2.1495
 1331TIP3    H2 3958   1.451   3.783   5.181 -2.0467 -1.8643  0.0195
 1332TIP3   OH2 3959   5.995   4.359   1.470  0.7207  0.4512  0.3633
 1332TIP3    H1 3960   5.935   4.344   1.544  1.1899  0.3940  0.7403
 1332TIP3    H2 3961   6.070   4.302   1.489  1.2617  1.1492  0.3283
 1333TIP3   OH2 3962   3.024   3.448   1.922  0.3892  0.1317 -0.0672
 1333TIP3    H1 3963   3.017   3.526   1.977 -0.1252  2.1883 -2.8314
 1333TIP3    H2 3964   2.935   3.413   1.918  0.7139 -1.0355  1.6153
 1334TIP3   OH2 3965   1.408   1.219   0.132 -0.4645  0.7451 -0.5548
 1334TIP3    H1 3966   1.354   1.284   0.088 -0.5248  0.8010 -0.4014
 1334TIP3    H2 3967   1.394   1.138   0.084 -2.8322  0.0804  1.0785
 1335TIP3   OH2 3968   2.538   5.423   2.456  0.2746 -0.6403  0.3356
 1335TIP3    H1 3969   2.549   5.467   2.371 -2.9270  1.6742  0.9163
 1335TIP3    H2 3970   2.608   5.459   2.511  0.4379  0.2940 -0.4516
 1336TIP3   OH2 3971   6.521   6.391   1.958  0.6124 -0.4772 -0.6353
 1336TIP3    H1 3972   6.481   6.464   2.006 -1.4415 -0.2201 -2.5523
 1336TIP3    H2 3973   6.614   6.411   1.957  0.5562  0.2422  1.8936
 1337TIP3   OH2 3974   2.304   2.452   0.955 -0.4358 -0.2955 -0.1990
 1337TIP3    H1 3975   2.321   2.501   1.036  0.8049  0.1309 -0.6861
 1337TIP3    H2 3976   2.210   2.460   0.941 -0.7024 -0.5399  1.2988
 1338TIP3   OH2 3977   3.527   4.139   4.655 -0.4345  0.2398 -0.4367
 1338TIP3    H1 3978   3.575   4.112   4.577 -1.8231  0.2397 -1.3216
 1338TIP3    H2 3979   3.581   4.108   4.728 -0.2765 -1.9127 -1.3924
 1339TIP3   OH2 3980   5.950   5.579   0.890 -0.1491 -0.4105 -0.2965
 1339TIP3    H1 3981   5.985   5.624   0.813  1.4980 -0.7158  0.2298
 1339TIP3    H2 3982   5.958   5.486   0.870  0.7130 -0.5019  0.3919
 1340TIP3   OH2 3983   1.801   4.921   2.082 -0.5045 -0.0105  0.3510
 1340TIP3    H1 3984   1.801   4.827   2.065 -0.6491  0.3776 -2.0959
 1340TIP3    H2 3985   1.889   4.950   2.059 -0.5639  0.5218  0.7725
 1341TIP3   OH2 3986   0.904   6.485   0.715 -0.0478 -0.0100  0.1192
 1341TIP3    H1 3987   0.875   6.468   0.625 -1.0130  1.6800  0.0545
 1341TIP3    H2 3988   0.989   6.441   0.722  1.4380  2.1239 -2.5822
 1342TIP3   OH2 3989   0.003   5.743   0.139  0.0183  0.3499 -0.4536
 1342TIP3    H1 3990   0.003   5.702   0.052 -1.6612  0.5787 -0.6026
 1342TIP3    H2 3991   0.033   5.832   0.124  0.7093  0.0943 -0.6251
 1343TIP3   OH2 3992   2.000   5.699   4.530  0.1539 -0.6212 -0.0387
 1343TIP3    H1 3993   2.074   5.698   4.470  1.7508 -0.8197  1.8212
 1343TIP3    H2 3994   2.008   5.782   4.577  0.9703 -1.8647  2.1645
 1344TIP3   OH2 3995   5.771   3.132   4.655 -0.2261 -0.6231  0.1178
 1344TIP3    H1 3996   5.832   3.200   4.627  0.5684 -0.4267  2.1192
 1344TIP3    H2 3997   5.684   3.167   4.636  0.2247  0.1700 -0.5193
 1345TIP3   OH2 3998   1.147   0.702   1.478  0.3693 -0.0150 -0.1137
 1345TIP3    H1 3999   1.109   0.756   1.409  1.6261  0.7969 -0.1867
 1345TIP3    H2 4000   1.072   0.680   1.535 -0.3803  0.6789 -0.8140
 1346TIP3   OH2 4001   1.718   0.256   4.692  0.5646 -0.2609  0.1308
 1346TIP3    H1 4002   1.739   0.165   4.712 -1.3711 -0.7668  0.0235
 1346TIP3    H2 4003   1.771   0.307   4.753  3.4152 -1.2953 -1.2807
 1347TIP3   OH2 4004   3.984   3.944   4.918 -0.1824  0.0520  0.4805
 1347TIP3    H1 4005   3.977   3.860   4.874 -1.3223  0.2368  0.2637
 1347TIP3    H2 4006   4.077   3.965   4.917  0.0211 -0.8539 -0.1204
 1348TIP3   OH2 4007   2.981   1.501   0.380  0.2421 -0.0139 -0.0157
 1348TIP3    H1 4008   2.938   1.585   0.368  1.5254  0.7490  0.4807
 1348TIP3    H2 4009   3.028   1.485   0.299  0.3276 -0.0511  0.0404
 1349TIP3   OH2 4010   2.213   5.592   2.792 -0.2229  0.4058  0.2920
 1349TIP3    H1 4011   2.305   5.575   2.808 -0.4901  0.4679  2.1158
 1349TIP3    H2 4012   2.169   5.510   2.817 -0.7839  0.9468  1.1533
 1350TIP3   OH2 4013   5.208   0.991   5.625 -0.8057 -0.2171  0.2926
 1350TIP3    H1 4014   5.252   1.034   5.699  1.8242 -1.9792 -0.1148
 1350TIP3    H2 4015   5.173   1.063   5.573  1.8809  1.3991  0.5421
 1351TIP3   OH2 4016   0.182   1.335   0.803 -0.0106  0.0244  0.1500
 1351TIP3    H1 4017   0.241   1.401   0.766  0.5704  0.0378  1.0635
 1351TIP3    H2 4018   0.226   1.307   0.883 -1.1663 -0.0980  0.7494
 1352TIP3   OH2 4019   0.504   6.504   3.995  0.5500 -1.2610 -0.0992
 1352TIP3    H1 4020   0.409   6.496   3.986  0.3528  0.5192  0.0650
 1352TIP3    H2 4021   0.528   6.438   4.061 -0.7910 -0.6833  0.9980
 1353TIP3   OH2 4022   5.810   6.286   4.943  0.3363 -0.0580  0.0078
 1353TIP3    H1 4023   5.831   6.239   4.862 -1.2460 -0.2108 -0.3498
 1353TIP3    H2 4024   5.760   6.362   4.914  2.4959  1.6752  0.6222
 1354TIP3   OH2 4025   5.699   1.504   2.078 -0.2182 -0.1690 -0.4234
 1354TIP3    H1 4026   5.697   1.433   2.014 -0.4118  1.0770 -1.8503
 1354TIP3    H2 4027   5.697   1.584   2.026  2.0169  0.9576  1.0365
 1355TIP3   OH2 4028   5.096   1.168   5.049 -0.6890 -0.0498  0.1098
 1355TIP3    H1 4029   5.089   1.249   5.099  0.1515  1.5217 -2.1317
 1355TIP3    H2 4030   5.005   1.148   5.025 -0.8916  0.3612  0.5130
 1356TIP3   OH2 4031   1.734   0.078   1.984 -0.4768 -0.4042  0.0891
 1356TIP3    H1 4032   1.747   0.169   1.956 -0.8708 -0.6214 -0.8341
 1356TIP3    H2 4033   1.678   0.084   2.061 -0.8332  0.1209 -0.2042
 1357TIP3   OH2 4034   4.877   0.106   0.887 -0.3398  0.4352  0.0406
 1357TIP3    H1 4035   4.849   0.192   0.918  0.7423  0.4760  0.9575
 1357TIP3    H2 4036   4.894   0.056   0.966  2.8373  0.6605 -0.3890
 1358TIP3   OH2 4037   2.792   3.092   3.089 -0.0412 -0.4659 -0.0813
 1358TIP3    H1 4038   2.860   3.092   3.156  0.6212 -1.3796 -0.7274
 1358TIP3    H2 4039   2.759   3.182   3.089  0.8292 -0.1279  0.5889
 1359TIP3   OH2 4040   5.973   4.243   3.142 -0.3757 -0.3571 -0.6411
 1359TIP3    H1 4041   5.934   4.235   3.229  0.0591 -1.6257 -0.5335
 1359TIP3    H2 4042   5.912   4.196   3.085  0.6778 -1.9317 -0.5497
 1360TIP3   OH2 4043   0.646   2.563   5.184 -0.4525 -0.4802 -0.1499
 1360TIP3    H1 4044   0.707   2.626   5.145 -1.2160  0.8777  0.7996
 1360TIP3    H2 4045   0.562   2.609   5.187 -1.3905 -2.0881 -0.8204
 1361TIP3   OH2 4046   1.911   6.655   0.466  0.7415 -0.2530  0.3093
 1361TIP3    H1 4047   1.990   6.640   0.414 -0.5086  0.3087 -1.8420
 1361TIP3    H2 4048   1.846   6.688   0.404 -1.8005 -2.4162  1.6086
 1362TIP3   OH2 4049   5.625   1.789   5.217  0.0271 -0.1997 -0.0384
 1362TIP3    H1 4050   5.711   1.771   5.180  0.2562 -0.0827  0.4306
 1362TIP3    H2 4051   5.567   1.800   5.141  0.2651 -1.0570 -0.3470
 1363TIP3   OH2 4052   1.592   4.197   2.427  0.5006  0.5101  1.0099
 1363TIP3    H1 4053   1.519   4.162   2.478  1.0725  0.1128  1.5686
 1363TIP3    H2 4054   1.602   4.287   2.457  0.7106  0.3372  1.4586
 1364TIP3   OH2 4055   7.070   3.012   1.680 -0.0272 -0.2684 -0.8432
 1364TIP3    H1 4056   7.099   2.991   1.769 -0.2560 -0.2161 -0.7563
 1364TIP3    H2 4057   6.974   3.005   1.683 -0.0953  0.5688 -0.8660
 1365TIP3   OH2 4058   2.889   0.826   4.832  0.4012 -0.0449  0.2459
 1365TIP3    H1 4059   2.840   0.876   4.897  1.4292 -0.3361  1.2643
 1365TIP3    H2 4060   2.901   0.887   4.759  1.1947  1.0481  1.2593
 1366TIP3   OH2 4061   5.089   0.335   3.144 -0.7636  0.1210  0.9352
 1366TIP3    H1 4062   5.091   0.243   3.116  0.5128  0.4427 -0.1579
 1366TIP3    H2 4063   4.998   0.363   3.130 -0.5564 -0.2073 -1.4693
 1367TIP3   OH2 4064   5.775   3.390   3.576 -0.9883  0.0876 -0.1171
 1367TIP3    H1 4065   5.850   3.330   3.585 -0.8527  0.4589  1.5703
 1367TIP3    H2 4066   5.767   3.431   3.662 -2.8882  0.3770 -0.3940
 1368TIP3   OH2 4067   3.941   5.374   4.859  0.0510 -0.3285 -0.0012
 1368TIP3    H1 4068   3.905   5.396   4.772  0.7366  0.5829 -0.0633
 1368TIP3    H2 4069   3.964   5.281   4.852  0.7945 -0.0782 -1.0479
 1369TIP3   OH2 4070   6.893   0.895   0.221  0.0882 -0.0129  0.5633
 1369TIP3    H1 4071   6.989   0.891   0.222  0.1810 -0.4188 -2.3311
 1369TIP3    H2 4072   6.865   0.804   0.226 -0.0908  0.0106  0.0205
 1370TIP3   OH2 4073   0.788   1.064   1.784  0.1351  0.0259  0.1838
 1370TIP3    H1 4074   0.762   1.045   1.874  1.2364 -0.2069  0.4625
 1370TIP3    H2 4075   0.797   1.159   1.781 -0.6415  0.1048  0.1023
 1371TIP3   OH2 4076   6.458   0.223   3.626  0.0351  0.8884 -0.2120
 1371TIP3    H1 4077   6.522   0.203   3.694  0.7166  2.2266 -0.4176
 1371TIP3    H2 4078   6.374   0.226   3.672  0.2836  0.3547  0.2874
 1372TIP3   OH2 4079   5.288   2.117   5.567  0.1682 -0.2411 -0.1029
 1372TIP3    H1 4080   5.273   2.070   5.649  0.2550 -2.3053 -1.1868
 1372TIP3    H2 4081   5.384   2.124   5.561  0.1365  1.9148  0.9704
 1373TIP3   OH2 4082   2.264   6.462   0.743  0.0350 -0.3200 -0.0410
 1373TIP3    H1 4083   2.174   6.484   0.768 -0.5786  0.9310 -2.9335
 1373TIP3    H2 4084   2.304   6.546   0.721  0.5335 -1.1972 -2.7979
 1374TIP3   OH2 4085   1.001   4.387   2.543  0.0333 -0.1552 -0.5451
 1374TIP3    H1 4086   1.067   4.446   2.579  1.1087 -0.4175 -1.9733
 1374TIP3    H2 4087   0.958   4.350   2.619  3.5161 -2.2184  0.6632
 1375TIP3   OH2 4088   6.453   2.695   5.570  0.1546 -0.3553  0.0906
 1375TIP3    H1 4089   6.508   2.650   5.505 -0.9172  0.4570 -1.4470
 1375TIP3    H2 4090   6.386   2.738   5.518 -0.2034  1.1278  1.6964
 1376TIP3   OH2 4091   4.540   3.121   2.991 -0.1412 -0.5871  0.2380
 1376TIP3    H1 4092   4.569   3.042   3.036  0.1610 -0.4343  0.3129
 1376TIP3    H2 4093   4.620   3.158   2.953 -0.3953 -0.7426 -0.4747
 1377TIP3   OH2 4094   3.832   5.458   0.643 -0.2182  0.5023  0.2575
 1377TIP3    H1 4095   3.875   5.477   0.726  1.2111  0.5962 -0.4756
 1377TIP3    H2 4096   3.800   5.543   0.613 -0.6316  0.4872  0.6446
 1378TIP3   OH2 4097   0.057   2.656   5.681  0.1239  0.2314  0.0884
 1378TIP3    H1 4098  -0.019   2.701   5.719  1.5450  0.3914  3.0391
 1378TIP3    H2 4099   0.019   2.592   5.622 -2.3053  0.6531  1.0368
 1379TIP3   OH2 4100   5.047   4.474   2.206  0.1408  0.2555 -0.1550
 1379TIP3    H1 4101   5.095   4.413   2.263 -1.2147 -0.8744 -0.1898
 1379TIP3    H2 4102   4.963   4.487   2.250 -1.0697 -0.8864 -2.0232
 1380TIP3   OH2 4103   0.540   0.773   3.674 -0.0019 -0.1141 -0.0786
 1380TIP3    H1 4104   0.447   0.750   3.678  0.3002 -1.2538  1.2554
 1380TIP3    H2 4105   0.573   0.723   3.599  0.0866 -1.9995  1.1641
 1381TIP3   OH2 4106   6.564   3.572   0.030  0.1018 -0.4696  0.3048
 1381TIP3    H1 4107   6.526   3.623   0.102  1.2296 -0.7622  1.1441
 1381TIP3    H2 4108   6.582   3.637  -0.038 -0.0554 -0.0236  0.6797
 1382TIP3   OH2 4109   4.848   4.281   4.785 -0.4320  0.0298  0.4128
 1382TIP3    H1 4110   4.784   4.209   4.784 -0.4052  0.0113  0.0476
 1382TIP3    H2 4111   4.861   4.303   4.693 -0.6763  0.7177  0.5366
 1383TIP3   OH2 4112   6.285   2.969   3.271 -0.3467 -0.0294  0.1457
 1383TIP3    H1 4113   6.341   2.893   3.255  0.0781  0.2641  0.2037
 1383TIP3    H2 4114   6.221   2.967   3.200 -0.3176 -0.4209  0.1278
 1384TIP3   OH2 4115   2.017   0.808   1.682  0.7039  0.0471  0.2788
 1384TIP3    H1 4116   2.058   0.780   1.599  0.3045  0.6126 -0.1085
 1384TIP3    H2 4117   2.072   0.880   1.713  1.5078 -0.8787  1.0853
 1385TIP3   OH2 4118   0.073   0.602   3.760 -0.2640  0.1900 -0.1473
 1385TIP3    H1 4119   0.040   0.516   3.785  0.2563 -0.5811 -1.9627
 1385TIP3    H2 4120   0.038   0.661   3.826 -3.4470 -0.8935 -0.6847
 1386TIP3   OH2 4121   3.670   3.790   1.203  0.3616 -0.2429  0.1214
 1386TIP3    H1 4122   3.588   3.747   1.181 -0.8993  0.1529  3.4264
 1386TIP3    H2 4123   3.666   3.874   1.158 -0.7008 -0.5036 -0.3008
 1387TIP3   OH2 4124   1.438   0.108   2.397  0.2030 -0.4601 -0.3435
 1387TIP3    H1 4125   1.472   0.182   2.447  1.5336 -1.8781  0.9954
 1387TIP3    H2 4126   1.381   0.062   2.459 -2.2625  0.4876 -1.7810
 1388TIP3   OH2 4127   5.356   3.034   5.761 -0.0422  0.5699  0.2101
 1388TIP3    H1 4128   5.303   3.113   5.752 -0.8946  0.2064  1.6438
 1388TIP3    H2 4129   5.398   3.043   5.847  0.3352 -0.2594  0.1257
 1389TIP3   OH2 4130   5.724   3.541   5.302  0.1031  0.2693 -0.6827
 1389TIP3    H1 4131   5.809   3.549   5.345 -0.4917  0.2640  0.5062
 1389TIP3    H2 4132   5.739   3.475   5.233  0.5092 -1.4423  0.9698
 1390TIP3   OH2 4133   2.396   2.078   4.026  0.2145 -0.3116 -0.6503
 1390TIP3    H1 4134   2.455   2.003   4.021 -1.0292 -1.3545 -0.2033
 1390TIP3    H2 4135   2.321   2.046   4.075 -0.6632  1.0327 -1.0685
 1391TIP3   OH2 4136   1.471   6.181   3.247  0.2773 -0.1729  0.3404
 1391TIP3    H1 4137   1.457   6.265   3.290  0.5896 -0.8770  1.9037
 1391TIP3    H2 4138   1.549   6.193   3.194  0.2173  0.5705  0.4122
 1392TIP3   OH2 4139   0.207   0.838   4.839 -0.5339 -0.3248 -0.3294
 1392TIP3    H1 4140   0.135   0.784   4.806  0.3635 -1.7688 -0.0186
 1392TIP3    H2 4141   0.258   0.860   4.761 -0.0923 -1.2053 -0.3135
 1393TIP3   OH2 4142   3.717   4.412   3.978  0.2421  0.2308 -0.1927
 1393TIP3    H1 4143   3.701   4.505   3.962  1.9330  0.5197 -0.3195
 1393TIP3    H2 4144   3.806   4.407   4.012  1.9335 -1.6668 -4.2173
 1394TIP3   OH2 4145   0.337   2.364   4.242  0.2843 -0.1951  0.1349
 1394TIP3    H1 4146   0.394   2.338   4.169  1.3397  1.3426  0.3594
 1394TIP3    H2 4147   0.396   2.373   4.317 -0.4383  0.3068  0.6595
 1395TIP3   OH2 4148   6.874   1.859   4.151 -0.2122  0.1310  0.3980
 1395TIP3    H1 4149   6.904   1.800   4.220 -0.5384  0.2713  0.6588
 1395TIP3    H2 4150   6.831   1.801   4.088 -0.4816  0.0832  0.6259
 1396TIP3   OH2 4151   4.542   1.045   4.454  0.2784 -0.0932  0.0611
 1396TIP3    H1 4152   4.557   0.977   4.389 -0.2544  0.6019 -0.8173
 1396TIP3    H2 4153   4.578   1.125   4.414 -1.1153  0.5829  0.0839
 1397TIP3   OH2 4154   6.503   0.910   1.531  0.3034 -0.2294  0.6452
 1397TIP3    H1 4155   6.518   1.003   1.548  1.1881 -0.2991  0.3288
 1397TIP3    H2 4156   6.591   0.873   1.526 -0.0308 -0.9461 -0.0005
 1398TIP3   OH2 4157   0.341   5.871   3.058 -0.0831  0.2972 -0.4951
 1398TIP3    H1 4158   0.418   5.899   3.109 -0.3630  0.2226 -0.0206
 1398TIP3    H2 4159   0.343   5.775   3.064 -0.3353  0.3040 -0.2959
 1399TIP3   OH2 4160   3.548   0.185   5.323 -0.5623 -0.0104  0.6167
 1399TIP3    H1 4161   3.587   0.272   5.332 -1.9844  0.7533 -0.2159
 1399TIP3    H2 4162   3.550   0.148   5.411 -1.2480  1.4577  1.2759
 1400TIP3   OH2 4163   6.068   0.314   5.040 -0.1405  0.1137  0.0685
 1400TIP3    H1 4164   6.016   0.380   5.085  0.5551  0.1350  0.8732
 1400TIP3    H2 4165   6.069   0.239   5.100  1.3267  0.3741  0.4079
 1401TIP3   OH2 4166   2.998   3.802   0.299  0.1102  1.1520  1.0115
 1401TIP3    H1 4167   3.055   3.808   0.222 -1.7509  1.9723 -0.3606
 1401TIP3    H2 4168   3.037   3.731   0.351  1.1865  0.2609 -0.8873
 1402TIP3   OH2 4169   5.621   3.227   5.548 -0.2647  0.2193  0.2231
 1402TIP3    H1 4170   5.593   3.189   5.465 -0.9312  0.7987  0.1719
 1402TIP3    H2 4171   5.580   3.313   5.550 -0.4517  0.1192  1.2589
 1403TIP3   OH2 4172   4.192   6.234   4.649 -0.6167 -0.1452  0.1816
 1403TIP3    H1 4173   4.155   6.246   4.736 -0.8979 -0.1922  0.0687
 1403TIP3    H2 4174   4.117   6.221   4.592 -0.3925 -1.2781  0.1077
 1404TIP3   OH2 4175   1.834   6.078   4.130 -0.3371 -0.4494 -0.0634
 1404TIP3    H1 4176   1.905   6.071   4.194  0.2216  1.7814 -0.3499
 1404TIP3    H2 4177   1.878   6.071   4.045 -0.7580 -1.0747 -0.2386
 1405TIP3   OH2 4178   4.659   4.581   0.553  0.2749 -0.0145 -0.3918
 1405TIP3    H1 4179   4.592   4.520   0.583 -0.8106  0.9650 -0.7730
 1405TIP3    H2 4180   4.611   4.658   0.525  1.5051  0.3865 -1.4920
 1406TIP3   OH2 4181   3.360   3.836   2.101  0.2401  0.7449 -0.4639
 1406TIP3    H1 4182   3.373   3.873   2.014  0.4638  1.4392 -0.1440
 1406TIP3    H2 4183   3.318   3.752   2.086 -1.5710  1.7235 -1.1553
 1407TIP3   OH2 4184   2.398   6.006   5.102  0.4435 -0.2606 -0.1457
 1407TIP3    H1 4185   2.421   5.986   5.011 -0.8490 -2.0522 -0.1371
 1407TIP3    H2 4186   2.315   6.052   5.097  0.4803 -0.1625  0.1280
 1408TIP3   OH2 4187   3.401   5.868   3.558  0.8580  0.2972  0.1255
 1408TIP3    H1 4188   3.308   5.890   3.562  1.0346  0.8491  2.1869
 1408TIP3    H2 4189   3.425   5.882   3.466 -0.9991  0.4480 -0.3795
 1409TIP3   OH2 4190   3.562   1.548   5.225 -0.4852 -0.2871  0.2314
 1409TIP3    H1 4191   3.649   1.508   5.218 -0.5322 -1.0014  2.7226
 1409TIP3    H2 4192   3.506   1.494   5.169  0.4415 -0.5363 -0.4748
 1410TIP3   OH2 4193   6.271   0.479   3.460  0.1179 -0.5202 -0.6843
 1410TIP3    H1 4194   6.300   0.542   3.394  1.1694  0.5503  0.7251
 1410TIP3    H2 4195   6.349   0.427   3.480 -0.6888 -2.1811 -1.6784
 1411TIP3   OH2 4196   2.016   5.159   2.473  0.2011 -0.2681 -0.0157
 1411TIP3    H1 4197   2.077   5.232   2.485 -0.0939  0.2094 -1.1975
 1411TIP3    H2 4198   2.058   5.105   2.406 -1.3035  0.8795 -2.0182
 1412TIP3   OH2 4199   1.196   1.507   0.822 -0.3174 -0.2167  0.2087
 1412TIP3    H1 4200   1.190   1.427   0.770  0.9257 -0.0829 -0.1717
 1412TIP3    H2 4201   1.105   1.527   0.845 -0.7254 -1.2635 -0.4021
 1413TIP3   OH2 4202   4.983   5.484   1.302 -0.4708  0.1312 -0.7531
 1413TIP3    H1 4203   5.001   5.575   1.327  2.2373 -0.3150 -0.8858
 1413TIP3    H2 4204   5.017   5.476   1.214 -0.2710 -1.1495 -0.5748
 1414TIP3   OH2 4205   4.099   6.143   1.882  0.2527 -0.5012  0.1774
 1414TIP3    H1 4206   4.137   6.226   1.855  0.8588  0.4766  3.5228
 1414TIP3    H2 4207   4.019   6.134   1.830  0.6749  1.6576 -0.9438
 1415TIP3   OH2 4208   5.425   0.957   4.139  0.2068  0.2523  0.0043
 1415TIP3    H1 4209   5.433   1.052   4.148  0.1766  0.3728 -1.0757
 1415TIP3    H2 4210   5.373   0.930   4.215 -1.8214  1.4315 -0.8872
 1416TIP3   OH2 4211   0.556   0.815   5.306  0.0516  0.1414  0.4340
 1416TIP3    H1 4212   0.507   0.866   5.242 -0.2942 -0.5278  0.1574
 1416TIP3    H2 4213   0.517   0.728   5.302  0.0359  0.0796  1.5380
 1417TIP3   OH2 4214   0.119   1.662   0.730  0.2214  0.4411  0.1167
 1417TIP3    H1 4215   0.024   1.668   0.729  0.2196  0.7543  1.0764
 1417TIP3    H2 4216   0.142   1.632   0.642 -0.8907 -1.6797  0.4998
 1418TIP3   OH2 4217   6.177   3.382   3.653  0.0040 -0.3148 -0.7857
 1418TIP3    H1 4218   6.261   3.369   3.609  1.0589  0.4748  0.9110
 1418TIP3    H2 4219   6.171   3.476   3.666 -0.7545 -0.4473 -0.1333
 1419TIP3   OH2 4220   1.375   5.932   0.251  0.2677 -0.3076  0.9218
 1419TIP3    H1 4221   1.390   5.840   0.229 -0.7049  0.0083 -1.2784
 1419TIP3    H2 4222   1.321   5.965   0.180  1.5682  2.2939  1.0395
 1420TIP3   OH2 4223   2.114   6.253   5.278 -0.3792  0.4133 -0.3301
 1420TIP3    H1 4224   2.153   6.201   5.348  0.8113  0.1886 -1.1448
 1420TIP3    H2 4225   2.034   6.205   5.255  0.1036 -0.4405 -0.2798
 1421TIP3   OH2 4226   5.519   2.982   0.707  0.1285  0.4986 -0.0042
 1421TIP3    H1 4227   5.538   2.961   0.799 -0.0868 -0.8170 -0.2383
 1421TIP3    H2 4228   5.486   2.900   0.670 -0.4580  1.1987 -1.0871
 1422TIP3   OH2 4229   1.792   4.157   0.359  0.4197  0.0363 -0.2296
 1422TIP3    H1 4230   1.855   4.190   0.296  0.7821  1.0478  0.6311
 1422TIP3    H2 4231   1.718   4.217   0.353  0.2015 -0.2156 -0.1122
 1423TIP3   OH2 4232   1.228   0.903   2.484  0.6696  0.4296 -0.9052
 1423TIP3    H1 4233   1.213   0.914   2.390  0.9653  1.7891 -0.8021
 1423TIP3    H2 4234   1.323   0.900   2.493  0.6759 -2.3761 -0.9004
 1424TIP3   OH2 4235   0.829   1.642   4.771 -0.0493 -0.7425  0.5919
 1424TIP3    H1 4236   0.802   1.561   4.814  0.8810 -0.7953  1.1081
 1424TIP3    H2 4237   0.895   1.615   4.707  0.3336 -0.3904  0.8325
 1425TIP3   OH2 4238   2.854   5.624   1.217  0.0922  0.6768 -0.9313
 1425TIP3    H1 4239   2.855   5.660   1.306  0.6621 -0.8945 -0.2756
 1425TIP3    H2 4240   2.761   5.608   1.199  0.1503 -2.1222  0.7494
 1426TIP3   OH2 4241   1.640   4.593   3.818  0.3974  0.6296 -0.4089
 1426TIP3    H1 4242   1.605   4.604   3.907 -0.4305 -4.0064  0.0649
 1426TIP3    H2 4243   1.734   4.608   3.826  0.0875  2.1687  0.7551
 1427TIP3   OH2 4244   6.678   5.826   0.804 -0.3430  0.1195 -0.5054
 1427TIP3    H1 4245   6.754   5.842   0.860  0.4847 -0.7794 -1.3384
 1427TIP3    H2 4246   6.710   5.767   0.736 -1.8334 -0.4155 -0.7856
 1428TIP3   OH2 4247   2.230   1.132   3.158 -0.5527  0.1473  0.2256
 1428TIP3    H1 4248   2.140   1.144   3.126 -0.5610  0.3357  0.3162
 1428TIP3    H2 4249   2.222   1.144   3.253 -0.3068  0.9348  0.1588
 1429TIP3   OH2 4250   6.748   0.510   5.140 -0.1257  0.9046  0.3098
 1429TIP3    H1 4251   6.733   0.602   5.120  1.8461  1.2056  0.0239
 1429TIP3    H2 4252   6.796   0.511   5.223  0.7854  0.2085 -0.1904
 1430TIP3   OH2 4253   2.115   6.259   3.853 -0.1930  0.1473  0.3834
 1430TIP3    H1 4254   2.023   6.236   3.863 -0.3630  0.3695 -0.5390
 1430TIP3    H2 4255   2.160   6.212   3.923 -1.0070  0.0456  0.8446
 1431TIP3   OH2 4256   6.451   1.396   0.374  0.0187 -0.3366 -0.0780
 1431TIP3    H1 4257   6.543   1.376   0.389  0.0866 -0.2584 -0.3897
 1431TIP3    H2 4258   6.432   1.468   0.435  0.5582  0.6679 -1.0679
 1432TIP3   OH2 4259   6.954   3.984   2.668  0.1857 -0.7841 -0.3319
 1432TIP3    H1 4260   6.946   3.969   2.573 -1.6406  1.2729 -0.5969
 1432TIP3    H2 4261   6.883   4.045   2.688  0.6905 -0.9645  2.3506
 1433TIP3   OH2 4262   4.820   5.035   2.638  0.2454  0.1724  0.3899
 1433TIP3    H1 4263   4.824   5.111   2.580  0.2219 -0.0825  0.0507
 1433TIP3    H2 4264   4.910   5.023   2.668  1.0616 -1.8632 -2.4340
 1434TIP3   OH2 4265   0.483   2.253   0.106  0.0030  0.8102  0.5649
 1434TIP3    H1 4266   0.397   2.239   0.145 -0.5938  1.1683 -0.5726
 1434TIP3    H2 4267   0.464   2.293   0.021  1.2981  0.9408  0.3239
 1435TIP3   OH2 4268   2.097   6.790   2.030  0.5133 -0.2059 -0.6383
 1435TIP3    H1 4269   2.181   6.790   1.984  0.5233 -2.8946 -0.7845
 1435TIP3    H2 4270   2.121   6.795   2.123  0.5901  2.7745 -0.7262
 1436TIP3   OH2 4271   3.091   0.762   5.195  0.3122  0.1520  0.4346
 1436TIP3    H1 4272   3.068   0.697   5.262  0.6249  1.3028  1.7001
 1436TIP3    H2 4273   3.076   0.716   5.112 -0.7415 -1.1018  1.2591
 1437TIP3   OH2 4274   3.457   6.082   5.142 -0.1759  0.0091 -0.7737
 1437TIP3    H1 4275   3.515   6.013   5.110 -0.1007 -0.1276 -0.3502
 1437TIP3    H2 4276   3.481   6.159   5.089  0.6404  0.0463 -0.3676
 1438TIP3   OH2 4277   0.452   0.286   0.247 -0.5775  0.5759 -0.2190
 1438TIP3    H1 4278   0.404   0.327   0.319 -1.4305  0.8019 -0.9034
 1438TIP3    H2 4279   0.390   0.222   0.211  0.0765  0.0053 -0.3468
 1439TIP3   OH2 4280   4.257   3.309   5.256 -0.4679  0.5919 -0.1952
 1439TIP3    H1 4281   4.274   3.352   5.172 -1.1300  0.0800 -0.6007
 1439TIP3    H2 4282   4.180   3.255   5.240  0.4408 -0.8778  0.2605
 1440TIP3   OH2 4283   1.246   1.512   4.757  0.0581 -0.1699 -0.0281
 1440TIP3    H1 4284   1.189   1.587   4.741  0.0139 -0.3780 -0.9260
 1440TIP3    H2 4285   1.215   1.475   4.839  0.8082  1.4436  1.0519
 1441TIP3   OH2 4286   1.733   0.776   3.559  0.1154  0.1680  0.1205
 1441TIP3    H1 4287   1.727   0.744   3.649  1.2934  1.0168  0.5272
 1441TIP3    H2 4288   1.644   0.803   3.536 -0.5800 -1.8021  0.3389
 1442TIP3   OH2 4289   3.829   3.220   4.168 -0.1021 -0.1184 -0.0159
 1442TIP3    H1 4290   3.882   3.140   4.168 -0.7480 -0.5595  0.1672
 1442TIP3    H2 4291   3.853   3.264   4.249 -0.3606 -0.5603  0.3081
 1443TIP3   OH2 4292   3.273   1.472   2.312 -0.0763 -0.1456  0.2242
 1443TIP3    H1 4293   3.266   1.479   2.407 -1.2561 -1.5855  0.2772
 1443TIP3    H2 4294   3.353   1.423   2.297 -1.1457 -2.1260  0.6389
 1444TIP3   OH2 4295   4.443   5.859   2.808 -0.2782 -0.0310 -0.5465
 1444TIP3    H1 4296   4.422   5.859   2.901  0.4499 -0.0121 -0.3741
 1444TIP3    H2 4297   4.358   5.855   2.764 -0.6482  0.4121  0.1104
 1445TIP3   OH2 4298   0.991   6.199   2.358  0.7458 -0.2903 -0.0474
 1445TIP3    H1 4299   0.927   6.180   2.427 -1.2244  0.1928 -1.6472
 1445TIP3    H2 4300   1.056   6.254   2.401 -1.0204  0.9440  1.1957
 1446TIP3   OH2 4301   4.083   1.296   3.784  0.4924  0.4583  0.0048
 1446TIP3    H1 4302   4.087   1.200   3.778  3.5449  0.4687  0.2338
 1446TIP3    H2 4303   4.107   1.327   3.697  1.6974  0.9622  0.4970
 1447TIP3   OH2 4304   3.495   6.246   2.497 -0.1525  0.0673  0.6343
 1447TIP3    H1 4305   3.438   6.212   2.429 -2.2303  1.0774  1.7657
 1447TIP3    H2 4306   3.494   6.341   2.484  1.5180  0.1007  0.5392
 1448TIP3   OH2 4307   6.212   6.584   5.025  0.3296  0.4547  0.5133
 1448TIP3    H1 4308   6.145   6.616   4.965  0.7280 -0.2735 -0.3534
 1448TIP3    H2 4309   6.291   6.577   4.971  0.7782  0.0655  1.1964
 1449TIP3   OH2 4310   1.053   0.880   4.545  0.4554 -0.3914  0.1557
 1449TIP3    H1 4311   1.031   0.845   4.459 -1.3646 -1.1300  0.8731
 1449TIP3    H2 4312   0.998   0.957   4.555 -0.7126 -1.3142  1.3186
 1450TIP3   OH2 4313   3.389   4.074   2.476 -0.6070  0.3683 -0.4156
 1450TIP3    H1 4314   3.417   4.150   2.426  2.9384  0.0747  0.8370
 1450TIP3    H2 4315   3.445   4.003   2.445  0.4835 -0.2258  2.6055
 1451TIP3   OH2 4316   0.132   0.820   5.493 -0.1549  0.4171 -0.3753
 1451TIP3    H1 4317   0.086   0.897   5.525 -0.1133  0.1475  0.3621
 1451TIP3    H2 4318   0.224   0.837   5.513 -0.0951  0.3681 -0.6107
 1452TIP3   OH2 4319   1.627   4.287   2.158  0.1953 -0.2023 -0.3431
 1452TIP3    H1 4320   1.610   4.225   2.086  3.0012 -0.1003 -1.1985
 1452TIP3    H2 4321   1.609   4.236   2.237 -0.7991 -1.0171 -1.0503
 1453TIP3   OH2 4322   4.852   0.366   3.830  0.5820  0.2551 -0.2311
 1453TIP3    H1 4323   4.773   0.420   3.831  1.1876  1.1561  0.2475
 1453TIP3    H2 4324   4.835   0.297   3.894 -0.1982 -0.1258 -0.8422
 1454TIP3   OH2 4325   0.194   4.937   2.878  0.6267  0.2403 -0.0129
 1454TIP3    H1 4326   0.188   5.031   2.860  1.5813  0.3821  0.4051
 1454TIP3    H2 4327   0.121   4.920   2.938 -0.9929  0.2538 -1.8627
 1455TIP3   OH2 4328   5.053   4.681   4.348  0.1489  1.3165  0.0564
 1455TIP3    H1 4329   5.042   4.761   4.400 -2.0075  0.6442  0.7371
 1455TIP3    H2 4330   5.003   4.696   4.269 -1.9066 -0.0032  1.0243
 1456TIP3   OH2 4331   5.604   2.262   4.287 -0.0381  0.1754  0.5182
 1456TIP3    H1 4332   5.523   2.239   4.241  0.6644  2.5349 -2.1804
 1456TIP3    H2 4333   5.585   2.347   4.327  1.4678  1.5372 -1.4872
 1457TIP3   OH2 4334   0.637   0.768   2.539 -0.4699  0.0240  0.3925
 1457TIP3    H1 4335   0.672   0.827   2.605  1.2183  0.1687 -0.5740
 1457TIP3    H2 4336   0.714   0.733   2.495 -1.5159 -0.8270 -0.8385
 1458TIP3   OH2 4337   5.226   5.028   5.214  0.5050 -0.2699 -0.0014
 1458TIP3    H1 4338   5.201   4.962   5.149 -0.4564 -0.1333  0.2133
 1458TIP3    H2 4339   5.274   5.093   5.164 -2.0025  0.9241 -1.0674
 1459TIP3   OH2 4340   0.383   1.884   3.246 -0.1607 -0.1451 -0.2036
 1459TIP3    H1 4341   0.434   1.812   3.284  0.9300 -0.1390 -1.5724
 1459TIP3    H2 4342   0.419   1.894   3.157 -1.3286  1.0858 -0.5609
 1460TIP3   OH2 4343   1.540   2.637   5.585  0.1295 -0.4065  0.4576
 1460TIP3    H1 4344   1.485   2.662   5.659  0.8763  2.7360  0.0635
 1460TIP3    H2 4345   1.478   2.622   5.513 -0.3656  0.6319  0.6588
 1461TIP3   OH2 4346   0.171   4.653   0.527  0.3321 -0.1513  0.3780
 1461TIP3    H1 4347   0.231   4.596   0.575  0.3888 -1.6535 -1.3742
 1461TIP3    H2 4348   0.171   4.618   0.438  0.6035  2.7755 -0.9000
 1462TIP3   OH2 4349   6.031   5.400   2.880 -0.5817  0.2321  0.0566
 1462TIP3    H1 4350   6.042   5.466   2.948  1.2060  0.5483 -0.4698
 1462TIP3    H2 4351   6.058   5.318   2.921  0.6444  0.4477 -0.2788
 1463TIP3   OH2 4352   6.138   4.446   2.157  0.6509 -0.7708 -0.4239
 1463TIP3    H1 4353   6.113   4.374   2.099 -0.4190 -1.9338  1.3666
 1463TIP3    H2 4354   6.184   4.404   2.230  0.6896  0.4496  0.2920
 1464TIP3   OH2 4355   0.919   5.226   2.396 -0.0248  0.3805  0.0906
 1464TIP3    H1 4356   0.958   5.149   2.437  0.1797 -0.2888 -1.3118
 1464TIP3    H2 4357   0.990   5.265   2.346 -0.0271  1.7260  1.0912
 1465TIP3   OH2 4358   0.367   6.756   1.061  0.4761  0.1227  0.4473
 1465TIP3    H1 4359   0.427   6.686   1.038 -0.3646 -0.0759 -1.3071
 1465TIP3    H2 4360   0.380   6.822   0.993 -0.7931  0.3599  0.4148
 1466TIP3   OH2 4361   3.784   2.243   2.526  0.3457 -0.1463  0.4859
 1466TIP3    H1 4362   3.876   2.228   2.549 -0.2105 -0.4272  2.8735
 1466TIP3    H2 4363   3.748   2.155   2.513  0.1964 -0.1042  0.6089
 1467TIP3   OH2 4364   2.035   0.742   2.037 -0.2872  0.2357  0.0978
 1467TIP3    H1 4365   2.057   0.705   2.123  0.4483  2.3911  0.9021
 1467TIP3    H2 4366   2.109   0.799   2.016 -2.1042  2.6683 -0.1756
 1468TIP3   OH2 4367   4.628   6.218   2.976 -0.1525 -0.4815  0.3018
 1468TIP3    H1 4368   4.583   6.302   2.985  0.3155 -0.0079 -1.3341
 1468TIP3    H2 4369   4.672   6.205   3.060  0.3017  1.2466  0.3775
 1469TIP3   OH2 4370   5.784   5.087   3.235  0.5550 -0.3873  0.1423
 1469TIP3    H1 4371   5.790   5.025   3.308  1.5319 -0.1227  0.2989
 1469TIP3    H2 4372   5.841   5.159   3.261  1.9317 -0.8414 -1.4198
 1470TIP3   OH2 4373   2.253   3.748   1.038  0.4227  0.2389 -0.1411
 1470TIP3    H1 4374   2.240   3.804   1.114  1.2160 -0.9793  0.9416
 1470TIP3    H2 4375   2.270   3.661   1.075  1.3588 -0.2832 -1.7028
 1471TIP3   OH2 4376   2.770   4.502   0.002 -0.1685  0.2420 -0.4963
 1471TIP3    H1 4377   2.778   4.508   0.097 -0.7501  1.9350 -0.5208
 1471TIP3    H2 4378   2.706   4.432  -0.013  1.8282 -1.8409  0.2281
 1472TIP3   OH2 4379   2.431   6.406   4.143 -0.6602  0.2381 -0.0566
 1472TIP3    H1 4380   2.363   6.463   4.107  1.3871  2.1927 -1.0755
 1472TIP3    H2 4381   2.495   6.398   4.072  1.7117  1.1412  1.8407
 1473TIP3   OH2 4382   5.073   5.534   2.591  0.5761 -0.5364  0.2326
 1473TIP3    H1 4383   5.147   5.593   2.599 -2.0116  2.9907  0.4839
 1473TIP3    H2 4384   5.044   5.543   2.500 -0.5047 -0.5314  0.5585
 1474TIP3   OH2 4385   1.895   2.161   4.094 -0.2614  0.4497  0.4250
 1474TIP3    H1 4386   1.876   2.213   4.172 -1.5903 -1.5603  1.5256
 1474TIP3    H2 4387   1.901   2.225   4.023 -0.0275  2.2430  1.9910
 1475TIP3   OH2 4388   1.332   5.123   5.395 -0.1966 -0.3306  0.1059
 1475TIP3    H1 4389   1.285   5.049   5.357  1.5018 -1.0227 -0.7322
 1475TIP3    H2 4390   1.425   5.103   5.380  0.3045  2.3970 -0.9803
 1476TIP3   OH2 4391   3.853   1.693   0.463  0.2852  0.0194  0.5003
 1476TIP3    H1 4392   3.901   1.702   0.546  0.5282  2.6220  0.1551
 1476TIP3    H2 4393   3.815   1.779   0.448 -1.1462 -0.8667 -1.2962
 1477TIP3   OH2 4394   5.875   4.800   5.481  0.6242 -0.0919 -0.1520
 1477TIP3    H1 4395   5.921   4.815   5.563  0.0046 -2.1605  0.6409
 1477TIP3    H2 4396   5.934   4.833   5.414  1.7288  0.4311  1.0343
 1478TIP3   OH2 4397   0.320   4.370   3.366  0.0460  0.0338  0.8126
 1478TIP3    H1 4398   0.264   4.335   3.436  1.2983  0.7754  2.2514
 1478TIP3    H2 4399   0.335   4.461   3.391 -1.1949  0.9963 -1.5960
 1479TIP3   OH2 4400   0.380   2.398   5.040  0.6816  0.3312 -0.0058
 1479TIP3    H1 4401   0.382   2.320   5.095  3.4620  0.2560 -0.0607
 1479TIP3    H2 4402   0.288   2.409   5.015  0.0124 -2.0370  1.2142
 1480TIP3   OH2 4403   2.440   1.049   1.635  0.5646  0.6190 -0.1130
 1480TIP3    H1 4404   2.438   1.108   1.560  1.0897  0.8219  0.0266
 1480TIP3    H2 4405   2.531   1.054   1.667  0.1142  1.2848  1.1182
 1481TIP3   OH2 4406   0.637   6.153   4.805  0.5110  0.3207  0.3237
 1481TIP3    H1 4407   0.645   6.062   4.777  0.8530  0.1272  1.0222
 1481TIP3    H2 4408   0.622   6.148   4.899 -2.2456  0.8917 -0.0028
 1482TIP3   OH2 4409   4.759   4.126   1.551 -0.0308 -0.2921 -0.5033
 1482TIP3    H1 4410   4.793   4.215   1.552  0.5294 -0.5022 -0.6760
 1482TIP3    H2 4411   4.792   4.088   1.469  1.2933 -1.2618  0.4514
 1483TIP3   OH2 4412   6.232   4.857   5.084  0.6070 -0.0341 -0.0107
 1483TIP3    H1 4413   6.193   4.937   5.048  0.1498 -1.1771 -2.2719
 1483TIP3    H2 4414   6.159   4.797   5.095  1.0917 -0.5520  0.4588
 1484TIP3   OH2 4415   2.038   1.000   5.412  0.3718 -0.0434  0.3469
 1484TIP3    H1 4416   2.055   1.082   5.457  1.8680 -0.3925  0.4771
 1484TIP3    H2 4417   2.001   0.943   5.479  0.4399  0.1522  0.5525
 1485TIP3   OH2 4418   2.212   3.170   4.809 -0.1955 -0.1841 -0.0376
 1485TIP3    H1 4419   2.205   3.248   4.754  1.1060 -1.1430 -1.6644
 1485TIP3    H2 4420   2.297   3.179   4.852 -0.0646 -0.6444 -0.1868
 1486TIP3   OH2 4421   2.013   1.020   5.763 -0.0263 -0.0155  0.0466
 1486TIP3    H1 4422   2.010   0.924   5.761 -2.2659 -0.0036  0.6125
 1486TIP3    H2 4423   1.990   1.043   5.852 -0.5474  1.0835 -0.3562
 1487TIP3   OH2 4424   2.359   6.242   0.882 -0.0704  0.1224  0.3827
 1487TIP3    H1 4425   2.351   6.335   0.864  0.7950  0.4543  1.5246
 1487TIP3    H2 4426   2.436   6.214   0.831  0.2811  0.2741  0.8210
 1488TIP3   OH2 4427   3.757   2.682   1.558  0.2793 -0.2823  0.7666
 1488TIP3    H1 4428   3.765   2.642   1.472  0.1294  1.4917 -0.1182
 1488TIP3    H2 4429   3.664   2.704   1.566  0.3327 -0.2195  1.2653
 1489TIP3   OH2 4430   5.448   6.448   0.112 -0.0439  0.9657 -0.3165
 1489TIP3    H1 4431   5.388   6.498   0.057  0.4818  0.5979 -1.2619
 1489TIP3    H2 4432   5.459   6.365   0.065  0.6679  0.7642  0.1909
 1490TIP3   OH2 4433   3.536   3.002   4.070 -0.1407  0.3791 -0.3113
 1490TIP3    H1 4434   3.586   3.081   4.051 -0.6756  0.4924 -1.3642
 1490TIP3    H2 4435   3.485   2.987   3.990 -0.6179 -0.5963  0.1617
 1491TIP3   OH2 4436   5.223   0.581   3.063 -0.0206  0.1775 -0.3015
 1491TIP3    H1 4437   5.196   0.568   2.972  1.1342  0.9311 -0.7721
 1491TIP3    H2 4438   5.202   0.498   3.106 -0.3974 -0.2579 -1.2997
 1492TIP3   OH2 4439   0.484   1.966   1.545  0.2369 -0.4575  0.1636
 1492TIP3    H1 4440   0.400   1.923   1.559  0.2986 -0.9610 -0.8854
 1492TIP3    H2 4441   0.537   1.900   1.501  0.0871  0.8907 -2.2086
 1493TIP3   OH2 4442   2.702   5.298   2.149 -0.3067  0.1315  0.1729
 1493TIP3    H1 4443   2.642   5.363   2.111  0.3339  0.4539 -0.3051
 1493TIP3    H2 4444   2.704   5.227   2.085  0.2505  0.3723 -0.0831
 1494TIP3   OH2 4445   0.597   5.178   4.743  0.5809 -0.1884  0.1755
 1494TIP3    H1 4446   0.579   5.175   4.649  2.3758 -1.6274 -0.1878
 1494TIP3    H2 4447   0.563   5.263   4.771  0.8249  0.6910 -1.9693
 1495TIP3   OH2 4448   4.927   5.747   4.954 -0.1716 -0.0935  0.6228
 1495TIP3    H1 4449   4.859   5.774   5.015  1.6214  3.8729  1.1534
 1495TIP3    H2 4450   5.009   5.770   4.996  1.3572 -0.9371 -1.6546
 1496TIP3   OH2 4451   6.151   6.733   4.104 -0.5212  0.3623 -0.1847
 1496TIP3    H1 4452   6.130   6.748   4.196  0.3459 -0.2183  0.1270
 1496TIP3    H2 4453   6.235   6.777   4.091  0.2261 -1.0065 -0.2167
 1497TIP3   OH2 4454   4.433   2.765   0.378 -0.3734 -0.3788  0.0287
 1497TIP3    H1 4455   4.519   2.729   0.354 -0.1547 -0.0068  0.2321
 1497TIP3    H2 4456   4.390   2.694   0.426 -0.3756 -0.7371 -0.5017
 1498TIP3   OH2 4457   3.563   5.054   3.533 -0.1726  0.0453 -1.2402
 1498TIP3    H1 4458   3.627   5.054   3.462  0.1834  0.0594 -0.9240
 1498TIP3    H2 4459   3.608   5.010   3.605 -0.3667  0.4252 -0.8833
 1499TIP3   OH2 4460   5.187   5.269   0.091  0.6897  0.0623  0.1376
 1499TIP3    H1 4461   5.224   5.337   0.148 -0.7368  1.3159 -0.3482
 1499TIP3    H2 4462   5.191   5.307   0.003 -1.3622  0.1333  0.0245
 1500TIP3   OH2 4463   1.003   3.883   0.485 -0.7302 -0.4318  0.0629
 1500TIP3    H1 4464   0.968   3.893   0.573 -0.4013  1.0084  0.0506
 1500TIP3    H2 4465   1.050   3.799   0.487  0.0337  0.0092  1.5047
 1501TIP3   OH2 4466   1.877   0.129   3.980 -0.2989  0.0831  0.5604
 1501TIP3    H1 4467   1.936   0.063   3.943 -1.5414 -0.4826 -0.4962
 1501TIP3    H2 4468   1.915   0.213   3.953  0.1337 -0.2679  0.0618
 1502TIP3   OH2 4469   4.303   6.554   1.772 -0.6269  0.3658  0.6519
 1502TIP3    H1 4470   4.356   6.532   1.695  0.5933  0.7746  1.3453
 1502TIP3    H2 4471   4.253   6.631   1.745 -1.4944 -0.5020 -0.2783
 1503TIP3   OH2 4472   1.388   4.728   0.745 -0.1594 -0.6798  0.0896
 1503TIP3    H1 4473   1.340   4.779   0.810  1.7917 -0.4777  1.4763
 1503TIP3    H2 4474   1.372   4.773   0.662  0.5489  1.5678  1.0789
 1504TIP3   OH2 4475   3.809   6.531   2.543  0.0572  0.1857  0.3143
 1504TIP3    H1 4476   3.822   6.500   2.453 -0.0495 -0.4067  0.5014
 1504TIP3    H2 4477   3.785   6.453   2.592 -0.9004  0.6800  0.6546
 1505TIP3   OH2 4478   3.909   5.516   3.082  0.2958 -0.1926 -0.1381
 1505TIP3    H1 4479   3.878   5.469   3.005 -1.9972  2.9796 -1.3997
 1505TIP3    H2 4480   3.973   5.578   3.048  0.2164  0.3752  0.7187
 1506TIP3   OH2 4481   0.514   2.046   5.526 -0.0274  0.0654 -0.5106
 1506TIP3    H1 4482   0.548   2.114   5.584 -1.0991  0.3035 -0.1431
 1506TIP3    H2 4483   0.591   1.994   5.503  0.5287  0.3821  0.5581
 1507TIP3   OH2 4484   5.457   0.568   2.799 -0.1024  0.0370  0.6714
 1507TIP3    H1 4485   5.364   0.578   2.819 -0.2756  0.1000 -0.1296
 1507TIP3    H2 4486   5.502   0.610   2.872 -0.7182  0.7762  0.6365
 1508TIP3   OH2 4487   4.842   5.086   3.743  0.0785 -0.0025  0.3233
 1508TIP3    H1 4488   4.800   5.030   3.808  1.3120  0.8610  1.9240
 1508TIP3    H2 4489   4.769   5.118   3.689 -0.9559 -0.9063  1.1301
 1509TIP3   OH2 4490   0.047   1.202   0.415 -0.0988  0.1337  0.3133
 1509TIP3    H1 4491   0.126   1.147   0.408 -0.7897 -0.7930 -0.5891
 1509TIP3    H2 4492  -0.024   1.139   0.429 -0.8617  0.8307 -0.3386
 1510TIP3   OH2 4493   2.022   2.114   5.641 -0.0199 -0.0903  0.4235
 1510TIP3    H1 4494   1.968   2.193   5.652  0.6360  0.4545 -0.1278
 1510TIP3    H2 4495   1.965   2.054   5.593 -0.6416 -0.0851  1.1320
 1511TIP3   OH2 4496   4.665   6.004   4.533  0.5444 -0.4549 -0.2619
 1511TIP3    H1 4497   4.592   6.067   4.534  0.1949 -0.8572  0.0727
 1511TIP3    H2 4498   4.661   5.964   4.446 -0.0844 -0.9833  0.0008
 1512TIP3   OH2 4499   5.241   5.722   4.768  0.1130  0.0195  0.1876
 1512TIP3    H1 4500   5.270   5.688   4.853 -0.0072  1.4484  0.8326
 1512TIP3    H2 4501   5.211   5.811   4.787 -3.1671 -0.7467 -0.7280
 1513TIP3   OH2 4502   2.530   4.756   3.159 -0.2120 -0.6845  0.3704
 1513TIP3    H1 4503   2.590   4.695   3.201 -0.8339 -0.9469  0.9114
 1513TIP3    H2 4504   2.448   4.706   3.152 -0.6523 -0.0038  0.5858
 1514TIP3   OH2 4505   6.067   3.811   2.996  0.6177 -0.1599  0.5135
 1514TIP3    H1 4506   6.100   3.783   2.911  0.3790 -0.2579  0.4526
 1514TIP3    H2 4507   6.074   3.733   3.051 -0.4989 -0.4897  0.2139
 1515TIP3   OH2 4508   2.534   4.922   3.910 -0.0094 -0.0818 -0.7198
 1515TIP3    H1 4509   2.545   4.923   3.815  0.5224  1.6893 -0.6665
 1515TIP3    H2 4510   2.623   4.932   3.945  0.0322 -2.3596  0.0465
 1516TIP3   OH2 4511   6.323   2.962   5.596 -0.3545  0.3058 -0.4859
 1516TIP3    H1 4512   6.288   2.890   5.545  0.2802  0.0145 -0.5307
 1516TIP3    H2 4513   6.310   2.936   5.687  0.0079  0.0559 -0.5011
 1517TIP3   OH2 4514   2.120   2.065   0.640 -0.0371  0.7348  0.1197
 1517TIP3    H1 4515   2.084   2.014   0.567  0.1300  2.6396 -1.3592
 1517TIP3    H2 4516   2.091   2.018   0.718 -0.5119 -1.1891 -1.1398
 1518TIP3   OH2 4517   6.026   6.026   3.211  0.0344 -0.0876 -0.3312
 1518TIP3    H1 4518   6.121   6.031   3.217 -0.0604 -0.2235  1.9663
 1518TIP3    H2 4519   6.005   5.934   3.227 -0.5348  0.2015  0.7016
 1519TIP3   OH2 4520   2.289   2.962   2.331 -0.2318  0.3971  0.5350
 1519TIP3    H1 4521   2.238   2.881   2.323  0.7871 -0.2043 -0.0564
 1519TIP3    H2 4522   2.380   2.932   2.333  0.1267  1.4960  0.9362
 1520TIP3   OH2 4523   2.878   6.536   2.827 -0.4588 -0.1022 -0.1358
 1520TIP3    H1 4524   2.922   6.586   2.896  1.1555 -0.6244 -0.7438
 1520TIP3    H2 4525   2.918   6.566   2.746 -2.9220  1.1269 -1.0148
 1521TIP3   OH2 4526   3.325   4.400   5.309  0.4808  0.4979  0.1934
 1521TIP3    H1 4527   3.294   4.482   5.270 -2.0968 -0.9641 -1.1257
 1521TIP3    H2 4528   3.324   4.417   5.404  0.2707  2.0722 -0.0587
 1522TIP3   OH2 4529   5.358   0.438   4.896  0.4701  0.2422  0.3832
 1522TIP3    H1 4530   5.377   0.513   4.840  0.7525 -0.8962 -1.1334
 1522TIP3    H2 4531   5.292   0.387   4.847  0.9196 -0.9291  0.9441
 1523TIP3   OH2 4532   4.392   2.994   1.028  0.2694  0.6036 -0.8826
 1523TIP3    H1 4533   4.425   2.908   1.054 -0.9828  0.4306  0.2738
 1523TIP3    H2 4534   4.406   3.049   1.106 -0.8455  0.8823 -0.8693
 1524TIP3   OH2 4535   4.520   3.174   4.154  0.1915 -0.2464 -0.4183
 1524TIP3    H1 4536   4.478   3.259   4.156 -0.7897 -0.6389  3.0166
 1524TIP3    H2 4537   4.611   3.192   4.180 -0.0707 -0.2027  0.5288
 1525TIP3   OH2 4538   1.896   3.037   2.959 -0.2546 -0.1181 -0.0290
 1525TIP3    H1 4539   1.866   3.058   2.871 -0.6287 -0.7217 -0.0479
 1525TIP3    H2 4540   1.972   2.980   2.946 -0.8564 -0.9554  0.0343
 1526TIP3   OH2 4541   7.164   4.087   1.375  0.1579 -0.2004  0.8372
 1526TIP3    H1 4542   7.087   4.138   1.350 -0.1397 -0.7593  0.5860
 1526TIP3    H2 4543   7.229   4.109   1.309  0.2568  0.3594  1.1142
 1527TIP3   OH2 4544   5.037   0.438   5.443 -0.3072  0.4557  0.0077
 1527TIP3    H1 4545   5.109   0.431   5.380 -0.0151 -0.8099  0.4573
 1527TIP3    H2 4546   5.078   0.475   5.522 -1.0746  4.1405 -1.1054
 1528TIP3   OH2 4547   3.971   5.401   5.424 -0.2092  0.5732 -0.2833
 1528TIP3    H1 4548   4.028   5.386   5.348  1.5306 -0.8836  1.2157
 1528TIP3    H2 4549   3.901   5.456   5.391  1.0035  0.7723 -2.7202
 1529TIP3   OH2 4550   3.123   6.516   4.085  0.4564  0.0504  0.0250
 1529TIP3    H1 4551   3.187   6.446   4.069  1.9332  1.2434  0.4035
 1529TIP3    H2 4552   3.112   6.559   4.000  1.3292  0.7499  0.2425
 1530TIP3   OH2 4553   4.858   3.197   0.236  0.6932 -0.0982 -0.0788
 1530TIP3    H1 4554   4.787   3.253   0.206  1.8245  0.6462 -1.4640
 1530TIP3    H2 4555   4.829   3.108   0.215 -0.6398  0.0010  1.1610
 1531TIP3   OH2 4556   2.164   4.294   3.350  0.5040  0.1679  0.3577
 1531TIP3    H1 4557   2.235   4.286   3.287  0.1666 -2.7797  0.2093
 1531TIP3    H2 4558   2.173   4.218   3.407 -2.5928 -0.4860  0.1995
 1532TIP3   OH2 4559   2.381   3.408   2.337 -0.2583 -0.1528 -0.0205
 1532TIP3    H1 4560   2.303   3.463   2.335 -1.3953 -1.6378 -2.9963
 1532TIP3    H2 4561   2.351   3.326   2.377  0.3206 -0.0533  0.6248
 1533TIP3   OH2 4562   6.437   4.646   2.416 -0.0827 -0.1887  0.1176
 1533TIP3    H1 4563   6.379   4.594   2.471 -2.7286  1.9999 -0.3695
 1533TIP3    H2 4564   6.454   4.725   2.467 -0.7500  0.8797 -1.2239
 1534TIP3   OH2 4565   1.374   6.155   5.018  0.5003 -0.1152 -0.2695
 1534TIP3    H1 4566   1.281   6.169   4.999 -0.0005 -1.5217  0.9678
 1534TIP3    H2 4567   1.416   6.148   4.932 -0.5405  0.4687 -0.8411
 1535TIP3   OH2 4568   6.758   2.894   4.057 -0.4075  0.0827  0.2435
 1535TIP3    H1 4569   6.674   2.931   4.084 -1.1769 -0.8051 -0.8619
 1535TIP3    H2 4570   6.812   2.971   4.037 -1.5034  0.6604 -0.6281
 1536TIP3   OH2 4571   1.868   0.545   3.503 -0.4604  0.4565  0.4255
 1536TIP3    H1 4572   1.801   0.610   3.482 -0.3538  0.3931 -0.1557
 1536TIP3    H2 4573   1.939   0.564   3.441 -0.4068 -0.1728  0.2847
 1537TIP3   OH2 4574   5.899   2.109   4.934  0.5203  0.0402 -0.4847
 1537TIP3    H1 4575   5.819   2.072   4.896 -0.2420 -0.5417  1.5602
 1537TIP3    H2 4576   5.936   2.162   4.864 -0.8556 -0.8735 -1.9823
 1538TIP3   OH2 4577   3.388   4.726   5.305  0.0333  0.5433  0.1945
 1538TIP3    H1 4578   3.327   4.771   5.364 -1.1808  0.1582 -0.7199
 1538TIP3    H2 4579   3.334   4.702   5.230  0.5514 -2.6271  0.7154
 1539TIP3   OH2 4580   0.192   5.772   4.808  0.3139 -0.4437  0.1894
 1539TIP3    H1 4581   0.229   5.687   4.784 -0.2146 -1.3094  2.1617
 1539TIP3    H2 4582   0.179   5.818   4.725 -0.3679 -2.7036 -1.0411
 1540TIP3   OH2 4583   3.143   3.847   0.055  0.0100  0.4075  0.1068
 1540TIP3    H1 4584   3.076   3.834  -0.012 -0.8427  0.6652  0.8962
 1540TIP3    H2 4585   3.211   3.898   0.011 -0.7504  0.9815 -0.4271
 1541TIP3   OH2 4586   1.098   0.593   3.123 -0.2433 -0.5672 -0.3627
 1541TIP3    H1 4587   1.169   0.612   3.184  0.2496 -1.2839 -0.6948
 1541TIP3    H2 4588   1.018   0.612   3.173  0.1647 -0.3992  0.2437
 1542TIP3   OH2 4589   0.186   1.019   4.045 -0.1336 -0.1675  0.4428
 1542TIP3    H1 4590   0.138   1.069   4.111  0.4048  0.3298  0.4622
 1542TIP3    H2 4591   0.247   0.965   4.095  1.0045  0.9729  0.3245
 1543TIP3   OH2 4592   0.788   4.779   1.336  0.2816  0.5743 -0.8377
 1543TIP3    H1 4593   0.884   4.778   1.336  0.2917  0.0182 -2.1536
 1543TIP3    H2 4594   0.764   4.791   1.244 -0.9269 -2.1757 -0.9685
 1544TIP3   OH2 4595   3.157   3.740   1.612  0.3177 -0.4144 -0.1855
 1544TIP3    H1 4596   3.227   3.697   1.662 -0.0989  0.0393  0.8139
 1544TIP3    H2 4597   3.186   3.831   1.604 -1.6035  0.6582  3.1778
 1545TIP3   OH2 4598   4.801   5.504   3.730 -0.2654  0.5645 -0.1986
 1545TIP3    H1 4599   4.897   5.508   3.727 -0.3051  1.1415 -1.0094
 1545TIP3    H2 4600   4.781   5.412   3.744  0.4356  0.6647  1.8118
 1546TIP3   OH2 4601   5.188   2.877   2.978 -0.3575  0.1191 -0.1908
 1546TIP3    H1 4602   5.154   2.872   2.889  0.8047  3.1599 -0.9471
 1546TIP3    H2 4603   5.255   2.809   2.983 -2.0020 -1.6411 -0.7853
 1547TIP3   OH2 4604   5.940   5.758   4.916  0.6766 -0.1661  0.3300
 1547TIP3    H1 4605   6.009   5.823   4.930  0.2036  0.6458 -1.0209
 1547TIP3    H2 4606   5.860   5.809   4.906  0.4942 -0.8447 -2.0839
 1548TIP3   OH2 4607   1.643   5.775   1.826 -0.5699 -0.1519  0.2024
 1548TIP3    H1 4608   1.654   5.856   1.775  0.6219 -0.6516 -0.3436
 1548TIP3    H2 4609   1.559   5.740   1.795 -0.8614  0.6178  0.0853
 1549TIP3   OH2 4610   6.995   1.139   0.518  0.4721  0.7525 -0.0088
 1549TIP3    H1 4611   7.002   1.048   0.491  2.2282  1.0538 -0.7309
 1549TIP3    H2 4612   7.003   1.137   0.613  0.8394  0.1706 -0.0460
 1550TIP3   OH2 4613   4.232   2.646   5.467  0.3677  0.2359  0.0009
 1550TIP3    H1 4614   4.293   2.720   5.464  0.0443  0.6795  2.5036
 1550TIP3    H2 4615   4.277   2.579   5.519 -1.6936  1.1055  3.1457
 1551TIP3   OH2 4616   0.282   4.447   1.235 -0.6275 -0.4618  0.5668
 1551TIP3    H1 4617   0.240   4.498   1.166  1.3995  0.5710  0.0037
 1551TIP3    H2 4618   0.225   4.457   1.311 -1.2971  1.0415 -0.0943
 1552TIP3   OH2 4619   6.253   4.445   1.184  0.3217 -0.3180  0.1187
 1552TIP3    H1 4620   6.212   4.469   1.267 -0.6201 -0.9394 -0.1503
 1552TIP3    H2 4621   6.224   4.355   1.168  0.3959 -0.1653 -0.9354
 1553TIP3   OH2 4622   2.467   6.716   1.319  0.1616  0.2759 -0.1169
 1553TIP3    H1 4623   2.529   6.650   1.350 -1.0178  0.2680  2.4049
 1553TIP3    H2 4624   2.521   6.793   1.301  1.0100  0.0189  1.2519
 1554TIP3   OH2 4625   1.841   0.216   0.939  0.0287 -0.0553  0.0287
 1554TIP3    H1 4626   1.795   0.168   0.870  0.5424 -0.6974  0.1157
 1554TIP3    H2 4627   1.801   0.303   0.939  0.5788  0.2443 -1.6568
 1555TIP3   OH2 4628   2.884   3.219   4.966 -0.5284  0.0893  0.0872
 1555TIP3    H1 4629   2.951   3.155   4.991  1.3123  1.3974 -1.2784
 1555TIP3    H2 4630   2.887   3.221   4.871 -2.5516  0.1924 -0.0123
 1556TIP3   OH2 4631   3.850   4.674   2.398 -0.0252  0.4310  0.0285
 1556TIP3    H1 4632   3.921   4.664   2.461  0.0870  2.2366  0.2319
 1556TIP3    H2 4633   3.849   4.591   2.350  0.1824 -0.8001  2.0665
 1557TIP3   OH2 4634   6.826   4.027   2.037  0.2599 -0.3183 -0.3108
 1557TIP3    H1 4635   6.845   4.091   2.105 -0.3445  0.3323 -0.7431
 1557TIP3    H2 4636   6.881   3.951   2.059 -0.4079 -0.3790  1.2864
 1558TIP3   OH2 4637   5.379   4.083   2.199 -0.3017  0.0113 -0.5021
 1558TIP3    H1 4638   5.331   4.015   2.246  0.0742 -1.2088 -1.8106
 1558TIP3    H2 4639   5.469   4.052   2.197 -0.0528  0.7323 -0.8009
 1559TIP3   OH2 4640   0.912   5.430   1.843  0.4383  0.3051  0.4265
 1559TIP3    H1 4641   0.870   5.464   1.922  0.7183  1.8079 -0.0392
 1559TIP3    H2 4642   0.891   5.337   1.843 -1.9439  0.7900  0.7961
 1560TIP3   OH2 4643   4.998   6.743   1.778  0.3485  0.7944 -0.2221
 1560TIP3    H1 4644   5.089   6.715   1.789  0.2438  1.1904  2.5327
 1560TIP3    H2 4645   4.988   6.817   1.839 -2.4067 -0.7929  1.4701
 1561TIP3   OH2 4646   5.027   2.675   5.071  0.4978 -0.3831 -0.0766
 1561TIP3    H1 4647   5.051   2.584   5.089  0.0550 -0.6339 -0.6853
 1561TIP3    H2 4648   5.011   2.677   4.976 -0.2406  0.1431  0.0431
 1562TIP3   OH2 4649   7.191   2.370   2.709 -0.3398  0.1208  0.6310
 1562TIP3    H1 4650   7.167   2.354   2.618 -1.3506  0.5940  0.8004
 1562TIP3    H2 4651   7.158   2.293   2.757  0.7496 -0.4369  0.5352
 1563TIP3   OH2 4652   4.037   3.557   3.179  0.1643  0.2029  0.1000
 1563TIP3    H1 4653   3.952   3.595   3.200  0.0200 -0.8835  1.6434
 1563TIP3    H2 4654   4.099   3.629   3.189 -0.2648  0.4017  1.5924
 1564TIP3   OH2 4655   1.904   2.571   2.358 -0.0556  0.3816 -0.2227
 1564TIP3    H1 4656   1.934   2.609   2.275  1.0670  0.6531  0.2849
 1564TIP3    H2 4657   1.822   2.617   2.377  1.0381  2.2768  0.1463
 1565TIP3   OH2 4658   0.057   6.150   4.385  0.4239  0.1458 -0.4555
 1565TIP3    H1 4659   0.120   6.211   4.347  0.8482 -0.7277 -1.2066
 1565TIP3    H2 4660   0.076   6.066   4.342 -0.6026 -0.3582  0.0303
 1566TIP3   OH2 4661   2.601   0.031   3.307 -0.2374 -0.1395  0.5377
 1566TIP3    H1 4662   2.686   0.070   3.329 -0.8859  1.4996  0.2772
 1566TIP3    H2 4663   2.568   0.085   3.235 -1.5303 -0.7122  0.6808
 1567TIP3   OH2 4664   2.965   0.380   1.848  0.4532  0.4348 -1.1278
 1567TIP3    H1 4665   2.881   0.385   1.802 -1.5168 -1.1718  1.8956
 1567TIP3    H2 4666   2.955   0.442   1.921  1.3130 -0.6894 -0.0016
 1568TIP3   OH2 4667   5.885   6.046   0.433  0.1271 -0.0528 -0.0851
 1568TIP3    H1 4668   5.821   6.099   0.479 -0.9788 -1.2529 -0.1594
 1568TIP3    H2 4669   5.936   6.108   0.381 -1.1118  0.9240 -0.1771
 1569TIP3   OH2 4670   4.791   4.531   3.412  0.0633 -0.3137  0.1941
 1569TIP3    H1 4671   4.818   4.469   3.344  0.1790 -0.8475  0.7164
 1569TIP3    H2 4672   4.696   4.535   3.404  0.2185  1.3492 -1.4621
 1570TIP3   OH2 4673   2.153   2.138   2.399  0.6674  0.6123  0.2438
 1570TIP3    H1 4674   2.102   2.162   2.321 -0.5405  1.5587  1.2925
 1570TIP3    H2 4675   2.104   2.065   2.438  1.0489  0.4055  0.3397
 1571TIP3   OH2 4676   4.981   0.350   5.009 -1.1486 -0.0653  0.2769
 1571TIP3    H1 4677   5.052   0.305   4.963 -1.0502 -0.5516  0.8889
 1571TIP3    H2 4678   4.950   0.286   5.073 -1.7658  0.3454  0.3970
 1572TIP3   OH2 4679   2.165   2.445   3.535  0.4942  0.3192  1.0485
 1572TIP3    H1 4680   2.246   2.395   3.523 -0.6733 -1.8021  1.5858
 1572TIP3    H2 4681   2.155   2.452   3.630 -0.4567 -0.3127  1.0032
 1573TIP3   OH2 4682   4.733   5.379   5.833  0.4968 -0.0409  0.1958
 1573TIP3    H1 4683   4.753   5.470   5.852  0.3813  0.4321 -1.7434
 1573TIP3    H2 4684   4.743   5.371   5.738 -1.8020 -1.4304 -0.0200
 1574TIP3   OH2 4685   7.062   2.879   2.235 -0.0036  0.0325 -0.1901
 1574TIP3    H1 4686   7.042   2.838   2.319 -0.3296  0.4097 -0.0840
 1574TIP3    H2 4687   7.034   2.969   2.244 -0.7421 -0.1053 -0.9507
 1575TIP3   OH2 4688   3.598   5.008   2.045 -0.0181 -0.0124 -0.7256
 1575TIP3    H1 4689   3.606   5.073   1.974  0.4261 -0.7494 -1.3596
 1575TIP3    H2 4690   3.587   5.061   2.124 -0.4247  0.8320 -1.3254
 1576TIP3   OH2 4691   3.284   6.422   5.179  0.2803 -0.1910 -0.2156
 1576TIP3    H1 4692   3.219   6.461   5.237  2.4547  2.5788  0.6163
 1576TIP3    H2 4693   3.352   6.389   5.238  0.8865 -0.5455 -1.0848
 1577TIP3   OH2 4694   1.483   3.501   4.300  0.0108  0.5538  0.2524
 1577TIP3    H1 4695   1.562   3.486   4.248  0.3671 -0.4965  1.0493
 1577TIP3    H2 4696   1.491   3.590   4.332 -1.0866  1.9211 -2.8836
 1578TIP3   OH2 4697   6.499   6.633   0.634 -0.2740 -0.6989  0.1956
 1578TIP3    H1 4698   6.500   6.649   0.540  1.4924 -0.3741  0.2379
 1578TIP3    H2 4699   6.414   6.592   0.651 -1.6473  1.4688 -1.1354
 1579TIP3   OH2 4700   6.943   3.135   3.748 -0.4445 -0.0409  0.0623
 1579TIP3    H1 4701   6.905   3.220   3.727 -0.4122  1.1906  4.1294
 1579TIP3    H2 4702   7.018   3.127   3.689  0.0980  3.2093  0.1096
 1580TIP3   OH2 4703   6.148   5.258   1.941 -0.3325 -0.6841 -0.5445
 1580TIP3    H1 4704   6.165   5.339   1.987 -1.2949 -0.4601 -0.5762
 1580TIP3    H2 4705   6.112   5.199   2.007  0.0522 -0.9863 -0.5958
 1581TIP3   OH2 4706   5.750   5.827   1.513  0.0405  0.4803  0.8473
 1581TIP3    H1 4707   5.809   5.881   1.565  1.1387  3.4422 -2.9692
 1581TIP3    H2 4708   5.799   5.747   1.497  0.5083  0.3897  2.5570
 1582TIP3   OH2 4709   3.513   2.988   2.647 -0.2171  0.6788  0.2229
 1582TIP3    H1 4710   3.476   2.913   2.600 -2.4450  2.6037 -1.3250
 1582TIP3    H2 4711   3.554   3.041   2.579  1.3943  0.8789  1.3013
 1583TIP3   OH2 4712   0.704   1.049   5.303  0.1585 -0.1094  0.0806
 1583TIP3    H1 4713   0.776   1.040   5.365 -0.8150 -0.5816  1.1823
 1583TIP3    H2 4714   0.668   0.960   5.295 -0.0400  0.0412 -0.7802
 1584TIP3   OH2 4715   2.851   2.816   4.301 -0.2549  0.8251  0.3307
 1584TIP3    H1 4716   2.825   2.864   4.222 -0.0962  0.3409 -0.0180
 1584TIP3    H2 4717   2.775   2.761   4.322 -0.3103  0.9778  0.5387
 1585TIP3   OH2 4718   0.452   2.588   1.899 -1.2035  0.3878  0.2382
 1585TIP3    H1 4719   0.385   2.520   1.889 -1.3977  0.6228 -0.0961
 1585TIP3    H2 4720   0.474   2.587   1.992  0.1540 -1.4129 -0.0299
 1586TIP3   OH2 4721   4.039   5.306   4.065 -0.3151 -0.5216 -0.3607
 1586TIP3    H1 4722   4.026   5.347   4.151 -1.9436  1.3282 -1.3988
 1586TIP3    H2 4723   4.131   5.323   4.044 -0.6458  1.8159 -0.2748
 1587TIP3   OH2 4724   3.383   0.718   2.175  0.2021  0.7319  0.2476
 1587TIP3    H1 4725   3.465   0.741   2.218  0.6086  0.3534 -0.2981
 1587TIP3    H2 4726   3.388   0.761   2.089  0.4185 -0.3295 -0.2939
 1588TIP3   OH2 4727   4.867   1.200   5.254  0.0205  0.4207  0.6155
 1588TIP3    H1 4728   4.776   1.187   5.226  0.1158 -0.7020  0.7785
 1588TIP3    H2 4729   4.868   1.168   5.345  0.7514 -0.3308  0.3527
 1589TIP3   OH2 4730   0.779   6.167   1.516 -0.1063 -0.2194 -0.1921
 1589TIP3    H1 4731   0.749   6.151   1.605  0.4862  2.0560  0.4855
 1589TIP3    H2 4732   0.834   6.091   1.495 -0.6508 -1.0249  1.1831
 1590TIP3   OH2 4733   3.572   4.293   5.893  0.1383  0.2780  0.1743
 1590TIP3    H1 4734   3.575   4.327   5.803 -1.1375 -1.0228 -0.3994
 1590TIP3    H2 4735   3.504   4.345   5.936  0.0576  0.2408  0.0911
 1591TIP3   OH2 4736   1.777   2.394   4.210 -0.7708  0.4730  0.1429
 1591TIP3    H1 4737   1.698   2.406   4.158 -0.7320  2.5641  0.5005
 1591TIP3    H2 4738   1.788   2.476   4.257  0.4239 -0.5641  1.7813
 1592TIP3   OH2 4739   3.223   3.321   4.842  0.1276  0.3551  0.1819
 1592TIP3    H1 4740   3.302   3.288   4.798  0.2665  0.3866  0.4055
 1592TIP3    H2 4741   3.199   3.251   4.904 -0.0854  0.2968  0.0334
 1593TIP3   OH2 4742   2.543   2.840   2.312  0.5366  0.0251  0.1903
 1593TIP3    H1 4743   2.612   2.869   2.372  0.4642  2.9493 -0.9871
 1593TIP3    H2 4744   2.563   2.748   2.295  1.9481 -0.2368  2.7638
 1594TIP3   OH2 4745   4.157   4.397   1.445 -0.5534  0.1882 -0.4379
 1594TIP3    H1 4746   4.174   4.377   1.537  1.5251 -2.0300 -1.2042
 1594TIP3    H2 4747   4.080   4.344   1.423  0.5507 -1.4278 -0.5894
 1595TIP3   OH2 4748   0.004   4.151   3.355 -0.3092 -1.0149  0.1716
 1595TIP3    H1 4749   0.088   4.125   3.317  1.0245  3.7645 -0.8318
 1595TIP3    H2 4750   0.024   4.168   3.447  0.5200  1.8455 -0.4205
 1596TIP3   OH2 4751   5.479   0.635   5.668  0.3355  1.0692 -0.0186
 1596TIP3    H1 4752   5.571   0.648   5.644  0.0373  0.7155 -1.4120
 1596TIP3    H2 4753   5.453   0.557   5.621 -0.5923  0.9561  0.6615
 1597TIP3   OH2 4754   2.459   3.117   3.607  0.4789  0.7844 -0.2016
 1597TIP3    H1 4755   2.394   3.047   3.593 -0.6811  1.1935  2.3967
 1597TIP3    H2 4756   2.464   3.163   3.523 -0.8754 -0.6683 -1.1402
 1598TIP3   OH2 4757   7.144   5.738   4.874  0.6996 -0.0879  0.4168
 1598TIP3    H1 4758   7.107   5.820   4.907  0.4419  0.0751 -0.2623
 1598TIP3    H2 4759   7.232   5.761   4.846 -0.0715  0.4814 -1.7585
 1599TIP3   OH2 4760   2.940   1.381   2.836  0.1711 -0.5366 -0.2833
 1599TIP3    H1 4761   2.858   1.375   2.786 -0.9714  0.5276  1.3520
 1599TIP3    H2 4762   2.982   1.461   2.804 -0.9243  0.5568  0.8899
 1600TIP3   OH2 4763   2.092   1.447   4.009 -0.5360  0.3005  0.2651
 1600TIP3    H1 4764   2.057   1.494   3.933 -0.2367  2.8569  1.5908
 1600TIP3    H2 4765   2.019   1.446   4.072 -0.6541 -1.4264  0.1350
 1601TIP3   OH2 4766   3.931   4.539   5.501 -0.6295 -0.4534  0.2735
 1601TIP3    H1 4767   3.879   4.505   5.428 -0.9239  0.0870  0.2234
 1601TIP3    H2 4768   4.018   4.555   5.464 -0.5445 -0.9521  0.2501
 1602TIP3   OH2 4769   4.769   3.458   5.025  0.5309 -0.0586  0.2226
 1602TIP3    H1 4770   4.734   3.375   5.057  1.1387 -0.5851 -0.4821
 1602TIP3    H2 4771   4.863   3.452   5.040  0.6315  0.3195 -0.2575
 1603TIP3   OH2 4772   2.717   4.684   0.217  0.4553  0.6286 -0.9170
 1603TIP3    H1 4773   2.810   4.700   0.236  0.3112  0.6937 -0.2366
 1603TIP3    H2 4774   2.676   4.679   0.303  0.2065 -1.8340 -1.1163
 1604TIP3   OH2 4775   1.853   0.468   5.473  0.2210 -0.3550 -0.0638
 1604TIP3    H1 4776   1.853   0.563   5.459  1.5806 -0.2491  0.4671
 1604TIP3    H2 4777   1.863   0.431   5.386 -1.1078 -0.0584 -0.3671
 1605TIP3   OH2 4778   3.215   4.709   4.470  0.7066  0.2351 -0.5346
 1605TIP3    H1 4779   3.161   4.760   4.410  1.3763 -0.0565 -1.3996
 1605TIP3    H2 4780   3.152   4.656   4.518  0.1677  0.3204 -1.1296
 1606TIP3   OH2 4781   2.380   0.864   0.160 -0.2567 -0.7524 -0.3870
 1606TIP3    H1 4782   2.416   0.818   0.084 -0.3929  1.4600 -1.8794
 1606TIP3    H2 4783   2.287   0.875   0.141 -0.1042  0.7303 -0.4498
 1607TIP3   OH2 4784   6.095   4.323   3.576 -0.8285 -0.3835 -0.7293
 1607TIP3    H1 4785   6.134   4.240   3.600  1.5671  0.8592 -0.0144
 1607TIP3    H2 4786   6.030   4.340   3.644  0.3413 -0.5986  0.4791
 1608TIP3   OH2 4787   2.083   2.778   1.677  0.5091  0.1775  0.1365
 1608TIP3    H1 4788   2.104   2.692   1.643 -0.0165 -0.5439  1.5434
 1608TIP3    H2 4789   2.149   2.836   1.638  0.2666 -0.6542 -1.6068
 1609TIP3   OH2 4790   4.319   6.351   3.754  0.0992 -0.3992  0.5440
 1609TIP3    H1 4791   4.415   6.347   3.748  0.1622  0.0652  1.1447
 1609TIP3    H2 4792   4.293   6.262   3.777  0.4250 -0.4153  0.8568
 1610TIP3   OH2 4793   0.306   3.330   2.565  0.3063 -0.3002 -0.3175
 1610TIP3    H1 4794   0.332   3.376   2.486  3.4235 -0.6043  0.4064
 1610TIP3    H2 4795   0.327   3.391   2.636 -0.5718 -0.7979  0.3942
 1611TIP3   OH2 4796   7.047   6.470   3.293  0.0036  0.1571  0.3976
 1611TIP3    H1 4797   6.971   6.492   3.348 -1.1886 -1.2569 -0.5870
 1611TIP3    H2 4798   7.041   6.530   3.219  0.9652  1.3148  1.2378
 1612TIP3   OH2 4799   6.598   6.052   3.667  0.3732 -0.0166 -0.4817
 1612TIP3    H1 4800   6.601   6.135   3.715  1.7572  0.3577 -1.1722
 1612TIP3    H2 4801   6.528   6.063   3.604  0.8737  0.8238 -0.8996
 1613TIP3   OH2 4802   0.583   1.234   2.669 -0.0096  0.3088 -0.0592
 1613TIP3    H1 4803   0.600   1.145   2.638 -0.5232  0.1944 -0.0240
 1613TIP3    H2 4804   0.647   1.248   2.739  0.7458  0.3444 -0.7400
 1614TIP3   OH2 4805   3.934   6.144   1.660  0.1934 -0.1596  0.2381
 1614TIP3    H1 4806   3.931   6.177   1.570  2.3413  0.3684  0.2865
 1614TIP3    H2 4807   3.927   6.049   1.652 -2.1776  0.0144 -0.2376
 1615TIP3   OH2 4808   5.621   3.619   0.908 -0.8781  0.2111  0.0911
 1615TIP3    H1 4809   5.649   3.536   0.945 -1.0024  0.1901  0.1381
 1615TIP3    H2 4810   5.639   3.612   0.815 -0.0514  0.4689  0.2187
 1616TIP3   OH2 4811   0.283   4.515   4.656  0.0799  0.6591 -0.0264
 1616TIP3    H1 4812   0.323   4.599   4.677  0.0171  0.8975 -0.8293
 1616TIP3    H2 4813   0.260   4.522   4.563  0.5457 -0.4327 -0.2305
 1617TIP3   OH2 4814   7.061   0.892   5.231 -0.3243 -0.3942  0.0158
 1617TIP3    H1 4815   6.987   0.945   5.200 -1.3400 -1.4326  0.5767
 1617TIP3    H2 4816   7.138   0.941   5.204 -1.2160  1.2681  0.3228
 1618TIP3   OH2 4817   5.887   5.726   2.334 -0.0230  0.0831 -0.4729
 1618TIP3    H1 4818   5.871   5.632   2.323 -0.2229 -0.2200  1.8028
 1618TIP3    H2 4819   5.801   5.766   2.321  0.3323  0.2011 -3.0007
 1619TIP3   OH2 4820   5.605   5.930   5.768  0.3303 -0.3909 -0.1935
 1619TIP3    H1 4821   5.663   5.952   5.695 -1.2096 -0.0195 -1.3320
 1619TIP3    H2 4822   5.604   5.834   5.770  1.5280 -0.4165  0.3140
 1620TIP3   OH2 4823   3.060   4.334   1.033 -0.0845  0.0076 -0.1309
 1620TIP3    H1 4824   3.073   4.422   0.998 -1.4699  0.3283  0.0871
 1620TIP3    H2 4825   3.053   4.278   0.956  0.1678  0.1938 -0.2895
 1621TIP3   OH2 4826   1.187   0.990   5.711 -0.1491  0.1070  0.0124
 1621TIP3    H1 4827   1.177   0.985   5.616  1.4870 -0.2990 -0.1643
 1621TIP3    H2 4828   1.102   1.023   5.742 -1.2872 -1.2898 -1.4303
 1622TIP3   OH2 4829   4.106   0.238   3.899 -0.0878 -0.0520  0.0892
 1622TIP3    H1 4830   4.167   0.287   3.843 -0.3340  0.0863 -0.0593
 1622TIP3    H2 4831   4.138   0.148   3.897  1.1155  0.3053  1.3545
 1623TIP3   OH2 4832   1.334   3.922   4.229  0.2515 -0.1956 -0.0824
 1623TIP3    H1 4833   1.267   3.860   4.201  0.0681  0.4351 -1.0713
 1623TIP3    H2 4834   1.405   3.911   4.165  0.8231 -0.3875  0.5707
 1624TIP3   OH2 4835   6.577   1.398   2.309  0.7104  0.0787  0.0747
 1624TIP3    H1 4836   6.542   1.312   2.333  1.5127  0.2475  1.9951
 1624TIP3    H2 4837   6.544   1.457   2.377  1.6189  0.9488 -0.2224
 1625TIP3   OH2 4838   2.370   2.089   0.434 -0.8106 -0.3498 -0.0889
 1625TIP3    H1 4839   2.320   2.069   0.355 -0.8900 -0.4021 -0.0260
 1625TIP3    H2 4840   2.375   2.184   0.436  0.3602 -0.3727 -0.8858
 1626TIP3   OH2 4841   3.777   6.034   2.228 -0.1992 -0.0127  0.0269
 1626TIP3    H1 4842   3.727   6.076   2.158  1.5988  1.5822 -0.3726
 1626TIP3    H2 4843   3.718   5.966   2.261 -3.7264  3.3335  1.3485
 1627TIP3   OH2 4844   2.229   6.076   1.614  0.4021 -0.3170  0.8596
 1627TIP3    H1 4845   2.299   6.114   1.562  1.1249 -0.6546  1.5576
 1627TIP3    H2 4846   2.205   5.996   1.568 -1.5191  1.1873 -0.9279
 1628TIP3   OH2 4847   3.901   0.794   4.757 -0.0507 -0.1548  0.5631
 1628TIP3    H1 4848   3.954   0.721   4.725  1.4065  0.2178  1.9638
 1628TIP3    H2 4849   3.863   0.763   4.839  1.9272  1.1131  2.0560
 1629TIP3   OH2 4850   5.038   4.890   2.788 -0.1919  0.2590 -0.2293
 1629TIP3    H1 4851   5.014   4.877   2.880  1.0749 -0.3834  0.0460
 1629TIP3    H2 4852   5.072   4.804   2.761 -2.0922 -0.0503 -1.8210
 1630TIP3   OH2 4853   2.476   3.396   0.648 -0.0368  0.1413  0.0358
 1630TIP3    H1 4854   2.542   3.449   0.694  0.5100 -0.2171 -0.3144
 1630TIP3    H2 4855   2.392   3.431   0.677  0.3035  0.3511  0.8083
 1631TIP3   OH2 4856   4.063   0.538   5.345  0.2365 -0.5671 -0.7236
 1631TIP3    H1 4857   4.084   0.462   5.290  1.4529 -0.1519 -0.8749
 1631TIP3    H2 4858   4.106   0.520   5.428  0.9223  0.1448 -0.9108
 1632TIP3   OH2 4859   7.067   3.588   1.113  0.1138 -0.1200  0.1310
 1632TIP3    H1 4860   6.991   3.644   1.126 -0.2835 -0.5962 -0.1061
 1632TIP3    H2 4861   7.118   3.630   1.044 -0.6390 -0.5096 -0.6780
 1633TIP3   OH2 4862   3.554   4.663   0.681 -0.2526 -0.1512  0.5449
 1633TIP3    H1 4863   3.551   4.701   0.769  1.3764  0.6763  0.2781
 1633TIP3    H2 4864   3.510   4.728   0.626 -2.1674 -1.1219  0.8544
 1634TIP3   OH2 4865   6.567   4.552   0.763  0.0162 -0.1486  0.0721
 1634TIP3    H1 4866   6.615   4.613   0.819  1.5678 -0.0165 -1.3173
 1634TIP3    H2 4867   6.611   4.557   0.678 -2.5003 -0.0375 -1.3271
 1635TIP3   OH2 4868   4.012   5.846   4.364 -0.4101 -0.2554  0.2170
 1635TIP3    H1 4869   3.932   5.856   4.312  0.9582 -1.1525 -2.1696
 1635TIP3    H2 4870   4.017   5.928   4.414 -2.0534  0.4435 -0.6518
 1636TIP3   OH2 4871   2.921   6.598   5.182  0.4447 -0.5196 -0.0072
 1636TIP3    H1 4872   2.935   6.534   5.112  1.9551 -0.7008  0.4303
 1636TIP3    H2 4873   2.832   6.630   5.167  0.3030 -1.4208 -1.2933
 1637TIP3   OH2 4874   2.925   0.369   1.461 -0.0984  0.1287 -0.1226
 1637TIP3    H1 4875   2.887   0.308   1.398  1.1307 -1.5898  0.7157
 1637TIP3    H2 4876   2.873   0.357   1.540  0.7662 -0.6477  0.3587
 1638TIP3   OH2 4877   3.371   6.591   2.702 -0.3364 -0.1095 -0.5938
 1638TIP3    H1 4878   3.369   6.515   2.760  3.1411  0.7782  0.9145
 1638TIP3    H2 4879   3.417   6.559   2.624  0.5028  0.2171 -0.2462
 1639TIP3   OH2 4880   6.718   2.673   3.532 -0.0021 -0.2625 -0.5256
 1639TIP3    H1 4881   6.756   2.753   3.567  0.9654 -0.9500  0.0709
 1639TIP3    H2 4882   6.626   2.694   3.516  0.0170  0.6790  0.5048
 1640TIP3   OH2 4883   2.284   4.441   1.812  0.0048  0.2577  0.1624
 1640TIP3    H1 4884   2.301   4.365   1.757  0.1403  0.8468 -0.6270
 1640TIP3    H2 4885   2.371   4.480   1.826 -0.2759  1.4308 -1.1699
 1641TIP3   OH2 4886   6.094   0.903   1.975  0.0995  0.2283  0.3981
 1641TIP3    H1 4887   6.118   0.843   2.045  0.3359 -0.5061 -0.2876
 1641TIP3    H2 4888   6.140   0.869   1.898  0.0333  1.1477 -0.0627
 1642TIP3   OH2 4889   0.956   5.848  -0.005  0.3810 -0.8259 -0.0147
 1642TIP3    H1 4890   0.944   5.942  -0.020 -0.6488 -0.8174  0.7379
 1642TIP3    H2 4891   0.982   5.841   0.086  0.1971 -1.2850  0.0063
 1643TIP3   OH2 4892   0.750   3.884   5.130 -0.1096 -0.6287  0.0003
 1643TIP3    H1 4893   0.709   3.944   5.193  0.8370 -0.4498  0.4565
 1643TIP3    H2 4894   0.680   3.865   5.067 -0.2442  1.4546 -0.5454
 1644TIP3   OH2 4895   7.075   3.457   4.906 -0.0624  0.0320  0.2778
 1644TIP3    H1 4896   7.129   3.384   4.875  0.5376  0.7567 -0.4428
 1644TIP3    H2 4897   7.098   3.530   4.848  0.5891  1.2710  2.0118
 1645TIP3   OH2 4898   2.953   6.499   0.744 -0.2916 -0.1566 -0.3000
 1645TIP3    H1 4899   2.988   6.522   0.658 -1.4142 -1.7465 -1.2345
 1645TIP3    H2 4900   3.031   6.482   0.797  0.6839  4.9735  0.4390
 1646TIP3   OH2 4901   3.417   2.632   0.582  0.2291 -0.1691 -0.6090
 1646TIP3    H1 4902   3.397   2.545   0.548  1.6286 -0.1260 -1.6753
 1646TIP3    H2 4903   3.475   2.617   0.656 -0.2264 -0.1705 -0.2533
 1647TIP3   OH2 4904   6.216   2.213   4.554  0.1959 -0.7906  0.3398
 1647TIP3    H1 4905   6.268   2.278   4.506  0.3253 -0.5034  0.8543
 1647TIP3    H2 4906   6.280   2.147   4.581  0.2127 -0.6901  0.5495
 1648TIP3   OH2 4907   0.244   5.432   1.409  0.3679  0.5687  0.1137
 1648TIP3    H1 4908   0.148   5.426   1.409  0.4071 -0.0459 -0.4274
 1648TIP3    H2 4909   0.264   5.473   1.493 -0.4030  1.2874 -0.0372
 1649TIP3   OH2 4910   2.831   6.058   5.550  0.5245  0.0910 -0.1455
 1649TIP3    H1 4911   2.791   6.142   5.529 -0.5685 -0.2114  0.6327
 1649TIP3    H2 4912   2.918   6.062   5.511 -0.1007  0.9403 -1.5305
 1650TIP3   OH2 4913   5.363   1.678   2.493  0.3954 -0.3502 -0.1859
 1650TIP3    H1 4914   5.298   1.651   2.557  0.2564  0.1991 -0.0849
 1650TIP3    H2 4915   5.434   1.716   2.545  0.2010  0.2667 -0.3539
 1651TIP3   OH2 4916   6.038   4.751   4.207 -0.3770 -0.4290 -0.2551
 1651TIP3    H1 4917   6.050   4.779   4.298  0.4781 -0.4539 -0.3554
 1651TIP3    H2 4918   6.099   4.805   4.157 -0.1209 -1.1092 -0.6903
 1652TIP3   OH2 4919   0.950   0.777   1.963  0.2690  0.2035  0.0801
 1652TIP3    H1 4920   0.953   0.714   2.036 -1.0758 -0.4345 -0.3867
 1652TIP3    H2 4921   0.901   0.852   1.997 -0.6451 -0.2314 -0.2466
 1653TIP3   OH2 4922   0.814   2.005   5.577  0.1316  0.5401  0.5779
 1653TIP3    H1 4923   0.815   2.070   5.648 -0.4016  0.0247  1.0716
 1653TIP3    H2 4924   0.906   1.993   5.554  0.3513  0.3725  1.5090
 1654TIP3   OH2 4925   4.868   2.621   5.290 -0.2749 -0.2655 -0.3141
 1654TIP3    H1 4926   4.952   2.603   5.333  1.1112 -1.2865 -3.1763
 1654TIP3    H2 4927   4.892   2.653   5.203 -2.8922  0.5283 -0.8271
 1655TIP3   OH2 4928   4.800   0.206   3.284  0.4401  0.0573 -0.0625
 1655TIP3    H1 4929   4.706   0.212   3.303 -0.0315  2.0596 -2.5127
 1655TIP3    H2 4930   4.835   0.155   3.357 -2.8426 -2.7660 -0.1958
 1656TIP3   OH2 4931   6.904   3.727   3.541  0.4961  0.0869 -0.1465
 1656TIP3    H1 4932   6.841   3.687   3.481  0.4798 -1.3259  0.7713
 1656TIP3    H2 4933   6.946   3.795   3.489 -1.5017  0.8192 -0.9153
 1657TIP3   OH2 4934   4.370   4.383   3.164 -0.5847 -1.2315  0.0112
 1657TIP3    H1 4935   4.366   4.372   3.069  2.9925 -0.2588 -0.4024
 1657TIP3    H2 4936   4.430   4.315   3.194 -0.0226 -0.2230  1.2702
 1658TIP3   OH2 4937   1.473   0.826   4.773  0.7564 -0.1830  0.0277
 1658TIP3    H1 4938   1.418   0.896   4.738 -1.0617 -1.2845  0.5389
 1658TIP3    H2 4939   1.486   0.766   4.700 -0.1606 -0.7505  0.3058
 1659TIP3   OH2 4940   7.217   0.389   0.600 -0.5137  0.4635 -0.3240
 1659TIP3    H1 4941   7.237   0.409   0.508 -0.9810  0.8709 -0.3374
 1659TIP3    H2 4942   7.166   0.308   0.595  1.1132 -0.6086 -0.2868
 1660TIP3   OH2 4943   5.281   2.651   0.045 -0.0136 -0.2256 -0.5763
 1660TIP3    H1 4944   5.239   2.727   0.085 -0.9334 -1.2318  0.4318
 1660TIP3    H2 4945   5.310   2.682  -0.041 -2.1311  0.7135 -1.0079
 1661TIP3   OH2 4946   6.214   2.504   3.652 -0.4107 -0.4075  0.0169
 1661TIP3    H1 4947   6.245   2.590   3.624 -1.9116  0.3941  0.7374
 1661TIP3    H2 4948   6.284   2.444   3.625  0.9808  1.1009  0.0976
 1662TIP3   OH2 4949   1.693   5.589   1.004 -0.2782  0.1507 -0.5555
 1662TIP3    H1 4950   1.701   5.507   1.053  0.7033  0.2298 -0.5729
 1662TIP3    H2 4951   1.659   5.651   1.068 -1.2554 -0.3104 -0.5998
 1663TIP3   OH2 4952   2.809   2.076   1.975 -0.6015  0.4001 -0.2254
 1663TIP3    H1 4953   2.843   2.015   1.910 -1.0008 -0.1880  0.1069
 1663TIP3    H2 4954   2.774   2.149   1.924  2.9641  2.0755 -0.5670
 1664TIP3   OH2 4955   2.411   5.764   5.631 -0.2699  0.2236  0.0438
 1664TIP3    H1 4956   2.486   5.815   5.661  0.0161  0.5539 -1.2000
 1664TIP3    H2 4957   2.339   5.828   5.629 -0.3640  0.1282  0.3034
 1665TIP3   OH2 4958   7.004   0.504   3.231  0.2476 -0.3575  0.1024
 1665TIP3    H1 4959   6.933   0.561   3.261 -0.5362 -0.3247 -1.6745
 1665TIP3    H2 4960   7.082   0.560   3.233 -0.3791  0.5934 -0.9184
 1666TIP3   OH2 4961   5.536   0.100   0.142  0.1187  0.1470 -0.1573
 1666TIP3    H1 4962   5.547   0.156   0.065  0.8033  0.3483  0.0777
 1666TIP3    H2 4963   5.503   0.017   0.107  1.0923 -0.0085 -0.7607
 1667TIP3   OH2 4964   5.776   4.784   1.504  0.0111 -0.1811  0.1709
 1667TIP3    H1 4965   5.793   4.816   1.593  1.1908 -0.9048  0.2289
 1667TIP3    H2 4966   5.838   4.832   1.449  0.0069 -0.4879 -0.1018
 1668TIP3   OH2 4967   0.649   6.475   2.852  0.4603 -0.7670 -0.1022
 1668TIP3    H1 4968   0.577   6.431   2.897  0.2116 -2.5414 -2.0830
 1668TIP3    H2 4969   0.607   6.524   2.781  0.9576  0.9469  0.7190
 1669TIP3   OH2 4970   3.636   4.895   1.577  0.0222  0.6703 -0.5460
 1669TIP3    H1 4971   3.560   4.850   1.540  0.5568  0.6513 -1.6702
 1669TIP3    H2 4972   3.611   4.988   1.575  0.2225  0.7233 -1.4656
 1670TIP3   OH2 4973   0.955   0.684   4.012 -0.3964  0.0549 -0.1391
 1670TIP3    H1 4974   1.030   0.672   3.954 -1.0462  3.2690 -1.9085
 1670TIP3    H2 4975   0.879   0.682   3.954 -1.5518 -1.0764  1.3198
 1671TIP3   OH2 4976   4.555   3.508   0.894 -0.5571  0.3525  0.4695
 1671TIP3    H1 4977   4.637   3.528   0.849 -3.1810  1.5411 -4.4449
 1671TIP3    H2 4978   4.504   3.589   0.890 -2.7368 -0.8514  1.5248
 1672TIP3   OH2 4979   4.236   5.641   5.751 -0.4160 -0.5996  0.0649
 1672TIP3    H1 4980   4.191   5.689   5.821  0.7083  0.3729  0.1463
 1672TIP3    H2 4981   4.294   5.581   5.796  1.3183  0.9732  0.0331
 1673TIP3   OH2 4982   6.252   2.189   5.247  0.5630 -0.0941  0.1667
 1673TIP3    H1 4983   6.249   2.112   5.189  0.2560  0.4806 -0.6112
 1673TIP3    H2 4984   6.165   2.227   5.239  0.8749  0.6240  0.1326
 1674TIP3   OH2 4985   2.786   5.010   0.893 -0.4274  0.0085 -0.0219
 1674TIP3    H1 4986   2.872   5.049   0.906 -0.5326  1.8300 -3.6426
 1674TIP3    H2 4987   2.725   5.083   0.899 -1.9245 -1.2850  2.7658
 1675TIP3   OH2 4988   2.492   3.409   5.518 -0.2610  0.1141 -0.0796
 1675TIP3    H1 4989   2.429   3.442   5.454  0.6766 -0.4662 -1.3317
 1675TIP3    H2 4990   2.463   3.320   5.537 -1.0621  0.5797  1.0401
 1676TIP3   OH2 4991   3.764   1.854   5.628  0.1515 -0.2241  0.4103
 1676TIP3    H1 4992   3.838   1.868   5.568 -0.1411 -0.1428  0.0619
 1676TIP3    H2 4993   3.710   1.932   5.617 -0.2401 -0.5077  0.2889
 1677TIP3   OH2 4994   6.390   3.779   3.808 -0.1917 -0.2643 -0.0670
 1677TIP3    H1 4995   6.432   3.774   3.722 -1.5337 -0.9092 -0.7191
 1677TIP3    H2 4996   6.298   3.759   3.791 -0.9468  1.7969  1.1882
 1678TIP3   OH2 4997   0.795   3.218   4.346  0.3886 -0.2628 -0.4866
 1678TIP3    H1 4998   0.806   3.226   4.440  0.8066  0.8237 -0.6103
 1678TIP3    H2 4999   0.794   3.124   4.329  0.0775 -0.4676  0.6183
 1679TIP3   OH2 5000   5.878   3.909   4.268  0.2650 -0.8066 -0.5496
 1679TIP3    H1 5001   5.795   3.861   4.268  0.6367 -1.4655 -0.3025
 1679TIP3    H2 5002   5.896   3.928   4.360 -0.4197  0.7882 -0.7205
 1680TIP3   OH2 5003   4.990   5.346   2.757 -0.1655  0.1855  0.6963
 1680TIP3    H1 5004   5.033   5.412   2.702  0.5186 -0.9286 -0.1634
 1680TIP3    H2 5005   5.058   5.280   2.771 -0.9731 -0.5613  1.1508
 1681TIP3   OH2 5006   2.023   1.523   2.750 -0.2033  0.4667 -0.1139
 1681TIP3    H1 5007   1.929   1.524   2.731 -0.5851  1.0678  1.6242
 1681TIP3    H2 5008   2.048   1.432   2.739 -0.5917  0.5397 -2.1847
 1682TIP3   OH2 5009   5.151   2.870   0.221 -0.2224  0.0401  0.4188
 1682TIP3    H1 5010   5.065   2.835   0.246 -0.0413 -1.3883 -0.8080
 1682TIP3    H2 5011   5.135   2.914   0.137  0.1751  0.0514  0.3488
 1683TIP3   OH2 5012   0.075   2.275   2.096 -0.6534 -0.4111  1.0229
 1683TIP3    H1 5013   0.130   2.331   2.151  0.8714 -1.3590  0.5210
 1683TIP3    H2 5014   0.090   2.186   2.129 -1.0653 -0.8036  0.1952
 1684TIP3   OH2 5015   3.512   2.605   0.842 -0.0841 -0.5542  0.2508
 1684TIP3    H1 5016   3.600   2.617   0.876  0.5835 -0.7067 -1.3221
 1684TIP3    H2 5017   3.472   2.691   0.848  0.5191 -0.2576  0.0792
 1685TIP3   OH2 5018   1.907   3.222   5.452  0.2597 -0.3600 -0.4342
 1685TIP3    H1 5019   1.844   3.286   5.485 -1.1285 -1.5074 -0.7638
 1685TIP3    H2 5020   1.857   3.141   5.442  2.1393 -1.7808  0.8310
 1686TIP3   OH2 5021   2.631   5.836   3.512 -0.0361 -0.6302 -0.3080
 1686TIP3    H1 5022   2.595   5.877   3.591 -0.6666  0.0828 -0.9461
 1686TIP3    H2 5023   2.556   5.790   3.474  0.3757 -1.3535 -0.2590
 1687TIP3   OH2 5024   2.313   2.708   2.853  0.2432  0.1897  0.3092
 1687TIP3    H1 5025   2.368   2.770   2.901 -2.0092  1.5546  1.3060
 1687TIP3    H2 5026   2.293   2.640   2.917  0.8991 -0.4170 -0.1163
 1688TIP3   OH2 5027   5.138   2.000   1.382  0.8693 -0.1794 -0.7245
 1688TIP3    H1 5028   5.151   1.933   1.448 -0.3345 -0.9830 -1.2829
 1688TIP3    H2 5029   5.125   2.081   1.432  3.0468 -0.1680 -0.0585
 1689TIP3   OH2 5030   6.674   3.747   5.107 -0.0807 -0.3874 -0.0764
 1689TIP3    H1 5031   6.654   3.835   5.076 -2.7560 -1.0414 -0.4904
 1689TIP3    H2 5032   6.768   3.749   5.127  0.0236  2.4035 -0.4410
 1690TIP3   OH2 5033   5.080   6.527   3.943 -0.2641  0.1003 -0.1214
 1690TIP3    H1 5034   5.144   6.473   3.899  0.0860 -0.4088  0.9707
 1690TIP3    H2 5035   5.018   6.552   3.875  1.6048  1.4339 -1.4286
 1691TIP3   OH2 5036   6.820   0.554   1.867 -0.5405  0.2667  0.1129
 1691TIP3    H1 5037   6.908   0.522   1.888 -0.6902 -0.1006  0.1936
 1691TIP3    H2 5038   6.821   0.646   1.895 -0.4090  0.0689  0.7926
 1692TIP3   OH2 5039   1.137   0.909   3.260  0.4541 -0.0164  0.0638
 1692TIP3    H1 5040   1.155   1.000   3.235  1.0644  0.4720  2.1513
 1692TIP3    H2 5041   1.143   0.908   3.355 -0.3534 -2.0930  0.1422
 1693TIP3   OH2 5042   5.205   0.540   3.745 -0.9059 -0.1991 -0.0101
 1693TIP3    H1 5043   5.251   0.614   3.785 -0.2540 -1.4148  1.5741
 1693TIP3    H2 5044   5.187   0.481   3.817 -0.8894 -1.8774 -1.3182
 1694TIP3   OH2 5045   2.776   2.240   0.698 -0.4155 -0.1374 -0.5891
 1694TIP3    H1 5046   2.726   2.294   0.637  0.2826  3.3531  1.6453
 1694TIP3    H2 5047   2.709   2.196   0.751 -1.0293 -0.2002 -1.4052
 1695TIP3   OH2 5048   3.819   1.978   2.724 -0.4033 -0.0416 -0.1807
 1695TIP3    H1 5049   3.773   1.977   2.808  0.2222 -0.8276  0.1606
 1695TIP3    H2 5050   3.749   1.991   2.660 -0.7696  1.6795  0.5105
 1696TIP3   OH2 5051   1.746   6.802   1.593 -0.2361 -0.1029  0.0883
 1696TIP3    H1 5052   1.764   6.769   1.505  1.0800  1.0750 -0.1110
 1696TIP3    H2 5053   1.762   6.726   1.650 -2.4546 -1.2958 -0.7198
 1697TIP3   OH2 5054   4.083   4.442   4.357  0.3964 -0.5012  0.2635
 1697TIP3    H1 5055   4.005   4.426   4.410  0.2169  0.7105  0.3835
 1697TIP3    H2 5056   4.144   4.485   4.417 -0.0044  1.3630 -0.6097
 1698TIP3   OH2 5057   5.008   5.909   2.863 -0.2084  0.4188  0.2920
 1698TIP3    H1 5058   5.042   5.966   2.794 -0.7187 -1.0050 -1.1881
 1698TIP3    H2 5059   4.918   5.939   2.877 -0.4019  0.1350 -0.3158
 1699TIP3   OH2 5060   4.544   3.234   5.064 -0.2977 -0.4201  0.0943
 1699TIP3    H1 5061   4.481   3.299   5.030 -0.1938 -0.0091  0.6818
 1699TIP3    H2 5062   4.512   3.213   5.152 -0.8030 -1.8054 -0.3882
 1700TIP3   OH2 5063   0.558   1.853   3.017  0.4508 -0.3343  0.1953
 1700TIP3    H1 5064   0.653   1.849   3.030  0.3158 -1.8441  0.9191
 1700TIP3    H2 5065   0.534   1.765   2.989 -0.5140  0.4847 -1.8005
 1701TIP3   OH2 5066   2.992   3.410   5.267 -0.3091 -0.9610 -0.2228
 1701TIP3    H1 5067   2.923   3.439   5.207  0.4933  0.5872 -0.4517
 1701TIP3    H2 5068   3.066   3.391   5.209  0.8550  1.6463  0.2378
 1702TIP3   OH2 5069   2.688   1.054   1.750  0.6390  0.2146 -0.5895
 1702TIP3    H1 5070   2.750   1.108   1.798  0.5026 -1.7891  2.0398
 1702TIP3    H2 5071   2.742   0.987   1.708  0.4736 -0.1104 -0.2898
 1703TIP3   OH2 5072   1.629   1.959   2.126  0.7294  0.1500  0.2907
 1703TIP3    H1 5073   1.631   2.039   2.177  2.6105 -0.2384  0.9322
 1703TIP3    H2 5074   1.679   1.980   2.047  0.0593  0.0031 -0.1742
 1704TIP3   OH2 5075   1.902   2.187   2.996  0.5603 -0.4891 -0.0428
 1704TIP3    H1 5076   1.878   2.269   3.038  0.6554 -1.0337  1.1225
 1704TIP3    H2 5077   1.997   2.180   3.008  0.5010 -0.9411  0.2271
 1705TIP3   OH2 5078   1.921   1.235   2.127  0.2365 -0.2664  0.2031
 1705TIP3    H1 5079   1.831   1.264   2.145  0.1514  1.0831 -1.9682
 1705TIP3    H2 5080   1.912   1.145   2.096 -0.2336 -0.5069  1.0239
 1706TIP3   OH2 5081   0.609   1.000   3.214  0.0115 -0.5673  0.2502
 1706TIP3    H1 5082   0.657   0.926   3.176  1.2520 -0.2139  1.0800
 1706TIP3    H2 5083   0.677   1.063   3.238 -0.9524  0.4082  0.5041
 1707TIP3   OH2 5084   0.217   2.240   1.388 -0.0686 -0.0892 -0.3007
 1707TIP3    H1 5085   0.248   2.272   1.472 -0.5754 -0.5551  0.0757
 1707TIP3    H2 5086   0.140   2.187   1.410 -0.6854  0.4359 -1.1253
 1708TIP3   OH2 5087   6.199   1.472   4.226  0.2703  0.2048 -0.0765
 1708TIP3    H1 5088   6.250   1.512   4.156  2.0659 -1.8241 -0.0198
 1708TIP3    H2 5089   6.249   1.489   4.305 -0.2997  0.0668  0.3193
 1709TIP3   OH2 5090   2.282   5.054   5.193  0.0271 -0.3948 -0.0610
 1709TIP3    H1 5091   2.228   4.993   5.243  0.3200 -0.3247  0.3473
 1709TIP3    H2 5092   2.319   5.113   5.259  1.3432 -1.0146 -0.2014
 1710TIP3   OH2 5093   0.973   2.316   3.372  0.3594  0.3589 -0.0353
 1710TIP3    H1 5094   0.998   2.369   3.296 -0.3270  0.9902  0.1678
 1710TIP3    H2 5095   0.878   2.316   3.370  0.3210 -2.2177 -0.9411
 1711TIP3   OH2 5096   3.604   0.100   1.405  0.0456 -0.0264  0.0987
 1711TIP3    H1 5097   3.526   0.135   1.361 -0.0402  0.5560  0.7085
 1711TIP3    H2 5098   3.614   0.153   1.484 -0.7385 -2.0876  1.6667
 1712TIP3   OH2 5099   2.223   6.145   0.237  0.6833 -0.0607  0.6820
 1712TIP3    H1 5100   2.155   6.086   0.270  1.7847 -0.9894  1.3733
 1712TIP3    H2 5101   2.243   6.202   0.311  1.1286 -0.2344  0.6959
 1713TIP3   OH2 5102   1.361   0.665   1.642  0.4402  0.1771 -0.3874
 1713TIP3    H1 5103   1.286   0.662   1.582 -0.1408  0.8150  0.2846
 1713TIP3    H2 5104   1.322   0.679   1.728  1.2436 -1.1342  0.2072
 1714TIP3   OH2 5105   6.795   3.952   0.437  0.4935  0.0587 -0.2698
 1714TIP3    H1 5106   6.830   3.900   0.364  0.3840 -2.3108  1.2566
 1714TIP3    H2 5107   6.813   3.899   0.515 -1.1648  1.5691  1.2296
 1715TIP3   OH2 5108   3.095   1.968   2.261  0.7483  0.2939  0.4251
 1715TIP3    H1 5109   3.125   2.050   2.302 -0.5818  1.4512 -0.7940
 1715TIP3    H2 5110   3.143   1.965   2.178 -1.1849  1.3624 -0.8267
 1716TIP3   OH2 5111   1.606   2.105   1.410 -0.3712 -0.6048  0.3074
 1716TIP3    H1 5112   1.541   2.175   1.410 -0.9001 -1.0492 -1.0397
 1716TIP3    H2 5113   1.607   2.074   1.319  0.5668 -1.6760  0.6605
 1717TIP3   OH2 5114   5.485   2.653   1.590  0.1268  0.3893  0.2239
 1717TIP3    H1 5115   5.455   2.599   1.663  2.8601 -0.0745  1.1271
 1717TIP3    H2 5116   5.556   2.706   1.627  0.5498  1.2729 -1.7264
 1718TIP3   OH2 5117   1.466   6.104   2.845  0.0784 -0.0812  0.6591
 1718TIP3    H1 5118   1.523   6.091   2.769 -0.3509 -1.9069  0.6156
 1718TIP3    H2 5119   1.502   6.182   2.888  0.6116  0.7246 -1.1427
 1719TIP3   OH2 5120   5.485   1.290   5.663  0.1087 -0.5593  0.6370
 1719TIP3    H1 5121   5.523   1.377   5.673 -1.1739  0.1297 -0.2066
 1719TIP3    H2 5122   5.557   1.235   5.632  0.6626  0.4510  0.0999
 1720TIP3   OH2 5123   3.793   6.024   4.677  0.5172  0.0902  0.5847
 1720TIP3    H1 5124   3.844   6.092   4.634  0.1861  1.0579  1.6498
 1720TIP3    H2 5125   3.705   6.033   4.640  0.8013 -0.7720 -0.3582
 1721TIP3   OH2 5126   0.501   6.430   4.966  0.6382  0.0747  0.3205
 1721TIP3    H1 5127   0.445   6.429   5.044  0.2539 -0.3341  0.0415
 1721TIP3    H2 5128   0.588   6.406   4.998  0.5095  0.0403  0.6438
 1722TIP3   OH2 5129   1.683   5.886   0.866 -0.0523 -0.4470 -0.4579
 1722TIP3    H1 5130   1.619   5.865   0.934 -0.2946 -0.2504 -0.6224
 1722TIP3    H2 5131   1.659   5.830   0.792 -1.2221  0.9600 -1.1999
 1723TIP3   OH2 5132   0.936   0.023   4.593 -0.0902 -0.2211  0.6235
 1723TIP3    H1 5133   0.867  -0.017   4.540  1.7270 -0.8787 -1.3245
 1723TIP3    H2 5134   0.893   0.100   4.633 -2.2507 -1.2606  0.4521
 1724TIP3   OH2 5135   3.860   0.248   0.896  0.4739 -0.2580 -0.0369
 1724TIP3    H1 5136   3.912   0.171   0.874 -0.5299 -0.8529 -0.3993
 1724TIP3    H2 5137   3.769   0.219   0.887  0.0726  0.7228  0.6947
 1725TIP3   OH2 5138   6.124   4.387   4.497  0.4486  0.3925 -0.0803
 1725TIP3    H1 5139   6.206   4.360   4.537  0.9283  0.8300 -0.7559
 1725TIP3    H2 5140   6.138   4.479   4.473 -0.6074  0.7948  0.7475
 1726TIP3   OH2 5141   1.075   0.877   2.247 -0.3620  0.6759  0.4288
 1726TIP3    H1 5142   1.114   0.943   2.190  0.6018  0.3130  0.6583
 1726TIP3    H2 5143   1.000   0.921   2.287 -1.5545  0.7106 -1.6865
 1727TIP3   OH2 5144   4.574   6.298   2.597 -0.1210 -0.5492  0.3244
 1727TIP3    H1 5145   4.638   6.285   2.667  1.9320  0.7550 -1.2179
 1727TIP3    H2 5146   4.622   6.279   2.516 -0.6606  3.3591 -1.1270
 1728TIP3   OH2 5147   0.874   3.295   4.095  0.2506 -0.1787 -0.8271
 1728TIP3    H1 5148   0.838   3.294   4.183  3.5812 -0.1840  0.6898
 1728TIP3    H2 5149   0.877   3.388   4.072 -0.4221 -0.1594 -0.8321
 1729TIP3   OH2 5150   5.552   3.849   1.654 -0.4439 -0.6373 -0.5009
 1729TIP3    H1 5151   5.529   3.941   1.664  0.0319 -0.4632 -0.9269
 1729TIP3    H2 5152   5.639   3.851   1.615 -0.2161 -1.2705 -0.0391
 1730TIP3   OH2 5153   1.576   6.400   0.701  0.3993 -0.1463  0.1148
 1730TIP3    H1 5154   1.609   6.393   0.611 -2.2931  2.0483 -1.1994
 1730TIP3    H2 5155   1.528   6.319   0.715  0.5099 -0.3429 -0.5790
 1731TIP3   OH2 5156   6.834   0.436   5.379 -0.5183 -0.5279 -0.3432
 1731TIP3    H1 5157   6.918   0.483   5.375 -0.7547  0.2359  1.9207
 1731TIP3    H2 5158   6.857   0.349   5.409 -0.5997  0.1150  1.7284
 1732TIP3   OH2 5159   3.172   5.039   1.239  0.0386  0.1537 -0.1526
 1732TIP3    H1 5160   3.197   5.130   1.256  2.0458 -0.8106  3.2061
 1732TIP3    H2 5161   3.228   5.013   1.166  0.0756  1.3725 -0.5901
 1733TIP3   OH2 5162   1.478   4.388   4.669 -0.0531 -0.5467  0.2807
 1733TIP3    H1 5163   1.533   4.321   4.708 -0.4708  0.4217  2.7374
 1733TIP3    H2 5164   1.477   4.459   4.734 -0.4327  1.4218 -1.7556
 1734TIP3   OH2 5165   6.307   4.424   3.411 -0.0877 -0.0001  0.1633
 1734TIP3    H1 5166   6.229   4.403   3.463  1.0778  0.4476  2.1764
 1734TIP3    H2 5167   6.325   4.516   3.431  0.2900  0.2656 -1.2582
 1735TIP3   OH2 5168   1.173   6.671   0.687  0.3371 -0.2699 -0.2654
 1735TIP3    H1 5169   1.121   6.708   0.757 -0.5862  0.1608 -1.1524
 1735TIP3    H2 5170   1.263   6.699   0.705  0.0477  0.1636  0.5137
 1736TIP3   OH2 5171   2.798   4.539   1.357  0.4000 -0.2747  0.1404
 1736TIP3    H1 5172   2.821   4.447   1.342  0.7063  0.0429 -1.4916
 1736TIP3    H2 5173   2.708   4.535   1.391  0.7419 -1.2054  1.0192
 1737TIP3   OH2 5174   5.060   6.526   1.369 -0.1048 -0.2789 -0.2879
 1737TIP3    H1 5175   5.051   6.583   1.293  2.8766 -2.6740 -2.7517
 1737TIP3    H2 5176   5.154   6.526   1.387 -0.4699 -1.5699  1.9851
 1738TIP3   OH2 5177   2.497   1.604   5.019 -0.0018  0.0838  0.3274
 1738TIP3    H1 5178   2.491   1.554   5.100 -0.7710 -0.8254 -0.2646
 1738TIP3    H2 5179   2.584   1.584   4.984  0.8165  1.4281  1.4993
 1739TIP3   OH2 5180   3.193   2.367   4.129 -0.0977  0.4100 -0.5432
 1739TIP3    H1 5181   3.184   2.364   4.225  1.5130  2.7409 -0.2345
 1739TIP3    H2 5182   3.126   2.429   4.101  0.4609  0.9316 -0.7332
 1740TIP3   OH2 5183   0.009   4.157   5.151  0.5091  0.0651 -0.7233
 1740TIP3    H1 5184   0.098   4.126   5.170  0.2535  0.5228  1.6402
 1740TIP3    H2 5185   0.010   4.249   5.180 -0.4879  0.3479 -1.5486
 1741TIP3   OH2 5186   0.385   2.519   0.818  0.1324 -0.8404  0.0161
 1741TIP3    H1 5187   0.330   2.522   0.740  0.0517 -1.4754  0.0367
 1741TIP3    H2 5188   0.417   2.608   0.829  0.2874 -0.7791 -0.8465
 1742TIP3   OH2 5189   1.566   3.112   5.905  0.0876  0.0483  0.1196
 1742TIP3    H1 5190   1.498   3.172   5.875  0.1786  0.1583  0.1304
 1742TIP3    H2 5191   1.612   3.085   5.826 -0.6057 -0.8199 -0.0060
 1743TIP3   OH2 5192   3.737   1.048   5.137 -0.5270  0.5424  0.8619
 1743TIP3    H1 5193   3.719   1.044   5.231 -1.8495 -0.9648  0.5894
 1743TIP3    H2 5194   3.703   0.965   5.102  1.6295  0.2187 -0.6902
 1744TIP3   OH2 5195   6.200   6.621   0.398 -0.4450 -0.6704  0.1535
 1744TIP3    H1 5196   6.150   6.564   0.340  0.4388 -0.8620 -0.4423
 1744TIP3    H2 5197   6.151   6.621   0.480 -2.2883  0.4159 -0.8703
 1745TIP3   OH2 5198   1.782   6.463   0.862 -0.1678  0.0543 -0.2726
 1745TIP3    H1 5199   1.704   6.449   0.808  0.8568 -1.0737 -1.5441
 1745TIP3    H2 5200   1.766   6.545   0.908 -2.3260 -0.4071 -0.0803
 1746TIP3   OH2 5201   2.992   6.619   5.567  0.2684  0.0560  0.2083
 1746TIP3    H1 5202   2.971   6.701   5.522 -0.3037 -0.0346  0.3021
 1746TIP3    H2 5203   2.933   6.618   5.642  1.6845  0.5458  1.3805
 1747TIP3   OH2 5204   1.175   1.641   2.435 -0.3477  0.3433 -0.0386
 1747TIP3    H1 5205   1.252   1.670   2.483  0.3267 -1.1372 -0.1768
 1747TIP3    H2 5206   1.168   1.547   2.454 -0.2042 -0.2700 -2.5573
 1748TIP3   OH2 5207   0.867   4.798   2.991 -0.0053  0.1116 -0.3982
 1748TIP3    H1 5208   0.918   4.761   3.063  1.3780 -0.0839 -1.4353
 1748TIP3    H2 5209   0.789   4.834   3.033 -1.0751 -3.2079  0.7849
 1749TIP3   OH2 5210   3.231   1.280   1.584 -0.4161 -0.2363 -0.1685
 1749TIP3    H1 5211   3.156   1.319   1.538  0.8202  0.5605 -1.5888
 1749TIP3    H2 5212   3.299   1.347   1.579  0.1614 -0.6082  1.8310
 1750TIP3   OH2 5213   2.865   0.957   4.595 -0.8257 -0.1714  0.1777
 1750TIP3    H1 5214   2.825   1.038   4.626 -1.6940 -0.7265  0.5390
 1750TIP3    H2 5215   2.895   0.977   4.507  1.6357  1.4408  1.2506
 1751TIP3   OH2 5216   3.922   0.977   2.064  0.1223  0.0423 -0.4258
 1751TIP3    H1 5217   3.876   1.045   2.014 -0.3770 -0.0298 -0.0680
 1751TIP3    H2 5218   3.961   0.921   1.997 -1.5349 -0.7408 -0.7890
 1752TIP3   OH2 5219   6.078   6.215   0.291  0.0747  0.0270  0.0704
 1752TIP3    H1 5220   6.043   6.297   0.258 -0.0386 -0.2746 -0.5767
 1752TIP3    H2 5221   6.117   6.173   0.215  1.7210  0.2766  0.7334
 1753TIP3   OH2 5222   1.598   3.553   1.821  0.2647 -0.4574  0.2148
 1753TIP3    H1 5223   1.548   3.570   1.741 -0.9389  1.0208  1.2135
 1753TIP3    H2 5224   1.687   3.583   1.801 -0.4615  1.7162  0.0001
 1754TIP3   OH2 5225   3.282   3.055   1.574 -0.7201  0.2760 -0.2418
 1754TIP3    H1 5226   3.245   3.073   1.487  0.0246  0.1514 -0.5928
 1754TIP3    H2 5227   3.375   3.043   1.558 -0.8259 -1.5037  0.3239
 1755TIP3   OH2 5228   4.058   3.995   3.581 -0.2822  0.0798  0.1186
 1755TIP3    H1 5229   4.097   4.082   3.595 -0.3445  0.2308 -0.5753
 1755TIP3    H2 5230   4.000   4.008   3.506  0.2333 -0.7206 -0.4313
 1756TIP3   OH2 5231   2.428   3.120   1.442  0.2109  0.0948 -0.1920
 1756TIP3    H1 5232   2.441   3.088   1.532 -0.8066 -0.1280 -0.1131
 1756TIP3    H2 5233   2.500   3.181   1.428  1.9694 -1.8666 -0.1872
 1757TIP3   OH2 5234   5.382   4.839   4.364  0.4136  0.8641  0.5327
 1757TIP3    H1 5235   5.376   4.932   4.341 -1.5134  0.5787 -0.2949
 1757TIP3    H2 5236   5.458   4.834   4.423  1.5317  2.6862 -0.6351
 1758TIP3   OH2 5237   5.187   2.422   4.182  0.0474  0.1338 -0.0645
 1758TIP3    H1 5238   5.131   2.487   4.226  1.0454  0.7259  0.3498
 1758TIP3    H2 5239   5.181   2.444   4.089 -0.5058  0.1042 -0.0425
 1759TIP3   OH2 5240   2.338   3.467   1.439  0.5972  0.4753 -0.5256
 1759TIP3    H1 5241   2.417   3.412   1.434  0.4533  0.0745  1.2021
 1759TIP3    H2 5242   2.369   3.548   1.481  0.2125  0.5540 -0.3968
 1760TIP3   OH2 5243   4.189   3.714   4.439  0.0152  0.0859  0.0335
 1760TIP3    H1 5244   4.273   3.728   4.482 -0.4671 -0.3061  1.1378
 1760TIP3    H2 5245   4.148   3.800   4.437 -0.5826 -0.1260  1.7386
 1761TIP3   OH2 5246   1.010   0.345   3.760 -0.1907  0.2113 -0.1926
 1761TIP3    H1 5247   1.079   0.380   3.704 -0.0169  1.7546  0.9085
 1761TIP3    H2 5248   1.055   0.318   3.840 -0.5326 -1.2772 -0.4755
 1762TIP3   OH2 5249   4.987   0.657   0.265 -0.8984 -0.4259  0.0827
 1762TIP3    H1 5250   4.959   0.654   0.174 -2.2198  1.0317  0.3966
 1762TIP3    H2 5251   5.042   0.580   0.276 -0.5457 -0.5220 -1.9893
 1763TIP3   OH2 5252   4.145   6.460   2.584  0.3116 -0.2466  0.0118
 1763TIP3    H1 5253   4.097   6.428   2.508 -0.4017 -1.1109  0.8014
 1763TIP3    H2 5254   4.159   6.553   2.566 -0.0677 -0.3755 -1.0453
 1764TIP3   OH2 5255   0.537   4.730   1.849  0.5911 -0.4508  0.1896
 1764TIP3    H1 5256   0.580   4.759   1.769  0.8235 -0.9457  0.1271
 1764TIP3    H2 5257   0.580   4.779   1.919  0.8486 -0.5038  0.0709
 1765TIP3   OH2 5258   3.971   4.719   3.872 -0.5790  0.2667 -0.3178
 1765TIP3    H1 5259   4.045   4.735   3.931  0.2886 -1.9213 -0.7613
 1765TIP3    H2 5260   4.004   4.739   3.785 -1.0763  0.9743 -0.3574
 1766TIP3   OH2 5261   2.370   1.219   5.189 -0.5286  0.3452  0.2038
 1766TIP3    H1 5262   2.323   1.231   5.106  0.2164  0.2463 -0.2423
 1766TIP3    H2 5263   2.306   1.240   5.256 -1.2556  0.0794 -0.3905
 1767TIP3   OH2 5264   2.425   1.807   0.147  0.2289  0.1977  0.0109
 1767TIP3    H1 5265   2.360   1.738   0.135  1.7790 -1.3249  0.1241
 1767TIP3    H2 5266   2.433   1.847   0.060  0.5398 -0.8921 -0.4728
 1768TIP3   OH2 5267   2.141   0.583   3.122  0.2104 -1.1519  0.3286
 1768TIP3    H1 5268   2.197   0.507   3.109  2.1894  0.3722 -0.7306
 1768TIP3    H2 5269   2.139   0.626   3.036 -1.2669 -0.2773  0.7611
 1769TIP3   OH2 5270   6.456   4.525   4.624  0.0092  0.1699  1.0347
 1769TIP3    H1 5271   6.448   4.452   4.686  0.9962  0.3941  1.4449
 1769TIP3    H2 5272   6.501   4.487   4.548 -1.0443 -0.0617  0.5045
 1770TIP3   OH2 5273   6.891   4.380   5.137 -0.1966  0.0110 -1.2911
 1770TIP3    H1 5274   6.891   4.372   5.232  1.6114  0.7374 -1.2028
 1770TIP3    H2 5275   6.877   4.473   5.120  1.8674  0.2961 -1.6377
 1771TIP3   OH2 5276   0.293   1.710   2.207  0.6296 -0.3506  0.6935
 1771TIP3    H1 5277   0.214   1.658   2.191 -0.0185 -0.3084  3.3709
 1771TIP3    H2 5278   0.261   1.800   2.215  1.2588 -0.0290 -0.1645
 1772TIP3   OH2 5279   6.216   6.751   0.814  0.2538 -0.0348  0.6742
 1772TIP3    H1 5280   6.288   6.716   0.866  0.4236  1.4249  1.4892
 1772TIP3    H2 5281   6.169   6.809   0.875 -0.8584  0.0086 -0.1933
 1773TIP3   OH2 5282   6.471   4.077   0.802  0.2946  0.2619  0.1591
 1773TIP3    H1 5283   6.488   4.036   0.717 -3.7898  0.5934 -1.0177
 1773TIP3    H2 5284   6.454   4.169   0.782 -0.4430  0.4141  1.3645
 1774TIP3   OH2 5285   7.153   0.987   1.069 -0.7456  0.2025 -0.1392
 1774TIP3    H1 5286   7.125   1.005   1.159 -0.5684  0.2175 -0.0862
 1774TIP3    H2 5287   7.248   0.999   1.071 -0.5805 -1.0374 -0.0311
 1775TIP3   OH2 5288   6.523   3.437   2.682 -0.4898 -0.4041  0.2008
 1775TIP3    H1 5289   6.589   3.474   2.624 -0.6719 -2.0750 -1.1596
 1775TIP3    H2 5290   6.567   3.430   2.767  1.1700 -1.5490 -0.6828
 1776TIP3   OH2 5291   2.480   6.646   5.699 -0.4455 -0.1213 -0.0767
 1776TIP3    H1 5292   2.515   6.689   5.777 -2.8583  1.1108  0.4323
 1776TIP3    H2 5293   2.551   6.652   5.634  0.8717  0.6652  1.3746
 1777TIP3   OH2 5294   3.408   2.497   3.335  0.3899 -0.3802  0.3259
 1777TIP3    H1 5295   3.348   2.561   3.296 -1.4401 -0.7521  2.3630
 1777TIP3    H2 5296   3.414   2.427   3.270  0.4131  0.6700 -0.8434
 1778TIP3   OH2 5297   2.813   5.756   5.426 -0.0861 -0.4017  0.0726
 1778TIP3    H1 5298   2.738   5.751   5.366 -0.2108 -1.8424  0.3298
 1778TIP3    H2 5299   2.805   5.843   5.466 -0.5438  0.2105 -1.2736
 1779TIP3   OH2 5300   1.127   3.630   0.518  0.9750  0.0269  0.2191
 1779TIP3    H1 5301   1.069   3.554   0.520 -0.7011  1.2721  0.7231
 1779TIP3    H2 5302   1.187   3.615   0.592  0.3448 -0.5621  0.6278
 1780TIP3   OH2 5303   5.238   3.809   4.456 -0.5087 -0.7423 -0.6866
 1780TIP3    H1 5304   5.313   3.750   4.446 -0.8439 -1.1648 -0.6987
 1780TIP3    H2 5305   5.269   3.892   4.419  0.3705 -0.5638  0.3747
 1781TIP3   OH2 5306   0.612   5.091   0.307 -0.0735 -0.0723 -0.2443
 1781TIP3    H1 5307   0.707   5.096   0.297  0.0021 -0.9709 -0.1242
 1781TIP3    H2 5308   0.598   5.009   0.354 -0.9858 -0.6958 -1.5258
 1782TIP3   OH2 5309   7.178   4.854   4.721 -0.1780  0.6193 -0.3916
 1782TIP3    H1 5310   7.137   4.895   4.645 -1.2998  0.6142  0.1891
 1782TIP3    H2 5311   7.193   4.926   4.782  0.8981  0.6537 -0.6794
 1783TIP3   OH2 5312   5.063   5.502   5.501  0.5719  0.2886 -0.1546
 1783TIP3    H1 5313   5.134   5.463   5.552 -0.6265 -0.4019  1.0694
 1783TIP3    H2 5314   5.048   5.440   5.429  2.8183  1.6703 -1.9468
 1784TIP3   OH2 5315   5.792   6.063   3.483  0.6310 -0.0016 -0.0019
 1784TIP3    H1 5316   5.837   5.996   3.433  1.5296 -0.5327  1.4761
 1784TIP3    H2 5317   5.701   6.060   3.451  1.1303 -0.3824 -1.4802
 1785TIP3   OH2 5318   4.161   3.371   1.516 -0.0938 -0.4328 -0.0357
 1785TIP3    H1 5319   4.201   3.308   1.576  0.9224  0.8808  0.7119
 1785TIP3    H2 5320   4.086   3.406   1.565  0.9641  0.9269  0.6830
 1786TIP3   OH2 5321   4.468   4.310   2.879 -0.1437  0.0481  0.2781
 1786TIP3    H1 5322   4.531   4.255   2.925  0.5811 -1.8839 -2.7337
 1786TIP3    H2 5323   4.388   4.256   2.875 -0.5510  0.6439  0.2456
 1787TIP3   OH2 5324   0.482   0.374   2.742 -0.0030  0.0631  0.1186
 1787TIP3    H1 5325   0.568   0.391   2.780  0.6559 -0.8008 -0.9101
 1787TIP3    H2 5326   0.490   0.287   2.703 -1.1230  0.2591 -0.6104
 1788TIP3   OH2 5327   4.717   3.859   3.317 -0.0359 -0.1552 -0.3562
 1788TIP3    H1 5328   4.640   3.887   3.367 -1.0956 -1.9835 -0.8465
 1788TIP3    H2 5329   4.791   3.874   3.376 -1.0757 -0.8281  1.2065
 1789TIP3   OH2 5330   6.276   0.341   3.187 -0.2974  0.0521 -0.6734
 1789TIP3    H1 5331   6.344   0.403   3.210 -0.1713 -0.3997  0.2327
 1789TIP3    H2 5332   6.269   0.283   3.263 -2.0591  0.4151 -0.5046
 1790TIP3   OH2 5333   4.810   5.611   1.599  0.2904 -0.1266 -0.4111
 1790TIP3    H1 5334   4.857   5.693   1.590 -1.2139  0.5697 -2.7502
 1790TIP3    H2 5335   4.839   5.557   1.526 -0.0580 -1.0048  0.0699
 1791TIP3   OH2 5336   6.578   2.278   4.668 -0.7624  0.0538  0.1938
 1791TIP3    H1 5337   6.533   2.281   4.584 -1.2323 -0.0586  0.4408
 1791TIP3    H2 5338   6.646   2.212   4.657  0.3804  1.3111 -0.6867
 1792TIP3   OH2 5339   0.551   4.045   2.997 -0.0515  0.0765  0.0624
 1792TIP3    H1 5340   0.570   4.129   3.039  0.7885 -0.1371  0.1360
 1792TIP3    H2 5341   0.602   3.981   3.047  2.5953  0.0584 -2.4038
 1793TIP3   OH2 5342   1.847   0.265   2.889 -0.3816  0.6439  0.0255
 1793TIP3    H1 5343   1.874   0.239   2.977  0.4419  0.9305 -0.1352
 1793TIP3    H2 5344   1.771   0.209   2.870  0.4972 -0.6779  0.2374
 1794TIP3   OH2 5345   3.511   4.520   1.307 -0.0428 -0.0018 -0.1255
 1794TIP3    H1 5346   3.570   4.589   1.338 -0.5794  0.3109  0.2369
 1794TIP3    H2 5347   3.426   4.565   1.299 -0.0101 -0.1826 -1.6411
 1795TIP3   OH2 5348   1.880   4.186   4.536 -0.2562  0.3765 -0.4931
 1795TIP3    H1 5349   1.840   4.100   4.549  0.4990  0.2890  1.7418
 1795TIP3    H2 5350   1.941   4.173   4.463 -0.2026 -0.9732 -0.2437
 1796TIP3   OH2 5351   1.489   5.261   4.095  0.0938  0.2213 -0.3888
 1796TIP3    H1 5352   1.469   5.340   4.045  0.1939 -0.4947 -1.6072
 1796TIP3    H2 5353   1.546   5.291   4.166 -0.7463  1.3994 -0.1838
 1797TIP3   OH2 5354   3.100   2.396   5.808  0.5209 -0.0417  0.2606
 1797TIP3    H1 5355   3.111   2.466   5.743  0.5265 -0.9787 -0.7781
 1797TIP3    H2 5356   3.011   2.364   5.792  0.7106 -0.6249  0.3768
 1798TIP3   OH2 5357   3.335   3.041   0.650  0.3430 -0.2751 -0.4171
 1798TIP3    H1 5358   3.297   3.127   0.666  1.2616  0.0313  0.1858
 1798TIP3    H2 5359   3.261   2.981   0.651 -0.3736  0.5591 -1.3475
 1799TIP3   OH2 5360   6.172   6.094   0.708 -0.2807  0.4786 -0.2634
 1799TIP3    H1 5361   6.135   6.171   0.665  1.0482  2.3095  1.7109
 1799TIP3    H2 5362   6.255   6.124   0.744 -0.9334 -1.1134  2.8667
 1800TIP3   OH2 5363   6.493   2.948   4.138 -0.1118 -0.1951  0.0474
 1800TIP3    H1 5364   6.485   3.043   4.131  0.1429 -0.1826 -0.0895
 1800TIP3    H2 5365   6.468   2.928   4.228  2.0223  0.2477  0.7941
 1801TIP3   OH2 5366   0.262   4.043   3.457  0.2814 -0.0226 -0.0115
 1801TIP3    H1 5367   0.318   3.999   3.521  2.6236 -0.8651 -2.4811
 1801TIP3    H2 5368   0.290   4.009   3.372 -2.3038  1.4478 -1.6011
 1802TIP3   OH2 5369   0.466   4.805   0.283 -0.3198  0.4618 -0.2707
 1802TIP3    H1 5370   0.486   4.826   0.192  0.5684 -2.1255 -0.7685
 1802TIP3    H2 5371   0.398   4.737   0.277  1.8462 -1.9465  0.7792
 1803TIP3   OH2 5372   0.588   6.140   1.756 -0.1212 -0.0774 -0.4777
 1803TIP3    H1 5373   0.677   6.167   1.776 -0.1539 -0.1080 -0.2925
 1803TIP3    H2 5374   0.591   6.045   1.754  0.1625 -0.0616 -1.8897
 1804TIP3   OH2 5375   2.060   6.717   3.669 -0.8350 -0.7071 -0.0659
 1804TIP3    H1 5376   2.110   6.767   3.733 -1.9510 -1.8009  1.7543
 1804TIP3    H2 5377   2.082   6.626   3.687 -2.0341 -1.0971 -0.4869
 1805TIP3   OH2 5378   5.159   1.219   0.608  0.5020  0.2425 -0.3568
 1805TIP3    H1 5379   5.171   1.165   0.530  2.5385  0.4781 -0.2611
 1805TIP3    H2 5380   5.240   1.269   0.615  2.6603 -3.0913  4.4058
 1806TIP3   OH2 5381   7.181   3.036   3.554 -0.1722 -0.1062 -0.3152
 1806TIP3    H1 5382   7.260   3.019   3.605  0.0249 -1.4799 -1.0213
 1806TIP3    H2 5383   7.191   3.126   3.523  0.2768  0.3216  1.0298
 1807TIP3   OH2 5384   3.699   6.379   4.859 -0.2258 -0.0515 -0.5139
 1807TIP3    H1 5385   3.740   6.307   4.907  0.9181  1.5701  1.0547
 1807TIP3    H2 5386   3.760   6.397   4.787  0.0352  0.0496 -0.2694
 1808TIP3   OH2 5387   0.968  -0.008   4.907 -0.6517 -0.0481  0.1270
 1808TIP3    H1 5388   0.875  -0.016   4.927 -0.6342 -0.0607  0.2043
 1808TIP3    H2 5389   0.973   0.068   4.849 -0.4305  1.5780  2.1431
 1809TIP3   OH2 5390   6.228   2.156   3.741 -0.4176 -0.5072 -0.4855
 1809TIP3    H1 5391   6.215   2.096   3.667  0.0288 -0.7472 -0.3727
 1809TIP3    H2 5392   6.285   2.224   3.706  0.9603 -1.3699  0.0236
 1810TIP3   OH2 5393   2.527   0.440   0.314 -0.1474  0.2171  0.1589
 1810TIP3    H1 5394   2.500   0.348   0.317  0.4167  0.0492  0.1162
 1810TIP3    H2 5395   2.566   0.457   0.399 -0.8679  0.6164  0.4229
 1811TIP3   OH2 5396   1.966   1.196   1.182 -0.3018  0.0167 -0.0537
 1811TIP3    H1 5397   1.928   1.250   1.252 -0.5269 -0.8681  0.5311
 1811TIP3    H2 5398   1.952   1.246   1.102 -1.5149  0.3301  0.3307
 1812TIP3   OH2 5399   6.337   1.273   2.654  0.1068 -0.2947 -0.1261
 1812TIP3    H1 5400   6.288   1.217   2.714 -1.3372  0.7182 -0.3149
 1812TIP3    H2 5401   6.275   1.296   2.586  1.1970  0.0831 -1.0258
 1813TIP3   OH2 5402   0.247   2.000   2.213 -0.3096 -0.4002  0.1650
 1813TIP3    H1 5403   0.305   2.059   2.164 -1.4892  0.7304  0.0829
 1813TIP3    H2 5404   0.217   2.052   2.288 -1.2206 -0.9550  0.2034
 1814TIP3   OH2 5405   6.950   0.499   2.941  0.2758  0.6599 -0.2556
 1814TIP3    H1 5406   7.037   0.539   2.935  1.9892 -2.3422  1.7646
 1814TIP3    H2 5407   6.939   0.481   3.034 -1.8191 -0.4778 -0.6704
 1815TIP3   OH2 5408   0.065   1.967   5.075  0.4862  0.2069  0.2439
 1815TIP3    H1 5409   0.048   1.918   5.156 -1.8448  1.6270  0.6945
 1815TIP3    H2 5410   0.118   1.907   5.023 -1.2627 -2.3926  1.2125
 1816TIP3   OH2 5411   2.365   2.656   1.407  0.1441 -0.1292 -0.2276
 1816TIP3    H1 5412   2.302   2.609   1.462  0.7900 -0.9277 -0.1589
 1816TIP3    H2 5413   2.433   2.685   1.468 -0.9981  2.3186  0.0208
 1817TIP3   OH2 5414   3.260   3.568   2.052  0.2595  0.2694 -0.2795
 1817TIP3    H1 5415   3.252   3.473   2.053 -0.1398  0.2653 -1.6231
 1817TIP3    H2 5416   3.177   3.600   2.087 -0.2869  0.1181 -1.3899
 1818TIP3   OH2 5417   3.761   4.068   3.201  0.4098  0.5708  0.3345
 1818TIP3    H1 5418   3.761   4.112   3.116  1.1245 -1.3574 -0.7252
 1818TIP3    H2 5419   3.711   3.988   3.187  1.3173 -0.2265  1.4712
 1819TIP3   OH2 5420   0.252   3.646   1.180  0.0237 -0.0617  0.5884
 1819TIP3    H1 5421   0.227   3.604   1.262  1.5698 -2.0272  0.1251
 1819TIP3    H2 5422   0.214   3.591   1.112 -0.9581  1.3636 -0.0504
 1820TIP3   OH2 5423   6.628   0.258   2.341  0.1325  0.3317 -0.1027
 1820TIP3    H1 5424   6.643   0.277   2.249 -0.3492  1.2405 -0.0034
 1820TIP3    H2 5425   6.701   0.300   2.387  0.5186 -0.3454 -0.0791
 1821TIP3   OH2 5426   0.692   4.757   3.273 -0.2371  0.6444  0.4874
 1821TIP3    H1 5427   0.783   4.728   3.278 -0.4456 -0.1752 -0.2558
 1821TIP3    H2 5428   0.678   4.808   3.353  0.9629  1.0467  0.4522
 1822TIP3   OH2 5429   1.488   1.358   0.698 -0.0083  0.0407 -0.2553
 1822TIP3    H1 5430   1.433   1.367   0.620 -0.5771  1.3253  0.2667
 1822TIP3    H2 5431   1.439   1.300   0.755 -1.4196  2.0038  0.6514
 1823TIP3   OH2 5432   0.553   3.932   1.378 -0.1911  0.2705 -0.0752
 1823TIP3    H1 5433   0.512   4.019   1.380  0.4048  0.5931 -1.1052
 1823TIP3    H2 5434   0.566   3.910   1.471  0.3037  1.6076  0.2055
 1824TIP3   OH2 5435   1.913   1.434   1.807 -0.2759 -0.5108  0.3281
 1824TIP3    H1 5436   1.833   1.418   1.757 -0.2281  0.6744 -0.1642
 1824TIP3    H2 5437   1.982   1.391   1.756 -0.3284  0.1267 -0.3002
 1825TIP3   OH2 5438   5.441   2.827   3.412 -0.2190 -0.0581  0.1864
 1825TIP3    H1 5439   5.434   2.743   3.368 -2.6347  0.8371 -1.3283
 1825TIP3    H2 5440   5.408   2.811   3.501  0.2369 -0.8770  0.2188
 1826TIP3   OH2 5441   6.942   1.086   1.898 -0.3580 -1.2806 -0.3140
 1826TIP3    H1 5442   6.979   1.049   1.818  1.1250  1.1340 -0.8656
 1826TIP3    H2 5443   6.879   1.151   1.867  0.4103 -0.1445  0.4015
 1827TIP3   OH2 5444   7.076   6.379   1.961  0.2756 -0.4149  0.1927
 1827TIP3    H1 5445   7.090   6.289   1.990  2.1500  0.1060  1.1159
 1827TIP3    H2 5446   7.090   6.377   1.866  1.6198 -0.9013  0.3798
 1828TIP3   OH2 5447   2.435   5.101   1.940 -0.1979  0.1547  0.0620
 1828TIP3    H1 5448   2.390   5.030   1.895 -2.2419  1.5767 -0.2510
 1828TIP3    H2 5449   2.528   5.089   1.917 -0.7179 -1.3709 -1.3949
 1829TIP3   OH2 5450   1.681   3.377   2.875 -0.4025 -0.4832 -0.3979
 1829TIP3    H1 5451   1.724   3.302   2.834  0.8378 -0.4776  0.8163
 1829TIP3    H2 5452   1.708   3.372   2.967 -2.1169  0.1845  0.1747
 1830TIP3   OH2 5453   1.784   1.693   2.472 -0.0104 -0.0340  0.4484
 1830TIP3    H1 5454   1.758   1.643   2.549 -1.2597 -0.5653 -0.2848
 1830TIP3    H2 5455   1.722   1.666   2.404 -0.2804  2.0001 -0.1740
 1831TIP3   OH2 5456   0.520   0.442   5.051 -0.1960 -0.3951  0.3736
 1831TIP3    H1 5457   0.484   0.357   5.026 -0.6445 -0.4181  1.0724
 1831TIP3    H2 5458   0.486   0.503   4.985  0.0487 -0.7343 -0.0715
 1832TIP3   OH2 5459   5.541   3.960   5.623 -0.1560 -0.1987  0.0277
 1832TIP3    H1 5460   5.583   3.881   5.588 -0.1730 -0.3676  0.3795
 1832TIP3    H2 5461   5.577   4.031   5.571  1.8312 -0.1401  1.3793
 1833TIP3   OH2 5462   7.076   2.541   4.675  0.0323  0.3320 -0.3921
 1833TIP3    H1 5463   7.107   2.479   4.741  0.0661 -0.4507 -1.1226
 1833TIP3    H2 5464   6.984   2.518   4.662 -0.0803  0.7420 -0.3351
 1834TIP3   OH2 5465   1.778   0.236   1.288  0.3730  0.3176 -0.2073
 1834TIP3    H1 5466   1.749   0.308   1.344  0.5060 -0.4095  0.8314
 1834TIP3    H2 5467   1.861   0.265   1.251 -0.1674  1.1768 -0.7559
 1835TIP3   OH2 5468   0.809   5.931   3.602  0.3425 -0.2643 -0.1297
 1835TIP3    H1 5469   0.765   5.862   3.553 -0.4528  0.2498 -0.1570
 1835TIP3    H2 5470   0.896   5.936   3.563  0.6122 -1.6377  0.2600
 1836TIP3   OH2 5471   4.207   3.210   2.486  0.5908  0.2450  0.6352
 1836TIP3    H1 5472   4.161   3.287   2.520  1.1743  1.0861 -0.3907
 1836TIP3    H2 5473   4.172   3.137   2.536 -1.1033  0.9721  0.5998
 1837TIP3   OH2 5474   0.988   4.759   1.706 -0.4179 -0.1986  0.0423
 1837TIP3    H1 5475   1.015   4.832   1.762 -0.6150 -1.2023  1.5172
 1837TIP3    H2 5476   0.894   4.771   1.694 -0.4058 -0.0677  0.0766
 1838TIP3   OH2 5477   1.143   4.276   1.892  0.3040  0.1513  0.1853
 1838TIP3    H1 5478   1.185   4.361   1.891  1.5809 -0.4659 -0.6821
 1838TIP3    H2 5479   1.126   4.256   1.800 -0.5768 -0.2577  0.4214
 1839TIP3   OH2 5480   5.674   0.838   4.607 -0.6662 -0.4444 -0.8386
 1839TIP3    H1 5481   5.597   0.781   4.616  1.0213 -2.7366  0.1522
 1839TIP3    H2 5482   5.728   0.795   4.541  0.6415  0.0090 -0.1058
 1840TIP3   OH2 5483   3.821   1.530   0.817  0.1887  0.2784 -0.3451
 1840TIP3    H1 5484   3.743   1.567   0.775  0.8306  2.6799  0.4493
 1840TIP3    H2 5485   3.805   1.542   0.911  1.4499  0.6799 -0.1718
 1841TIP3   OH2 5486   1.996   2.791   3.982  0.1880 -0.2526  0.4295
 1841TIP3    H1 5487   2.034   2.732   4.047  1.8516  0.5496  0.2488
 1841TIP3    H2 5488   2.013   2.879   4.017 -2.0152  0.1688  0.5817
 1842TIP3   OH2 5489   5.376   0.339   4.188  0.3778  0.1676 -0.7364
 1842TIP3    H1 5490   5.442   0.273   4.164  0.5913 -0.3047  1.0006
 1842TIP3    H2 5491   5.293   0.292   4.185  0.6765 -0.7118  2.0203
 1843TIP3   OH2 5492   2.268   0.863   5.704 -0.0441 -0.3033 -0.1990
 1843TIP3    H1 5493   2.292   0.777   5.741  0.2399  0.8003  2.3824
 1843TIP3    H2 5494   2.172   0.859   5.697 -0.2577 -0.2001  1.8375
 1844TIP3   OH2 5495   4.955   5.647   3.396 -0.0368 -0.3089  0.1937
 1844TIP3    H1 5496   4.987   5.672   3.309  1.5937 -1.9968  0.2432
 1844TIP3    H2 5497   5.020   5.681   3.457 -0.3785 -0.4405  0.6435
 1845TIP3   OH2 5498   4.680   1.954   2.002  0.0154  0.2604  0.1084
 1845TIP3    H1 5499   4.627   2.032   2.019  1.2200  1.3765 -1.0586
 1845TIP3    H2 5500   4.767   1.976   2.035  0.6068 -0.2185 -1.0952
 1846TIP3   OH2 5501   1.287   0.638   2.871  0.1800 -0.4423 -0.0931
 1846TIP3    H1 5502   1.241   0.586   2.937 -0.6321  0.5353  0.1426
 1846TIP3    H2 5503   1.227   0.710   2.852  0.1657 -0.9777 -2.3040
 1847TIP3   OH2 5504   0.507   1.705   2.002 -0.4500 -0.5870 -0.3041
 1847TIP3    H1 5505   0.494   1.767   1.930  0.0941  0.9743  0.8803
 1847TIP3    H2 5506   0.435   1.723   2.063 -1.5157 -2.6014 -0.8522
 1848TIP3   OH2 5507   6.727   3.587   1.567  0.1867  0.6316  0.0420
 1848TIP3    H1 5508   6.789   3.522   1.600 -0.6350  0.4307  1.2461
 1848TIP3    H2 5509   6.661   3.536   1.520  0.4785  0.7620 -0.5079
 1849TIP3   OH2 5510   6.921   6.068   0.864  0.3766 -0.3035  0.6076
 1849TIP3    H1 5511   7.012   6.068   0.833  0.1906  0.1638  0.0411
 1849TIP3    H2 5512   6.929   6.068   0.960  0.9846  0.1247  0.5677
 1850TIP3   OH2 5513   2.596   5.227   1.396 -0.2275  0.4248 -0.2392
 1850TIP3    H1 5514   2.692   5.234   1.398 -0.1155 -1.0302  0.3773
 1850TIP3    H2 5515   2.576   5.158   1.459 -1.4398 -1.6260 -2.7121
 1851TIP3   OH2 5516   7.032   0.085   1.801  0.1430 -0.2411  0.5384
 1851TIP3    H1 5517   7.069   0.164   1.762 -1.7513  0.3423 -0.1997
 1851TIP3    H2 5518   6.989   0.041   1.728 -3.1864  0.6791  1.7718
 1852TIP3   OH2 5519   2.556   2.152   4.958  0.5465  0.0353 -0.0388
 1852TIP3    H1 5520   2.549   2.219   5.026  0.8723  0.7651 -0.7190
 1852TIP3    H2 5521   2.528   2.071   5.002  0.9073  0.4577  1.0095
 1853TIP3   OH2 5522   4.329   1.089   5.767 -0.1594 -0.1265 -0.4815
 1853TIP3    H1 5523   4.403   1.145   5.744  0.8325 -2.1552 -2.6434
 1853TIP3    H2 5524   4.257   1.121   5.713  0.0266 -0.0864 -0.7076
 1854TIP3   OH2 5525   5.260   4.329   1.074  0.0515  0.1970 -0.4722
 1854TIP3    H1 5526   5.197   4.269   1.114 -0.0938  0.4578 -0.3055
 1854TIP3    H2 5527   5.309   4.275   1.012  0.8843 -0.4357  0.6899
 1855TIP3   OH2 5528   0.547   6.525   0.569 -0.6883  0.3770  0.4582
 1855TIP3    H1 5529   0.478   6.524   0.503 -1.4473 -0.1151  1.2488
 1855TIP3    H2 5530   0.619   6.476   0.529 -0.3978  1.7225 -0.7623
 1856TIP3   OH2 5531   5.780   3.422   4.747  0.2851  0.0619 -0.0724
 1856TIP3    H1 5532   5.763   3.422   4.653  0.7430 -0.5253 -0.1646
 1856TIP3    H2 5533   5.757   3.510   4.776  0.9942  0.5269 -0.8949
 1857TIP3   OH2 5534   0.219   4.074   5.867 -0.2376  0.0538  0.2268
 1857TIP3    H1 5535   0.304   4.031   5.864 -0.4482 -0.4228  0.9137
 1857TIP3    H2 5536   0.214   4.123   5.785  0.7895  0.2731  0.2846
 1858TIP3   OH2 5537   1.758   0.955   1.783  0.0461 -0.0190  0.7941
 1858TIP3    H1 5538   1.756   1.031   1.725 -0.8396 -0.5011  0.1743
 1858TIP3    H2 5539   1.824   0.897   1.744  0.4244  0.2475  1.0349
 1859TIP3   OH2 5540   2.687   3.814   4.147  0.1762 -0.1743  1.3412
 1859TIP3    H1 5541   2.682   3.719   4.137 -2.1708  0.0979 -1.0626
 1859TIP3    H2 5542   2.727   3.845   4.066 -0.9413  0.9757  1.1943
 1860TIP3   OH2 5543   6.718   6.266   5.640  0.6680 -0.0675 -0.1820
 1860TIP3    H1 5544   6.741   6.177   5.612  0.6033 -0.3313  0.5703
 1860TIP3    H2 5545   6.705   6.258   5.735 -0.9223  0.4025 -0.3244
 1861TIP3   OH2 5546   0.554   6.049   3.572 -0.0280  0.3159  0.1284
 1861TIP3    H1 5547   0.588   6.100   3.498  1.4176  3.4964  2.7196
 1861TIP3    H2 5548   0.629   5.997   3.602  0.6681  2.0678  1.6355
 1862TIP3   OH2 5549   6.987   2.492   2.221 -0.4012  0.2046  0.5672
 1862TIP3    H1 5550   6.920   2.541   2.174 -0.6802 -0.5563  0.1637
 1862TIP3    H2 5551   7.068   2.540   2.203 -0.4257 -0.3191 -1.0678
 1863TIP3   OH2 5552   2.619   4.996   4.290 -0.1073 -0.3214 -0.4066
 1863TIP3    H1 5553   2.571   4.924   4.329 -0.6894  0.1512 -0.2299
 1863TIP3    H2 5554   2.672   4.956   4.221 -1.0226 -0.8139 -0.8407
 1864TIP3   OH2 5555   5.644   3.945   2.213 -0.6320  0.5457  0.6869
 1864TIP3    H1 5556   5.656   3.936   2.307  1.8252  0.2911  0.4316
 1864TIP3    H2 5557   5.601   3.864   2.186  0.7610 -0.4602  1.3336
 1865TIP3   OH2 5558   4.342   4.359   4.815 -0.0890 -0.0149 -0.9743
 1865TIP3    H1 5559   4.411   4.372   4.880 -1.0830  0.4347  0.0213
 1865TIP3    H2 5560   4.376   4.292   4.757  0.9326 -0.2418 -0.1358
 1866TIP3   OH2 5561   5.411   4.929   3.227  1.0232 -0.5851 -0.6134
 1866TIP3    H1 5562   5.376   4.934   3.138 -2.1796  0.4516  0.5826
 1866TIP3    H2 5563   5.470   5.004   3.233  1.3071 -0.6825 -1.8474
 1867TIP3   OH2 5564   1.973   5.776   5.799 -0.4224 -0.2843  0.3303
 1867TIP3    H1 5565   1.944   5.702   5.745  0.6256  1.1103 -2.3263
 1867TIP3    H2 5566   2.020   5.735   5.872  0.4299 -2.2824 -1.2323
 1868TIP3   OH2 5567   6.001   5.548   4.677 -0.1802  0.1213 -0.4426
 1868TIP3    H1 5568   6.030   5.631   4.713 -0.3493  0.1694 -0.4202
 1868TIP3    H2 5569   5.979   5.568   4.586  0.9947 -0.1527 -0.8159
 1869TIP3   OH2 5570   0.946   1.868   2.483  0.3274  0.4371  0.8363
 1869TIP3    H1 5571   1.012   1.819   2.532  0.5140 -0.6761 -0.4714
 1869TIP3    H2 5572   0.968   1.853   2.392 -1.4667  0.4230  0.3688
 1870TIP3   OH2 5573   2.428   6.116   1.133 -0.3647  0.3589 -0.5529
 1870TIP3    H1 5574   2.504   6.071   1.095 -0.8795 -0.3447 -0.7681
 1870TIP3    H2 5575   2.385   6.156   1.057  1.5509  3.5946 -0.1257
 1871TIP3   OH2 5576   6.681   0.311   4.520  0.5061  0.0700  0.2963
 1871TIP3    H1 5577   6.749   0.276   4.463  0.7988  0.1570  0.5862
 1871TIP3    H2 5578   6.656   0.237   4.576 -0.7157 -0.3863 -0.8036
 1872TIP3   OH2 5579   3.243   2.969   3.329  0.0354  0.0981  0.2154
 1872TIP3    H1 5580   3.199   2.986   3.413  0.9643  0.4110  0.6483
 1872TIP3    H2 5581   3.336   2.972   3.349  0.3844  2.6776 -1.2514
 1873TIP3   OH2 5582   4.249   3.550   5.460  0.5395 -0.2682 -0.2737
 1873TIP3    H1 5583   4.194   3.508   5.395  1.1775 -1.0773 -0.3141
 1873TIP3    H2 5584   4.192   3.562   5.536  0.3265 -1.1822 -0.2769
 1874TIP3   OH2 5585   6.078   4.588   1.359  0.1862 -0.1516  0.2918
 1874TIP3    H1 5586   6.084   4.646   1.435 -1.7303 -0.5398  0.7933
 1874TIP3    H2 5587   6.020   4.518   1.387 -0.0237 -0.6635 -1.3165
 1875TIP3   OH2 5588   4.073   5.720   2.959  0.0021 -0.2674  0.4945
 1875TIP3    H1 5589   4.162   5.755   2.946  0.2276 -1.5035 -1.8034
 1875TIP3    H2 5590   4.016   5.783   2.916 -0.0641 -0.3841  0.4122
 1876TIP3   OH2 5591   5.839   4.032   4.554 -0.2683  0.3133  0.2278
 1876TIP3    H1 5592   5.767   4.090   4.531  0.3550  0.6430 -0.9793
 1876TIP3    H2 5593   5.899   4.087   4.605  0.2127  0.7057 -0.7224
 1877TIP3   OH2 5594   6.385   0.025   1.436 -0.2195 -0.1504  0.2412
 1877TIP3    H1 5595   6.394   0.120   1.435  1.4234 -0.2743  0.5148
 1877TIP3    H2 5596   6.305   0.009   1.486  0.6180  1.0449  2.0983
 1878TIP3   OH2 5597   6.392   4.693   4.842  0.1924  0.1261 -0.3743
 1878TIP3    H1 5598   6.302   4.692   4.808  0.4969 -0.6119 -1.1880
 1878TIP3    H2 5599   6.439   4.630   4.788  0.5356 -1.7007  1.8679
 1879TIP3   OH2 5600   0.393   3.777   4.975 -0.1544 -0.2061  0.1707
 1879TIP3    H1 5601   0.350   3.838   5.034 -2.7404 -0.8877 -0.8800
 1879TIP3    H2 5602   0.375   3.810   4.887  1.0736 -0.8155 -0.3463
 1880TIP3   OH2 5603   7.047   4.057   0.189 -0.0541  0.5497  0.0165
 1880TIP3    H1 5604   6.954   4.054   0.165 -0.2731  1.3582  0.7151
 1880TIP3    H2 5605   7.083   4.128   0.137  0.1634  0.2751 -0.2097
 1881TIP3   OH2 5606   0.977   2.889   5.223 -0.3913 -0.2669  0.4145
 1881TIP3    H1 5607   0.971   2.960   5.159 -1.8229 -0.7008  0.0313
 1881TIP3    H2 5608   1.070   2.884   5.245 -0.1454  1.1302 -0.2173
 1882TIP3   OH2 5609   6.919   3.860   2.924 -0.5797 -0.3432  0.0583
 1882TIP3    H1 5610   6.937   3.932   2.863 -0.0597 -0.4073  0.1309
 1882TIP3    H2 5611   6.828   3.835   2.906  0.2070 -1.8290 -2.2311
 1883TIP3   OH2 5612   2.244   1.463   2.576 -0.3186  0.6122  0.3286
 1883TIP3    H1 5613   2.294   1.496   2.501 -1.1652 -1.0599 -1.0289
 1883TIP3    H2 5614   2.182   1.533   2.595 -1.4124  0.3286 -1.8387
 1884TIP3   OH2 5615   2.192   5.625   0.413 -0.0296 -0.1935  0.0745
 1884TIP3    H1 5616   2.176   5.693   0.347  0.5083  1.8328  1.8934
 1884TIP3    H2 5617   2.151   5.660   0.493  1.4684 -1.3613  1.4149
 1885TIP3   OH2 5618   3.962   6.799   4.243 -0.6573  0.0271  0.0285
 1885TIP3    H1 5619   4.013   6.871   4.280  1.9702 -1.2011 -0.9577
 1885TIP3    H2 5620   3.984   6.724   4.298 -0.4956 -0.7850 -1.1281
 1886TIP3   OH2 5621   5.597   5.257   4.381 -0.0707  0.1224 -0.1415
 1886TIP3    H1 5622   5.676   5.277   4.330  0.1105 -0.2204  0.0040
 1886TIP3    H2 5623   5.606   5.309   4.461  0.0480  0.0212 -0.0884
 1887TIP3   OH2 5624   1.162   1.792   2.690 -0.2452 -0.0180  0.2713
 1887TIP3    H1 5625   1.132   1.765   2.777 -0.1547  2.5329  1.1883
 1887TIP3    H2 5626   1.245   1.838   2.707 -0.5519  1.0754 -1.0589
 1888TIP3   OH2 5627   5.768   2.564   5.554  0.0367  0.2161  0.9033
 1888TIP3    H1 5628   5.772   2.593   5.463  0.0227  1.1924  1.2021
 1888TIP3    H2 5629   5.794   2.472   5.551 -0.9488 -0.0509 -0.2135
 1889TIP3   OH2 5630   5.329   4.918   2.956 -0.4709  0.2819  0.0921
 1889TIP3    H1 5631   5.414   4.900   2.916  0.2281 -2.5133  2.4684
 1889TIP3    H2 5632   5.280   4.837   2.948 -1.6774  0.7949  1.5721
 1890TIP3   OH2 5633   4.775   4.430   5.010  0.4530  0.0295  0.2458
 1890TIP3    H1 5634   4.776   4.525   5.001 -0.5583  0.0593  0.3354
 1890TIP3    H2 5635   4.826   4.398   4.936  1.6807  0.6606  0.7770
 1891TIP3   OH2 5636   2.358   6.725   0.738 -0.3597  0.6771 -0.3937
 1891TIP3    H1 5637   2.410   6.790   0.785 -1.6146  1.2059  0.3330
 1891TIP3    H2 5638   2.268   6.759   0.743 -1.1021 -1.2236  0.2106
 1892TIP3   OH2 5639   0.082   1.047   2.631  0.0802 -0.1433  0.1195
 1892TIP3    H1 5640   0.149   1.107   2.597 -0.2843 -0.2670 -0.8489
 1892TIP3    H2 5641   0.102   0.963   2.590 -1.0398 -0.0327 -0.6773
 1893TIP3   OH2 5642   1.612   3.247   4.823  0.2663  0.0611 -0.3701
 1893TIP3    H1 5643   1.573   3.300   4.753  0.5222 -0.2302 -0.7362
 1893TIP3    H2 5644   1.668   3.308   4.870  0.0358  0.2771 -0.3708
 1894TIP3   OH2 5645   7.120   5.075   2.924  0.0329 -0.0745 -0.0422
 1894TIP3    H1 5646   7.136   5.122   2.842 -2.6283 -0.7855 -1.0408
 1894TIP3    H2 5647   7.096   5.144   2.986  1.9021  0.4480  0.1590
 1895TIP3   OH2 5648   1.135   0.136   2.753  0.1422 -0.5417  0.1987
 1895TIP3    H1 5649   1.074   0.206   2.777  0.1697 -0.1933 -0.6954
 1895TIP3    H2 5650   1.218   0.162   2.792  0.1552 -0.0578 -0.1419
 1896TIP3   OH2 5651   5.997   5.412   5.056  1.0754 -0.2065  0.0841
 1896TIP3    H1 5652   5.922   5.364   5.021 -0.9748  2.2446  0.8495
 1896TIP3    H2 5653   6.062   5.409   4.985 -0.3109 -1.1357 -1.2037
 1897TIP3   OH2 5654   6.733   5.563   0.956  0.3066  0.2339  0.5843
 1897TIP3    H1 5655   6.663   5.583   0.893  0.9820 -0.8601 -0.5653
 1897TIP3    H2 5656   6.793   5.637   0.949 -0.4164  0.8985  1.1549
 1898TIP3   OH2 5657   3.557   4.233   0.057  0.0698 -0.1336  0.0101
 1898TIP3    H1 5658   3.570   4.288  -0.020  0.3286 -0.9526 -0.5476
 1898TIP3    H2 5659   3.558   4.293   0.131 -1.3059  0.8225 -0.7028
 1899TIP3   OH2 5660   4.038   2.767   4.899  0.3143 -0.6648 -0.2821
 1899TIP3    H1 5661   4.111   2.739   4.843  0.3499 -0.7151 -0.2107
 1899TIP3    H2 5662   3.960   2.738   4.852  0.3382 -0.5620 -0.3852
 1900TIP3   OH2 5663   5.496   4.944   0.837 -0.8139  0.1975 -0.1867
 1900TIP3    H1 5664   5.430   4.893   0.791  0.0136 -0.4726 -0.6763
 1900TIP3    H2 5665   5.457   4.964   0.922 -1.5990 -0.2717 -0.4318
 1901TIP3   OH2 5666   6.300   1.199   3.939 -0.8302  0.0695 -0.0334
 1901TIP3    H1 5667   6.277   1.109   3.959 -0.0934  0.0401  0.7340
 1901TIP3    H2 5668   6.262   1.215   3.852 -0.5676 -1.1204 -0.3781
 1902TIP3   OH2 5669   6.167   1.157   3.064  0.3396  0.2048 -0.1279
 1902TIP3    H1 5670   6.248   1.106   3.068  1.1975  1.4204 -1.0302
 1902TIP3    H2 5671   6.098   1.092   3.054  1.3772 -0.8020 -1.1626
 1903TIP3   OH2 5672   4.462   4.729   2.000 -1.0235 -1.2696  0.0437
 1903TIP3    H1 5673   4.495   4.809   1.960 -0.8846 -2.6837 -2.9981
 1903TIP3    H2 5674   4.539   4.672   2.004 -1.3005 -1.5768  1.3117
 1904TIP3   OH2 5675   4.025   1.403   4.024 -0.0223 -0.3166  0.6729
 1904TIP3    H1 5676   4.042   1.370   3.936 -0.1761  1.4563 -0.0755
 1904TIP3    H2 5677   3.939   1.367   4.048 -0.4121 -0.0572 -0.3050
 1905TIP3   OH2 5678   2.797   1.780   4.082 -0.4768  0.0022  0.1990
 1905TIP3    H1 5679   2.890   1.759   4.072 -0.8014 -2.8136  2.0621
 1905TIP3    H2 5680   2.788   1.805   4.174 -1.5665  0.3558  0.0080
 1906TIP3   OH2 5681   2.721   4.069   3.677  0.0754 -0.4701 -0.3686
 1906TIP3    H1 5682   2.778   4.110   3.612 -0.4488 -1.0277 -1.1966
 1906TIP3    H2 5683   2.673   4.141   3.716  1.3170  0.0115  0.3316
 1907TIP3   OH2 5684   6.070   2.569   1.515  0.1894 -0.0304  0.2515
 1907TIP3    H1 5685   6.144   2.629   1.520  1.0081 -1.1039  2.4910
 1907TIP3    H2 5686   5.993   2.625   1.505  1.0868  1.2634  0.4255
 1908TIP3   OH2 5687   0.464   1.057   4.906  0.3626  0.0545  0.1623
 1908TIP3    H1 5688   0.452   1.152   4.911 -1.9301 -0.2460  1.7235
 1908TIP3    H2 5689   0.441   1.025   4.994  1.7795 -1.9051 -0.1135
 1909TIP3   OH2 5690   2.967   4.564   4.583  0.3506 -1.0087  0.1729
 1909TIP3    H1 5691   2.896   4.536   4.640  1.1274  0.6388  2.0582
 1909TIP3    H2 5692   3.038   4.502   4.600  0.3848 -0.8533  0.6219
 1910TIP3   OH2 5693   6.450   3.187   4.250 -0.0764 -0.2398 -0.5133
 1910TIP3    H1 5694   6.515   3.245   4.288  1.2146 -0.9873 -1.5046
 1910TIP3    H2 5695   6.431   3.123   4.318  1.1177 -0.7055 -0.6023
 1911TIP3   OH2 5696   1.831   4.952   0.263 -0.2766  0.3729  0.6735
 1911TIP3    H1 5697   1.809   4.893   0.335 -1.2352  0.4108  0.4285
 1911TIP3    H2 5698   1.913   4.918   0.227  0.6224  0.7697  2.2305
 1912TIP3   OH2 5699   4.240   2.858   4.040  0.5170  0.1041 -0.3299
 1912TIP3    H1 5700   4.329   2.841   4.010  0.0623 -1.9529 -0.6987
 1912TIP3    H2 5701   4.243   2.842   4.134  0.7438  1.1048 -0.1536
 1913TIP3   OH2 5702   6.790   6.713   3.845  0.2687  0.1649 -0.0977
 1913TIP3    H1 5703   6.864   6.717   3.785  1.1514  0.1249  0.9613
 1913TIP3    H2 5704   6.730   6.649   3.805  0.6803  0.3724 -1.0806
 1914TIP3   OH2 5705   3.201   5.771   1.264  0.3930  0.4567  0.0784
 1914TIP3    H1 5706   3.108   5.793   1.266 -0.2135 -1.7150 -1.0544
 1914TIP3    H2 5707   3.234   5.813   1.185  0.1251  0.3904 -0.0719
 1915TIP3   OH2 5708   7.220   3.916   2.714 -0.3300  0.1121  0.1880
 1915TIP3    H1 5709   7.238   3.989   2.775  1.7691 -1.1571  1.2183
 1915TIP3    H2 5710   7.137   3.939   2.674  0.6978  3.6165 -0.3283
 1916TIP3   OH2 5711   5.668   5.969   3.232 -0.1419  0.1249 -0.2823
 1916TIP3    H1 5712   5.601   6.038   3.232 -0.9337 -0.6120 -1.2818
 1916TIP3    H2 5713   5.671   5.938   3.142 -0.2376 -1.5423  0.2489
 1917TIP3   OH2 5714   3.557   0.878   3.386 -0.5285  0.3469  0.5738
 1917TIP3    H1 5715   3.487   0.847   3.444 -1.3949  0.9197 -0.1290
 1917TIP3    H2 5716   3.577   0.966   3.417 -0.4312  0.3477  0.5084
 1918TIP3   OH2 5717   5.180   2.788   5.271  0.5098 -0.1006  0.8294
 1918TIP3    H1 5718   5.133   2.762   5.192  1.5552 -1.2406  0.5585
 1918TIP3    H2 5719   5.146   2.730   5.339 -0.1288  0.6389  1.1578
 1919TIP3   OH2 5720   6.439   4.347   4.839 -0.0197  0.0969  0.0123
 1919TIP3    H1 5721   6.531   4.337   4.865  0.3809  0.9937 -0.9781
 1919TIP3    H2 5722   6.395   4.381   4.917  0.3445 -0.9733  0.6973
 1920TIP3   OH2 5723   3.923   3.116   2.984 -0.4733 -0.2432  0.0458
 1920TIP3    H1 5724   3.869   3.184   3.026  0.5233 -0.2346  1.3894
 1920TIP3    H2 5725   4.004   3.115   3.035 -0.5575 -2.6378  0.2525
 1921TIP3   OH2 5726   1.693   3.333   3.168 -0.0460 -0.0819 -0.4340
 1921TIP3    H1 5727   1.782   3.302   3.184 -0.7824 -2.5697 -0.6441
 1921TIP3    H2 5728   1.639   3.281   3.227 -1.5022  0.0695 -1.5741
 1922TIP3   OH2 5729   0.872   4.694   4.501 -0.4149  0.2427  0.1808
 1922TIP3    H1 5730   0.959   4.729   4.517 -0.9675  1.5555  0.4783
 1922TIP3    H2 5731   0.877   4.653   4.415  0.3470  0.7764 -0.0341
 1923TIP3   OH2 5732   3.362   5.770   2.078 -0.2779 -0.1588 -0.0755
 1923TIP3    H1 5733   3.386   5.851   2.034  0.3289 -0.4649 -0.3254
 1923TIP3    H2 5734   3.308   5.797   2.151 -1.0651  0.3900 -0.8416
 1924TIP3   OH2 5735   5.260   3.981   5.376  0.2048 -0.5194  0.4044
 1924TIP3    H1 5736   5.229   4.023   5.457  1.3251  1.6040 -0.1992
 1924TIP3    H2 5737   5.327   4.041   5.342  0.4783 -1.8643 -1.5853
 1925TIP3   OH2 5738   3.431   2.278   4.023 -0.2139  0.1125  0.4354
 1925TIP3    H1 5739   3.347   2.317   4.045 -0.3712  0.2855 -0.4450
 1925TIP3    H2 5740   3.456   2.229   4.102 -0.9462  0.3813  0.8417
 1926TIP3   OH2 5741   4.466   1.722   0.204 -0.1969  0.0140 -0.3437
 1926TIP3    H1 5742   4.504   1.728   0.291  0.6727 -0.7626 -0.6613
 1926TIP3    H2 5743   4.529   1.671   0.153 -0.1226  1.4069 -1.7338
 1927TIP3   OH2 5744   3.425   4.522   2.540  0.0176 -0.2937  0.7242
 1927TIP3    H1 5745   3.461   4.496   2.625  0.1927 -0.5513  0.5708
 1927TIP3    H2 5746   3.454   4.613   2.529  0.2309 -0.3498  0.8141
 1928TIP3   OH2 5747   0.224   2.463   1.907 -0.1509  0.1331 -0.3469
 1928TIP3    H1 5748   0.165   2.529   1.941  0.3675  1.2237 -1.4777
 1928TIP3    H2 5749   0.186   2.437   1.823  0.0514 -0.4496 -0.2634
 1929TIP3   OH2 5750   3.844   3.823   5.148 -0.4729  1.0025  0.0009
 1929TIP3    H1 5751   3.804   3.750   5.101  0.5045  0.8930 -0.6976
 1929TIP3    H2 5752   3.911   3.856   5.088  2.5070 -0.6499  2.1578
 1930TIP3   OH2 5753   2.843   6.671   5.788 -0.1604 -0.3944 -0.0153
 1930TIP3    H1 5754   2.841   6.691   5.882 -1.3138 -0.3677 -0.0275
 1930TIP3    H2 5755   2.840   6.756   5.745 -0.1777 -0.4284 -0.0818
 1931TIP3   OH2 5756   0.387   1.937   2.609  0.1415 -0.6049  0.0595
 1931TIP3    H1 5757   0.443   1.989   2.551  0.2483 -0.2708  0.4510
 1931TIP3    H2 5758   0.402   1.975   2.696 -0.0875 -1.0360  0.2888
 1932TIP3   OH2 5759   2.039   1.746   4.061 -0.1609 -0.2033 -0.1130
 1932TIP3    H1 5760   2.118   1.783   4.022 -0.7411  2.2836  0.8826
 1932TIP3    H2 5761   2.004   1.688   3.993  2.0724 -0.7745 -0.8590
 1933TIP3   OH2 5762   0.011   1.866   1.886 -0.0954  0.5047 -0.0887
 1933TIP3    H1 5763   0.005   1.826   1.973 -1.5269 -0.5091 -0.6318
 1933TIP3    H2 5764   0.019   1.792   1.825 -2.2369  1.0148 -1.0611
 1934TIP3   OH2 5765   4.832   2.476   0.675  0.1731  0.7664 -0.1470
 1934TIP3    H1 5766   4.768   2.520   0.731  0.4975 -0.7954  1.5437
 1934TIP3    H2 5767   4.785   2.459   0.593 -0.7643  1.8316  0.1405
 1935TIP3   OH2 5768   4.239   1.958   2.643  0.2753 -0.0870 -0.6261
 1935TIP3    H1 5769   4.288   1.890   2.598  1.6648  0.6714 -0.3046
 1935TIP3    H2 5770   4.300   1.994   2.707 -0.9877  0.2785  0.4366
 1936TIP3   OH2 5771   4.469   6.479   3.299 -0.2863  0.1115  0.7512
 1936TIP3    H1 5772   4.404   6.487   3.368  1.5727 -1.8769  2.8839
 1936TIP3    H2 5773   4.550   6.512   3.338  0.6329 -0.2360 -0.7718
 1937TIP3   OH2 5774   3.845   0.767   0.633  0.2270 -0.5343  0.0037
 1937TIP3    H1 5775   3.908   0.811   0.576 -0.2410  0.9960  0.6365
 1937TIP3    H2 5776   3.769   0.753   0.576  0.4159 -0.6310 -0.2300
 1938TIP3   OH2 5777   1.223   5.296   2.703  0.2841  0.1400  0.3035
 1938TIP3    H1 5778   1.309   5.278   2.665  0.0506 -2.7443  0.9392
 1938TIP3    H2 5779   1.204   5.386   2.677  3.1936  0.6557 -0.3835
 1939TIP3   OH2 5780   2.408   1.941   1.073 -0.0332  0.1101 -0.1697
 1939TIP3    H1 5781   2.395   1.969   0.982  2.0384  1.6349 -0.0876
 1939TIP3    H2 5782   2.326   1.963   1.117 -0.0943  2.0578 -1.1229
 1940TIP3   OH2 5783   6.602   1.374   5.363 -0.7313 -0.2744 -0.1819
 1940TIP3    H1 5784   6.549   1.325   5.426 -0.6665 -0.3526 -0.1881
 1940TIP3    H2 5785   6.548   1.377   5.284 -0.7340 -0.3378 -0.1826
 1941TIP3   OH2 5786   4.555   1.652   1.218 -0.3101  0.5034  0.2797
 1941TIP3    H1 5787   4.600   1.736   1.218 -3.3561  2.3041 -1.3150
 1941TIP3    H2 5788   4.530   1.638   1.127  0.2051 -2.2679  0.4769
 1942TIP3   OH2 5789   6.148   0.089   0.468  0.2682  0.0762 -0.3186
 1942TIP3    H1 5790   6.089   0.050   0.533  1.9088 -0.2562  1.0627
 1942TIP3    H2 5791   6.115   0.178   0.455  0.7703  0.7495  2.2725
 1943TIP3   OH2 5792   6.798   3.161   5.894 -0.2378 -0.0719  0.3324
 1943TIP3    H1 5793   6.745   3.235   5.924 -0.4631 -0.1941  0.2360
 1943TIP3    H2 5794   6.824   3.186   5.805 -0.5291 -0.2202  0.2029
 1944TIP3   OH2 5795   1.717   2.976   4.775  0.2789 -0.2620  0.4108
 1944TIP3    H1 5796   1.667   3.052   4.803  1.8060  1.0903 -0.3507
 1944TIP3    H2 5797   1.807   3.008   4.768  1.1170 -2.3654  0.8743
 1945TIP3   OH2 5798   0.922   0.037   1.624 -0.0589 -0.2651  0.4978
 1945TIP3    H1 5799   0.984  -0.022   1.581 -0.2800 -0.7338  0.8100
 1945TIP3    H2 5800   0.917   0.113   1.566  1.8777  0.4151  1.1397
 1946TIP3   OH2 5801   0.682   3.009   0.722 -0.5830  0.2338 -0.2275
 1946TIP3    H1 5802   0.613   2.956   0.761 -1.8255  1.6815 -0.3806
 1946TIP3    H2 5803   0.660   3.015   0.629  0.6377 -0.6001 -0.5929
 1947TIP3   OH2 5804   0.730   3.920   3.499 -0.4707  0.8751  0.4394
 1947TIP3    H1 5805   0.825   3.926   3.505 -0.4638  0.6766  0.5662
 1947TIP3    H2 5806   0.700   3.929   3.590 -0.3903 -1.9246  0.8474
 1948TIP3   OH2 5807   3.887   6.686   2.169 -0.2663 -0.8159  0.0676
 1948TIP3    H1 5808   3.946   6.724   2.234 -0.7828 -0.5251  0.3717
 1948TIP3    H2 5809   3.887   6.749   2.097 -0.9325 -0.3561  0.4676
 1949TIP3   OH2 5810   0.925   0.433   0.122 -0.1433 -0.2618  0.0911
 1949TIP3    H1 5811   0.924   0.338   0.125 -0.4240 -0.2435  1.1701
 1949TIP3    H2 5812   0.832   0.458   0.123 -0.0927  0.0217 -0.9691
 1950TIP3   OH2 5813   3.597   0.587   4.273 -0.5823  0.2594  0.0047
 1950TIP3    H1 5814   3.576   0.671   4.314 -1.1181  0.6054 -0.9461
 1950TIP3    H2 5815   3.693   0.584   4.273 -0.5218  1.3978 -0.9597
 1951TIP3   OH2 5816   2.852   0.344   3.626  0.4062 -0.6228  0.6505
 1951TIP3    H1 5817   2.760   0.365   3.641  0.6468  0.8975  0.1609
 1951TIP3    H2 5818   2.859   0.333   3.531  0.5552 -1.6766  0.7766
 1952TIP3   OH2 5819   0.632   3.571   5.481  0.6070 -0.2237 -0.1292
 1952TIP3    H1 5820   0.579   3.581   5.402 -0.3460 -0.5448  0.4516
 1952TIP3    H2 5821   0.609   3.485   5.515  1.7007 -0.4760  0.0100
 1953TIP3   OH2 5822   0.596   6.578   5.331  0.3902  0.0324  0.0758
 1953TIP3    H1 5823   0.625   6.610   5.416  1.2076  2.3829 -1.0250
 1953TIP3    H2 5824   0.666   6.520   5.302  0.0685 -0.8495  0.9883
 1954TIP3   OH2 5825   5.094   4.327   2.545 -0.1307  0.3695 -0.5054
 1954TIP3    H1 5826   5.079   4.269   2.620  2.0340 -0.4627 -0.6507
 1954TIP3    H2 5827   5.007   4.338   2.505 -0.6553 -2.8297 -0.4886
 1955TIP3   OH2 5828   3.763   2.919   2.769  0.1605  0.0976  0.4734
 1955TIP3    H1 5829   3.760   2.889   2.860  0.2358  0.6739  0.6741
 1955TIP3    H2 5830   3.679   2.963   2.755 -0.3852 -1.0935 -0.1456
 1956TIP3   OH2 5831   2.410   0.606   4.508  0.7916  0.4307 -0.0495
 1956TIP3    H1 5832   2.449   0.534   4.557  1.5401  1.3499  0.7386
 1956TIP3    H2 5833   2.361   0.656   4.574 -0.9493 -0.1490 -0.8410
 1957TIP3   OH2 5834   6.327   4.821   4.243  0.1428  0.0538  0.2029
 1957TIP3    H1 5835   6.306   4.732   4.272  0.5184 -0.2763 -0.5180
 1957TIP3    H2 5836   6.270   4.836   4.167 -0.9456  0.9700  1.1418
 1958TIP3   OH2 5837   3.916   3.231   1.704 -0.1013  0.4546 -0.2279
 1958TIP3    H1 5838   3.924   3.301   1.639 -2.0107  0.8057 -0.1445
 1958TIP3    H2 5839   3.875   3.159   1.657  1.1585 -0.3690 -0.1104
 1959TIP3   OH2 5840   2.163   2.194   5.059 -0.0544  0.2086 -0.0681
 1959TIP3    H1 5841   2.094   2.254   5.032  0.2975  0.1596 -1.1157
 1959TIP3    H2 5842   2.238   2.250   5.079  0.1716  0.1557 -0.7308
 1960TIP3   OH2 5843   2.132   0.269   0.233  0.0045 -0.7506  0.6782
 1960TIP3    H1 5844   2.209   0.214   0.222 -0.0756 -0.7261 -0.0929
 1960TIP3    H2 5845   2.155   0.329   0.304  1.0457 -0.1462 -0.1423
 1961TIP3   OH2 5846   4.118   1.311   2.170  0.2915  0.0274  0.5116
 1961TIP3    H1 5847   4.117   1.380   2.104 -1.1851 -0.6221 -0.1683
 1961TIP3    H2 5848   4.157   1.236   2.126  0.0359 -0.1756  0.6314
 1962TIP3   OH2 5849   3.244   0.480   5.269  0.5320  0.0841  0.1506
 1962TIP3    H1 5850   3.177   0.540   5.302 -0.1081  0.0498 -1.0334
 1962TIP3    H2 5851   3.197   0.421   5.209  1.2609 -1.2152  0.8075
 1963TIP3   OH2 5852   6.600   3.317   4.455 -0.5521 -0.6617  0.4519
 1963TIP3    H1 5853   6.637   3.247   4.509 -0.6168 -0.2319  1.0705
 1963TIP3    H2 5854   6.657   3.392   4.471 -0.2497 -0.6732 -0.5121
 1964TIP3   OH2 5855   4.444   6.295   4.274 -0.1779 -0.0847 -0.3045
 1964TIP3    H1 5856   4.503   6.278   4.201 -0.5106  0.6527 -0.7555
 1964TIP3    H2 5857   4.365   6.245   4.252 -0.6615  0.9355 -0.9756
 1965TIP3   OH2 5858   2.100   0.131   1.332  0.0837  0.6396  0.0534
 1965TIP3    H1 5859   2.056   0.183   1.265  0.0876  0.8168  0.1871
 1965TIP3    H2 5860   2.112   0.192   1.405  0.9984  0.7516 -0.1643
 1966TIP3   OH2 5861   7.159   5.523   3.091 -0.0897 -0.2369 -0.0197
 1966TIP3    H1 5862   7.152   5.500   2.999  0.7668 -1.1040  0.1209
 1966TIP3    H2 5863   7.127   5.614   3.096  1.6331  0.5137 -1.4816
 1967TIP3   OH2 5864   5.005   0.155   2.439 -0.4768 -0.2747  0.3373
 1967TIP3    H1 5865   5.008   0.118   2.350 -0.5077 -0.5550  0.4515
 1967TIP3    H2 5866   5.094   0.186   2.454  0.0720 -1.9918  0.9444
 1968TIP3   OH2 5867   1.674   3.255   0.602  0.1448 -0.1963  0.0594
 1968TIP3    H1 5868   1.648   3.235   0.691  1.3295 -1.4811  0.1498
 1968TIP3    H2 5869   1.592   3.264   0.554 -0.5118  0.9994  1.3518
 1969TIP3   OH2 5870   0.217   2.209   2.621  0.3546 -0.5799 -0.3125
 1969TIP3    H1 5871   0.167   2.206   2.702 -1.3962 -0.3641 -1.3347
 1969TIP3    H2 5872   0.302   2.245   2.646  0.3046 -1.6715  1.6132
 1970TIP3   OH2 5873   3.885   2.983   4.987 -0.0740  0.1997 -0.7258
 1970TIP3    H1 5874   3.944   2.918   4.950  2.1122  1.8780 -0.3878
 1970TIP3    H2 5875   3.844   3.024   4.910  1.0322  0.6170 -1.1126
 1971TIP3   OH2 5876   1.218   0.286   5.229  0.6824 -0.2646 -0.4591
 1971TIP3    H1 5877   1.270   0.243   5.162 -0.1321 -0.3578 -1.0413
 1971TIP3    H2 5878   1.137   0.311   5.185  0.3018  0.0347  0.3843
 1972TIP3   OH2 5879   4.278   3.185   1.704  0.4040 -0.1585  0.3548
 1972TIP3    H1 5880   4.364   3.182   1.747  0.6684 -0.8291 -0.1970
 1972TIP3    H2 5881   4.284   3.120   1.633 -0.4205  0.0786  0.0511
 1973TIP3   OH2 5882   1.637   2.325   0.017 -0.5755 -0.1732 -0.3402
 1973TIP3    H1 5883   1.574   2.397   0.022 -0.1740  0.1272  0.8696
 1973TIP3    H2 5884   1.592   2.252   0.059 -0.2963 -0.0735  0.1499
 1974TIP3   OH2 5885   1.698   3.431   0.960 -0.4323  0.5858 -0.0903
 1974TIP3    H1 5886   1.778   3.484   0.962  0.3686 -0.6061  0.1177
 1974TIP3    H2 5887   1.630   3.493   0.932  0.6175  1.5312 -0.6581
 1975TIP3   OH2 5888   5.158   0.759   2.751 -0.3687  0.4604  0.2663
 1975TIP3    H1 5889   5.133   0.760   2.659  0.4099  0.2282  0.0517
 1975TIP3    H2 5890   5.135   0.671   2.781  1.3845 -0.2031 -0.2710
 1976TIP3   OH2 5891   5.852   1.046   0.509 -0.3525 -0.3591  0.3795
 1976TIP3    H1 5892   5.867   1.064   0.602 -0.6474 -1.3717  0.6354
 1976TIP3    H2 5893   5.938   1.018   0.476 -0.1972  0.2152  0.2887
 1977TIP3   OH2 5894   4.626   4.212   5.611  0.0084  0.0747  0.0758
 1977TIP3    H1 5895   4.633   4.144   5.677 -0.9601 -1.5908 -1.4450
 1977TIP3    H2 5896   4.707   4.262   5.619 -0.2607  0.2103  2.7359
 1978TIP3   OH2 5897   1.391   2.920   4.755  0.6156  0.4758 -0.0951
 1978TIP3    H1 5898   1.404   3.015   4.756 -0.3677  0.6194 -0.4011
 1978TIP3    H2 5899   1.421   2.893   4.668  2.5966  0.2346  0.6144
 1979TIP3   OH2 5900   1.822   0.459   4.148  0.2631 -0.5420 -0.6221
 1979TIP3    H1 5901   1.913   0.445   4.173  0.6735  1.7910 -0.5332
 1979TIP3    H2 5902   1.783   0.504   4.223 -0.0890  1.2122 -1.7963
 1980TIP3   OH2 5903   0.074   2.883   0.929  0.5203 -0.0644  0.2638
 1980TIP3    H1 5904   0.052   2.972   0.957  3.3327  0.3262  1.6029
 1980TIP3    H2 5905   0.061   2.830   1.008  1.0313 -0.4222  0.1104
 1981TIP3   OH2 5906   5.679   1.317   5.309  0.3130  0.2476 -0.2011
 1981TIP3    H1 5907   5.659   1.248   5.246  0.3677 -1.7011  1.7796
 1981TIP3    H2 5908   5.756   1.285   5.356 -0.0627  1.3563  1.2466
 1982TIP3   OH2 5909   2.798   0.502   0.161 -0.0907  0.0377  0.0427
 1982TIP3    H1 5910   2.884   0.467   0.186  1.5041  2.1119 -1.9997
 1982TIP3    H2 5911   2.738   0.429   0.170  2.2366 -2.0353 -0.1350
 1983TIP3   OH2 5912   2.952   3.016   2.298  0.4367 -0.3849 -0.4101
 1983TIP3    H1 5913   3.020   3.007   2.364  0.3106  1.0183 -0.0626
 1983TIP3    H2 5914   2.989   3.074   2.232 -0.2562  0.0504 -0.4314
 1984TIP3   OH2 5915   2.871   3.545   1.218  0.5369  0.1197  0.3636
 1984TIP3    H1 5916   2.871   3.605   1.143 -1.6580 -0.8227 -0.4496
 1984TIP3    H2 5917   2.783   3.553   1.255  1.3035 -0.0944  2.3493
 1985TIP3   OH2 5918   4.577   3.342   2.099  0.2404  0.1557 -0.1630
 1985TIP3    H1 5919   4.573   3.436   2.081 -0.1389  0.2205  0.2581
 1985TIP3    H2 5920   4.520   3.329   2.174 -0.2648 -0.5263 -0.6551
 1986TIP3   OH2 5921   1.013   3.008   1.831 -0.4130 -0.2830  0.0143
 1986TIP3    H1 5922   1.077   3.037   1.896  0.2204  2.0502 -1.5132
 1986TIP3    H2 5923   1.064   2.961   1.765 -0.5227  0.1293 -0.3725
 1987TIP3   OH2 5924   0.084   6.005   0.106  0.0403  0.7309  0.4738
 1987TIP3    H1 5925   0.170   5.987   0.067  0.3977  0.8817  1.1795
 1987TIP3    H2 5926   0.046   6.073   0.050  0.3395  0.5935  0.0996
 1988TIP3   OH2 5927   3.733   1.509   4.609  0.2156  0.2798 -0.3175
 1988TIP3    H1 5928   3.715   1.513   4.703 -0.0838  0.3337 -0.3747
 1988TIP3    H2 5929   3.678   1.578   4.572  0.5132  0.4160 -0.5053
 1989TIP3   OH2 5930   3.338   3.095   5.773  0.5544  0.0565  0.3511
 1989TIP3    H1 5931   3.336   2.999   5.775 -0.9188  0.0400 -0.4439
 1989TIP3    H2 5932   3.263   3.119   5.719  0.3571  1.7027  1.3024
 1990TIP3   OH2 5933   4.613   1.350   0.538  0.3690 -0.1599 -0.2090
 1990TIP3    H1 5934   4.547   1.282   0.525  0.3535 -0.0845 -0.5173
 1990TIP3    H2 5935   4.694   1.301   0.554  0.0620 -0.2619  1.1431
 1991TIP3   OH2 5936   0.808   5.900   4.910  0.0316 -0.0490 -0.3862
 1991TIP3    H1 5937   0.850   5.949   4.981  1.1812 -0.0850 -1.0283
 1991TIP3    H2 5938   0.875   5.838   4.880 -0.5206 -0.1998 -1.3522
 1992TIP3   OH2 5939   3.451   6.297   4.956 -0.1496  0.4088 -0.2885
 1992TIP3    H1 5940   3.404   6.369   4.998 -0.4613  2.6651 -4.0617
 1992TIP3    H2 5941   3.539   6.332   4.940  0.0551 -0.4507 -1.1526
 1993TIP3   OH2 5942   4.758   3.708   1.425  0.0550 -0.0979 -0.2571
 1993TIP3    H1 5943   4.817   3.740   1.356 -1.4461 -0.3368 -1.6858
 1993TIP3    H2 5944   4.793   3.622   1.448 -0.1997 -0.5914 -1.6682
 1994TIP3   OH2 5945   1.339   3.582   1.984 -0.1671  0.4051  0.2649
 1994TIP3    H1 5946   1.419   3.566   1.935  0.2915  0.1331  1.0766
 1994TIP3    H2 5947   1.305   3.495   2.004  0.4597  0.4446  1.6818
 1995TIP3   OH2 5948   3.286   1.643   3.382 -0.0544  0.1304 -0.1947
 1995TIP3    H1 5949   3.256   1.556   3.356  0.2593  0.0796 -0.3944
 1995TIP3    H2 5950   3.342   1.671   3.310  1.1950 -0.1912  0.6206
 1996TIP3   OH2 5951   5.730   6.314   2.274 -0.2580 -0.4651  0.3124
 1996TIP3    H1 5952   5.682   6.335   2.354  0.5396 -2.3725  1.3486
 1996TIP3    H2 5953   5.702   6.226   2.251  1.0429 -0.7333 -0.3310
 1997TIP3   OH2 5954   4.103   1.619   5.439  0.0386 -0.3797 -0.5407
 1997TIP3    H1 5955   4.170   1.556   5.411  0.2113 -1.3905  1.9121
 1997TIP3    H2 5956   4.030   1.564   5.470  0.2094  0.5722  1.6958
 1998TIP3   OH2 5957   0.601   4.550   1.293  0.8946  0.1972 -0.0493
 1998TIP3    H1 5958   0.689   4.588   1.292  1.7626 -1.6734 -1.9039
 1998TIP3    H2 5959   0.554   4.601   1.358  3.1781  1.6457  0.5853
 1999TIP3   OH2 5960   6.792   3.410   4.937 -0.2269 -0.1092  0.2254
 1999TIP3    H1 5961   6.887   3.417   4.951 -0.2493  2.2219 -0.2817
 1999TIP3    H2 5962   6.754   3.437   5.020 -0.3890  1.6035 -0.3629
 2000TIP3   OH2 5963   1.421   4.981   5.751 -0.2182 -0.3124 -0.0884
 2000TIP3    H1 5964   1.479   5.041   5.798 -0.3470 -1.1934  1.2327
 2000TIP3    H2 5965   1.345   5.035   5.727  0.8810  0.7348 -1.4322
 2001TIP3   OH2 5966   5.861   2.858   3.229  0.0144 -0.7131 -0.0779
 2001TIP3    H1 5967   5.815   2.849   3.312 -0.3279 -0.3727 -0.2265
 2001TIP3    H2 5968   5.821   2.793   3.172 -0.4334 -0.2686 -0.2720
 2002TIP3   OH2 5969   5.516   0.080   2.176  0.1167 -0.1792  0.8117
 2002TIP3    H1 5970   5.433   0.122   2.153  0.9148  2.1581  1.8792
 2002TIP3    H2 5971   5.492   0.011   2.239 -1.2822 -1.7960 -1.3680
 2003TIP3   OH2 5972   2.876   5.656   0.743 -0.4454  0.1515 -0.1926
 2003TIP3    H1 5973   2.960   5.692   0.715 -0.3654  0.8877  0.9198
 2003TIP3    H2 5974   2.816   5.675   0.671 -0.0719  1.2788 -0.2261
 2004TIP3   OH2 5975   3.049   3.438   1.623  0.2762  0.2852  0.7666
 2004TIP3    H1 5976   3.111   3.496   1.578  0.2716 -1.2668 -1.4168
 2004TIP3    H2 5977   3.101   3.397   1.693  1.6510 -0.5574 -0.6585
 2005TIP3   OH2 5978   3.581   4.936   1.271  0.1664  0.1150 -0.2683
 2005TIP3    H1 5979   3.651   4.937   1.206 -0.5363  2.3716 -1.0875
 2005TIP3    H2 5980   3.538   5.021   1.262 -1.5569 -0.4850  1.4418
 2006TIP3   OH2 5981   4.278   2.328   3.818 -0.4368 -0.4072  0.4861
 2006TIP3    H1 5982   4.303   2.280   3.739 -2.2874 -0.7579  0.0588
 2006TIP3    H2 5983   4.360   2.341   3.865  0.9437  0.9584 -2.0786
 2007TIP3   OH2 5984   1.958   1.498   5.633 -0.6962 -0.3549 -0.3406
 2007TIP3    H1 5985   2.003   1.522   5.714 -2.5683 -0.0577  0.6560
 2007TIP3    H2 5986   1.869   1.532   5.644 -0.6962  0.7520 -3.0220
 2008TIP3   OH2 5987   6.428   5.634   0.047  0.2038 -0.2149  0.0296
 2008TIP3    H1 5988   6.355   5.600  -0.004  0.0843 -1.0162  0.7026
 2008TIP3    H2 5989   6.415   5.596   0.134  2.8554 -2.6046 -0.4595
 2009TIP3   OH2 5990   1.076   3.355   1.204 -0.6704  0.2454 -0.3451
 2009TIP3    H1 5991   1.038   3.366   1.117 -0.5845 -1.4734 -0.6468
 2009TIP3    H2 5992   1.149   3.417   1.207 -0.3069 -0.0738 -1.7317
 2010TIP3   OH2 5993   6.216   5.382   2.681  0.0723  0.1345 -0.0348
 2010TIP3    H1 5994   6.143   5.395   2.741 -0.8607  0.3385 -1.1713
 2010TIP3    H2 5995   6.174   5.370   2.595  1.2512 -2.1704 -0.3632
 2011TIP3   OH2 5996   3.970   3.433   0.687  0.2976  0.5599 -0.2250
 2011TIP3    H1 5997   4.001   3.342   0.689  0.3797  0.5806  1.7393
 2011TIP3    H2 5998   3.878   3.427   0.712  0.2865  1.0217 -0.1474
 2012TIP3   OH2 5999   1.099   1.333   0.173  0.1823 -0.1589 -0.0517
 2012TIP3    H1 6000   1.099   1.287   0.089  0.7562 -0.1287 -0.0715
 2012TIP3    H2 6001   1.100   1.426   0.150  0.7081 -0.1546 -0.0110
 2013TIP3   OH2 6002   2.701   6.483   3.334 -0.3843  0.3670  0.4185
 2013TIP3    H1 6003   2.609   6.510   3.331 -1.0394 -1.6026  1.4016
 2013TIP3    H2 6004   2.700   6.391   3.308  1.2123  0.0656  1.3039
 2014TIP3   OH2 6005   1.847   5.823   5.377 -0.1901  0.0045  0.3753
 2014TIP3    H1 6006   1.907   5.894   5.401 -0.1824 -0.0351  0.4742
 2014TIP3    H2 6007   1.835   5.773   5.458 -0.9607  0.4565  0.5429
 2015TIP3   OH2 6008   5.799   2.473   4.881 -0.4499 -0.2533  0.0987
 2015TIP3    H1 6009   5.720   2.419   4.880 -0.4350 -0.2961 -1.7154
 2015TIP3    H2 6010   5.833   2.468   4.792  0.6232  1.2008  0.3815
 2016TIP3   OH2 6011   1.472   6.245   4.496  0.1348  0.3190 -0.0570
 2016TIP3    H1 6012   1.523   6.168   4.522  0.5014  0.6459  0.2085
 2016TIP3    H2 6013   1.532   6.296   4.442  0.5326  1.3227  1.2847
 2017TIP3   OH2 6014   4.054   0.743   2.156  0.6602  0.5967  0.4263
 2017TIP3    H1 6015   4.073   0.712   2.068 -1.5882  1.3303 -0.3829
 2017TIP3    H2 6016   4.006   0.825   2.143 -0.1776  0.4537  2.3032
 2018TIP3   OH2 6017   1.147   3.326   4.546  0.6452 -0.1963 -0.5780
 2018TIP3    H1 6018   1.057   3.298   4.531 -0.1809  1.4229  0.9983
 2018TIP3    H2 6019   1.172   3.372   4.466  0.0484 -0.5379 -0.9695
 2019TIP3   OH2 6020   4.074   1.552   2.040 -0.1365 -0.6970  0.1443
 2019TIP3    H1 6021   4.041   1.526   1.954 -1.1548  0.9240  0.0212
 2019TIP3    H2 6022   4.119   1.635   2.025 -1.8296  0.5122  1.4406
 2020TIP3   OH2 6023   1.324   3.660   2.380  0.2612  0.2024  0.0102
 2020TIP3    H1 6024   1.245   3.612   2.403  0.2047  0.0587 -0.4926
 2020TIP3    H2 6025   1.343   3.712   2.459  0.8816 -1.3622  0.9269
 2021TIP3   OH2 6026   2.467   3.704   5.338 -0.5607  0.3418  0.4356
 2021TIP3    H1 6027   2.429   3.644   5.402 -0.5782  0.2553  0.3452
 2021TIP3    H2 6028   2.489   3.782   5.388 -0.5462  0.2629  0.5524
 2022TIP3   OH2 6029   4.850   0.879   2.451 -0.3574  0.1124 -0.4052
 2022TIP3    H1 6030   4.945   0.873   2.449 -0.2345  0.4636  1.9996
 2022TIP3    H2 6031   4.820   0.788   2.453  0.0435 -0.0131  0.8546
 2023TIP3   OH2 6032   0.302   2.556   5.793  0.0931  0.2682  0.2680
 2023TIP3    H1 6033   0.223   2.607   5.774 -0.6761 -0.6917  0.7920
 2023TIP3    H2 6034   0.269   2.472   5.825  1.2989 -1.1072 -1.8883
 2024TIP3   OH2 6035   5.762   3.464   3.864 -0.3245 -0.3388  0.5533
 2024TIP3    H1 6036   5.754   3.549   3.908 -2.2277  0.3350 -0.9686
 2024TIP3    H2 6037   5.689   3.413   3.896 -0.7831 -0.4134 -0.5719
 2025TIP3   OH2 6038   0.999   0.359   2.837 -0.1851 -0.4194  0.1947
 2025TIP3    H1 6039   0.909   0.329   2.831 -0.0922 -0.7280  0.2866
 2025TIP3    H2 6040   0.993   0.455   2.838 -0.7168 -0.3978  2.8982
 2026TIP3   OH2 6041   1.742   4.667   1.995 -0.3525  0.4806 -0.3352
 2026TIP3    H1 6042   1.663   4.709   1.962 -0.9957 -0.8511 -0.5879
 2026TIP3    H2 6043   1.711   4.585   2.034  0.8372  0.1917  0.0531
 2027TIP3   OH2 6044   1.496   6.729   4.084  0.0781  0.0705  0.2645
 2027TIP3    H1 6045   1.547   6.809   4.096 -0.9003  0.6526  0.6801
 2027TIP3    H2 6046   1.462   6.708   4.171 -1.5496  0.5208 -0.2202
 2028TIP3   OH2 6047   1.996   5.388   0.003  0.0036  0.3723 -0.5611
 2028TIP3    H1 6048   1.929   5.439  -0.042 -0.5626  1.1958  1.1701
 2028TIP3    H2 6049   1.977   5.398   0.096  2.0716 -0.0081 -0.0428
 2029TIP3   OH2 6050   5.239   2.717   5.568 -0.1893 -0.4382  0.3125
 2029TIP3    H1 6051   5.322   2.682   5.600  0.2185 -0.2193 -0.4772
 2029TIP3    H2 6052   5.264   2.795   5.519 -0.5728 -1.7395 -2.0870
 2030TIP3   OH2 6053   6.183   1.556   1.001  0.1811  0.1966  0.4022
 2030TIP3    H1 6054   6.152   1.611   0.929 -0.9850 -0.7355  0.1464
 2030TIP3    H2 6055   6.138   1.472   0.987  0.7588 -0.3387  1.6152
 2031TIP3   OH2 6056   3.571   6.773   4.715 -0.2058  0.0460  0.1458
 2031TIP3    H1 6057   3.633   6.841   4.743  1.0059 -0.9758 -0.0150
 2031TIP3    H2 6058   3.560   6.718   4.793  2.2909 -2.1433 -0.9170
 2032TIP3   OH2 6059   2.926   6.451   4.715  0.1666  0.1815  0.2671
 2032TIP3    H1 6060   2.988   6.380   4.698 -0.2641  0.3424 -2.2034
 2032TIP3    H2 6061   2.840   6.414   4.692 -0.1587  1.2288 -0.2566
 2033TIP3   OH2 6062   1.828   6.678   2.888  0.7622 -0.2782  0.6492
 2033TIP3    H1 6063   1.895   6.690   2.821 -1.5494  1.9740 -1.5009
 2033TIP3    H2 6064   1.806   6.767   2.916 -0.7205 -0.9856  1.8932
 2034TIP3   OH2 6065   3.226   6.132   5.819  0.6869 -0.1378  0.6143
 2034TIP3    H1 6066   3.146   6.082   5.800  0.1709  1.1429 -0.7628
 2034TIP3    H2 6067   3.288   6.104   5.752  0.6021  0.5908  0.2236
 2035TIP3   OH2 6068   3.478   6.704   1.757  0.2786 -0.6933  0.1711
 2035TIP3    H1 6069   3.509   6.614   1.758  0.9994 -0.4664 -0.5148
 2035TIP3    H2 6070   3.383   6.697   1.746 -0.2294 -1.4386  3.8542
 2036TIP3   OH2 6071   3.648   1.738   2.989  0.1286  0.0506  0.9269
 2036TIP3    H1 6072   3.698   1.819   2.978 -0.0039  0.3051  2.0730
 2036TIP3    H2 6073   3.713   1.668   2.975 -0.2197  0.2128 -2.5186
 2037TIP3   OH2 6074   3.947   5.833   5.607 -0.1021  0.2752 -0.6193
 2037TIP3    H1 6075   3.983   5.886   5.536 -1.0300 -1.1411 -2.2289
 2037TIP3    H2 6076   4.012   5.838   5.676  1.3101  0.9311 -1.9290
 2038TIP3   OH2 6077   2.390   4.139   3.870  0.2454 -0.8056  0.0309
 2038TIP3    H1 6078   2.379   4.044   3.864 -1.2556 -0.6404 -0.3039
 2038TIP3    H2 6079   2.454   4.152   3.940 -2.0376 -1.9741  2.4790
 2039TIP3   OH2 6080   7.058   3.513   2.494 -0.1439  0.0147 -0.1584
 2039TIP3    H1 6081   7.104   3.589   2.460  0.4456 -0.6680 -0.9196
 2039TIP3    H2 6082   7.123   3.443   2.494 -0.3244 -0.1972  1.7248
 2040TIP3   OH2 6083   1.382   1.945   1.797 -0.0545  0.0167 -0.3507
 2040TIP3    H1 6084   1.466   1.960   1.755  0.4560  2.5654  1.3837
 2040TIP3    H2 6085   1.392   1.859   1.839  2.1635  0.7283  0.7614
 2041TIP3   OH2 6086   1.472   2.904   4.450  0.1832  0.0904  1.0790
 2041TIP3    H1 6087   1.556   2.948   4.447  0.2679 -0.1577 -1.0452
 2041TIP3    H2 6088   1.493   2.811   4.453 -0.0091  0.0084  0.0261
 2042TIP3   OH2 6089   1.683   5.847   3.753 -0.4363 -0.0487 -0.0928
 2042TIP3    H1 6090   1.634   5.857   3.672 -0.4826  0.2582 -0.0293
 2042TIP3    H2 6091   1.616   5.840   3.821 -0.4014 -0.5847 -0.1083
 2043TIP3   OH2 6092   4.760   6.131   5.434  0.6338 -0.4107  0.6156
 2043TIP3    H1 6093   4.725   6.219   5.446  0.0799 -0.5691  0.2236
 2043TIP3    H2 6094   4.714   6.078   5.499 -0.8987 -0.8812 -0.7703
 2044TIP3   OH2 6095   2.872   6.493   1.341 -0.4379 -0.1303 -0.3380
 2044TIP3    H1 6096   2.956   6.538   1.347 -0.3209 -0.2158 -1.2390
 2044TIP3    H2 6097   2.859   6.478   1.247 -1.1935 -0.6127 -0.1664
 2045TIP3   OH2 6098   1.154   6.382   0.708  0.2092 -0.4563  0.5226
 2045TIP3    H1 6099   1.203   6.462   0.689 -0.1087 -0.0194  1.4389
 2045TIP3    H2 6100   1.156   6.332   0.627 -1.9947  1.7470 -1.0654
 2046TIP3   OH2 6101   2.327   5.093   2.622 -0.3998 -0.0962 -0.1960
 2046TIP3    H1 6102   2.279   5.013   2.645  0.1787 -0.5505 -0.5537
 2046TIP3    H2 6103   2.378   5.113   2.701  0.0176 -0.4979 -0.3624
 2047TIP3   OH2 6104   0.122   6.707   1.212  0.3272  0.3874 -0.0746
 2047TIP3    H1 6105   0.183   6.718   1.139 -0.6050  1.3888 -0.7431
 2047TIP3    H2 6106   0.043   6.755   1.184 -0.4880 -0.2361  1.0747
 2048TIP3   OH2 6107   3.419   1.479   2.912 -0.1135 -0.0235 -0.0478
 2048TIP3    H1 6108   3.388   1.541   2.845  0.0504 -1.0246 -1.0757
 2048TIP3    H2 6109   3.513   1.475   2.898 -0.0042  0.1686  0.6161
 2049TIP3   OH2 6110   5.589   6.631   0.981  0.3167  0.3488  0.2007
 2049TIP3    H1 6111   5.599   6.564   0.914 -0.3357  0.1237  0.3232
 2049TIP3    H2 6112   5.665   6.619   1.038  1.4749  1.2677 -1.1016
 2050TIP3   OH2 6113   3.454   4.089   4.372 -0.5277 -0.3492 -0.2073
 2050TIP3    H1 6114   3.518   4.021   4.351 -0.3121  0.1621 -1.3258
 2050TIP3    H2 6115   3.487   4.167   4.326 -0.2757  0.7600  1.7687
 2051TIP3   OH2 6116   0.888   3.094   2.111 -0.7505  1.0619 -0.2148
 2051TIP3    H1 6117   0.861   3.002   2.115 -0.8440  0.9088 -2.7226
 2051TIP3    H2 6118   0.966   3.094   2.055  0.3011  2.3388  1.1688
 2052TIP3   OH2 6119   4.651   2.628   0.236  0.0052 -0.0502  0.0900
 2052TIP3    H1 6120   4.609   2.569   0.172 -2.1910 -0.6855  1.9834
 2052TIP3    H2 6121   4.676   2.570   0.308  0.3003  0.9548  0.8121
 2053TIP3   OH2 6122   3.665   5.318   0.979 -0.7443  0.0085 -0.0641
 2053TIP3    H1 6123   3.746   5.309   1.029 -0.5463  1.6604 -0.0243
 2053TIP3    H2 6124   3.694   5.329   0.888 -0.8337  1.5442  0.0640
 2054TIP3   OH2 6125   6.209   5.888   0.096 -0.2763  0.1575 -0.3508
 2054TIP3    H1 6126   6.181   5.836   0.171  0.2004  2.5545  1.6018
 2054TIP3    H2 6127   6.297   5.855   0.075  0.4603  0.8250  1.5306
 2055TIP3   OH2 6128   6.964   6.084   4.407  0.0584  0.2391 -0.4222
 2055TIP3    H1 6129   7.028   6.076   4.477 -0.5582 -1.1512  0.0162
 2055TIP3    H2 6130   6.895   6.139   4.443 -0.1700 -0.3219  0.0067
 2056TIP3   OH2 6131   6.261   6.657   5.740  0.7072  0.4279  0.1961
 2056TIP3    H1 6132   6.227   6.582   5.789  0.9084 -0.4692 -0.9761
 2056TIP3    H2 6133   6.189   6.721   5.740 -0.3422 -0.6849 -0.6729
 2057TIP3   OH2 6134   4.461   1.217   5.432  0.4517 -0.2733  0.5041
 2057TIP3    H1 6135   4.510   1.181   5.506  1.2562 -0.3532 -0.0667
 2057TIP3    H2 6136   4.452   1.144   5.371  2.2267  0.4862 -0.7324
 2058TIP3   OH2 6137   1.669   3.929   2.083  0.4097 -0.3335 -0.0674
 2058TIP3    H1 6138   1.617   3.873   2.141  0.3920  0.1463  0.3823
 2058TIP3    H2 6139   1.612   4.005   2.066  1.3774  0.7446  1.3356
 2059TIP3   OH2 6140   4.784   4.500   2.274 -0.1023  0.0366  0.1500
 2059TIP3    H1 6141   4.720   4.570   2.263 -0.4382  0.0649  2.0149
 2059TIP3    H2 6142   4.760   4.436   2.206 -2.2962 -0.0794  0.9509
 2060TIP3   OH2 6143   4.480   3.735   5.630  0.3278 -0.3410 -0.5236
 2060TIP3    H1 6144   4.462   3.681   5.707 -1.5119  0.6702 -0.1792
 2060TIP3    H2 6145   4.487   3.673   5.558 -0.9322 -1.1211 -0.0033
 2061TIP3   OH2 6146   1.487   0.880   3.044 -0.1813 -0.2784 -0.0316
 2061TIP3    H1 6147   1.455   0.945   2.982 -0.4714 -0.8742 -0.5167
 2061TIP3    H2 6148   1.554   0.831   2.996  1.3859  0.8299  0.9127
 2062TIP3   OH2 6149   1.214   2.493   3.183  0.2257  0.1459  0.0300
 2062TIP3    H1 6150   1.223   2.400   3.162 -0.1386  0.5672 -2.1648
 2062TIP3    H2 6151   1.164   2.530   3.111 -1.0569  1.7804  1.6633
 2063TIP3   OH2 6152   6.832   2.687   3.873 -0.1880 -0.2700  0.1177
 2063TIP3    H1 6153   6.849   2.745   3.947  0.4158 -0.9880  0.5579
 2063TIP3    H2 6154   6.772   2.620   3.908  1.4090 -1.5832  0.4773
 2064TIP3   OH2 6155   4.263   6.594   3.881 -0.5755  0.0467 -0.2759
 2064TIP3    H1 6156   4.318   6.579   3.958  0.1610  1.4087 -0.5013
 2064TIP3    H2 6157   4.272   6.515   3.829  0.3365 -0.1775  0.2035
 2065TIP3   OH2 6158   3.570   2.563   3.070  0.5076 -0.4468  0.5805
 2065TIP3    H1 6159   3.549   2.644   3.024 -2.3813 -1.7451 -0.6425
 2065TIP3    H2 6160   3.617   2.591   3.148  4.6197  1.9615 -2.3589
 2066TIP3   OH2 6161   0.051   4.628   2.916  0.0943  0.2390 -0.5503
 2066TIP3    H1 6162   0.110   4.589   2.981 -2.6004 -1.6499  0.9716
 2066TIP3    H2 6163   0.007   4.699   2.963 -0.6918 -0.0668 -0.8135
 2067TIP3   OH2 6164   1.986   2.272   2.710  0.2025 -0.6403 -0.2017
 2067TIP3    H1 6165   1.920   2.285   2.641  2.1324 -0.1180 -2.0605
 2067TIP3    H2 6166   1.936   2.237   2.784 -2.1419 -0.3075 -1.5090
 2068TIP3   OH2 6167   2.989   6.075   0.552 -0.2121  0.5489  0.3006
 2068TIP3    H1 6168   2.951   6.146   0.604 -1.1015 -0.6171  1.3288
 2068TIP3    H2 6169   3.080   6.071   0.580 -0.3352  0.8425  0.7543
 2069TIP3   OH2 6170   1.423   4.900   3.581  0.3025 -0.0431 -0.1981
 2069TIP3    H1 6171   1.470   4.817   3.580 -0.9025 -0.7343 -1.4186
 2069TIP3    H2 6172   1.402   4.917   3.489 -2.1059  0.0625  0.3121
 2070TIP3   OH2 6173   3.241   4.653   2.778 -0.0006  0.0031 -0.3668
 2070TIP3    H1 6174   3.192   4.572   2.797  0.3937 -0.2172 -0.2854
 2070TIP3    H2 6175   3.210   4.680   2.692 -0.4338 -0.0107 -0.2187
 2071TIP3   OH2 6176   1.103   1.843   4.400 -0.2028  0.1030 -0.0751
 2071TIP3    H1 6177   1.095   1.925   4.448  2.3818 -0.1113  0.8982
 2071TIP3    H2 6178   1.186   1.851   4.353  0.6236 -2.2762  0.8164
 2072TIP3   OH2 6179   2.579   5.129   3.448  0.3626 -0.0592  0.1815
 2072TIP3    H1 6180   2.542   5.090   3.369 -0.3347  0.6489  0.1446
 2072TIP3    H2 6181   2.672   5.106   3.445  0.1110 -1.0640 -0.2136
 2073TIP3   OH2 6182   1.933   0.464   0.177 -0.3125  0.7579  0.1106
 2073TIP3    H1 6183   1.959   0.378   0.145 -1.7366  1.1676 -2.3880
 2073TIP3    H2 6184   2.000   0.524   0.145 -0.6682  0.9062 -0.3618
 2074TIP3   OH2 6185   4.818   4.253   4.478  0.5620 -0.1845 -0.0849
 2074TIP3    H1 6186   4.797   4.162   4.501 -1.8292  0.8460  2.2796
 2074TIP3    H2 6187   4.788   4.261   4.387 -0.4617 -1.4072  0.1088
 2075TIP3   OH2 6188   2.043   2.650   0.416 -0.1409 -0.0881  0.0516
 2075TIP3    H1 6189   2.137   2.651   0.400 -0.0227  0.7923  0.7801
 2075TIP3    H2 6190   2.011   2.732   0.379 -0.7153 -0.6168 -0.6646
 2076TIP3   OH2 6191   4.061   6.762   0.877  0.2308  0.0217  0.0269
 2076TIP3    H1 6192   4.011   6.699   0.929 -0.7481  1.0764  0.3937
 2076TIP3    H2 6193   4.068   6.723   0.790 -3.6847  0.9995 -0.9107
 2077TIP3   OH2 6194   1.257   2.229   3.047 -0.2517 -0.1986  0.3230
 2077TIP3    H1 6195   1.174   2.250   3.004 -1.0099 -0.9855  1.3406
 2077TIP3    H2 6196   1.256   2.134   3.055  0.5363 -0.1788  0.7712
 2078TIP3   OH2 6197   3.336   5.199   1.987  0.3309 -0.6401 -0.0638
 2078TIP3    H1 6198   3.241   5.198   1.980  0.3765 -2.2068 -0.7789
 2078TIP3    H2 6199   3.356   5.279   2.036 -1.2290  0.6138 -1.4006
 2079TIP3   OH2 6200   5.646   0.106   2.682  0.1303 -0.2367  0.5942
 2079TIP3    H1 6201   5.642   0.176   2.747  1.4389 -0.7592  1.2837
 2079TIP3    H2 6202   5.739   0.094   2.666 -0.1576 -0.0129 -1.5470
 2080TIP3   OH2 6203   4.270   5.643   1.621 -0.4807 -0.7074 -0.2297
 2080TIP3    H1 6204   4.203   5.607   1.680  0.7661 -2.4740  0.1903
 2080TIP3    H2 6205   4.268   5.585   1.545  0.6582 -0.8772 -0.1395
 2081TIP3   OH2 6206   1.006   0.472   1.788 -0.3445 -0.3522 -0.0660
 2081TIP3    H1 6207   0.930   0.461   1.845  0.0884 -1.9171  0.2638
 2081TIP3    H2 6208   1.055   0.390   1.798 -0.2692 -0.7054 -2.7352
 2082TIP3   OH2 6209   6.833   0.178   5.446 -0.2642 -0.3830  0.5505
 2082TIP3    H1 6210   6.744   0.143   5.455 -1.3387  2.2270  0.8636
 2082TIP3    H2 6211   6.867   0.181   5.536 -1.5130  2.4492  1.0249
 2083TIP3   OH2 6212   1.759   1.310   3.954 -0.0156 -0.6840  0.9634
 2083TIP3    H1 6213   1.792   1.232   3.909 -0.9312 -0.6301  0.1515
 2083TIP3    H2 6214   1.797   1.306   4.041  0.0366 -1.9937  0.8946
 2084TIP3   OH2 6215   1.730   3.689   2.401  0.1301 -0.0453 -0.7779
 2084TIP3    H1 6216   1.689   3.770   2.431 -1.5023 -0.2537 -2.2478
 2084TIP3    H2 6217   1.824   3.708   2.400  0.0181  0.9099  1.4419
 2085TIP3   OH2 6218   3.757   4.610   4.999  0.2962  0.1454  0.2247
 2085TIP3    H1 6219   3.765   4.521   4.963  0.5836  0.7055 -1.1698
 2085TIP3    H2 6220   3.689   4.603   5.066 -1.0589 -0.7672 -1.1739
 2086TIP3   OH2 6221   2.312   4.491   2.359 -0.0568  0.3612  0.6866
 2086TIP3    H1 6222   2.262   4.433   2.416 -1.5158 -0.9570 -1.7402
 2086TIP3    H2 6223   2.282   4.470   2.271  1.0068  3.2836 -0.5218
 2087TIP3   OH2 6224   3.462   3.757   0.270 -0.1699 -0.2690 -0.0701
 2087TIP3    H1 6225   3.407   3.832   0.249 -1.0082 -1.0375 -0.6623
 2087TIP3    H2 6226   3.512   3.785   0.347 -1.3258  0.4659  0.4362
 2088TIP3   OH2 6227   6.496   6.493   4.977 -0.5990 -0.0250 -0.7188
 2088TIP3    H1 6228   6.539   6.475   4.893 -0.3744 -2.0646 -0.2151
 2088TIP3    H2 6229   6.456   6.410   5.002 -1.1753  0.7005  0.9257
 2089TIP3   OH2 6230   6.629   3.483   5.138  0.2515 -0.4220 -0.3674
 2089TIP3    H1 6231   6.539   3.453   5.146  0.4341 -0.6929  0.8687
 2089TIP3    H2 6232   6.622   3.578   5.132 -0.0220 -0.1944  2.4558
 2090TIP3   OH2 6233   3.614   0.478   3.690 -0.0172  0.4403 -0.1811
 2090TIP3    H1 6234   3.572   0.399   3.726 -2.7460  1.8269 -0.1024
 2090TIP3    H2 6235   3.573   0.551   3.736  2.2493  1.9983 -0.4335
 2091TIP3   OH2 6236   7.043   5.704   2.830  0.3285  0.1320 -0.2165
 2091TIP3    H1 6237   7.121   5.740   2.872  0.7676 -1.0101 -0.0220
 2091TIP3    H2 6238   7.071   5.620   2.795 -0.0798  0.9319 -2.6590
 2092TIP3   OH2 6239   1.213   3.936   3.148 -0.0781  0.3947 -0.3394
 2092TIP3    H1 6240   1.261   4.007   3.106  0.3417  0.5033  0.3017
 2092TIP3    H2 6241   1.131   3.976   3.177 -0.1410  0.4466 -0.5894
 2093TIP3   OH2 6242   3.831   0.704  -0.009 -0.0825 -0.3154  0.0721
 2093TIP3    H1 6243   3.767   0.775   0.003 -1.1614 -1.1682 -0.4987
 2093TIP3    H2 6244   3.802   0.635   0.051  0.7072 -0.4572  0.2999
 2094TIP3   OH2 6245   5.211   3.221   4.012 -0.5979  0.0717  0.4699
 2094TIP3    H1 6246   5.241   3.238   3.923 -0.5548  1.3427  0.7102
 2094TIP3    H2 6247   5.268   3.275   4.067 -2.7364  1.9218  0.9979
 2095TIP3   OH2 6248   7.129   6.644   2.062 -0.0795 -0.1309  0.7692
 2095TIP3    H1 6249   7.134   6.554   2.031  1.1846 -0.2161  1.1568
 2095TIP3    H2 6250   7.082   6.639   2.145  2.1247 -0.8407  2.0797
 2096TIP3   OH2 6251   5.339   0.726   3.923 -0.5630 -0.3548  0.5539
 2096TIP3    H1 6252   5.417   0.781   3.913 -0.5824 -0.3419  0.4719
 2096TIP3    H2 6253   5.281   0.777   3.979 -2.3413  1.6600 -2.7600
 2097TIP3   OH2 6254   3.513   4.671   1.809  0.1493  0.0380  0.2325
 2097TIP3    H1 6255   3.420   4.658   1.790 -0.0005 -2.2072  2.1099
 2097TIP3    H2 6256   3.516   4.704   1.898  1.1231  3.3388 -0.8688
 2098TIP3   OH2 6257   6.694   3.581   3.895  0.3978  0.6649  0.1967
 2098TIP3    H1 6258   6.624   3.586   3.830  2.2149 -1.6097 -2.1460
 2098TIP3    H2 6259   6.653   3.542   3.972 -1.2098  0.7024 -0.6026
 2099TIP3   OH2 6260   0.300   4.290   2.389  0.4740 -0.0031  0.3549
 2099TIP3    H1 6261   0.385   4.330   2.369  0.2807  0.6338  0.7946
 2099TIP3    H2 6262   0.322   4.217   2.447  0.8867 -0.9521 -0.9293
 2100TIP3   OH2 6263   4.430   4.843   2.894 -0.2170  0.7503  0.4400
 2100TIP3    H1 6264   4.391   4.874   2.975  0.1625  0.0922  0.8809
 2100TIP3    H2 6265   4.515   4.887   2.890  0.6558 -0.7464  1.4514
 2101TIP3   OH2 6266   2.632   6.579   1.954  0.1245 -0.2858  0.1398
 2101TIP3    H1 6267   2.596   6.496   1.985  0.9730 -1.4195 -1.7467
 2101TIP3    H2 6268   2.682   6.613   2.029 -1.8581 -0.4284  1.6113
 2102TIP3   OH2 6269   2.540   1.275   2.492 -0.3425 -0.5619 -0.4184
 2102TIP3    H1 6270   2.584   1.358   2.474 -0.4293 -0.2009  0.8750
 2102TIP3    H2 6271   2.489   1.256   2.414 -1.4708  1.3615 -0.1973
 2103TIP3   OH2 6272   1.713   1.022   2.808  0.3671 -0.1590  0.2079
 2103TIP3    H1 6273   1.632   1.071   2.811 -0.1140 -0.8785 -0.5024
 2103TIP3    H2 6274   1.688   0.933   2.832  1.4269  0.1360  2.6743
 2104TIP3   OH2 6275   5.208   0.329   3.577 -0.3796 -0.1381  0.6565
 2104TIP3    H1 6276   5.287   0.301   3.529 -1.8989 -1.0621 -1.4816
 2104TIP3    H2 6277   5.237   0.404   3.629  1.6701  0.3074 -0.9832
 2105TIP3   OH2 6278   5.050   0.243   0.073 -0.0066 -0.0854 -0.1923
 2105TIP3    H1 6279   5.046   0.300   0.149 -1.5388 -2.0197  1.2815
 2105TIP3    H2 6280   4.959   0.220   0.054  0.4180 -0.5156 -1.9640
 2106TIP3   OH2 6281   4.652   6.684   3.127  0.4928  0.3215 -0.1014
 2106TIP3    H1 6282   4.680   6.775   3.124  0.8672  0.2364  0.7042
 2106TIP3    H2 6283   4.711   6.642   3.190  0.3094 -0.4722 -0.4393
 2107TIP3   OH2 6284   1.318   5.435   2.159  0.5333  0.0102  0.0066
 2107TIP3    H1 6285   1.364   5.512   2.126  0.1034  0.6195  0.7857
 2107TIP3    H2 6286   1.381   5.392   2.216  0.6852 -0.0715 -0.2206
 2108TIP3   OH2 6287   5.777   6.557   4.016 -0.5879 -0.0141 -0.3777
 2108TIP3    H1 6288   5.730   6.474   4.012  0.6336 -0.6888 -0.9141
 2108TIP3    H2 6289   5.869   6.534   4.008 -0.1361  1.2925  0.6489
 2109TIP3   OH2 6290   5.768   4.385   4.282 -0.0430  0.1412  0.7208
 2109TIP3    H1 6291   5.764   4.292   4.259  1.5910  0.7421 -2.5397
 2109TIP3    H2 6292   5.718   4.391   4.363 -0.7244 -3.4652  0.7527
 2110TIP3   OH2 6293   2.998   4.797   1.688  0.2642  0.2166 -0.2784
 2110TIP3    H1 6294   2.995   4.857   1.762 -0.8284  0.2054 -0.2977
 2110TIP3    H2 6295   2.985   4.852   1.611  0.3475  0.0947 -0.3806
 2111TIP3   OH2 6296   3.284   4.797   4.735  0.3667 -0.2753  0.3198
 2111TIP3    H1 6297   3.312   4.885   4.710  0.0035  0.0236  0.9336
 2111TIP3    H2 6298   3.269   4.751   4.652  2.7561 -0.5011 -0.0587
 2112TIP3   OH2 6299   3.789   2.001   2.987  0.3021 -0.3117 -0.2048
 2112TIP3    H1 6300   3.882   1.985   2.998  0.7673 -0.7364 -3.5429
 2112TIP3    H2 6301   3.774   2.087   3.027  2.7004  0.9152 -1.7159
 2113TIP3   OH2 6302   3.814   0.556   3.166 -0.6122  0.7045  0.0793
 2113TIP3    H1 6303   3.871   0.572   3.242 -2.8435  0.7757  1.8536
 2113TIP3    H2 6304   3.853   0.608   3.096  1.6445  0.5138  1.0713
 2114TIP3   OH2 6305   1.037   6.061   5.549  0.7662  0.2588  0.0833
 2114TIP3    H1 6306   1.113   6.049   5.492  0.4479  0.0634 -0.3044
 2114TIP3    H2 6307   1.017   5.974   5.583 -0.6595 -0.1282 -1.5987
 2115TIP3   OH2 6308   0.445   1.578   0.418 -0.0631  0.2176  0.0576
 2115TIP3    H1 6309   0.497   1.507   0.379  0.5249  0.7767 -0.1891
 2115TIP3    H2 6310   0.509   1.637   0.457 -0.5928  0.2306  0.9270
 2116TIP3   OH2 6311   5.453   0.178   3.537 -0.0542 -0.1517 -0.1075
 2116TIP3    H1 6312   5.433   0.196   3.445  1.7062 -0.5332 -0.6184
 2116TIP3    H2 6313   5.548   0.187   3.542  0.3472 -3.5255  0.8794
 2117TIP3   OH2 6314   2.936   3.260   5.833 -0.2483 -0.0853  0.1287
 2117TIP3    H1 6315   2.844   3.260   5.807 -0.3000  0.3945  0.3108
 2117TIP3    H2 6316   2.982   3.227   5.755 -0.5680 -0.3044  0.0282
 2118TIP3   OH2 6317   3.041   6.688   3.556 -0.5534  0.1892 -0.6212
 2118TIP3    H1 6318   2.948   6.665   3.567 -0.9111  2.0002  0.7222
 2118TIP3    H2 6319   3.040   6.783   3.544  1.1689  0.3167  0.0149
 2119TIP3   OH2 6320   5.383   4.739   3.430  0.1687  0.5225 -0.0931
 2119TIP3    H1 6321   5.441   4.687   3.374 -1.1513 -0.1464 -0.8773
 2119TIP3    H2 6322   5.391   4.828   3.396  0.7674  0.4549 -0.1513
 2120TIP3   OH2 6323   0.242   5.884   0.713  0.3056 -0.2000  0.0830
 2120TIP3    H1 6324   0.285   5.968   0.696  1.3373 -0.9793 -1.3801
 2120TIP3    H2 6325   0.154   5.895   0.677  0.6044  0.0954 -0.5850
 2121TIP3   OH2 6326   0.992   2.842   4.579 -0.0998 -0.1916  0.1430
 2121TIP3    H1 6327   1.066   2.808   4.528 -0.3205  0.7074 -0.7979
 2121TIP3    H2 6328   0.971   2.771   4.640  1.3969 -0.5568  0.2911
 2122TIP3   OH2 6329   3.782   1.179   0.159 -0.0884 -0.0751 -0.1353
 2122TIP3    H1 6330   3.697   1.183   0.204  0.0034  2.3159 -0.0237
 2122TIP3    H2 6331   3.818   1.094   0.183 -1.7530 -0.4771  1.1401
 2123TIP3   OH2 6332   6.066   0.353   0.144 -0.8762  0.3719  0.6478
 2123TIP3    H1 6333   6.001   0.284   0.133 -0.1798 -0.0767 -0.9932
 2123TIP3    H2 6334   6.018   0.434   0.124 -1.0592  0.0884 -0.1039
 2124TIP3   OH2 6335   2.609   5.345   5.395  0.1604 -0.1965  0.1534
 2124TIP3    H1 6336   2.524   5.313   5.364 -0.1970 -0.1967  1.1023
 2124TIP3    H2 6337   2.667   5.269   5.389 -0.7294 -1.1916  2.5877
 2125TIP3   OH2 6338   1.121   0.412   5.708  0.4629 -0.0922  0.3749
 2125TIP3    H1 6339   1.204   0.400   5.660 -0.3384 -2.1166 -0.6276
 2125TIP3    H2 6340   1.054   0.403   5.641 -0.6021  2.3975  1.0239
 2126TIP3   OH2 6341   4.768   2.094   2.516  0.2434  0.0904  0.2175
 2126TIP3    H1 6342   4.701   2.157   2.541 -0.2573 -0.3605  0.0069
 2126TIP3    H2 6343   4.840   2.148   2.482 -0.8925  0.4898 -1.7041
 2127TIP3   OH2 6344   5.718   4.361   3.783 -0.2052  0.7244 -0.3690
 2127TIP3    H1 6345   5.695   4.430   3.846 -0.3722  0.7434 -0.4503
 2127TIP3    H2 6346   5.635   4.340   3.740 -0.5993 -0.9739  1.0835
 2128TIP3   OH2 6347   2.254   1.113   4.202 -0.4867  0.5831 -0.2610
 2128TIP3    H1 6348   2.337   1.066   4.213 -0.9928  0.1925  3.1531
 2128TIP3    H2 6349   2.277   1.195   4.161  1.6159  0.4265  0.5075
 2129TIP3   OH2 6350   5.326   3.010   1.589 -0.4830  0.5058 -0.5881
 2129TIP3    H1 6351   5.281   2.942   1.539 -2.6922  0.4189  1.3733
 2129TIP3    H2 6352   5.315   2.985   1.680  2.7213  1.0756  0.0962
 2130TIP3   OH2 6353   2.753   3.737   5.748 -0.5567 -0.1073 -0.0607
 2130TIP3    H1 6354   2.836   3.720   5.703 -1.1110 -1.5209 -0.5978
 2130TIP3    H2 6355   2.779   3.766   5.836  0.5138  1.6269 -0.9117
 2131TIP3   OH2 6356   5.330   2.430   4.786 -0.2996  0.2124  0.0062
 2131TIP3    H1 6357   5.342   2.501   4.723  1.5411 -0.7195 -0.7809
 2131TIP3    H2 6358   5.361   2.466   4.869 -0.1081  0.5965 -0.2293
 2132TIP3   OH2 6359   1.209   2.597   2.558 -0.1339  0.0660  0.2040
 2132TIP3    H1 6360   1.242   2.547   2.632  0.9282 -1.8123 -1.4119
 2132TIP3    H2 6361   1.125   2.554   2.536  0.1996 -0.2707 -0.4556
 2133TIP3   OH2 6362   3.841   6.164   5.720  0.3893 -0.4631  0.0502
 2133TIP3    H1 6363   3.852   6.081   5.765  1.1443  0.4060  1.5642
 2133TIP3    H2 6364   3.761   6.202   5.757  0.0568 -0.5067 -0.6183
 2134TIP3   OH2 6365   2.435   5.095   2.872 -0.0880 -0.7019 -0.3194
 2134TIP3    H1 6366   2.480   5.036   2.933  2.6386  0.3526 -1.1651
 2134TIP3    H2 6367   2.460   5.182   2.900 -3.0435  0.1266  0.1426
 2135TIP3   OH2 6368   0.438   4.436   5.493  0.6899  0.0808  0.2265
 2135TIP3    H1 6369   0.467   4.383   5.567 -0.7294 -2.9616 -1.1918
 2135TIP3    H2 6370   0.486   4.401   5.418  1.0680  2.1487 -0.5629
 2136TIP3   OH2 6371   1.542   2.109   4.333 -0.1204 -0.4399 -0.2109
 2136TIP3    H1 6372   1.571   2.019   4.321  1.1404  0.1697 -2.0982
 2136TIP3    H2 6373   1.575   2.134   4.419  3.4898 -0.3958 -1.4737
 2137TIP3   OH2 6374   4.096   3.435   4.805 -0.1968 -0.1939 -0.2946
 2137TIP3    H1 6375   4.037   3.429   4.880 -1.1843 -1.4854 -1.1315
 2137TIP3    H2 6376   4.090   3.349   4.763  1.3167  0.0817 -1.1331
 2138TIP3   OH2 6377   2.196   6.473   3.707 -0.8702 -0.2528 -0.2622
 2138TIP3    H1 6378   2.244   6.431   3.635 -0.0786 -1.0870  0.7243
 2138TIP3    H2 6379   2.193   6.407   3.776 -0.9826  0.7660  0.7499
 2139TIP3   OH2 6380   2.375   0.008   2.535 -0.4456  0.1080  0.0224
 2139TIP3    H1 6381   2.382   0.099   2.564 -0.8287 -0.0786  0.7149
 2139TIP3    H2 6382   2.284  -0.002   2.508 -1.2057 -0.8409  2.6890
 2140TIP3   OH2 6383   4.288   2.626   1.874 -0.3191 -0.2493 -0.1188
 2140TIP3    H1 6384   4.285   2.702   1.815 -0.3228  0.5087  0.8417
 2140TIP3    H2 6385   4.196   2.601   1.886 -0.2639 -1.1166 -1.3058
 2141TIP3   OH2 6386   1.948   5.217   5.347  0.0474  0.0810  0.0224
 2141TIP3    H1 6387   1.868   5.265   5.325  0.0377  1.8310  3.2630
 2141TIP3    H2 6388   2.018   5.268   5.305 -0.3608 -0.5219 -1.4530
 2142TIP3   OH2 6389   4.318   5.238   4.835  0.4626  0.3465  0.2773
 2142TIP3    H1 6390   4.255   5.309   4.850 -0.9361 -0.6042 -0.8858
 2142TIP3    H2 6391   4.333   5.240   4.741  0.7678 -0.6182  0.3003
 2143TIP3   OH2 6392   0.662   3.315   4.988  0.3130  0.1027  0.4308
 2143TIP3    H1 6393   0.660   3.405   4.955 -1.2549  0.0726  0.3407
 2143TIP3    H2 6394   0.653   3.261   4.909 -2.5146  0.0089  0.6869
 2144TIP3   OH2 6395   1.089   1.219   3.462  0.5476  0.4314  0.0153
 2144TIP3    H1 6396   1.095   1.128   3.491  1.8881  0.5082  0.0608
 2144TIP3    H2 6397   1.093   1.270   3.542 -0.4606  0.5335  0.0081
 2145TIP3   OH2 6398   0.194   4.573   1.960  0.3138  0.4093 -0.0263
 2145TIP3    H1 6399   0.234   4.487   1.971  0.0757  0.2192 -0.6268
 2145TIP3    H2 6400   0.138   4.584   2.037 -0.5074 -0.4471 -0.4858
 2146TIP3   OH2 6401   3.725   0.178   0.577  0.2397 -0.3054 -0.0289
 2146TIP3    H1 6402   3.662   0.125   0.528  0.2767  0.6753 -1.1849
 2146TIP3    H2 6403   3.811   0.143   0.553  0.2633  0.2349 -0.7803
 2147TIP3   OH2 6404   5.589   4.695   2.331 -0.5632 -0.3023 -0.1202
 2147TIP3    H1 6405   5.585   4.705   2.426 -0.6115  1.1798 -0.2626
 2147TIP3    H2 6406   5.498   4.695   2.303 -0.5074  1.4377 -0.3569
 2148TIP3   OH2 6407   2.605   3.028   5.781  0.4879 -0.2983 -0.7711
 2148TIP3    H1 6408   2.526   3.001   5.827  0.2681 -0.2354 -1.1065
 2148TIP3    H2 6409   2.596   3.123   5.771  0.6449 -0.2791 -0.7359
 2149TIP3   OH2 6410   0.329   0.604   1.356  0.1617  0.2007 -0.5383
 2149TIP3    H1 6411   0.254   0.655   1.387 -1.0088 -0.9290 -1.4375
 2149TIP3    H2 6412   0.349   0.640   1.269  0.4805  0.2870 -0.4341
 2150TIP3   OH2 6413   0.541   6.261   4.486 -0.2918 -0.1691 -0.2383
 2150TIP3    H1 6414   0.458   6.233   4.524 -0.0313 -0.8220 -0.1314
 2150TIP3    H2 6415   0.587   6.304   4.558 -0.0207 -0.9304  0.0551
 2151TIP3   OH2 6416   4.742   0.673   1.332 -0.0380 -1.0240  0.2817
 2151TIP3    H1 6417   4.705   0.648   1.247  0.4099 -0.6491 -0.0314
 2151TIP3    H2 6418   4.823   0.623   1.338 -0.5070 -1.7428  0.9069
 2152TIP3   OH2 6419   1.190   1.948   4.775 -0.0782 -0.2763 -0.1444
 2152TIP3    H1 6420   1.242   1.973   4.699  1.6189  0.3411  1.1506
 2152TIP3    H2 6421   1.162   2.031   4.813 -3.5371 -0.5641 -1.6986
 2153TIP3   OH2 6422   3.001   1.993   0.981 -0.0685  0.6960 -0.3261
 2153TIP3    H1 6423   2.961   2.079   0.970 -0.8472  0.4949  0.7471
 2153TIP3    H2 6424   2.931   1.939   1.018  1.0673  0.2602  1.3263
 2154TIP3   OH2 6425   2.523   1.101   0.905  0.1357  0.2043 -0.8832
 2154TIP3    H1 6426   2.539   1.187   0.868  1.9441  1.4211  2.3410
 2154TIP3    H2 6427   2.608   1.057   0.901  0.1958  0.1003  0.9527
 2155TIP3   OH2 6428   4.377   1.455   3.147  0.2891 -0.0861  0.5831
 2155TIP3    H1 6429   4.451   1.514   3.162 -1.0668  2.0463 -0.6226
 2155TIP3    H2 6430   4.418   1.371   3.125  2.5397  1.6981 -2.9986
 2156TIP3   OH2 6431   7.065   4.745   3.091 -0.2587 -0.5854 -0.1920
 2156TIP3    H1 6432   6.981   4.791   3.081 -0.4067 -0.7509  0.3028
 2156TIP3    H2 6433   7.041   4.653   3.098 -0.0259 -0.6418 -0.1350
 2157TIP3   OH2 6434   2.526   1.073   3.860  0.2697  0.4881  0.3009
 2157TIP3    H1 6435   2.579   1.055   3.938  0.1731 -1.8361 -0.1057
 2157TIP3    H2 6436   2.548   1.163   3.837  1.3231  0.7821  2.2173
 2158TIP3   OH2 6437   4.882   3.006   2.977 -0.2195  0.0750  0.3103
 2158TIP3    H1 6438   4.857   3.093   2.946 -0.8738  0.2983  1.4071
 2158TIP3    H2 6439   4.926   3.022   3.061 -0.7819 -0.6797  0.7578
 2159TIP3   OH2 6440   2.921   6.572   1.078 -0.4999  0.1891  0.0104
 2159TIP3    H1 6441   2.900   6.619   0.998  1.2252  0.6077 -0.2412
 2159TIP3    H2 6442   2.960   6.639   1.135 -0.4987 -0.3809  0.6947
 2160TIP3   OH2 6443   3.971   5.113   5.062 -0.3694  0.2338 -0.3798
 2160TIP3    H1 6444   3.882   5.119   5.097 -0.6883  1.2945 -1.3213
 2160TIP3    H2 6445   3.960   5.121   4.967  0.8188  1.7070 -0.4278
 2161TIP3   OH2 6446   0.037   0.216   5.460 -0.4647  0.4114 -0.1177
 2161TIP3    H1 6447  -0.026   0.287   5.449 -2.9927 -1.7746 -0.7822
 2161TIP3    H2 6448   0.045   0.177   5.374 -0.4577 -1.1647  0.5666
 2162TIP3   OH2 6449   0.442   6.721   3.541 -0.0569  0.3584 -0.0001
 2162TIP3    H1 6450   0.390   6.649   3.577 -0.4054  0.2861 -0.6410
 2162TIP3    H2 6451   0.516   6.729   3.601 -1.8465  1.8213  2.1462
 2163TIP3   OH2 6452   0.288   3.348   0.730  0.3347  0.4001  0.5202
 2163TIP3    H1 6453   0.198   3.359   0.699 -0.0238 -0.5262  1.1690
 2163TIP3    H2 6454   0.296   3.254   0.746  1.1381  0.5913  1.2972
 2164TIP3   OH2 6455   6.975   5.539   3.311  0.1957 -0.6408 -0.4536
 2164TIP3    H1 6456   7.049   5.585   3.274  0.1436  2.0956  2.3947
 2164TIP3    H2 6457   6.900   5.569   3.260  0.6605 -0.8990 -1.2994
 2165TIP3   OH2 6458   1.939   2.742   2.143 -0.6441 -0.2415  0.0480
 2165TIP3    H1 6459   2.032   2.760   2.155 -0.9062  1.0898  0.1920
 2165TIP3    H2 6460   1.926   2.744   2.048  0.1289 -4.1053 -0.3173
 2166TIP3   OH2 6461   4.450   0.279   1.378 -0.2339 -0.2420 -0.7364
 2166TIP3    H1 6462   4.375   0.245   1.427 -0.6049  2.0518  0.4213
 2166TIP3    H2 6463   4.514   0.209   1.382 -0.6361 -0.5912  2.2504
 2167TIP3   OH2 6464   5.956   0.075   3.692 -0.1973  0.2139  0.7654
 2167TIP3    H1 6465   5.945   0.014   3.619  0.6906 -0.5724  1.2700
 2167TIP3    H2 6466   5.980   0.157   3.651 -0.8303  0.0855  0.1128
 2168TIP3   OH2 6467   3.110   4.187   0.454  0.3161 -0.1989 -0.1453
 2168TIP3    H1 6468   3.041   4.227   0.401  0.1777  0.0399  0.2129
 2168TIP3    H2 6469   3.156   4.128   0.394 -0.2096 -0.3713 -0.3794
 2169TIP3   OH2 6470   6.301   0.904   5.469  0.1451  0.4565 -0.2683
 2169TIP3    H1 6471   6.271   0.882   5.557  2.4822  1.2134  0.7869
 2169TIP3    H2 6472   6.238   0.968   5.437 -0.3722  0.6597  1.1084
 2170TIP3   OH2 6473   4.898   2.759  -0.001 -0.1668  0.5894  0.0136
 2170TIP3    H1 6474   4.809   2.724  -0.006 -0.0332  0.3601 -0.8519
 2170TIP3    H2 6475   4.911   2.777   0.092 -0.1116 -2.0348  0.5971
 2171TIP3   OH2 6476   1.458   5.503   2.771  0.1539 -0.1163 -0.0201
 2171TIP3    H1 6477   1.510   5.435   2.814  1.3794  0.9711  0.2774
 2171TIP3    H2 6478   1.418   5.551   2.844  0.3262  0.2621 -0.1741
 2172TIP3   OH2 6479   0.780   4.471   3.697 -0.8571  0.2877 -0.5722
 2172TIP3    H1 6480   0.715   4.528   3.739 -1.0563 -0.1690 -0.2535
 2172TIP3    H2 6481   0.843   4.532   3.658 -1.7056  0.7448 -1.2735
 2173TIP3   OH2 6482   4.658   3.295   5.417  0.3592  0.7028 -0.2913
 2173TIP3    H1 6483   4.653   3.390   5.404  0.0431  0.4449 -2.5780
 2173TIP3    H2 6484   4.749   3.273   5.396  0.2600  0.4333 -0.4409
 2174TIP3   OH2 6485   0.211   4.247   3.644  0.5974  0.1444  0.2053
 2174TIP3    H1 6486   0.241   4.172   3.593  1.6754 -1.0561  2.4362
 2174TIP3    H2 6487   0.291   4.289   3.676 -0.0133  1.7621 -0.2640
 2175TIP3   OH2 6488   2.962   2.201   1.736  0.0659  0.1688 -0.5651
 2175TIP3    H1 6489   2.952   2.275   1.677 -1.4942  0.3821 -0.0853
 2175TIP3    H2 6490   3.030   2.229   1.798 -0.0208  0.9196 -0.7971
 2176TIP3   OH2 6491   4.280   1.983   4.177 -0.1987 -0.8294  0.0971
 2176TIP3    H1 6492   4.352   2.033   4.217  0.1027 -1.7896  0.8036
 2176TIP3    H2 6493   4.320   1.898   4.157 -0.4494 -0.5133 -1.9221
 2177TIP3   OH2 6494   4.455   2.324   0.612  0.1080  0.2235  0.2777
 2177TIP3    H1 6495   4.363   2.312   0.636 -0.0371  1.4700  0.4284
 2177TIP3    H2 6496   4.504   2.273   0.677 -0.4820 -0.8525 -0.1029
 2178TIP3   OH2 6497   1.887   6.745   4.136  0.3123  0.0972  0.1134
 2178TIP3    H1 6498   1.865   6.789   4.054 -0.9867 -1.1472 -0.2249
 2178TIP3    H2 6499   1.874   6.652   4.119 -1.5301 -0.0928  2.1614
 2179TIP3   OH2 6500   6.244   2.216   0.651 -1.0129  0.6295  0.3299
 2179TIP3    H1 6501   6.186   2.179   0.717 -0.9126 -2.5188 -1.2114
 2179TIP3    H2 6502   6.199   2.203   0.568  0.6308  0.7710 -0.6228
 2180TIP3   OH2 6503   4.022   1.943   4.134 -0.1188 -0.1082  0.0512
 2180TIP3    H1 6504   4.023   1.856   4.094 -0.7558 -0.2622  0.3607
 2180TIP3    H2 6505   4.114   1.964   4.146  0.0691 -0.3467 -0.8655
 2181TIP3   OH2 6506   5.984   3.581   5.421 -0.2654  0.2845 -0.4663
 2181TIP3    H1 6507   5.969   3.675   5.418  0.2101  0.3461 -1.1603
 2181TIP3    H2 6508   6.003   3.563   5.513  1.3023  1.1566 -0.5771
 2182TIP3   OH2 6509   6.722   0.793   2.565 -0.1389  0.0395  0.0212
 2182TIP3    H1 6510   6.710   0.734   2.640 -0.9328 -1.1254 -0.9771
 2182TIP3    H2 6511   6.817   0.795   2.551 -0.0267 -0.1637  0.7113
 2183TIP3   OH2 6512   3.215   5.008   1.604 -0.6053 -0.1424  0.0362
 2183TIP3    H1 6513   3.259   4.941   1.552  0.0058  0.3625 -0.1132
 2183TIP3    H2 6514   3.258   5.005   1.689  2.2989  2.7032 -1.0999
 2184TIP3   OH2 6515   6.718   1.512   0.734  0.3702 -0.0510 -0.3540
 2184TIP3    H1 6516   6.658   1.437   0.743  0.5545 -0.2699 -0.9133
 2184TIP3    H2 6517   6.784   1.498   0.802  0.9469 -0.9230 -1.0716
 2185TIP3   OH2 6518   2.788   1.789   3.396  0.0671 -0.6051 -0.0655
 2185TIP3    H1 6519   2.710   1.832   3.361  0.4509 -0.2251 -0.4682
 2185TIP3    H2 6520   2.851   1.860   3.410  0.5781 -0.9862 -0.3916
 2186TIP3   OH2 6521   4.902   3.114   5.756  0.2102  0.2144 -0.0457
 2186TIP3    H1 6522   4.953   3.034   5.767  1.4751  0.4795 -3.1019
 2186TIP3    H2 6523   4.817   3.084   5.723  0.4087  0.0768 -0.4364
 2187TIP3   OH2 6524   5.903   3.236   1.225 -0.3367  0.2837  0.6575
 2187TIP3    H1 6525   5.953   3.241   1.143 -0.1513 -0.8115  0.6822
 2187TIP3    H2 6526   5.874   3.145   1.229 -0.8312  0.4700  1.5348
 2188TIP3   OH2 6527   2.003   5.251   4.439 -0.1462 -0.1395 -0.1346
 2188TIP3    H1 6528   1.996   5.298   4.522 -0.1816  0.0323 -0.2346
 2188TIP3    H2 6529   2.061   5.178   4.458 -0.0212 -0.0057  0.0013
 2189TIP3   OH2 6530   4.925   4.483   1.019  0.0692  0.0340 -0.2888
 2189TIP3    H1 6531   4.965   4.562   1.056  1.0207  0.5861 -2.3736
 2189TIP3    H2 6532   4.894   4.511   0.933 -0.2001 -1.7107 -0.7793
 2190TIP3   OH2 6533   3.030   1.569   3.533  0.6641  0.7508  0.0510
 2190TIP3    H1 6534   3.091   1.588   3.604 -0.7429 -0.5002  1.6804
 2190TIP3    H2 6535   2.959   1.633   3.544  1.9113  2.7743 -2.3472
 2191TIP3   OH2 6536   5.039   6.161   5.402  0.6097 -0.8508  0.0004
 2191TIP3    H1 6537   4.949   6.137   5.424 -0.0292 -0.3482 -1.8680
 2191TIP3    H2 6538   5.035   6.255   5.383  1.5045 -0.8422 -0.1896
 2192TIP3   OH2 6539   5.110   3.912   5.159  0.2609  0.2109  0.1386
 2192TIP3    H1 6540   5.157   3.902   5.242 -0.1145 -0.3159  0.2919
 2192TIP3    H2 6541   5.040   3.975   5.178 -1.3887 -1.7811  0.9112
 2193TIP3   OH2 6542   5.364   4.037   1.246  0.1151 -0.3907  0.0220
 2193TIP3    H1 6543   5.293   4.061   1.304  0.4460 -0.3741  0.4232
 2193TIP3    H2 6544   5.388   3.948   1.272  0.3803 -0.3189  0.0296
 2194TIP3   OH2 6545   4.991   2.421   1.819 -0.5965  0.4517  0.1572
 2194TIP3    H1 6546   4.921   2.357   1.811  1.2348 -1.8157  1.1677
 2194TIP3    H2 6547   5.027   2.407   1.906  1.7612  0.8089 -0.6776
 2195TIP3   OH2 6548   5.162   5.518   1.039 -0.1182 -0.0667  0.0869
 2195TIP3    H1 6549   5.227   5.577   1.078 -1.1037  0.6605  0.6497
 2195TIP3    H2 6550   5.151   5.550   0.949  1.4929 -1.2016 -0.5731
 2196TIP3   OH2 6551   3.379   3.530   0.743  0.3604  0.3429 -0.6215
 2196TIP3    H1 6552   3.361   3.569   0.829 -0.8447  1.8471 -1.4929
 2196TIP3    H2 6553   3.314   3.460   0.734 -0.7233  1.3679 -1.0101
 2197TIP3   OH2 6554   4.451   6.666   1.993 -0.1653 -0.3129  0.1741
 2197TIP3    H1 6555   4.393   6.618   1.934 -0.9139 -0.2575  0.8433
 2197TIP3    H2 6556   4.409   6.752   2.004 -0.3252 -0.5034  1.1920
 2198TIP3   OH2 6557   3.316   0.054   4.047 -0.3504  0.5292  0.1820
 2198TIP3    H1 6558   3.247   0.005   4.003 -0.2730  1.2749 -0.8171
 2198TIP3    H2 6559   3.382  -0.012   4.068 -1.3370 -0.1847  1.1294
 2199TIP3   OH2 6560   4.065   3.026   4.410 -0.1901  0.4495 -0.1761
 2199TIP3    H1 6561   4.141   3.053   4.359  1.5406 -2.1950  0.7974
 2199TIP3    H2 6562   4.027   2.953   4.361  1.2359 -1.8342  1.9378
 2200TIP3   OH2 6563   1.182   0.223   4.856  0.5217  0.4788 -0.1124
 2200TIP3    H1 6564   1.221   0.297   4.810  0.6097  0.3225 -0.2924
 2200TIP3    H2 6565   1.090   0.246   4.864  0.7980  1.2495  1.0944
 2201TIP3   OH2 6566   1.558   2.476   4.036  0.5459 -0.6673 -0.4876
 2201TIP3    H1 6567   1.557   2.572   4.033 -1.5970 -0.5814  1.1143
 2201TIP3    H2 6568   1.588   2.450   3.948  0.3362  1.4337 -1.2473
 2202TIP3   OH2 6569   2.798   4.545   4.024 -0.3414 -0.0897  0.4948
 2202TIP3    H1 6570   2.774   4.542   4.116 -1.2014  3.2317  0.5222
 2202TIP3    H2 6571   2.717   4.572   3.979  0.2820 -0.7775 -1.1406
 2203TIP3   OH2 6572   5.701   0.182   3.909 -0.5919 -0.0708  0.2822
 2203TIP3    H1 6573   5.767   0.244   3.880 -1.8316  0.7302 -0.9672
 2203TIP3    H2 6574   5.747   0.098   3.914  0.9897  0.8091  1.5030
 2204TIP3   OH2 6575   3.564   3.694   5.519  0.0666  0.0699  0.2111
 2204TIP3    H1 6576   3.491   3.663   5.465 -0.5869 -2.1935  2.2098
 2204TIP3    H2 6577   3.633   3.630   5.505  0.1512 -0.1311  1.4689
 2205TIP3   OH2 6578   6.245   5.663   2.960 -0.6279 -0.4104  0.4351
 2205TIP3    H1 6579   6.232   5.588   3.019  0.0616 -0.6195  0.3273
 2205TIP3    H2 6580   6.221   5.739   3.013  0.1408 -0.5851  1.0506
 2206TIP3   OH2 6581   3.343   3.976   3.262 -0.3206  0.2674  0.6576
 2206TIP3    H1 6582   3.372   3.976   3.353  1.0646  2.2468  0.2820
 2206TIP3    H2 6583   3.330   4.069   3.241  3.0598  0.2781 -2.1940
 2207TIP3   OH2 6584   7.051   0.720   2.116 -0.1838  0.0312 -0.0221
 2207TIP3    H1 6585   6.974   0.765   2.082  0.2051 -0.0949 -1.1053
 2207TIP3    H2 6586   7.084   0.776   2.186  0.0708  1.2547 -1.0896
 2208TIP3   OH2 6587   4.123   0.477   3.148  0.1359 -0.0096  0.7556
 2208TIP3    H1 6588   4.092   0.488   3.058  0.7446  0.8744  0.6313
 2208TIP3    H2 6589   4.086   0.394   3.177  2.3964 -1.8775 -1.3536
 2209TIP3   OH2 6590   4.269   4.447   2.650  0.1434 -0.6760  0.0551
 2209TIP3    H1 6591   4.297   4.361   2.620  1.1009 -0.5236  0.4643
 2209TIP3    H2 6592   4.288   4.447   2.744 -0.6225 -0.3153  0.2219
 2210TIP3   OH2 6593   0.808   3.186   1.711  0.7488 -0.0791 -0.3105
 2210TIP3    H1 6594   0.814   3.262   1.769  1.6266  0.3437 -0.9291
 2210TIP3    H2 6595   0.880   3.129   1.739  1.7734  0.5421 -1.5203
 2211TIP3   OH2 6596   3.408   3.927   5.772 -0.0604  0.0655  0.5551
 2211TIP3    H1 6597   3.388   3.910   5.864  0.9855 -0.2910  0.7302
 2211TIP3    H2 6598   3.378   4.017   5.757 -2.6913 -0.7309  0.5008
 2212TIP3   OH2 6599   1.536   1.739  -0.004 -0.1384  0.5419  0.1181
 2212TIP3    H1 6600   1.627   1.728   0.023  0.0118  1.8761  0.2498
 2212TIP3    H2 6601   1.502   1.807   0.054 -0.5095  1.7562 -1.4335
 2213TIP3   OH2 6602   6.080   2.031   2.222 -1.0650 -0.6752 -0.6082
 2213TIP3    H1 6603   6.150   2.094   2.208  0.0405 -1.7088  0.1152
 2213TIP3    H2 6604   6.079   1.977   2.143 -1.1341 -0.5837 -0.6701
 2214TIP3   OH2 6605   3.303   2.749   5.054  0.1847 -0.1135 -0.1751
 2214TIP3    H1 6606   3.323   2.724   4.964 -1.2693 -0.1121 -0.5090
 2214TIP3    H2 6607   3.254   2.830   5.047 -0.9156 -0.6860  0.5342
 2215TIP3   OH2 6608   2.230   6.704   3.328 -0.2519 -0.2351 -0.0818
 2215TIP3    H1 6609   2.187   6.702   3.413  0.3483  1.3029  0.2863
 2215TIP3    H2 6610   2.164   6.738   3.268 -0.5478 -0.9429 -0.1681
 2216TIP3   OH2 6611   2.068   1.239   1.635  0.0092 -0.3238 -0.3868
 2216TIP3    H1 6612   2.128   1.190   1.693 -0.5141  0.2630  0.6928
 2216TIP3    H2 6613   2.047   1.178   1.565  1.5259 -0.6991 -0.5567
 2217TIP3   OH2 6614   1.605   3.887   3.783  0.1699 -0.0138 -0.2171
 2217TIP3    H1 6615   1.604   3.945   3.707  0.3852 -0.0797 -0.2705
 2217TIP3    H2 6616   1.674   3.921   3.839 -1.6163  1.5706  1.1612
 2218TIP3   OH2 6617   6.712   2.408   3.712  0.6934 -0.2078 -0.2746
 2218TIP3    H1 6618   6.784   2.393   3.651 -0.7450 -0.5311 -1.9907
 2218TIP3    H2 6619   6.688   2.500   3.700  0.2700 -0.3252 -0.3496
 2219TIP3   OH2 6620   1.824   5.855   2.171 -0.0966  0.2054  0.0261
 2219TIP3    H1 6621   1.886   5.835   2.100  0.1419 -1.3709  0.6293
 2219TIP3    H2 6622   1.768   5.923   2.135  1.7697  1.4628 -0.6659
 2220TIP3   OH2 6623   3.853   4.311   5.613 -0.6319 -0.6858  0.0341
 2220TIP3    H1 6624   3.894   4.394   5.587  0.6991 -1.4581 -0.4428
 2220TIP3    H2 6625   3.759   4.326   5.601 -0.7134  1.6341  2.5408
 2221TIP3   OH2 6626   1.835   6.674   1.081  0.1733  0.2019 -0.1660
 2221TIP3    H1 6627   1.927   6.662   1.057 -0.1531 -1.4435 -0.6531
 2221TIP3    H2 6628   1.817   6.766   1.060  0.9430 -0.1634 -2.7816
 2222TIP3   OH2 6629   6.776   5.295   2.409  0.3482  0.3561  0.0554
 2222TIP3    H1 6630   6.851   5.235   2.402 -1.0530 -1.3232 -1.9836
 2222TIP3    H2 6631   6.794   5.348   2.487  2.5651 -1.4823  0.8958
 2223TIP3   OH2 6632   4.681   0.282   3.599  0.0358 -0.5632  0.6281
 2223TIP3    H1 6633   4.743   0.353   3.583  0.3705 -0.5838  1.7359
 2223TIP3    H2 6634   4.722   0.205   3.561  0.5603 -0.5171  1.0941
 2224TIP3   OH2 6635   2.989   5.374   2.448 -0.5044 -0.0921  0.4399
 2224TIP3    H1 6636   2.951   5.342   2.529 -1.9122 -1.3638 -0.6506
 2224TIP3    H2 6637   3.038   5.299   2.413  0.2950  0.5160  0.2425
 2225TIP3   OH2 6638   5.013   1.392   2.885 -0.2275  0.0681  0.0867
 2225TIP3    H1 6639   4.934   1.438   2.855  0.0186 -1.2717 -3.0209
 2225TIP3    H2 6640   5.000   1.302   2.856  3.4483  0.2676 -3.0201
 2226TIP3   OH2 6641   4.345   1.697   5.247 -0.4521 -0.8314  0.1418
 2226TIP3    H1 6642   4.370   1.740   5.166 -2.6879 -1.7409 -1.1441
 2226TIP3    H2 6643   4.279   1.755   5.286 -1.3607 -1.6379 -0.1310
 2227TIP3   OH2 6644   6.178   6.243   2.650 -0.1344  0.0002  0.6740
 2227TIP3    H1 6645   6.222   6.165   2.685 -0.5684 -1.3845 -1.6526
 2227TIP3    H2 6646   6.250   6.298   2.619  0.1693 -1.4592 -1.4917
 2228TIP3   OH2 6647   4.451   5.196   5.637 -0.1753  0.5736  0.3422
 2228TIP3    H1 6648   4.454   5.106   5.672  0.0528 -0.0251 -1.1397
 2228TIP3    H2 6649   4.362   5.206   5.603 -0.8798  1.6952  2.3920
 2229TIP3   OH2 6650   3.325   5.872   1.729  0.5276  0.0519 -0.1879
 2229TIP3    H1 6651   3.334   5.900   1.638  0.9923  0.8910  0.1033
 2229TIP3    H2 6652   3.408   5.828   1.749  0.4149 -0.1569 -0.1745
 2230TIP3   OH2 6653   3.616   0.590   1.096 -0.0176  0.4700 -0.2167
 2230TIP3    H1 6654   3.657   0.661   1.146  0.7822  0.4941 -0.8875
 2230TIP3    H2 6655   3.681   0.520   1.096 -0.3641  0.1423 -0.4793
 2231TIP3   OH2 6656   5.582   6.581   1.668 -0.1602  0.4216 -0.4660
 2231TIP3    H1 6657   5.500   6.612   1.706  0.2476  0.5555  0.3241
 2231TIP3    H2 6658   5.649   6.641   1.702  0.3674 -0.1298 -0.5069
 2232TIP3   OH2 6659   2.202   5.640   4.367  0.1919  0.2392  0.7692
 2232TIP3    H1 6660   2.278   5.587   4.391  1.0136  1.4437  0.8957
 2232TIP3    H2 6661   2.238   5.726   4.346 -0.8891  0.2533 -1.2899
 2233TIP3   OH2 6662   3.927   2.881   1.888  0.0122 -0.1299  0.3843
 2233TIP3    H1 6663   4.011   2.915   1.918 -0.1472 -0.4079  1.1724
 2233TIP3    H2 6664   3.928   2.896   1.794  1.3682 -1.0423  0.2217
 2234TIP3   OH2 6665   2.845   4.703   0.852  0.0250 -0.1035 -0.2458
 2234TIP3    H1 6666   2.786   4.670   0.919  0.6091 -0.4487  0.1064
 2234TIP3    H2 6667   2.830   4.798   0.852 -0.8989 -0.2339 -0.5349
 2235TIP3   OH2 6668   4.065   2.696   0.207 -0.0221  0.1160  0.4020
 2235TIP3    H1 6669   4.063   2.637   0.282 -0.8942 -2.1977 -1.3295
 2235TIP3    H2 6670   3.982   2.744   0.212 -0.3570 -0.4687  0.5973
 2236TIP3   OH2 6671   0.361   5.785   3.402 -0.0303  0.4030  0.1074
 2236TIP3    H1 6672   0.352   5.877   3.379 -0.7399 -0.0059 -1.4181
 2236TIP3    H2 6673   0.282   5.743   3.367  1.2043 -1.0917 -1.0685
 2237TIP3   OH2 6674   3.606   5.905   5.758 -0.7431  0.7010  0.2341
 2237TIP3    H1 6675   3.605   5.818   5.718 -0.7447  0.5373  0.5841
 2237TIP3    H2 6676   3.603   5.888   5.852 -0.5963  1.0768  0.3091
 2238TIP3   OH2 6677   0.960   5.725   5.224  0.3717  0.0394 -0.0314
 2238TIP3    H1 6678   0.933   5.809   5.186 -1.3159 -0.8283 -0.8785
 2238TIP3    H2 6679   0.882   5.670   5.216  0.7665 -0.9796  2.4506
 2239TIP3   OH2 6680   0.726   5.907   5.430 -0.0625  0.0361  0.5218
 2239TIP3    H1 6681   0.764   5.828   5.469 -1.8315 -0.2850  1.7308
 2239TIP3    H2 6682   0.741   5.976   5.495  0.4786  0.4352 -0.0209
 2240TIP3   OH2 6683   3.695   0.272   1.180 -0.3061  0.5513 -0.0903
 2240TIP3    H1 6684   3.671   0.230   1.098  0.9841  0.1739 -0.2888
 2240TIP3    H2 6685   3.682   0.205   1.246 -1.8113  0.9994  0.1103
 2241TIP3   OH2 6686   5.265   6.774   0.521 -0.6861  0.1113  0.1359
 2241TIP3    H1 6687   5.320   6.829   0.464 -0.0036 -0.8097 -0.1239
 2241TIP3    H2 6688   5.244   6.698   0.467 -0.7717 -0.3534  0.8157
 2242TIP3   OH2 6689   6.632   6.275   0.410  0.1852  0.0908  0.8813
 2242TIP3    H1 6690   6.550   6.239   0.375  1.3450 -0.1182 -1.9300
 2242TIP3    H2 6691   6.666   6.206   0.467 -0.4570 -0.8228  0.2003
 2243TIP3   OH2 6692   4.017   2.598   1.902  0.2514 -0.4272 -0.0045
 2243TIP3    H1 6693   3.988   2.566   1.816 -0.1703  0.2983 -0.1384
 2243TIP3    H2 6694   3.968   2.679   1.915  1.8262  0.5661  0.0072
 2244TIP3   OH2 6695   6.977   6.621   2.725 -0.4166 -0.0632  0.2168
 2244TIP3    H1 6696   6.975   6.561   2.800  1.9803 -1.5255 -0.7806
 2244TIP3    H2 6697   7.066   6.657   2.726 -0.7376  0.8090 -1.2252
 2245TIP3   OH2 6698   4.590   3.269   0.473  0.1609 -0.3687  0.3164
 2245TIP3    H1 6699   4.645   3.344   0.499  0.8667 -0.1176 -1.7220
 2245TIP3    H2 6700   4.606   3.260   0.379 -2.2526 -1.1998 -0.0659
 2246TIP3   OH2 6701   0.370   1.187   4.375  0.5126  0.0904  0.3314
 2246TIP3    H1 6702   0.281   1.220   4.390  0.4750 -0.0359  0.3831
 2246TIP3    H2 6703   0.422   1.266   4.362  0.3843  0.1630  0.2546
 2247TIP3   OH2 6704   3.387   4.361   2.869 -0.6007  0.1609  0.0751
 2247TIP3    H1 6705   3.430   4.430   2.920 -0.1558 -0.3619  0.4169
 2247TIP3    H2 6706   3.294   4.375   2.884 -0.4859  0.1899  0.8145
 2248TIP3   OH2 6707   2.903   3.994   4.399 -0.3382  0.5213  0.4097
 2248TIP3    H1 6708   2.914   3.898   4.401  2.9192  0.7831  1.8584
 2248TIP3    H2 6709   2.929   4.019   4.311 -1.4824  0.1067 -0.0701
 2249TIP3   OH2 6710   0.730   4.760   1.621 -0.3675  0.1388  0.2004
 2249TIP3    H1 6711   0.741   4.667   1.605  0.3869  0.4127 -1.0117
 2249TIP3    H2 6712   0.719   4.799   1.534  0.9759  1.3532  0.5245
 2250TIP3   OH2 6713   2.588   6.442   1.499 -0.0540 -0.1620 -0.3468
 2250TIP3    H1 6714   2.643   6.374   1.459 -0.0653  0.1683 -0.9176
 2250TIP3    H2 6715   2.649   6.491   1.554 -0.1033 -0.8191  0.3196
 2251TIP3   OH2 6716   2.246   1.924   5.521 -0.4212 -0.0478 -0.2870
 2251TIP3    H1 6717   2.175   1.859   5.523  0.0813 -0.7129 -2.2989
 2251TIP3    H2 6718   2.245   1.958   5.432  1.9097 -0.1892 -0.4185
 2252TIP3   OH2 6719   0.533   2.992   2.331  0.1654 -0.3711 -0.5443
 2252TIP3    H1 6720   0.442   2.970   2.310 -0.3124  0.3121  0.7249
 2252TIP3    H2 6721   0.544   2.966   2.422  1.3353 -0.6621 -0.7439
 2253TIP3   OH2 6722   3.173   0.286   4.070 -0.4856 -0.2704  0.4097
 2253TIP3    H1 6723   3.170   0.324   3.982 -0.8994  1.1918  1.0229
 2253TIP3    H2 6724   3.246   0.224   4.067  0.1417  0.4803 -0.6881
 2254TIP3   OH2 6725   5.502   5.707   2.067 -0.6508  0.0351  0.1843
 2254TIP3    H1 6726   5.465   5.619   2.060 -2.0913  0.6707 -0.8869
 2254TIP3    H2 6727   5.573   5.709   2.004  0.2149 -0.7239  1.1111
 2255TIP3   OH2 6728   1.409   2.957   0.162  0.0379 -0.1645  0.0707
 2255TIP3    H1 6729   1.410   2.954   0.258  0.2821 -0.0045  0.0736
 2255TIP3    H2 6730   1.413   3.051   0.142  1.8964 -0.2645 -0.1235
 2256TIP3   OH2 6731   4.009   4.516   3.486 -0.1489  0.1722  0.2461
 2256TIP3    H1 6732   4.051   4.453   3.427  0.8877  1.5643 -0.5566
 2256TIP3    H2 6733   3.992   4.466   3.566  1.5445 -0.8862 -0.0013
 2257TIP3   OH2 6734   0.547   6.300   4.184 -0.4260 -0.0526  0.6629
 2257TIP3    H1 6735   0.516   6.216   4.151  0.6847 -0.7723  1.4042
 2257TIP3    H2 6736   0.548   6.291   4.279 -0.3606  0.8253  0.7594
 2258TIP3   OH2 6737   1.118   0.662   3.521 -0.7851 -0.2943 -0.4641
 2258TIP3    H1 6738   1.192   0.676   3.461 -0.1084 -1.6268  0.0223
 2258TIP3    H2 6739   1.041   0.687   3.471 -0.0639  0.5527 -1.1888
 2259TIP3   OH2 6740   5.966   3.889   2.210 -0.2794 -0.2160 -0.1883
 2259TIP3    H1 6741   6.054   3.885   2.173 -0.2571 -0.1234 -0.1443
 2259TIP3    H2 6742   5.912   3.922   2.139 -0.2121  0.0928 -0.0950
 2260TIP3   OH2 6743   5.111   0.934   3.634  0.1245  0.1250  0.7811
 2260TIP3    H1 6744   5.181   0.882   3.674 -1.0386 -0.9238  1.5663
 2260TIP3    H2 6745   5.035   0.918   3.691 -0.3703  2.4643  0.8626
 2261TIP3   OH2 6746   6.399   4.263   2.098  0.1631 -0.7464  0.0271
 2261TIP3    H1 6747   6.321   4.264   2.153 -0.0575  2.4468 -0.1446
 2261TIP3    H2 6748   6.382   4.195   2.033 -1.2731 -1.9219  1.5559
 2262TIP3   OH2 6749   0.062   4.999   5.205  0.0317 -0.3223  0.6076
 2262TIP3    H1 6750   0.077   5.094   5.212 -0.5372 -0.1312 -0.5109
 2262TIP3    H2 6751  -0.011   4.982   5.266 -0.7505  0.2028 -0.1561
 2263TIP3   OH2 6752   3.586   2.298   1.443  0.0722 -0.3910  0.1262
 2263TIP3    H1 6753   3.576   2.375   1.388 -1.0056 -1.3597 -1.0905
 2263TIP3    H2 6754   3.663   2.317   1.497 -1.0288  2.1243  0.9129
 2264TIP3   OH2 6755   3.034   1.793   4.438 -0.0279 -0.0587  0.7927
 2264TIP3    H1 6756   3.066   1.711   4.400  0.2266 -0.6884  2.3335
 2264TIP3    H2 6757   3.112   1.848   4.446 -0.4483  1.1570 -2.0248
 2265TIP3   OH2 6758   4.622   6.567   1.487 -0.1411 -0.0168  0.3535
 2265TIP3    H1 6759   4.714   6.564   1.514 -0.0595 -0.8032  0.0322
 2265TIP3    H2 6760   4.580   6.497   1.538  0.2890 -2.5166 -2.4295
 2266TIP3   OH2 6761   6.129   3.942   0.138  0.3451 -0.2202  0.1601
 2266TIP3    H1 6762   6.140   3.976   0.227 -0.6572  0.3742  0.0745
 2266TIP3    H2 6763   6.041   3.970   0.112  0.2998 -1.1070 -0.7098
 2267TIP3   OH2 6764   2.787   3.553   5.410 -0.1764 -0.0860 -0.2095
 2267TIP3    H1 6765   2.858   3.497   5.380  0.1128  0.4780 -0.6000
 2267TIP3    H2 6766   2.708   3.500   5.401  0.1145 -0.4906 -0.3874
 2268TIP3   OH2 6767   1.795   2.184   4.935  0.2556 -0.2547  0.0837
 2268TIP3    H1 6768   1.856   2.128   4.886 -1.2428 -0.4931 -1.6278
 2268TIP3    H2 6769   1.787   2.262   4.881 -1.1198 -0.3335  0.1528
 2269TIP3   OH2 6770   6.582   1.955   0.941  0.0107 -0.2467 -0.0498
 2269TIP3    H1 6771   6.672   1.924   0.939 -0.0130 -0.2713 -1.0157
 2269TIP3    H2 6772   6.580   2.030   0.882 -0.3773  0.3953  0.7507
 2270TIP3   OH2 6773   1.015   0.749   5.367 -0.5201 -0.4118 -0.0081
 2270TIP3    H1 6774   0.946   0.736   5.302 -0.4660  0.7866 -0.3277
 2270TIP3    H2 6775   0.975   0.804   5.434 -0.1989 -0.6174  0.3549
 2271TIP3   OH2 6776   0.889   5.100   1.035 -0.3149 -0.2443  0.3335
 2271TIP3    H1 6777   0.885   5.008   1.011 -1.6300  0.1538 -1.1066
 2271TIP3    H2 6778   0.799   5.131   1.029 -0.2724  0.6473  2.9311
 2272TIP3   OH2 6779   6.648   0.742   3.595  0.3682  0.1603 -0.2680
 2272TIP3    H1 6780   6.613   0.669   3.645  0.2752 -0.1251 -0.7355
 2272TIP3    H2 6781   6.729   0.767   3.639  0.1262  0.1233  0.2014
 2273TIP3   OH2 6782   5.155   6.717   2.870 -0.1403  0.7644  0.4699
 2273TIP3    H1 6783   5.071   6.762   2.862 -0.2660  0.2665 -1.7263
 2273TIP3    H2 6784   5.131   6.625   2.881  0.0631  0.5408 -0.7449
 2274TIP3   OH2 6785   7.134   6.356   4.036 -0.1164  0.1329  0.0038
 2274TIP3    H1 6786   7.107   6.435   3.990 -1.4954 -1.3049 -1.8379
 2274TIP3    H2 6787   7.216   6.330   3.994  0.7125  0.9054  1.0819
 2275TIP3   OH2 6788   0.406   0.470   5.795  0.3255  0.0108 -0.5176
 2275TIP3    H1 6789   0.391   0.445   5.886 -0.3150  1.9564 -0.0357
 2275TIP3    H2 6790   0.331   0.434   5.747  0.0021  0.0576 -0.0533
 2276TIP3   OH2 6791   0.356   0.860   3.134  0.1325 -0.2043  0.0778
 2276TIP3    H1 6792   0.380   0.779   3.178 -0.2373  0.5263  1.6934
 2276TIP3    H2 6793   0.427   0.921   3.154 -0.8111  0.6136  1.0666
 2277TIP3   OH2 6794   2.589   0.951   1.995 -0.2692  0.3501  0.2291
 2277TIP3    H1 6795   2.619   0.964   1.905 -0.1296  0.7387  0.3282
 2277TIP3    H2 6796   2.494   0.938   1.987 -0.1739 -0.2196 -0.0239
 2278TIP3   OH2 6797   5.093   3.712   3.754 -0.3289 -0.3862  0.3559
 2278TIP3    H1 6798   5.103   3.807   3.747 -0.7180 -0.3256  0.5649
 2278TIP3    H2 6799   5.174   3.682   3.794  0.4002 -0.3139 -0.9997
 2279TIP3   OH2 6800   3.810   5.359   2.857  0.1969 -0.1608  0.4442
 2279TIP3    H1 6801   3.810   5.382   2.764  0.9741 -1.3227  0.1225
 2279TIP3    H2 6802   3.728   5.311   2.869  1.1966 -2.1922 -0.2865
 2280TIP3   OH2 6803   6.514   0.472   4.163  0.2935 -0.3937  0.1475
 2280TIP3    H1 6804   6.436   0.482   4.108  0.7365  0.6512 -0.3340
 2280TIP3    H2 6805   6.588   0.483   4.103  0.7960 -0.0569  0.7998
 2281TIP3   OH2 6806   4.590   5.114   4.068  0.3599 -0.0558  0.2331
 2281TIP3    H1 6807   4.555   5.048   4.128 -0.2216  0.2807  0.2626
 2281TIP3    H2 6808   4.662   5.154   4.117 -0.6233  0.7735  1.0395
 2282TIP3   OH2 6809   0.524   5.438   1.440  0.1363  0.2385  0.1986
 2282TIP3    H1 6810   0.435   5.445   1.404 -0.3603 -1.8388  0.8780
 2282TIP3    H2 6811   0.512   5.445   1.534  0.6543 -0.2725  0.3087
 2283TIP3   OH2 6812   6.827   4.305   0.038 -0.0739  0.2098 -0.0441
 2283TIP3    H1 6813   6.783   4.221   0.050 -0.9162  0.8694  1.8566
 2283TIP3    H2 6814   6.759   4.364   0.007  0.0635  0.6206  0.4181
 2284TIP3   OH2 6815   5.711   2.807   3.452  0.1415 -0.5285 -0.0662
 2284TIP3    H1 6816   5.631   2.858   3.438 -0.0693 -1.0288 -0.7589
 2284TIP3    H2 6817   5.769   2.865   3.501 -1.2251 -0.7055  1.8928
 2285TIP3   OH2 6818   3.027   5.960   5.739  0.3956 -0.0353  0.0422
 2285TIP3    H1 6819   2.974   6.005   5.674  0.7139  0.5073  0.1488
 2285TIP3    H2 6820   2.998   5.869   5.735  0.0529  0.0914 -0.4910
 2286TIP3   OH2 6821   5.375   3.355   2.121 -0.6081 -0.4543  0.0241
 2286TIP3    H1 6822   5.293   3.392   2.088 -0.3476 -0.3460 -0.5085
 2286TIP3    H2 6823   5.380   3.385   2.212 -1.0459 -0.2717 -0.0094
 2287TIP3   OH2 6824   0.740   3.846   2.118  0.6232  0.1886  0.1418
 2287TIP3    H1 6825   0.830   3.879   2.116  1.5794 -2.1945 -0.2652
 2287TIP3    H2 6826   0.735   3.799   2.202  0.0473 -0.3721 -0.2026
 2288TIP3   OH2 6827   6.870   4.638   5.068  0.2526  0.0943  0.1461
 2288TIP3    H1 6828   6.857   4.710   5.130  0.6101 -0.3227  0.7158
 2288TIP3    H2 6829   6.880   4.680   4.983  1.1574  0.7614  0.5708
 2289TIP3   OH2 6830   4.120   5.937   1.444 -0.4800  0.7740 -0.3922
 2289TIP3    H1 6831   4.109   5.937   1.349 -1.2122 -0.6911 -0.3347
 2289TIP3    H2 6832   4.214   5.922   1.458 -0.6749 -1.1264 -0.9079
 2290TIP3   OH2 6833   6.298   0.422   2.886 -0.1665 -0.0921 -0.3301
 2290TIP3    H1 6834   6.308   0.389   2.797 -1.0432 -1.6099  0.1085
 2290TIP3    H2 6835   6.253   0.352   2.933  1.5369  0.0516  1.6818
 2291TIP3   OH2 6836   4.299   2.147   2.938  0.5100 -0.0420 -0.3702
 2291TIP3    H1 6837   4.305   2.235   2.902  1.7165  0.5156  1.0738
 2291TIP3    H2 6838   4.389   2.114   2.935  0.0387 -1.3428 -1.1193
 2292TIP3   OH2 6839   0.007   6.188   1.279 -0.0852  0.0532 -0.0078
 2292TIP3    H1 6840   0.037   6.279   1.280  0.1823  0.0113 -1.6757
 2292TIP3    H2 6841   0.081   6.138   1.313  0.4327  0.2977 -0.7543
 2293TIP3   OH2 6842   2.584   4.551   2.875  0.0771 -0.6105 -0.5754
 2293TIP3    H1 6843   2.555   4.508   2.795  0.4093  1.6243 -1.9764
 2293TIP3    H2 6844   2.673   4.519   2.888 -0.2283 -1.5335 -0.6714
 2294TIP3   OH2 6845   4.458   5.153   3.720  0.2108  0.4085  0.2383
 2294TIP3    H1 6846   4.395   5.120   3.657 -0.3324  0.0925  0.9366
 2294TIP3    H2 6847   4.534   5.179   3.667 -0.3861  0.5280 -0.5753
 2295TIP3   OH2 6848   5.150   1.656   2.694  0.2447 -0.2755 -0.2143
 2295TIP3    H1 6849   5.087   1.685   2.760 -1.0283  0.2389 -1.5929
 2295TIP3    H2 6850   5.235   1.665   2.736 -0.4927  0.5707  1.1614
 2296TIP3   OH2 6851   1.173   0.373   2.598 -0.1738 -0.7213 -0.3012
 2296TIP3    H1 6852   1.214   0.287   2.583  0.6051 -0.3206 -0.4862
 2296TIP3    H2 6853   1.079   0.357   2.582  0.0600 -1.3564 -1.1629
 2297TIP3   OH2 6854   2.524   1.449   5.265  0.0755 -0.4360 -0.7997
 2297TIP3    H1 6855   2.482   1.366   5.287  2.1526 -1.5628 -0.7965
 2297TIP3    H2 6856   2.609   1.446   5.309  1.2080  0.6184 -2.7445
 2298TIP3   OH2 6857   0.226   2.637   4.253  0.0302 -0.2798  0.5232
 2298TIP3    H1 6858   0.256   2.547   4.264  0.5523 -0.0381  1.1979
 2298TIP3    H2 6859   0.260   2.683   4.330  1.0319  0.8141 -0.5326
 2299TIP3   OH2 6860   4.060   3.279   3.189  0.0766 -0.3023  0.2352
 2299TIP3    H1 6861   4.154   3.260   3.190  0.1199 -0.5133 -1.8847
 2299TIP3    H2 6862   4.055   3.374   3.185  0.1186 -0.1983  1.9805
 2300TIP3   OH2 6863   4.196   0.138   2.968  0.2905  0.5671 -0.7040
 2300TIP3    H1 6864   4.285   0.169   2.954  0.4784 -0.5796 -2.2854
 2300TIP3    H2 6865   4.143   0.218   2.965  1.2010  1.2172 -0.1021
 2301TIP3   OH2 6866   0.420   0.332   2.119 -0.3333  0.0402  0.1944
 2301TIP3    H1 6867   0.374   0.408   2.155  0.8808  1.6206 -1.4419
 2301TIP3    H2 6868   0.443   0.357   2.030  0.9676 -1.8972 -0.0838
 2302TIP3   OH2 6869   4.969   4.196   3.790  0.8023 -0.1838  0.1439
 2302TIP3    H1 6870   5.012   4.121   3.750  0.8598  0.6517 -1.4229
 2302TIP3    H2 6871   4.987   4.269   3.731 -0.9804  0.6391  0.5494
 2303TIP3   OH2 6872   6.689   0.134   5.797 -0.0986 -0.7086  0.4681
 2303TIP3    H1 6873   6.771   0.157   5.755 -0.3120 -0.2659  0.2797
 2303TIP3    H2 6874   6.649   0.069   5.738  0.4283 -1.4437  0.9118
 2304TIP3   OH2 6875   4.025   0.610   2.603  0.3479 -0.4422 -0.0952
 2304TIP3    H1 6876   3.996   0.536   2.656  1.6388 -0.8009  0.1349
 2304TIP3    H2 6877   4.071   0.570   2.529 -0.3955  0.0876 -0.8582
 2305TIP3   OH2 6878   1.665   2.909   2.622  1.0127 -0.4557  0.0801
 2305TIP3    H1 6879   1.697   2.851   2.553  0.3470 -0.0935 -0.5502
 2305TIP3    H2 6880   1.570   2.906   2.612  0.9752  0.7431  0.0359
 2306TIP3   OH2 6881   2.151   6.058   5.051 -0.4364  0.2083  0.1333
 2306TIP3    H1 6882   2.149   6.113   5.130  0.6060 -0.4125  0.6128
 2306TIP3    H2 6883   2.111   6.113   4.983  0.5761  1.5951  0.5926
 2307TIP3   OH2 6884   3.663   1.858   3.465 -0.1822 -0.0163  0.0066
 2307TIP3    H1 6885   3.718   1.803   3.410 -0.6837 -1.0692  0.5287
 2307TIP3    H2 6886   3.608   1.796   3.513 -0.7590  0.9460  0.6129
 2308TIP3   OH2 6887   4.379   5.038   0.773 -0.0631  0.3649  0.4991
 2308TIP3    H1 6888   4.360   4.997   0.688  1.7355 -0.9367  0.6627
 2308TIP3    H2 6889   4.367   4.967   0.837 -0.7671  1.1667  1.2873
 2309TIP3   OH2 6890   0.209   5.011   1.495  0.2106 -0.5735  0.3755
 2309TIP3    H1 6891   0.217   4.933   1.440  1.2331 -0.5381  0.4538
 2309TIP3    H2 6892   0.279   5.069   1.465  0.9328 -0.6336  1.8316
 2310TIP3   OH2 6893   0.971   3.661   2.566 -0.7198 -0.0627 -0.3568
 2310TIP3    H1 6894   0.993   3.702   2.649 -0.3715 -2.3750  0.7750
 2310TIP3    H2 6895   0.889   3.614   2.582  0.0872 -1.7274 -0.8192
 2311TIP3   OH2 6896   6.753   4.783   1.925 -0.3180 -0.0395 -0.5174
 2311TIP3    H1 6897   6.835   4.823   1.956 -1.3414  2.4265 -0.7516
 2311TIP3    H2 6898   6.687   4.817   1.985 -1.3691 -0.9555 -1.1271
 2312TIP3   OH2 6899   3.597   0.598   2.661 -0.2321 -0.4982 -0.7818
 2312TIP3    H1 6900   3.502   0.597   2.670 -0.2730 -0.0331 -1.1089
 2312TIP3    H2 6901   3.628   0.533   2.724 -0.7490 -0.4542 -0.4759
 2313TIP3   OH2 6902   2.615   4.852   4.662 -0.4169  0.5539 -0.7986
 2313TIP3    H1 6903   2.699   4.844   4.616 -0.1615 -0.1073 -0.2239
 2313TIP3    H2 6904   2.561   4.782   4.626 -0.5843  0.7228 -0.8753
 2314TIP3   OH2 6905   3.688   3.714   3.909  0.5413  0.0929  0.4265
 2314TIP3    H1 6906   3.644   3.720   3.994 -0.5768  0.6058 -0.1604
 2314TIP3    H2 6907   3.659   3.792   3.862  2.0306  0.3938 -0.0372
 2315TIP3   OH2 6908   6.491   4.919   3.824 -0.1223 -0.1745 -0.5807
 2315TIP3    H1 6909   6.482   4.930   3.919  1.1357  0.8209 -0.5331
 2315TIP3    H2 6910   6.585   4.929   3.809 -0.3041 -0.4185 -1.9223
 2316TIP3   OH2 6911   6.049   5.125   2.163 -0.1643  0.0704  0.0777
 2316TIP3    H1 6912   5.978   5.101   2.223 -1.3484  1.1481 -0.8130
 2316TIP3    H2 6913   6.129   5.110   2.213 -0.9586 -1.9229  0.8667
 2317TIP3   OH2 6914   0.767   6.142   3.252  0.0478 -0.2214 -0.6773
 2317TIP3    H1 6915   0.787   6.182   3.168  0.2169 -0.0607 -0.5630
 2317TIP3    H2 6916   0.852   6.136   3.297 -0.1711  0.6007 -0.1287
 2318TIP3   OH2 6917   6.781   2.823   5.070  0.1290 -0.4346 -0.1042
 2318TIP3    H1 6918   6.804   2.913   5.094 -2.8994  1.3259 -3.0157
 2318TIP3    H2 6919   6.732   2.790   5.145  2.3603 -0.2719  1.5411
 2319TIP3   OH2 6920   0.926   5.614   2.662  0.2832  0.0412 -0.6762
 2319TIP3    H1 6921   0.891   5.703   2.666 -0.6921 -0.3746  0.2372
 2319TIP3    H2 6922   0.955   5.604   2.571 -0.0929  1.0971 -0.9249
 2320TIP3   OH2 6923   2.968   2.668   3.148  0.0136  0.5902  0.3181
 2320TIP3    H1 6924   3.053   2.703   3.175 -0.7735  1.5121  1.7435
 2320TIP3    H2 6925   2.905   2.709   3.208 -1.2945 -1.0759  0.1696
 2321TIP3   OH2 6926   3.566   6.370   5.274  0.3326  0.8407 -0.7257
 2321TIP3    H1 6927   3.601   6.287   5.243  0.0880  0.5841 -0.3329
 2321TIP3    H2 6928   3.584   6.432   5.204 -0.0457  0.3201 -1.2921
 2322TIP3   OH2 6929   5.036   6.456   2.955  0.1531  0.1452 -0.0183
 2322TIP3    H1 6930   4.969   6.465   3.023  0.5370  1.6374  0.1991
 2322TIP3    H2 6931   4.989   6.417   2.881 -0.3889 -1.0193  0.9042
 2323TIP3   OH2 6932   1.507   3.212   2.271 -0.6231 -0.5148 -0.3377
 2323TIP3    H1 6933   1.498   3.306   2.287 -0.6493 -0.4213 -0.8974
 2323TIP3    H2 6934   1.582   3.186   2.324 -0.8060 -0.2404  0.0624
 2324TIP3   OH2 6935   4.439   6.807   1.541  0.0173  0.2432  0.4284
 2324TIP3    H1 6936   4.513   6.781   1.486 -0.6936 -0.5049 -0.2113
 2324TIP3    H2 6937   4.392   6.725   1.558 -1.5155  0.8998 -0.4461
 2325TIP3   OH2 6938   6.030   3.940   3.607 -0.2909  0.4839 -0.8965
 2325TIP3    H1 6939   5.969   4.007   3.637  1.1566  0.8186  1.5962
 2325TIP3    H2 6940   6.115   3.985   3.602  0.7169 -1.0776  0.8608
 2326TIP3   OH2 6941   0.319   2.811   4.443 -0.6634  0.0156 -0.9531
 2326TIP3    H1 6942   0.351   2.884   4.390  1.4079 -0.9491 -1.0909
 2326TIP3    H2 6943   0.398   2.766   4.474 -1.8720 -1.8448 -0.3933
 2327TIP3   OH2 6944   4.190   1.045   2.070  0.3189 -0.5648  0.2617
 2327TIP3    H1 6945   4.116   1.025   2.127 -0.8263 -2.5064 -1.7371
 2327TIP3    H2 6946   4.260   0.987   2.099  0.1933 -0.5905  0.5109
 2328TIP3   OH2 6947   6.826   1.775   5.373  0.3159  0.1173  0.3132
 2328TIP3    H1 6948   6.847   1.736   5.288 -0.4700  0.7989 -0.2076
 2328TIP3    H2 6949   6.740   1.816   5.360  0.0663  0.0137  1.5099
 2329TIP3   OH2 6950   2.549   4.828   0.568 -0.0377  0.4758  0.1282
 2329TIP3    H1 6951   2.525   4.915   0.534 -0.2135 -0.4590 -2.3891
 2329TIP3    H2 6952   2.494   4.816   0.645 -2.5772  1.2776 -1.4203
 2330TIP3   OH2 6953   3.434   1.239   3.090  0.5118 -0.5110  0.2300
 2330TIP3    H1 6954   3.423   1.316   3.033 -0.1640 -0.1189  0.8703
 2330TIP3    H2 6955   3.522   1.208   3.071  0.6539  0.2000 -0.3245
 2331TIP3   OH2 6956   2.508   0.194   2.953 -0.4365 -0.2176  0.6327
 2331TIP3    H1 6957   2.501   0.220   2.861  0.0132 -1.0242  0.3528
 2331TIP3    H2 6958   2.437   0.131   2.965  0.1969 -0.9770  0.5076
 2332TIP3   OH2 6959   2.065   1.680   4.842 -0.0696 -0.4060  0.0266
 2332TIP3    H1 6960   2.109   1.602   4.877 -1.0253 -0.8849  0.2095
 2332TIP3    H2 6961   2.036   1.728   4.920  1.3404  0.6531 -0.0592
 2333TIP3   OH2 6962   3.975   5.171   2.198  0.2667  0.2813 -0.7724
 2333TIP3    H1 6963   3.915   5.104   2.166  0.2110  0.3302 -0.7712
 2333TIP3    H2 6964   4.059   5.126   2.205  0.4291  0.4283 -1.6052
 2334TIP3   OH2 6965   5.079   1.397   3.383 -0.0709  0.3510 -0.1231
 2334TIP3    H1 6966   5.064   1.352   3.300 -2.9010 -0.4651  0.7052
 2334TIP3    H2 6967   5.065   1.329   3.449  1.7662  1.0578  1.0535
 2335TIP3   OH2 6968   1.698   3.776   5.395  0.1764  0.0129 -0.5222
 2335TIP3    H1 6969   1.647   3.852   5.368  0.0234 -0.0046 -0.2826
 2335TIP3    H2 6970   1.749   3.752   5.317 -0.2516 -0.0250 -0.7911
 2336TIP3   OH2 6971   7.010   1.779   1.691  0.0043 -0.0596 -0.1262
 2336TIP3    H1 6972   7.048   1.752   1.774 -0.0017  1.1854  0.3161
 2336TIP3    H2 6973   6.919   1.750   1.695  0.0727 -0.2264  0.2026
 2337TIP3   OH2 6974   3.375   6.419   0.655 -0.0613 -0.4056 -0.2255
 2337TIP3    H1 6975   3.350   6.438   0.565 -1.0437 -0.0185  0.1199
 2337TIP3    H2 6976   3.324   6.480   0.708  0.1791 -0.9156  0.6207
 2338TIP3   OH2 6977   1.192   5.677   0.180 -0.2352  0.0539 -0.4357
 2338TIP3    H1 6978   1.130   5.740   0.215 -1.7067 -1.1115 -0.8172
 2338TIP3    H2 6979   1.137   5.602   0.153  1.2329 -0.6450 -1.6465
 2339TIP3   OH2 6980   2.925   3.744   5.241  0.5413 -0.0421  0.6007
 2339TIP3    H1 6981   2.972   3.806   5.297 -1.7325  0.0976  2.4658
 2339TIP3    H2 6982   2.867   3.697   5.300 -2.0004  0.1052 -1.5938
 2340TIP3   OH2 6983   3.165   6.719   1.746  0.1838  0.1210  0.3191
 2340TIP3    H1 6984   3.180   6.807   1.782 -0.6261  0.1042  0.7080
 2340TIP3    H2 6985   3.147   6.735   1.653 -0.2553  0.4052  0.4460
 2341TIP3   OH2 6986   5.046   3.944   4.585  0.1996  0.2196  0.4298
 2341TIP3    H1 6987   5.142   3.939   4.577  0.5533  3.3759  1.2963
 2341TIP3    H2 6988   5.014   3.907   4.503  2.0773 -1.7040  0.4589
 2342TIP3   OH2 6989   2.411   2.736   1.783  0.7831 -0.3321  0.4927
 2342TIP3    H1 6990   2.345   2.780   1.729 -0.1729 -0.8347  1.2305
 2342TIP3    H2 6991   2.469   2.693   1.719  0.1298 -0.2744 -0.1558
 2343TIP3   OH2 6992   4.373   4.424   1.957 -0.4838  0.1372 -0.0142
 2343TIP3    H1 6993   4.382   4.420   2.052 -1.2928  2.3031  0.1988
 2343TIP3    H2 6994   4.319   4.501   1.940 -2.1768 -1.3557 -2.1419
 2344TIP3   OH2 6995   3.631   1.468   4.888 -0.8197 -0.7184 -0.3059
 2344TIP3    H1 6996   3.687   1.447   4.962  0.2732 -2.1807 -1.4851
 2344TIP3    H2 6997   3.577   1.541   4.919  1.8210  0.9109  0.8650
 2345TIP3   OH2 6998   1.449   4.374   4.397 -0.1556 -0.2326  0.0530
 2345TIP3    H1 6999   1.475   4.365   4.489  0.6843 -0.3329 -0.1822
 2345TIP3    H2 7000   1.479   4.461   4.372 -0.7966 -0.0231 -0.0040
 2346TIP3   OH2 7001   0.522   1.605   2.927 -0.1943  0.0515 -0.0222
 2346TIP3    H1 7002   0.503   1.517   2.961  0.3813 -0.1376 -0.1759
 2346TIP3    H2 7003   0.494   1.601   2.835 -2.1119  0.6805  0.4746
 2347TIP3   OH2 7004   3.204   0.135   2.900  0.2287 -0.5395  0.0995
 2347TIP3    H1 7005   3.219   0.227   2.919  1.2340 -0.1036 -2.3620
 2347TIP3    H2 7006   3.250   0.088   2.969 -0.1452  0.7716  1.2859
 2348TIP3   OH2 7007   7.039   3.063   4.731  0.4701 -0.1366  0.1868
 2348TIP3    H1 7008   6.945   3.045   4.738  0.4357 -0.0356 -0.0177
 2348TIP3    H2 7009   7.080   2.994   4.783  0.2627  0.0470  0.6017
 2349TIP3   OH2 7010   4.380   4.820   1.309  0.3731 -0.2326 -0.1551
 2349TIP3    H1 7011   4.329   4.828   1.390  0.7100  0.5925 -0.0065
 2349TIP3    H2 7012   4.375   4.727   1.286 -0.9915 -0.2198 -0.0236
 2350TIP3   OH2 7013   4.063   1.355   2.679 -0.3821 -0.7220 -0.0484
 2350TIP3    H1 7014   4.115   1.415   2.625  0.7493 -0.9818  0.7286
 2350TIP3    H2 7015   3.984   1.405   2.701 -0.8283 -0.5679 -1.8134
 2351TIP3   OH2 7016   5.729   3.679   4.810  0.3169  0.0553  0.4459
 2351TIP3    H1 7017   5.730   3.696   4.716  2.2343 -1.5345  0.1187
 2351TIP3    H2 7018   5.801   3.731   4.845 -0.0973  0.2845  0.9750
 2352TIP3   OH2 7019   2.291   2.208   5.441 -0.1125 -0.0939 -0.2867
 2352TIP3    H1 7020   2.227   2.205   5.512 -0.8060 -0.5778 -0.9131
 2352TIP3    H2 7021   2.243   2.243   5.366  0.5905  0.3416 -0.5444
 2353TIP3   OH2 7022   6.096   5.426   2.425  0.6322 -0.0000  0.0732
 2353TIP3    H1 7023   6.014   5.399   2.385  0.2574 -0.7556  1.3319
 2353TIP3    H2 7024   6.088   5.521   2.434 -0.3230 -0.1306  0.6706
 2354TIP3   OH2 7025   0.935   5.943   1.483 -0.2139 -0.1696 -0.1009
 2354TIP3    H1 7026   1.010   5.916   1.429 -0.9714 -1.3854 -0.5783
 2354TIP3    H2 7027   0.939   5.885   1.559  0.1696  0.7675  0.6275
 2355TIP3   OH2 7028   4.186   1.135   5.541 -0.1114  0.0325 -0.4367
 2355TIP3    H1 7029   4.234   1.173   5.468 -0.0567  0.0831 -0.3746
 2355TIP3    H2 7030   4.115   1.197   5.559  1.3066  1.2790  1.1406
 2356TIP3   OH2 7031   3.301   1.482   4.545 -0.1246  0.0511 -0.1461
 2356TIP3    H1 7032   3.343   1.521   4.468 -0.4369  1.6461  0.4631
 2356TIP3    H2 7033   3.374   1.445   4.596  0.3223  0.9316 -0.1294
 2357TIP3   OH2 7034   0.731   3.781   2.754  0.2592 -0.4407  0.4017
 2357TIP3    H1 7035   0.654   3.837   2.759 -1.2839 -2.4194  0.0378
 2357TIP3    H2 7036   0.732   3.734   2.838  1.2232 -0.2841  0.4960
 2358TIP3   OH2 7037   5.789   6.071   5.123 -0.2278 -0.2002 -0.0013
 2358TIP3    H1 7038   5.809   6.122   5.045  1.5171  0.5035  0.8395
 2358TIP3    H2 7039   5.697   6.089   5.141 -0.4924  0.1041 -1.5345
 2359TIP3   OH2 7040   4.155   0.853   2.787  0.2623 -0.1902 -0.3369
 2359TIP3    H1 7041   4.077   0.883   2.835  0.8299  0.2692  0.3254
 2359TIP3    H2 7042   4.122   0.788   2.725 -0.4517 -1.0740  0.9223
 2360TIP3   OH2 7043   3.148   6.534   1.502  0.1309  0.4572  0.2626
 2360TIP3    H1 7044   3.190   6.606   1.454  0.9438 -0.1351  0.0494
 2360TIP3    H2 7045   3.216   6.467   1.508  0.0128  0.4660  2.1778
 2361TIP3   OH2 7046   2.095   1.488   1.002  0.0036 -0.4418  0.6146
 2361TIP3    H1 7047   2.135   1.514   1.085 -1.2802 -1.9067  1.7737
 2361TIP3    H2 7048   2.019   1.545   0.993 -1.2222 -1.8357  1.7231
 2362TIP3   OH2 7049   1.095   3.701   4.506 -0.2169 -0.7138  0.0159
 2362TIP3    H1 7050   1.181   3.726   4.471 -0.5450  0.0975 -0.2289
 2362TIP3    H2 7051   1.114   3.669   4.594  0.1301  1.4002  0.7524
 2363TIP3   OH2 7052   2.857   6.422   4.970 -0.0250  0.1113 -0.6902
 2363TIP3    H1 7053   2.771   6.391   4.998  0.7107 -1.4764 -0.0280
 2363TIP3    H2 7054   2.855   6.418   4.875  0.1107 -2.3869 -0.6479
 2364TIP3   OH2 7055   2.136   5.851   4.724  0.2674  0.2020  0.5631
 2364TIP3    H1 7056   2.227   5.822   4.717  0.4720  0.7412  0.9535
 2364TIP3    H2 7057   2.135   5.911   4.798  0.0328  1.9471 -0.8037
 2365TIP3   OH2 7058   3.083   3.215   2.133  0.1582 -0.0973  0.2947
 2365TIP3    H1 7059   3.044   3.288   2.085  2.5008  0.5558 -0.7616
 2365TIP3    H2 7060   3.125   3.256   2.209  1.9708 -0.1912 -0.6016
 2366TIP3   OH2 7061   2.786   3.642   2.375 -0.4869 -0.3751  0.3151
 2366TIP3    H1 7062   2.725   3.694   2.428 -2.4915 -0.9994 -1.2363
 2366TIP3    H2 7063   2.773   3.675   2.286  0.3185 -1.5997 -0.2780
 2367TIP3   OH2 7064   5.856   0.715   1.652  0.0810 -0.2572 -0.0975
 2367TIP3    H1 7065   5.880   0.795   1.699  0.1667 -0.7207  0.6530
 2367TIP3    H2 7066   5.939   0.672   1.633  0.1938  0.7612 -2.2259
 2368TIP3   OH2 7067   5.637   0.033   2.977 -0.4357 -0.5873 -0.4077
 2368TIP3    H1 7068   5.648   0.124   2.949  0.8437 -1.0839 -1.6150
 2368TIP3    H2 7069   5.719  -0.010   2.952 -0.3790 -1.7363  1.5435
 2369TIP3   OH2 7070   5.497   3.641   2.721  0.0621  0.1024 -0.3106
 2369TIP3    H1 7071   5.528   3.720   2.764  0.4668 -0.7024  0.9216
 2369TIP3    H2 7072   5.432   3.605   2.781  0.0514 -0.6199 -0.7502
 2370TIP3   OH2 7073   5.375   0.918   2.062  0.6483 -0.0324 -0.5885
 2370TIP3    H1 7074   5.291   0.931   2.105  1.0097  0.2932  0.0467
 2370TIP3    H2 7075   5.393   0.824   2.072  0.3591 -0.1033 -0.7342
 2371TIP3   OH2 7076   4.161   6.775   1.678 -0.5605  0.3291 -0.1184
 2371TIP3    H1 7077   4.104   6.699   1.663  0.9882 -1.0912  0.9156
 2371TIP3    H2 7078   4.144   6.832   1.603 -1.1267 -1.4392 -1.4083
 2372TIP3   OH2 7079   1.527   3.844   4.066 -0.4623  0.0415  0.4545
 2372TIP3    H1 7080   1.496   3.754   4.065 -1.6642  0.3609  2.5827
 2372TIP3    H2 7081   1.568   3.857   3.980 -0.7155 -2.3436 -0.0807
 2373TIP3   OH2 7082   2.725   6.649   1.690  0.3557  0.3417 -0.4329
 2373TIP3    H1 7083   2.805   6.597   1.681  0.8119  1.0566 -0.5803
 2373TIP3    H2 7084   2.697   6.635   1.781  1.4782  1.2490  0.0812
 2374TIP3   OH2 7085   4.416   0.029   4.793  0.2929  0.1179  0.2018
 2374TIP3    H1 7086   4.494   0.014   4.739 -0.6437 -0.0493 -1.1415
 2374TIP3    H2 7087   4.425   0.119   4.824 -0.2820  1.0764 -2.2179
 2375TIP3   OH2 7088   3.940   2.500   0.774 -0.0786  0.4131  0.0382
 2375TIP3    H1 7089   3.913   2.568   0.836 -0.2991  1.6961 -1.3921
 2375TIP3    H2 7090   3.905   2.419   0.810  0.5526  0.9760  2.0125
 2376TIP3   OH2 7091   5.049   4.670   0.419 -0.1086 -0.5144 -0.0672
 2376TIP3    H1 7092   5.056   4.675   0.515 -2.1960  1.1908  0.0666
 2376TIP3    H2 7093   5.107   4.739   0.388  1.3879 -1.7414 -0.1532
 2377TIP3   OH2 7094   1.151   0.074   2.286  0.9220  0.7633  0.0130
 2377TIP3    H1 7095   1.224   0.055   2.345  0.7917 -1.8314 -0.5365
 2377TIP3    H2 7096   1.077   0.024   2.322  0.1930  1.0798 -1.0018
 2378TIP3   OH2 7097   1.448   4.487   1.595 -0.2230 -0.4986  0.1381
 2378TIP3    H1 7098   1.533   4.530   1.609 -1.3304  1.7440  0.3212
 2378TIP3    H2 7099   1.427   4.506   1.503 -0.8474 -0.4478  0.2891
 2379TIP3   OH2 7100   6.727   5.192   2.125  0.3459 -0.3583 -0.1454
 2379TIP3    H1 7101   6.635   5.165   2.131  0.1605  0.4664  1.4061
 2379TIP3    H2 7102   6.755   5.203   2.216  1.3882  1.3360 -0.6100
 2380TIP3   OH2 7103   0.550   5.723   1.169  0.7477 -0.3959  0.3659
 2380TIP3    H1 7104   0.609   5.682   1.231 -0.6920 -0.5854  1.6696
 2380TIP3    H2 7105   0.467   5.733   1.217  0.4975  2.4050 -0.4701
 2381TIP3   OH2 7106   2.206   3.500   1.815  0.3663  0.4491  0.0539
 2381TIP3    H1 7107   2.263   3.539   1.748 -0.9845  1.2490 -0.6798
 2381TIP3    H2 7108   2.253   3.422   1.844  2.0627  1.3604 -0.1385
 2382TIP3   OH2 7109   0.198   0.318   5.670 -0.3023 -0.1108  0.8633
 2382TIP3    H1 7110   0.188   0.270   5.588  0.2747 -0.6743  1.1148
 2382TIP3    H2 7111   0.110   0.351   5.689 -0.6351 -0.7742  0.5049
 2383TIP3   OH2 7112   0.624   1.125   5.809 -0.2647  0.2172  0.2100
 2383TIP3    H1 7113   0.651   1.216   5.799 -1.1207  0.5094  0.4686
 2383TIP3    H2 7114   0.536   1.130   5.845  0.5692 -0.6996  2.6205
 2384TIP3   OH2 7115   4.366   4.377   5.266 -0.1320  0.5366  0.1891
 2384TIP3    H1 7116   4.291   4.328   5.231  1.9681 -0.8869 -2.6770
 2384TIP3    H2 7117   4.384   4.336   5.351 -1.9712  0.2903  0.5004
 2385TIP3   OH2 7118   0.030   3.992   3.650  0.4633  0.1090 -0.2946
 2385TIP3    H1 7119   0.121   3.981   3.622  0.3152  0.9398 -1.1616
 2385TIP3    H2 7120  -0.022   3.957   3.578  0.0938  0.3155 -0.1308
 2386TIP3   OH2 7121   0.402   4.238   4.109  0.2919 -0.2299  0.1506
 2386TIP3    H1 7122   0.337   4.228   4.039 -1.1741  1.7211  1.1332
 2386TIP3    H2 7123   0.363   4.195   4.185  0.4017  0.4297  0.5913
 2387TIP3   OH2 7124   6.164   4.909   4.017 -0.0097  0.3551  0.1629
 2387TIP3    H1 7125   6.162   5.002   3.992 -0.1196 -0.0554 -1.5277
 2387TIP3    H2 7126   6.143   4.863   3.936  1.2540 -1.2075  0.6749
 2388TIP3   OH2 7127   5.484   5.756   0.623 -0.6328  0.1260 -0.4228
 2388TIP3    H1 7128   5.485   5.687   0.690  0.3576  0.0377 -0.5126
 2388TIP3    H2 7129   5.420   5.726   0.559 -0.4361 -0.5704 -0.3055
 2389TIP3   OH2 7130   3.587   3.193   0.935  0.2492 -0.2860  0.0645
 2389TIP3    H1 7131   3.522   3.147   0.883  0.3147 -0.2455 -0.0519
 2389TIP3    H2 7132   3.628   3.123   0.987  0.2067 -0.3305  0.0389
 2390TIP3   OH2 7133   4.540   4.911   4.279 -0.3351 -0.3496  0.4953
 2390TIP3    H1 7134   4.632   4.907   4.307 -0.8158 -0.4440  2.2014
 2390TIP3    H2 7135   4.491   4.925   4.360 -1.8467 -0.4106 -0.3664
 2391TIP3   OH2 7136   3.280   6.492   1.908 -0.1340  0.3352 -0.2088
 2391TIP3    H1 7137   3.298   6.565   1.967 -1.0560  1.0959 -0.8412
 2391TIP3    H2 7138   3.256   6.534   1.825 -0.4573 -0.6936 -0.6485
 2392TIP3   OH2 7139   0.374   0.900   0.895  0.4201 -0.0300 -0.2792
 2392TIP3    H1 7140   0.409   0.987   0.875 -0.1028  0.2337 -0.0698
 2392TIP3    H2 7141   0.376   0.854   0.811 -1.9427  1.1263 -1.0768
 2393TIP3   OH2 7142   4.253   2.616   3.543 -0.0880 -0.0219 -0.1216
 2393TIP3    H1 7143   4.157   2.613   3.548 -0.2862  0.9523 -2.2254
 2393TIP3    H2 7144   4.277   2.533   3.502  0.1871 -1.1122  2.1074
 2394TIP3   OH2 7145   3.392   2.490   1.144  0.2227 -0.0866  0.0803
 2394TIP3    H1 7146   3.324   2.426   1.124 -0.1653  0.4030 -0.2139
 2394TIP3    H2 7147   3.474   2.441   1.143 -0.2523 -0.9899  1.9076
 2395TIP3   OH2 7148   2.987   2.342   3.653  0.4344 -0.0276 -0.2974
 2395TIP3    H1 7149   2.974   2.409   3.586  1.4389 -0.4212 -0.9055
 2395TIP3    H2 7150   3.028   2.388   3.726  1.5737 -0.0652 -0.9035
 2396TIP3   OH2 7151   1.702   5.465   0.617 -0.4239  0.3450 -0.6534
 2396TIP3    H1 7152   1.774   5.411   0.648 -0.4273  1.4704  1.4992
 2396TIP3    H2 7153   1.739   5.516   0.545 -0.3414 -2.1741 -2.5263
 2397TIP3   OH2 7154   7.067   3.920   3.429  0.0515  0.3163  0.0718
 2397TIP3    H1 7155   7.004   3.942   3.360 -0.3614  0.2876  0.4362
 2397TIP3    H2 7156   7.153   3.935   3.389 -0.1024 -1.5221 -1.1141
 2398TIP3   OH2 7157   6.363   6.689   1.685 -0.4644 -0.2935  0.2208
 2398TIP3    H1 7158   6.272   6.689   1.715 -1.0939 -0.3209 -1.5523
 2398TIP3    H2 7159   6.384   6.781   1.671 -0.8882 -0.3864 -1.1734
 2399TIP3   OH2 7160   7.107   2.807   5.826  0.2051  0.2309  0.2964
 2399TIP3    H1 7161   7.076   2.790   5.915 -1.0774  1.3257  0.0840
 2399TIP3    H2 7162   7.099   2.901   5.815 -1.6453 -0.0816 -1.6590
 2400TIP3   OH2 7163   2.088   2.856   3.362 -0.7203  0.2873 -0.2477
 2400TIP3    H1 7164   2.049   2.933   3.404 -2.1146  0.4603 -1.7767
 2400TIP3    H2 7165   2.175   2.886   3.334 -0.3150  0.5759  1.2032
 2401TIP3   OH2 7166   4.605   2.843   0.703  0.7241  0.1995  0.0913
 2401TIP3    H1 7167   4.636   2.834   0.613  1.9519  1.7323  0.3275
 2401TIP3    H2 7168   4.637   2.764   0.747  1.4731  0.1922 -0.4470
 2402TIP3   OH2 7169   5.033   0.170   3.706  0.5977  0.9836  0.3216
 2402TIP3    H1 7170   5.086   0.225   3.648 -1.1869  2.8801  0.3743
 2402TIP3    H2 7171   4.996   0.231   3.770 -2.0908 -0.0943 -0.0637
 2403TIP3   OH2 7172   4.511   5.521   3.703  0.5080  0.3340 -0.2568
 2403TIP3    H1 7173   4.524   5.601   3.753  2.2676  0.0533 -0.2078
 2403TIP3    H2 7174   4.549   5.452   3.757  2.6341  0.0492 -1.9919
 2404TIP3   OH2 7175   3.760   2.398   1.864  0.5810 -0.1441 -0.2284
 2404TIP3    H1 7176   3.684   2.340   1.866 -0.4322  0.9022 -3.1589
 2404TIP3    H2 7177   3.735   2.472   1.921  0.9042 -1.3654  1.5854
 2405TIP3   OH2 7178   4.943   2.529   3.530 -0.0583 -0.0767  0.0557
 2405TIP3    H1 7179   5.020   2.585   3.522 -0.9017  0.9206 -1.8239
 2405TIP3    H2 7180   4.917   2.510   3.440 -1.4786 -1.1360  0.6433
 2406TIP3   OH2 7181   6.576   3.656   1.084  0.6957  0.5685  0.0379
 2406TIP3    H1 7182   6.634   3.589   1.120 -0.5192 -0.7203 -0.3493
 2406TIP3    H2 7183   6.554   3.712   1.159  0.6074 -0.2887  0.6559
 2407TIP3   OH2 7184   0.204   5.208   3.986 -0.1131 -0.6283  0.1637
 2407TIP3    H1 7185   0.235   5.174   4.070  0.5309 -0.5815 -0.0515
 2407TIP3    H2 7186   0.172   5.296   4.005  0.8791 -0.2669  0.1972
 2408TIP3   OH2 7187   5.907   4.055   0.051  0.5166  0.7427 -0.2456
 2408TIP3    H1 7188   5.888   4.143   0.017 -2.3234  0.5250  0.4553
 2408TIP3    H2 7189   5.846   3.998   0.004  1.1940 -0.5903  0.4513
 2409TIP3   OH2 7190   4.373   2.343   3.477 -0.0094  0.2691  0.0601
 2409TIP3    H1 7191   4.304   2.280   3.453  0.8522  0.1741 -2.5155
 2409TIP3    H2 7192   4.453   2.290   3.481  0.2662  0.7332  0.8228
 2410TIP3   OH2 7193   7.125   4.809   1.145  0.2504  0.6353  0.5616
 2410TIP3    H1 7194   7.100   4.760   1.223 -0.1839  0.4906  0.3324
 2410TIP3    H2 7195   7.092   4.757   1.072 -0.4670  1.4004  0.3251
 2411TIP3   OH2 7196   3.127   1.631   1.495  0.0498  0.6149  0.1578
 2411TIP3    H1 7197   3.068   1.637   1.420 -0.4123  2.2625  0.6178
 2411TIP3    H2 7198   3.074   1.591   1.564 -0.4342  1.7017  0.4409
 2412TIP3   OH2 7199   2.517   3.656   4.594 -0.4227  0.3757  0.3942
 2412TIP3    H1 7200   2.607   3.689   4.583  0.5976 -2.3344 -0.2211
 2412TIP3    H2 7201   2.499   3.667   4.687  0.5864  0.8893  0.5434
 2413TIP3   OH2 7202   3.862   4.893   2.200  0.2871 -0.3038 -0.1702
 2413TIP3    H1 7203   3.912   4.834   2.257  1.7292  2.1412  1.2744
 2413TIP3    H2 7204   3.785   4.917   2.253 -1.0804 -1.8915 -1.3164
 2414TIP3   OH2 7205   5.457   3.002   3.698 -0.0784  0.7833  0.1117
 2414TIP3    H1 7206   5.506   3.049   3.766  0.5052  1.1128 -0.5257
 2414TIP3    H2 7207   5.452   3.064   3.625  0.0305  0.1319 -0.4545
 2415TIP3   OH2 7208   0.685   3.205   1.389  0.4742 -0.3837 -0.0980
 2415TIP3    H1 7209   0.603   3.185   1.434  0.0964 -1.2610 -1.1350
 2415TIP3    H2 7210   0.698   3.132   1.329  1.1081  0.6130 -1.2169
 2416TIP3   OH2 7211   5.044   6.018   1.544  0.7132  0.0082  0.5544
 2416TIP3    H1 7212   5.023   6.093   1.600  1.1691 -0.5137  1.4375
 2416TIP3    H2 7213   4.964   5.965   1.544  0.7773 -0.0879  0.8646
 2417TIP3   OH2 7214   3.894   6.488   0.731  0.7656  0.4788 -0.3771
 2417TIP3    H1 7215   3.978   6.466   0.772  1.0865  0.3338 -1.0950
 2417TIP3    H2 7216   3.918   6.534   0.651  0.1868 -0.2414 -0.9806
 2418TIP3   OH2 7217   5.081   1.675   3.359  0.6573 -0.0063 -0.0572
 2418TIP3    H1 7218   5.057   1.582   3.352 -0.0723  0.2046 -0.4184
 2418TIP3    H2 7219   5.060   1.699   3.449  0.9221 -0.2093  0.0603
 2419TIP3   OH2 7220   2.737   1.834   5.178 -0.4284  0.3405 -0.7116
 2419TIP3    H1 7221   2.722   1.928   5.191 -0.4128  0.3583 -0.8155
 2419TIP3    H2 7222   2.773   1.829   5.089  0.1340  0.2967 -0.4889
 2420TIP3   OH2 7223   2.810   2.977   4.084 -0.9305  0.1318 -0.2689
 2420TIP3    H1 7224   2.881   3.040   4.094 -1.5614  0.7247  0.6615
 2420TIP3    H2 7225   2.782   2.986   3.993  0.6075 -0.5998 -0.8526
 2421TIP3   OH2 7226   2.930   2.552   2.323 -0.0763 -0.2445 -0.1943
 2421TIP3    H1 7227   2.897   2.478   2.272 -0.4757 -1.3889  1.6188
 2421TIP3    H2 7228   2.970   2.512   2.400  0.6748  1.3982  0.3096
 2422TIP3   OH2 7229   1.500   0.530   3.063  0.4396 -0.2613 -0.2518
 2422TIP3    H1 7230   1.485   0.597   2.996  0.6214  0.2949  0.2501
 2422TIP3    H2 7231   1.441   0.554   3.135  1.2309 -0.0469  0.3452
 2423TIP3   OH2 7232   1.329   0.821   4.517  0.3701  0.3142  0.0298
 2423TIP3    H1 7233   1.353   0.732   4.494  1.1127  0.2638  0.9620
 2423TIP3    H2 7234   1.235   0.817   4.537 -0.2529  0.3055 -2.6066
 2424TIP3   OH2 7235   3.252   2.546   5.225  0.8733  0.4301 -0.2934
 2424TIP3    H1 7236   3.342   2.523   5.247  0.4737  1.8823  3.7175
 2424TIP3    H2 7237   3.258   2.632   5.182  1.4251  0.4838 -0.1108
 2425TIP3   OH2 7238   6.546   1.074   1.215 -0.4217  0.2228  0.2633
 2425TIP3    H1 7239   6.529   1.166   1.234 -3.4345 -0.1110 -0.2770
 2425TIP3    H2 7240   6.557   1.070   1.120  2.0958  0.2607  0.4895
 2426TIP3   OH2 7241   3.355   5.038   2.762 -0.2889  0.2981  0.2074
 2426TIP3    H1 7242   3.339   5.131   2.745 -1.6338 -0.1447 -1.0484
 2426TIP3    H2 7243   3.269   5.003   2.785 -0.5237 -1.3202 -2.7344
 2427TIP3   OH2 7244   3.891   2.289   1.296 -0.4323  0.1795  0.1817
 2427TIP3    H1 7245   3.873   2.289   1.390  1.3074 -1.3287  0.5909
 2427TIP3    H2 7246   3.949   2.363   1.283 -2.1407  1.5227 -0.0878
 2428TIP3   OH2 7247   3.710   6.493   2.296  0.2015 -0.1082  0.1097
 2428TIP3    H1 7248   3.763   6.555   2.247  3.5931 -1.9833  1.0803
 2428TIP3    H2 7249   3.656   6.450   2.230  2.3910 -0.4619 -1.5609
 2429TIP3   OH2 7250   4.915   5.233   0.021 -0.4010  0.1103  0.5012
 2429TIP3    H1 7251   4.977   5.218   0.093  0.4680 -0.7637 -0.3996
 2429TIP3    H2 7252   4.958   5.196  -0.056 -0.4084  2.8266 -0.9288
 2430TIP3   OH2 7253   3.097   4.331   4.933  0.0604 -0.1255  0.5479
 2430TIP3    H1 7254   3.140   4.249   4.912 -0.8244 -0.5552  0.3350
 2430TIP3    H2 7255   3.105   4.384   4.854 -0.0939 -0.3356  0.3912
 2431TIP3   OH2 7256   0.161   5.256   5.252  0.0149 -0.7092  0.2993
 2431TIP3    H1 7257   0.223   5.227   5.185  0.5468  0.6669  0.1615
 2431TIP3    H2 7258   0.215   5.274   5.328 -0.4884 -1.4485  0.8476
 2432TIP3   OH2 7259   6.913   5.852   2.510 -0.1144 -0.0977  0.0940
 2432TIP3    H1 7260   6.889   5.889   2.425  0.0576 -1.6744 -0.6907
 2432TIP3    H2 7261   6.937   5.761   2.490 -1.5791 -0.9884  2.0491
 2433TIP3   OH2 7262   3.169   2.283   4.393 -0.0663 -0.0168 -0.1235
 2433TIP3    H1 7263   3.085   2.329   4.388 -0.2694 -0.3017  0.5874
 2433TIP3    H2 7264   3.219   2.332   4.458 -0.0775 -0.4691  0.2286
 2434TIP3   OH2 7265   2.520   4.703   4.293 -0.1527 -1.2165  0.3534
 2434TIP3    H1 7266   2.518   4.657   4.209  0.3026 -1.2973  0.3847
 2434TIP3    H2 7267   2.599   4.670   4.336  0.9474  0.6053 -0.1979
 2435TIP3   OH2 7268   6.432   0.460   1.210  0.0330  0.1617 -0.4117
 2435TIP3    H1 7269   6.514   0.468   1.161 -0.0326  1.6842 -0.3151
 2435TIP3    H2 7270   6.410   0.549   1.236 -1.3421 -0.2938  0.1071
 2436TIP3   OH2 7271   3.492   3.021   0.080 -0.3597  0.3865 -0.3055
 2436TIP3    H1 7272   3.586   3.009   0.096 -0.4500  1.1560  0.9207
 2436TIP3    H2 7273   3.484   3.112   0.051 -0.7482  0.4045 -0.1507
 2437TIP3   OH2 7274   4.801   1.194   0.131  0.1679 -0.0546  0.1889
 2437TIP3    H1 7275   4.725   1.248   0.109  0.8020  0.2378 -1.3758
 2437TIP3    H2 7276   4.765   1.105   0.138 -0.3467  0.1060 -0.3467
 2438TIP3   OH2 7277   6.634   1.192   2.938 -0.1705  0.1278 -0.1694
 2438TIP3    H1 7278   6.686   1.256   2.986 -1.1669  0.1800  0.8882
 2438TIP3    H2 7279   6.619   1.232   2.852 -1.9790  2.0256  0.9374
 2439TIP3   OH2 7280   1.647   0.803   3.263  0.2040  0.2277  0.0537
 2439TIP3    H1 7281   1.596   0.754   3.326  0.9392  0.0444  0.5144
 2439TIP3    H2 7282   1.582   0.846   3.207 -0.4734  1.2652  1.5909
 2440TIP3   OH2 7283   1.741   6.669   2.389 -0.1049  0.4862  0.3663
 2440TIP3    H1 7284   1.658   6.677   2.435 -1.7646  2.0212 -2.6178
 2440TIP3    H2 7285   1.799   6.730   2.434 -0.1994 -1.2139  3.0176
 2441TIP3   OH2 7286   1.720   3.581   5.783 -0.4979 -0.1971 -0.1740
 2441TIP3    H1 7287   1.709   3.499   5.735  0.7778 -0.5551  0.1298
 2441TIP3    H2 7288   1.631   3.604   5.810 -0.8537 -1.5959 -0.0705
 2442TIP3   OH2 7289   6.247   1.524   5.643  0.1940 -0.8688  0.2738
 2442TIP3    H1 7290   6.242   1.586   5.570  0.3944 -0.6874  0.4116
 2442TIP3    H2 7291   6.160   1.484   5.647 -0.2467  0.0975  0.7903
 2443TIP3   OH2 7292   2.276   0.275   4.899 -0.1878 -0.3672  0.0554
 2443TIP3    H1 7293   2.230   0.305   4.821  2.0691 -0.8671 -1.5700
 2443TIP3    H2 7294   2.207   0.245   4.958 -1.9857  0.3005 -1.6108
 2444TIP3   OH2 7295   2.213   3.771   0.458 -0.5398  0.5282 -0.2802
 2444TIP3    H1 7296   2.220   3.743   0.549 -0.3042 -1.9955 -1.0131
 2444TIP3    H2 7297   2.283   3.836   0.448  0.7005 -0.5762  0.8640
 2445TIP3   OH2 7298   5.889   6.244   3.311 -0.0779 -0.0712  0.7101
 2445TIP3    H1 7299   5.900   6.194   3.392 -0.4087  0.6490  1.2165
 2445TIP3    H2 7300   5.901   6.180   3.241  2.4239 -0.2790  1.2604
 2446TIP3   OH2 7301   4.283   6.461   4.936 -0.0120 -0.1150 -0.3253
 2446TIP3    H1 7302   4.265   6.469   5.030 -3.0757  0.7988 -0.8517
 2446TIP3    H2 7303   4.261   6.370   4.916  1.9480 -0.6940  0.0244
 2447TIP3   OH2 7304   2.225   4.642   4.878  0.4286  0.5329  0.2143
 2447TIP3    H1 7305   2.164   4.680   4.940 -0.6067 -0.5672 -0.1021
 2447TIP3    H2 7306   2.293   4.602   4.932  1.4938  2.6258  0.5617
 2448TIP3   OH2 7307   6.068   3.716   5.815  0.5058  0.5176  0.8683
 2448TIP3    H1 7308   5.983   3.677   5.795  1.8268 -1.5828 -1.1370
 2448TIP3    H2 7309   6.101   3.746   5.731  1.6142  1.6024  1.6605
 2449TIP3   OH2 7310   7.084   4.508   1.530 -0.7203  0.0356 -0.2862
 2449TIP3    H1 7311   7.054   4.569   1.463 -3.0626 -1.0636 -0.3352
 2449TIP3    H2 7312   7.004   4.465   1.561  0.6440 -1.7657  0.9572
 2450TIP3   OH2 7313   3.862   5.682   4.876  0.6336  0.5065  0.1129
 2450TIP3    H1 7314   3.876   5.589   4.897  0.6727  0.6698  0.8329
 2450TIP3    H2 7315   3.769   5.687   4.853  1.0248 -0.0459 -1.8197
 2451TIP3   OH2 7316   4.687   2.975   3.528 -0.0925  0.3651  0.3183
 2451TIP3    H1 7317   4.603   2.931   3.541  0.0457 -0.1328 -0.4035
 2451TIP3    H2 7318   4.732   2.923   3.462 -0.1558  1.8991 -1.0105
 2452TIP3   OH2 7319   3.230   6.348   2.246  0.1909  0.2275 -0.5218
 2452TIP3    H1 7320   3.162   6.374   2.308 -0.4374 -0.2379 -0.9979
 2452TIP3    H2 7321   3.278   6.429   2.228 -0.0844  0.5157  0.0039
 2453TIP3   OH2 7322   0.345   3.799   4.704  0.2703  0.9654  0.2144
 2453TIP3    H1 7323   0.438   3.805   4.684  0.0672 -0.4719 -1.4028
 2453TIP3    H2 7324   0.307   3.752   4.630 -1.8648  2.0679  0.5260
 2454TIP3   OH2 7325   4.955   4.748   5.702 -0.1315  0.1376 -0.6602
 2454TIP3    H1 7326   5.019   4.803   5.748  0.3312  0.0413 -1.1794
 2454TIP3    H2 7327   4.919   4.691   5.769  2.1649 -1.5843 -0.7781
 2455TIP3   OH2 7328   5.768   4.893   1.759  0.5223  0.1940  0.2130
 2455TIP3    H1 7329   5.847   4.942   1.780  1.9506 -2.0751  0.4665
 2455TIP3    H2 7330   5.724   4.882   1.843 -1.3073  3.2715 -0.1912
 2456TIP3   OH2 7331   6.100   2.106   1.540  0.0936 -0.4682  0.2651
 2456TIP3    H1 7332   6.029   2.085   1.479  0.1115  0.0654  0.0559
 2456TIP3    H2 7333   6.101   2.033   1.602 -2.3394  0.6765  1.8110
 2457TIP3   OH2 7334   6.801   3.944   3.330  0.4535 -0.0885  0.5966
 2457TIP3    H1 7335   6.779   3.851   3.328 -3.0746  0.6002 -1.8043
 2457TIP3    H2 7336   6.746   3.980   3.400  0.1176  0.4977  0.0396
 2458TIP3   OH2 7337   0.340   3.649   1.634  0.7224 -0.0227  0.1607
 2458TIP3    H1 7338   0.314   3.718   1.573  0.1680  0.3474  0.7994
 2458TIP3    H2 7339   0.265   3.640   1.693  1.6300  0.3413  1.4079
 2459TIP3   OH2 7340   5.774   5.307   3.881  0.0643  0.5374 -0.1510
 2459TIP3    H1 7341   5.798   5.260   3.961 -0.4696  0.1989 -0.1818
 2459TIP3    H2 7342   5.819   5.391   3.888 -1.3752  1.2345  1.3573
 2460TIP3   OH2 7343   4.418   3.970   3.133 -0.2387  0.7480 -0.5254
 2460TIP3    H1 7344   4.467   4.048   3.157  0.0672  0.5987 -0.6608
 2460TIP3    H2 7345   4.478   3.919   3.078  0.4517 -0.7117  1.4431
 2461TIP3   OH2 7346   6.407   6.204   0.829  0.5222 -0.2133  0.2033
 2461TIP3    H1 7347   6.420   6.193   0.923 -0.7577  0.7450  0.5066
 2461TIP3    H2 7348   6.496   6.209   0.793  1.0176 -0.2159  1.3986
 2462TIP3   OH2 7349   2.787   5.060   5.240 -0.2557 -0.4842 -0.0536
 2462TIP3    H1 7350   2.765   5.142   5.196  0.6538 -1.5394 -2.7141
 2462TIP3    H2 7351   2.880   5.048   5.222 -0.0171 -1.3538  1.6223
 2463TIP3   OH2 7352   6.442   1.293   5.578 -0.2173  0.0531  0.3282
 2463TIP3    H1 7353   6.372   1.228   5.585 -0.5467  0.5647  2.3333
 2463TIP3    H2 7354   6.397   1.377   5.589  0.5449  0.4780  0.2438
 2464TIP3   OH2 7355   2.767   0.166   0.881  0.2546 -0.3384 -0.2638
 2464TIP3    H1 7356   2.694   0.193   0.937 -0.9243  2.3912 -2.8550
 2464TIP3    H2 7357   2.834   0.232   0.896  1.0278 -1.1308 -0.1500
 2465TIP3   OH2 7358   4.048   4.633   2.562 -0.2465  0.4478 -0.3862
 2465TIP3    H1 7359   4.109   4.559   2.566 -0.1495  0.5852  1.1961
 2465TIP3    H2 7360   4.061   4.679   2.645 -0.6312  1.9946 -1.1494
 2466TIP3   OH2 7361   3.989   0.866   3.200 -0.0046  0.0530 -0.1271
 2466TIP3    H1 7362   4.069   0.905   3.235  0.7874 -1.2883 -0.3707
 2466TIP3    H2 7363   3.922   0.934   3.211  1.4566  1.7902 -1.2759
 2467TIP3   OH2 7364   4.121   2.994   1.116  0.2937  0.0992  0.5331
 2467TIP3    H1 7365   4.052   3.061   1.117 -0.8060 -0.9875  0.3466
 2467TIP3    H2 7366   4.199   3.040   1.088 -0.6302  1.1291 -0.4278
 2468TIP3   OH2 7367   2.854   5.274   1.363 -0.0389  0.3680 -0.2608
 2468TIP3    H1 7368   2.919   5.343   1.348 -0.6385  0.5055 -2.4243
 2468TIP3    H2 7369   2.887   5.199   1.314  1.1621 -1.3719  2.8870
 2469TIP3   OH2 7370   1.459   5.634   3.648  0.1276  0.0469 -0.0064
 2469TIP3    H1 7371   1.498   5.709   3.604 -0.8335  0.0372 -0.8969
 2469TIP3    H2 7372   1.419   5.582   3.578 -0.0833 -0.7827  0.7051
 2470TIP3   OH2 7373   5.208   1.360   3.746 -0.3885 -0.6188 -0.5526
 2470TIP3    H1 7374   5.140   1.301   3.713 -1.2404 -1.5170  2.4236
 2470TIP3    H2 7375   5.250   1.396   3.668 -2.6716 -1.9045 -2.4914
 2471TIP3   OH2 7376   6.375   3.243   0.801  0.3825 -0.3661  1.0703
 2471TIP3    H1 7377   6.365   3.153   0.769  1.4616  0.0344 -0.5054
 2471TIP3    H2 7378   6.408   3.292   0.725 -0.3244  1.3993  1.8555
 2472TIP3   OH2 7379   5.336   2.373   0.190  0.1726 -0.1775  0.1452
 2472TIP3    H1 7380   5.309   2.411   0.273 -0.2544 -0.5896  0.1921
 2472TIP3    H2 7381   5.321   2.443   0.126  0.7928  0.2486  0.4487
 2473TIP3   OH2 7382   0.505   2.297   1.018  0.2684 -0.1646  0.2287
 2473TIP3    H1 7383   0.542   2.377   1.055 -0.6105  0.0549  0.6823
 2473TIP3    H2 7384   0.544   2.226   1.069  1.4050 -0.0677 -0.4849
 2474TIP3   OH2 7385   4.478   4.727   2.368  0.7472 -0.1356 -0.1433
 2474TIP3    H1 7386   4.542   4.770   2.424  2.3915 -1.3634 -0.9902
 2474TIP3    H2 7387   4.503   4.752   2.279 -0.3423 -0.1506 -0.4716
 2475TIP3   OH2 7388   5.858   5.868   5.546  0.2110 -0.0564 -0.0877
 2475TIP3    H1 7389   5.830   5.836   5.460  0.2904 -1.6591  0.4356
 2475TIP3    H2 7390   5.927   5.932   5.527 -0.4702  0.3637 -1.2335
 2476TIP3   OH2 7391   2.828   2.047   2.513 -0.4810 -0.0792  0.1167
 2476TIP3    H1 7392   2.823   2.046   2.417 -0.2268  0.1663  0.0990
 2476TIP3    H2 7393   2.819   1.956   2.538 -0.7202 -0.1268 -0.1333
 2477TIP3   OH2 7394   5.151   3.602   4.000 -1.0161 -0.0946  0.4199
 2477TIP3    H1 7395   5.131   3.613   4.092 -2.6462 -0.8835  0.1873
 2477TIP3    H2 7396   5.067   3.612   3.955  0.0691  2.8366 -1.2783
 2478TIP3   OH2 7397   0.506   3.601   1.069 -0.3916  0.0686 -0.4904
 2478TIP3    H1 7398   0.496   3.656   0.990 -3.5048  1.0248  0.4263
 2478TIP3    H2 7399   0.426   3.617   1.119 -1.3353 -5.0357  0.0967
 2479TIP3   OH2 7400   6.286   1.772   4.517 -0.2723 -0.7234 -0.5400
 2479TIP3    H1 7401   6.263   1.762   4.424  0.1263  1.2154 -0.8992
 2479TIP3    H2 7402   6.215   1.728   4.564 -0.8978 -1.0600 -1.7528
 2480TIP3   OH2 7403   4.021   0.392   3.475  0.5436 -0.2904 -0.0144
 2480TIP3    H1 7404   4.086   0.461   3.469 -0.0129  0.4435  1.7295
 2480TIP3    H2 7405   3.955   0.426   3.535 -1.6753 -0.8502 -1.9751
 2481TIP3   OH2 7406   5.591   1.534   0.476 -0.2635 -0.9162 -0.3679
 2481TIP3    H1 7407   5.682   1.518   0.452  0.1413 -2.2213  1.8025
 2481TIP3    H2 7408   5.585   1.629   0.486  0.2813 -0.6150 -2.5369
 2482TIP3   OH2 7409   0.963   0.668   5.859  0.4210 -0.1751  0.5870
 2482TIP3    H1 7410   1.035   0.728   5.879  1.3048 -1.2310  0.6874
 2482TIP3    H2 7411   1.004   0.598   5.808 -0.9669  0.2891 -1.2977
 2483TIP3   OH2 7412   6.096   3.056   1.617 -0.6059 -0.0871 -0.2527
 2483TIP3    H1 7413   6.029   3.124   1.622  0.2440  0.7476  0.0537
 2483TIP3    H2 7414   6.073   2.995   1.688 -1.3134 -0.0789 -0.4649
 2484TIP3   OH2 7415   4.360   4.507   0.126 -0.4331 -0.5441  0.0950
 2484TIP3    H1 7416   4.278   4.464   0.150 -1.2264 -0.0326 -1.5283
 2484TIP3    H2 7417   4.344   4.600   0.143  0.6400 -0.6601  1.9100
 2485TIP3   OH2 7418   6.920   0.158   2.451 -0.6392 -0.4469 -0.3931
 2485TIP3    H1 7419   6.871   0.092   2.402  0.9992 -2.7307  0.8706
 2485TIP3    H2 7420   7.004   0.164   2.405 -0.1574 -0.4818  0.4707
 2486TIP3   OH2 7421   1.911   3.079   3.436 -0.2159 -0.7472 -0.0814
 2486TIP3    H1 7422   1.949   3.130   3.507 -0.4374 -1.5286  0.6094
 2486TIP3    H2 7423   1.900   3.141   3.364 -2.2713  0.6360  1.3524
 2487TIP3   OH2 7424   1.835   1.474   5.087  0.1380 -0.4042 -0.4131
 2487TIP3    H1 7425   1.924   1.506   5.104 -0.3627  0.2546  1.1574
 2487TIP3    H2 7426   1.847   1.398   5.030  1.7116 -0.3601 -0.1830
 2488TIP3   OH2 7427   0.633   4.037   0.885  0.0431  0.1874  0.2362
 2488TIP3    H1 7428   0.554   3.993   0.852 -0.2413  0.7931  0.0756
 2488TIP3    H2 7429   0.689   4.044   0.808  0.8968 -1.5540  0.6611
 2489TIP3   OH2 7430   2.642   4.173   2.075  0.0945  0.4271 -0.3489
 2489TIP3    H1 7431   2.728   4.196   2.110  1.3099 -0.5444 -2.4885
 2489TIP3    H2 7432   2.598   4.257   2.064  1.4836  1.1204 -0.9076
 2490TIP3   OH2 7433   7.093   1.273   3.461 -0.3597  0.0519 -0.0310
 2490TIP3    H1 7434   7.054   1.233   3.384  1.1127  1.1511 -1.4079
 2490TIP3    H2 7435   7.184   1.288   3.437  0.2337  0.0853  2.0707
 2491TIP3   OH2 7436   6.533   6.506   3.311  0.0522  0.3765  0.1624
 2491TIP3    H1 7437   6.547   6.493   3.217  1.2046 -1.9278  0.5873
 2491TIP3    H2 7438   6.621   6.518   3.346 -0.0993 -1.3998  1.2548
 2492TIP3   OH2 7439   3.307   5.752   2.652  0.0624 -0.2811  0.2113
 2492TIP3    H1 7440   3.310   5.698   2.731  3.1841 -1.6626 -0.7154
 2492TIP3    H2 7441   3.268   5.695   2.585 -1.6997  0.5731  0.4312
 2493TIP3   OH2 7442   4.003   2.282   3.708  0.8209  0.0455  0.0498
 2493TIP3    H1 7443   3.953   2.363   3.714  0.8288 -0.0080  1.0068
 2493TIP3    H2 7444   4.084   2.300   3.754  0.8790 -0.4612  0.1575
 2494TIP3   OH2 7445   1.672   1.013   3.875  0.0809 -0.1334 -0.1127
 2494TIP3    H1 7446   1.636   1.010   3.964 -0.1362  0.1456 -0.1908
 2494TIP3    H2 7447   1.604   0.974   3.820 -0.1101  0.4011 -0.2616
 2495TIP3   OH2 7448   6.702   3.823   2.543 -0.0664  0.3160  0.0048
 2495TIP3    H1 7449   6.720   3.866   2.627 -2.5092  2.0848 -0.2749
 2495TIP3    H2 7450   6.763   3.864   2.482  0.7726  0.0203  0.6229
 2496TIP3   OH2 7451   5.104   0.487   0.564 -0.1201 -0.0524 -0.3471
 2496TIP3    H1 7452   5.089   0.573   0.603 -0.1855 -0.2975  0.1734
 2496TIP3    H2 7453   5.160   0.442   0.628 -1.0551 -0.8202 -0.0614
 2497TIP3   OH2 7454   1.938   2.631   5.772  0.2004 -0.2728 -0.0993
 2497TIP3    H1 7455   1.935   2.640   5.868  0.0999  0.5013 -0.1628
 2497TIP3    H2 7456   1.924   2.538   5.756  1.2482 -0.5876  0.6835
 2498TIP3   OH2 7457   4.379   5.862   4.996 -0.2334  0.4097 -0.4263
 2498TIP3    H1 7458   4.359   5.846   5.089 -1.0350  0.0422 -0.6526
 2498TIP3    H2 7459   4.437   5.939   4.997 -0.8119  0.8550  0.3362
 2499TIP3   OH2 7460   6.251   4.085   3.549 -0.1721 -0.5718 -0.0896
 2499TIP3    H1 7461   6.316   4.100   3.618  0.4247 -1.4445 -0.4394
 2499TIP3    H2 7462   6.300   4.095   3.467 -0.1114 -2.5898 -0.3538
 2500TIP3   OH2 7463   2.800   2.363   5.020  0.4588 -0.0326  0.4259
 2500TIP3    H1 7464   2.710   2.389   5.038  0.6081  1.4408 -0.8200
 2500TIP3    H2 7465   2.824   2.411   4.942  1.4096 -2.5191 -0.9318
 2501TIP3   OH2 7466   5.537   2.839   4.402 -0.4751 -0.0350  0.0368
 2501TIP3    H1 7467   5.459   2.894   4.406 -0.7211 -0.3197 -0.7994
 2501TIP3    H2 7468   5.504   2.750   4.404 -0.2408 -0.1658 -1.2536
 2502TIP3   OH2 7469   2.214   6.533   4.082  0.3442  0.3517 -0.2733
 2502TIP3    H1 7470   2.171   6.448   4.095 -0.0097  0.1523 -2.4346
 2502TIP3    H2 7471   2.199   6.580   4.164 -0.8262 -1.0731  0.3756
 2503TIP3   OH2 7472   1.460   1.277   5.328  0.8470 -0.0442  0.2617
 2503TIP3    H1 7473   1.509   1.200   5.299 -0.7581 -0.8788 -0.3627
 2503TIP3    H2 7474   1.485   1.346   5.267  0.3412 -0.7910 -0.8281
 2504TIP3   OH2 7475   2.276   1.330   2.322 -0.5690  0.4226 -0.3557
 2504TIP3    H1 7476   2.279   1.405   2.263 -0.1165  0.8422  0.1899
 2504TIP3    H2 7477   2.184   1.320   2.345 -0.6263  0.8274 -0.4154
 2505TIP3   OH2 7478   4.840   2.075   0.721 -0.1021 -0.0369  0.2692
 2505TIP3    H1 7479   4.824   1.995   0.671  1.7683 -0.2345 -0.1077
 2505TIP3    H2 7480   4.912   2.052   0.780  0.8500  1.5018 -0.2337
 2506TIP3   OH2 7481   3.488   1.024   0.227 -0.3806 -0.7177 -0.0860
 2506TIP3    H1 7482   3.540   1.044   0.305  0.3007 -1.3585 -0.3637
 2506TIP3    H2 7483   3.416   0.970   0.258  0.0425 -1.2009  0.0669
 2507TIP3   OH2 7484   5.457   4.266   0.427  0.6745 -0.3590 -0.0177
 2507TIP3    H1 7485   5.482   4.182   0.465  2.0561  0.1066  0.1440
 2507TIP3    H2 7486   5.523   4.283   0.360 -0.2210  0.0886 -0.8109
 2508TIP3   OH2 7487   0.829   0.281   3.225 -0.2179  0.0826  0.3972
 2508TIP3    H1 7488   0.892   0.282   3.297 -1.8240 -0.4627  1.8855
 2508TIP3    H2 7489   0.844   0.197   3.182 -0.1060 -0.1581  0.8999
 2509TIP3   OH2 7490   2.065   2.342   1.324 -0.6568 -0.2286 -0.6503
 2509TIP3    H1 7491   2.159   2.354   1.309 -0.7515  0.6181 -0.6564
 2509TIP3    H2 7492   2.052   2.370   1.415 -0.5295 -2.6814  0.1757
 2510TIP3   OH2 7493   2.791   1.164   5.572 -0.1805 -0.0719 -0.1369
 2510TIP3    H1 7494   2.706   1.127   5.550 -0.7845  0.7579  0.7782
 2510TIP3    H2 7495   2.802   1.148   5.666 -0.6760  2.4281  0.4086
 2511TIP3   OH2 7496   0.449   5.355   2.991  0.0512 -0.4869  0.5776
 2511TIP3    H1 7497   0.534   5.399   2.985 -0.7631  1.1947  0.9971
 2511TIP3    H2 7498   0.472   5.263   3.003  1.8297 -0.0245  1.0964
 2512TIP3   OH2 7499   3.646   1.278   3.778 -0.2626  0.1136 -0.3074
 2512TIP3    H1 7500   3.660   1.334   3.702  1.5887  1.0102  0.6499
 2512TIP3    H2 7501   3.694   1.197   3.758 -1.0793 -0.2781 -0.7337
 2513TIP3   OH2 7502   2.224   6.466   1.344 -0.5163 -0.3731 -0.3158
 2513TIP3    H1 7503   2.144   6.511   1.371 -1.4566 -1.8915 -0.4369
 2513TIP3    H2 7504   2.291   6.498   1.405 -1.7159 -0.7273  1.2596
 2514TIP3   OH2 7505   6.824   1.810   3.579  0.0738 -0.3818 -0.6421
 2514TIP3    H1 7506   6.782   1.742   3.631  2.0794 -0.5684  0.8824
 2514TIP3    H2 7507   6.762   1.882   3.579 -0.8024 -1.0974  0.3581
 2515TIP3   OH2 7508   1.860   6.593   4.880 -0.5373  0.1125 -0.0923
 2515TIP3    H1 7509   1.921   6.621   4.948 -0.6117 -0.4909  0.2361
 2515TIP3    H2 7510   1.874   6.653   4.807  1.6230 -0.9820 -0.6607
 2516TIP3   OH2 7511   5.041   5.741   4.002  0.0035  0.4884  0.2779
 2516TIP3    H1 7512   4.946   5.732   3.998 -0.0661  1.6619 -1.3952
 2516TIP3    H2 7513   5.057   5.786   4.085 -0.7342 -1.1785  1.3774
 2517TIP3   OH2 7514   2.570   0.769   5.206  0.7941 -0.3605  0.3577
 2517TIP3    H1 7515   2.615   0.809   5.281  0.5202  0.6964 -0.0154
 2517TIP3    H2 7516   2.512   0.839   5.174  0.7727 -0.8615 -0.7203
 2518TIP3   OH2 7517   1.645   4.444   2.547  0.1667  0.0442 -0.0765
 2518TIP3    H1 7518   1.685   4.490   2.473  1.5577  0.0261  0.6345
 2518TIP3    H2 7519   1.714   4.439   2.613 -0.2257 -2.2151  0.2596
 2519TIP3   OH2 7520   4.522   0.558   3.433 -0.0093 -0.4828  0.0234
 2519TIP3    H1 7521   4.515   0.611   3.512  0.1893  2.6440 -1.8777
 2519TIP3    H2 7522   4.611   0.573   3.402 -0.2133 -1.3226 -1.0325
 2520TIP3   OH2 7523   3.624   2.596   2.027  0.3673 -0.6682 -0.8120
 2520TIP3    H1 7524   3.560   2.637   2.085  0.9626 -0.7648 -0.0717
 2520TIP3    H2 7525   3.648   2.665   1.965 -0.0932 -0.4938 -0.8018
 2521TIP3   OH2 7526   4.562   5.429   4.846 -0.0118 -0.1911  0.2564
 2521TIP3    H1 7527   4.508   5.482   4.905  0.8445  2.3095 -1.0464
 2521TIP3    H2 7528   4.511   5.426   4.764  0.4508 -0.4311 -0.0262
 2522TIP3   OH2 7529   0.257   3.346   4.171  0.4173 -0.4194 -0.4189
 2522TIP3    H1 7530   0.305   3.318   4.250 -0.8490 -0.1571  0.4820
 2522TIP3    H2 7531   0.267   3.273   4.110  1.3272 -0.6773  0.0242
 2523TIP3   OH2 7532   4.340   1.728   2.503  0.3610  0.2052 -0.1111
 2523TIP3    H1 7533   4.429   1.737   2.469  0.7097  0.5609  0.8806
 2523TIP3    H2 7534   4.284   1.735   2.425  1.1982 -0.2387 -0.7713
 2524TIP3   OH2 7535   6.270   3.418   3.313  0.0466 -0.2908 -0.4810
 2524TIP3    H1 7536   6.187   3.394   3.272  0.1833  0.1055 -0.9926
 2524TIP3    H2 7537   6.296   3.339   3.361 -0.7031 -0.3654 -0.1721
 2525TIP3   OH2 7538   5.478   2.302   2.431 -0.1834  0.2075  0.0244
 2525TIP3    H1 7539   5.473   2.226   2.489 -1.6329 -0.2210 -0.6100
 2525TIP3    H2 7540   5.392   2.344   2.439  0.6853  1.9737  0.5775
 2526TIP3   OH2 7541   5.821   1.585   1.724  0.1720 -0.3927  0.4184
 2526TIP3    H1 7542   5.908   1.599   1.761  0.8551 -0.2354 -1.1784
 2526TIP3    H2 7543   5.828   1.502   1.677  0.1046  0.6145 -1.4562
 2527TIP3   OH2 7544   2.875   1.315   0.940  0.3494 -0.2742  0.5325
 2527TIP3    H1 7545   2.835   1.388   0.893  1.2541 -0.9715 -1.4439
 2527TIP3    H2 7546   2.969   1.331   0.932  0.5832 -1.9350 -0.4923
 2528TIP3   OH2 7547   2.427   1.542   2.838 -0.0494 -0.3214  0.3142
 2528TIP3    H1 7548   2.413   1.459   2.883 -0.7686  0.6865  2.0827
 2528TIP3    H2 7549   2.355   1.547   2.775 -0.1620 -0.9231  0.3867
 2529TIP3   OH2 7550   1.812   0.050   4.365  0.0682 -0.7955  0.0764
 2529TIP3    H1 7551   1.830  -0.018   4.300  0.2721 -0.6431 -0.0245
 2529TIP3    H2 7552   1.898   0.087   4.385  0.0366 -0.9925  0.5933
 2530TIP3   OH2 7553   2.837   2.707   1.545  0.1218 -0.4152 -0.1786
 2530TIP3    H1 7554   2.830   2.723   1.451 -1.4956 -1.5779 -0.2924
 2530TIP3    H2 7555   2.835   2.794   1.585 -0.4269  0.0238 -1.1429
 2531TIP3   OH2 7556   0.207   3.635   4.173  0.0536 -0.1525  0.2192
 2531TIP3    H1 7557   0.121   3.677   4.177 -0.2523 -0.8195  1.0349
 2531TIP3    H2 7558   0.187   3.543   4.152  0.5014 -0.4701  1.1276
 2532TIP3   OH2 7559   2.437   3.326   2.853  0.4570  0.3526 -0.1806
 2532TIP3    H1 7560   2.509   3.363   2.802  1.3638 -1.2587 -0.1443
 2532TIP3    H2 7561   2.463   3.341   2.944  0.3108  0.5782 -0.1775
 2533TIP3   OH2 7562   4.046   3.555   5.115  0.1294  0.3499  0.1104
 2533TIP3    H1 7563   3.994   3.495   5.061  0.1502  2.6086 -2.6653
 2533TIP3    H2 7564   4.030   3.526   5.205 -0.9935 -2.8264 -0.9729
 2534TIP3   OH2 7565   6.945   2.621   5.112  0.0386  0.3636  0.1524
 2534TIP3    H1 7566   6.932   2.548   5.052  1.0149 -0.1379  0.5288
 2534TIP3    H2 7567   6.877   2.684   5.089 -0.5622 -0.4887 -0.4458
 2535TIP3   OH2 7568   1.964   4.199   1.478  0.1061 -0.0217  0.1849
 2535TIP3    H1 7569   1.936   4.192   1.569 -0.8071 -0.5801 -0.1297
 2535TIP3    H2 7570   1.900   4.148   1.429  1.0298 -0.3670 -0.6916
 2536TIP3   OH2 7571   3.520   3.013   1.774  0.1270  0.2542 -0.4839
 2536TIP3    H1 7572   3.492   2.996   1.864  1.2424 -1.2118 -0.3769
 2536TIP3    H2 7573   3.515   2.928   1.730  1.4450  0.5431 -1.2706
 2537TIP3   OH2 7574   3.330   1.669   0.588  0.4777 -0.1796 -0.3631
 2537TIP3    H1 7575   3.285   1.589   0.559  0.1387 -1.2359  2.6870
 2537TIP3    H2 7576   3.421   1.642   0.600  0.8672  0.5587 -1.4987
 2538TIP3   OH2 7577   5.473   4.503   0.117 -0.0080 -0.3064 -0.1154
 2538TIP3    H1 7578   5.474   4.408   0.102 -0.3136 -0.2619 -0.4277
 2538TIP3    H2 7579   5.563   4.523   0.143  0.6381 -0.3659 -2.1302
 2539TIP3   OH2 7580   4.962   2.435   0.408 -0.1062  0.0514 -0.7717
 2539TIP3    H1 7581   4.981   2.471   0.322  0.6362 -1.3596 -1.2237
 2539TIP3    H2 7582   4.980   2.507   0.469  0.1248  0.8141 -1.7183
 2540TIP3   OH2 7583   4.304   0.351   2.454  0.2370  0.5606 -0.7167
 2540TIP3    H1 7584   4.241   0.419   2.430 -0.0709  0.5267 -0.0214
 2540TIP3    H2 7585   4.364   0.347   2.379 -0.2932  0.9339 -1.1750
 2541TIP3   OH2 7586   6.634   2.140   0.249  0.4955  0.4750 -0.0298
 2541TIP3    H1 7587   6.685   2.182   0.318  2.3228 -3.2576  1.1787
 2541TIP3    H2 7588   6.697   2.122   0.179 -0.4432  0.6730 -0.9560
 2542TIP3   OH2 7589   4.629   3.893   2.934  0.5825  0.2464  0.9000
 2542TIP3    H1 7590   4.642   3.821   2.996  2.3768  0.7469  1.1768
 2542TIP3    H2 7591   4.647   3.854   2.848 -0.7020 -0.1517  0.7890
 2543TIP3   OH2 7592   4.208   2.410   4.965  0.3221 -0.0342 -0.4836
 2543TIP3    H1 7593   4.211   2.337   5.026 -0.5219 -1.0795 -1.6387
 2543TIP3    H2 7594   4.233   2.486   5.018  1.0230 -1.1004  0.7970
 2544TIP3   OH2 7595   0.504   0.652   3.202 -0.1404 -0.4772  0.2615
 2544TIP3    H1 7596   0.554   0.674   3.281 -0.8779 -1.9393  1.1812
 2544TIP3    H2 7597   0.560   0.590   3.155  0.4453  0.6476 -0.5739
 2545TIP3   OH2 7598   4.328   0.312   2.724  0.2409  0.2840  0.6696
 2545TIP3    H1 7599   4.407   0.261   2.706  0.1400 -0.2673  1.7201
 2545TIP3    H2 7600   4.308   0.355   2.641  1.0266 -0.4267  0.0915
 2546TIP3   OH2 7601   5.961   5.133   5.402  0.3221  0.0048 -0.1539
 2546TIP3    H1 7602   5.989   5.080   5.476  1.0081  0.3899 -0.1337
 2546TIP3    H2 7603   6.009   5.215   5.411 -0.3838  0.4643 -0.4382
 2547TIP3   OH2 7604   0.920   1.097   2.357  0.3151 -0.0002 -0.0536
 2547TIP3    H1 7605   0.917   1.069   2.448  0.7743  0.0116 -0.0331
 2547TIP3    H2 7606   0.829   1.113   2.334  0.0922 -1.0286  0.0761
 2548TIP3   OH2 7607   5.340   1.796   3.721  0.1528 -0.2501 -0.3549
 2548TIP3    H1 7608   5.323   1.741   3.645 -1.4213 -0.4776  0.1147
 2548TIP3    H2 7609   5.256   1.798   3.768  0.8534  0.5621  0.9246
 2549TIP3   OH2 7610   2.456   2.272   5.834 -0.2525 -0.2548  0.1462
 2549TIP3    H1 7611   2.412   2.313   5.760 -0.3838  1.6051  1.1743
 2549TIP3    H2 7612   2.401   2.197   5.857  1.0669 -2.3949 -3.0640
 2550TIP3   OH2 7613   6.155   1.485   5.308 -0.4451 -0.4551 -0.1286
 2550TIP3    H1 7614   6.214   1.520   5.241  0.2290 -0.4234  0.4642
 2550TIP3    H2 7615   6.135   1.559   5.364  0.4875 -0.8576  0.7690
 2551TIP3   OH2 7616   0.079   6.378   2.773 -0.2554 -0.3687  0.1528
 2551TIP3    H1 7617   0.143   6.396   2.704 -0.3748 -0.0400  0.1240
 2551TIP3    H2 7618   0.037   6.462   2.789 -0.3662 -0.4860  0.4906
 2552TIP3   OH2 7619   5.770   2.865   4.573  0.4710  1.3050  0.1255
 2552TIP3    H1 7620   5.733   2.929   4.633 -1.3838 -0.7666  1.3717
 2552TIP3    H2 7621   5.710   2.864   4.498 -0.7126 -0.3040  1.0266
 2553TIP3   OH2 7622   1.717   1.302   2.933 -0.2300  0.2565  0.5786
 2553TIP3    H1 7623   1.736   1.366   2.865 -2.0033  1.2843  1.0107
 2553TIP3    H2 7624   1.644   1.251   2.898 -0.8274  0.4680  1.5000
 2554TIP3   OH2 7625   1.085   5.225   1.650  0.1029 -0.1882 -0.0841
 2554TIP3    H1 7626   1.006   5.172   1.664 -0.2749  0.4545  0.2536
 2554TIP3    H2 7627   1.057   5.295   1.591  0.4565 -0.0430 -0.0791
 2555TIP3   OH2 7628   6.681   0.331   1.841 -0.3084  0.2187 -0.0068
 2555TIP3    H1 7629   6.718   0.417   1.862  0.5807  0.0725 -0.9230
 2555TIP3    H2 7630   6.694   0.322   1.747  0.5268 -1.3591  0.2383
 2556TIP3   OH2 7631   4.679   1.101   5.063  0.4992  0.4695 -0.7045
 2556TIP3    H1 7632   4.623   1.025   5.050 -0.8796  1.2317  0.5087
 2556TIP3    H2 7633   4.744   1.095   4.993 -0.5538 -0.9249 -1.6169
 2557TIP3   OH2 7634   5.726   3.789   4.561  0.0998  0.6781  0.0389
 2557TIP3    H1 7635   5.746   3.882   4.561  1.4477  0.4050  0.5109
 2557TIP3    H2 7636   5.685   3.773   4.476  0.6449  1.5403 -0.3942
 2558TIP3   OH2 7637   1.465   3.305   0.439  0.8762  0.0948  0.2315
 2558TIP3    H1 7638   1.482   3.400   0.438  0.4905  0.1643 -0.0445
 2558TIP3    H2 7639   1.443   3.284   0.349 -3.1481  0.5234  0.9495
 2559TIP3   OH2 7640   1.045   1.409   2.613  0.7628  0.4241  0.1910
 2559TIP3    H1 7641   1.064   1.336   2.672 -0.6030  0.4637  0.7009
 2559TIP3    H2 7642   1.038   1.485   2.670 -2.8468  0.1061  0.3769
 2560TIP3   OH2 7643   6.160   5.160   0.399 -0.3682 -0.2572  0.2527
 2560TIP3    H1 7644   6.082   5.123   0.440 -0.0685 -2.3650 -0.9110
 2560TIP3    H2 7645   6.199   5.086   0.351  1.7534  0.9927 -0.0765
 2561TIP3   OH2 7646   5.798   4.155   2.279 -0.0420  0.0345 -0.4430
 2561TIP3    H1 7647   5.753   4.238   2.262  0.1924  0.2169 -0.1791
 2561TIP3    H2 7648   5.748   4.090   2.229  1.1719  0.6861 -2.6159
 2562TIP3   OH2 7649   3.476   1.285   2.214  0.3372  0.7770  0.1271
 2562TIP3    H1 7650   3.540   1.258   2.149 -0.3027  0.0846 -0.2300
 2562TIP3    H2 7651   3.512   1.254   2.297  2.0575  3.2363  0.4094
 2563TIP3   OH2 7652   5.906   4.146   0.757  0.4261  0.2523 -0.2088
 2563TIP3    H1 7653   5.877   4.088   0.688  0.8758  0.1822 -0.3448
 2563TIP3    H2 7654   5.939   4.224   0.712 -0.7056  0.8696 -0.0066
 2564TIP3   OH2 7655   3.170   3.671   5.187 -0.7096  0.0402 -0.0591
 2564TIP3    H1 7656   3.079   3.659   5.213 -0.8059  0.1980 -0.3169
 2564TIP3    H2 7657   3.167   3.676   5.091 -0.4695  0.3605 -0.0516
 2565TIP3   OH2 7658   3.306   5.852   4.293  0.1239  0.3458  0.1143
 2565TIP3    H1 7659   3.278   5.774   4.339 -1.3316  0.2583 -0.8686
 2565TIP3    H2 7660   3.385   5.825   4.245  0.6974  0.0108  1.2185
 2566TIP3   OH2 7661   0.567   3.590   1.775 -0.4210 -0.5696 -0.0130
 2566TIP3    H1 7662   0.489   3.603   1.721 -0.3642  0.2104  0.0942
 2566TIP3    H2 7663   0.547   3.633   1.858 -0.3965 -1.5217  0.5022
 2567TIP3   OH2 7664   3.167   4.155   5.230  0.1700 -0.2482  0.1956
 2567TIP3    H1 7665   3.232   4.215   5.266  0.0692 -0.9876  1.6660
 2567TIP3    H2 7666   3.209   4.069   5.233 -1.1119 -0.8685  1.9155
 2568TIP3   OH2 7667   6.355   3.381   5.164  0.2247 -0.3628 -0.5593
 2568TIP3    H1 7668   6.267   3.378   5.203 -0.1508 -1.9836 -1.4413
 2568TIP3    H2 7669   6.347   3.331   5.083  1.6203  0.7441 -1.4143
 2569TIP3   OH2 7670   6.432   5.579   0.332 -0.0430  0.6442  0.1766
 2569TIP3    H1 7671   6.349   5.533   0.347  0.0498  0.6430  0.6778
 2569TIP3    H2 7672   6.499   5.512   0.346  0.2196  1.3808  3.0217
 2570TIP3   OH2 7673   6.960   3.035   0.108  0.0929  0.0033  0.2735
 2570TIP3    H1 7674   7.006   2.955   0.083  0.4596  0.1869  0.3497
 2570TIP3    H2 7675   6.905   3.009   0.182 -1.4508 -0.6807 -1.0610
 2571TIP3   OH2 7676   0.789   1.173   0.877 -0.4543 -0.0061 -0.1523
 2571TIP3    H1 7677   0.823   1.101   0.930  1.3612  2.3311  2.1239
 2571TIP3    H2 7678   0.848   1.176   0.801 -1.4638 -1.7396 -1.0826
 2572TIP3   OH2 7679   3.697   6.246   3.761 -0.9523  0.0762  0.3161
 2572TIP3    H1 7680   3.728   6.157   3.776 -0.7703 -0.0678 -0.8534
 2572TIP3    H2 7681   3.637   6.239   3.687 -2.0361  0.7192  1.0902
 2573TIP3   OH2 7682   1.659   6.075   2.663  0.3091  0.1302 -0.0125
 2573TIP3    H1 7683   1.714   6.073   2.585  0.0327  1.6503 -0.2768
 2573TIP3    H2 7684   1.703   6.137   2.721  0.6500 -1.1668  1.1767
 2574TIP3   OH2 7685   0.633   1.015   3.615  0.2730 -0.5645  0.5909
 2574TIP3    H1 7686   0.689   0.988   3.542 -1.6267 -1.7652 -0.5152
 2574TIP3    H2 7687   0.597   0.933   3.649 -2.3210  0.2200 -0.0543
 2575TIP3   OH2 7688   2.628   5.397   4.601 -0.6067 -0.1991 -0.1000
 2575TIP3    H1 7689   2.642   5.303   4.592 -1.2962 -0.5343  1.7697
 2575TIP3    H2 7690   2.693   5.437   4.544 -1.1489 -1.7986 -1.9437
 2576TIP3   OH2 7691   4.574   0.147   4.512 -0.4001 -0.0750 -0.1890
 2576TIP3    H1 7692   4.634   0.156   4.586 -0.8997  0.0810  0.2005
 2576TIP3    H2 7693   4.548   0.055   4.513  1.6589 -0.7466 -1.7995
 2577TIP3   OH2 7694   4.471   4.030   4.892  0.1877 -0.8064  0.0509
 2577TIP3    H1 7695   4.391   4.027   4.944  1.0149 -0.4501  1.3876
 2577TIP3    H2 7696   4.535   3.982   4.943  0.9180 -0.8395 -0.8676
 2578TIP3   OH2 7697   7.155   5.824   4.338 -0.4169 -0.1750  0.0577
 2578TIP3    H1 7698   7.084   5.837   4.401 -2.1903 -0.5413 -1.7654
 2578TIP3    H2 7699   7.129   5.747   4.288  0.5111  0.5685 -1.6487
 2579TIP3   OH2 7700   6.669   0.881   3.336 -0.1385  0.0356 -0.4964
 2579TIP3    H1 7701   6.634   0.858   3.422 -2.3539  0.5055 -1.1911
 2579TIP3    H2 7702   6.645   0.808   3.280  1.3879 -0.3184 -0.7147
 2580TIP3   OH2 7703   3.906   4.795   3.507 -0.3077  0.1850  0.0649
 2580TIP3    H1 7704   3.964   4.740   3.559 -1.8371 -1.4242  0.1415
 2580TIP3    H2 7705   3.898   4.750   3.423 -0.6386  0.9061 -0.2989
 2581TIP3   OH2 7706   3.115   6.232   4.757  0.6288 -0.6498  0.0133
 2581TIP3    H1 7707   3.194   6.193   4.721 -0.1366 -2.1254 -0.1493
 2581TIP3    H2 7708   3.110   6.199   4.847 -0.8642 -2.3465 -0.6163
 2582TIP3   OH2 7709   3.751   1.603   3.784 -0.0195 -0.1733 -0.0750
 2582TIP3    H1 7710   3.821   1.627   3.723  0.2813  0.1095  0.3770
 2582TIP3    H2 7711   3.778   1.518   3.818 -0.1974 -0.3403 -0.3518
 2583TIP3   OH2 7712   4.131   2.088   1.453 -0.9228  0.3194  0.4948
 2583TIP3    H1 7713   4.126   2.160   1.516 -2.4105  0.4550  0.2552
 2583TIP3    H2 7714   4.188   2.121   1.383 -0.3561  0.6719  1.1075
 2584TIP3   OH2 7715   5.874  -0.012   0.248  0.0118  0.4208 -0.9162
 2584TIP3    H1 7716   5.839   0.050   0.184  0.6363 -0.8420 -2.5325
 2584TIP3    H2 7717   5.965  -0.023   0.224  0.0541 -0.7086 -0.3073
 2585TIP3   OH2 7718   6.957   5.350   0.562  0.8208 -0.0845  0.1547
 2585TIP3    H1 7719   7.049   5.326   0.573  0.8896  0.7935  1.7891
 2585TIP3    H2 7720   6.941   5.340   0.468  3.1097  1.5476 -0.4966
 2586TIP3   OH2 7721   3.999   3.444   5.356 -0.1650 -0.8952 -0.1653
 2586TIP3    H1 7722   3.970   3.354   5.339  0.0808 -1.2149  0.9929
 2586TIP3    H2 7723   3.975   3.460   5.448 -1.1951  0.6249 -0.6567
 2587TIP3   OH2 7724   5.007   5.557   2.996  0.0998  0.0712 -0.1100
 2587TIP3    H1 7725   4.944   5.628   2.989  0.5654  0.3550 -1.9411
 2587TIP3    H2 7726   4.978   5.492   2.932 -0.0508 -1.2038  1.2006
 2588TIP3   OH2 7727   5.598   5.800   2.334  0.2391  0.5490 -0.6657
 2588TIP3    H1 7728   5.591   5.725   2.392 -1.4324  1.1938  0.0150
 2588TIP3    H2 7729   5.529   5.788   2.269 -0.5527  1.8411 -0.1119
 2589TIP3   OH2 7730   6.888   1.147   4.455 -0.0591  0.0722  0.2612
 2589TIP3    H1 7731   6.956   1.213   4.443  0.0493 -0.2697 -1.1452
 2589TIP3    H2 7732   6.830   1.185   4.522  2.0175 -0.0706  2.2682
 2590TIP3   OH2 7733   1.866   1.946   0.477  0.4350 -0.0902 -0.8734
 2590TIP3    H1 7734   1.874   1.982   0.388  0.0540 -0.0957 -0.9107
 2590TIP3    H2 7735   1.822   1.862   0.464 -1.1308  0.6375 -0.5261
 2591TIP3   OH2 7736   3.242   4.603   0.403  0.3704  0.6567  0.2100
 2591TIP3    H1 7737   3.213   4.549   0.329 -0.8601 -0.2477  1.2987
 2591TIP3    H2 7738   3.307   4.662   0.365  0.2480 -0.1997 -1.4581
 2592TIP3   OH2 7739   5.304   0.621   1.170 -0.4651 -0.3068 -0.0486
 2592TIP3    H1 7740   5.245   0.680   1.124 -0.3266  1.2189  1.6260
 2592TIP3    H2 7741   5.359   0.584   1.102 -1.5416  0.3471 -1.3219
 2593TIP3   OH2 7742   1.544   5.588   3.211 -0.4108 -0.2453 -0.1867
 2593TIP3    H1 7743   1.557   5.557   3.122 -2.5055 -0.3350 -0.5040
 2593TIP3    H2 7744   1.542   5.684   3.204 -1.2752 -0.2707 -0.3598
 2594TIP3   OH2 7745   4.993   2.143   0.304  0.1686 -0.2799  0.2519
 2594TIP3    H1 7746   5.017   2.235   0.314 -1.3542  0.2521 -0.5928
 2594TIP3    H2 7747   5.036   2.098   0.377  1.4338  0.9930  0.3167
 2595TIP3   OH2 7748   4.826   1.806   3.343  0.0720  0.2782 -0.5568
 2595TIP3    H1 7749   4.809   1.893   3.379 -0.8015  0.4470 -1.3504
 2595TIP3    H2 7750   4.893   1.769   3.401 -0.6057  0.9080  0.6567
 2596TIP3   OH2 7751   3.769   5.952   3.502  0.1144  0.2881 -0.0958
 2596TIP3    H1 7752   3.712   6.008   3.556 -0.9517 -0.2454 -0.6463
 2596TIP3    H2 7753   3.812   5.894   3.565 -1.8383 -0.9801  0.1433
 2597TIP3   OH2 7754   7.018   4.348   5.705  0.2288 -0.1399  0.3640
 2597TIP3    H1 7755   6.925   4.368   5.692  0.4935  1.8230  1.1336
 2597TIP3    H2 7756   7.019   4.277   5.770 -0.7323 -0.9910 -0.5175
 2598TIP3   OH2 7757   4.152   0.440   4.355  0.5282 -0.3929 -0.3461
 2598TIP3    H1 7758   4.211   0.367   4.376 -0.4192 -0.5879  1.9508
 2598TIP3    H2 7759   4.176   0.508   4.418  0.0129  0.5163 -1.1132
 2599TIP3   OH2 7760   6.519   6.823   2.836  0.2859  0.1498  0.0812
 2599TIP3    H1 7761   6.578   6.816   2.761  2.0233  0.4993  1.3754
 2599TIP3    H2 7762   6.498   6.732   2.859 -0.8424  0.0418 -1.2181
 2600TIP3   OH2 7763   4.865   3.388   2.264  0.1778  0.1749  0.3029
 2600TIP3    H1 7764   4.883   3.331   2.189 -1.6294 -0.5898  0.4085
 2600TIP3    H2 7765   4.801   3.340   2.317 -1.1026  2.0865  0.6041
 2601TIP3   OH2 7766   1.345   1.031   5.160 -0.3100 -0.1363  0.0400
 2601TIP3    H1 7767   1.419   1.029   5.221 -1.4628 -0.2856  1.5028
 2601TIP3    H2 7768   1.382   1.062   5.077  1.7530 -2.0218  0.1667
 2602TIP3   OH2 7769   7.075   4.877   0.562  0.4256  0.1646 -0.7229
 2602TIP3    H1 7770   7.064   4.938   0.488 -3.5110 -0.3435 -0.7792
 2602TIP3    H2 7771   7.036   4.795   0.531 -0.2314 -0.4163  1.4935
 2603TIP3   OH2 7772   6.821   4.735   4.242 -0.4279 -0.2977  0.6193
 2603TIP3    H1 7773   6.777   4.653   4.264 -0.1423 -0.8968 -0.9583
 2603TIP3    H2 7774   6.914   4.713   4.243 -0.1382  0.7167  2.9210
 2604TIP3   OH2 7775   1.194   5.767   3.756 -0.2010  0.4446  0.0040
 2604TIP3    H1 7776   1.102   5.790   3.772 -0.0610  1.3882 -0.4594
 2604TIP3    H2 7777   1.201   5.676   3.785 -0.8956  0.8370  1.5210
 2605TIP3   OH2 7778   4.720   2.609   0.890  0.0618 -0.5177 -0.6857
 2605TIP3    H1 7779   4.628   2.582   0.886 -0.2133  0.4877 -1.7485
 2605TIP3    H2 7780   4.727   2.659   0.971  0.0793 -1.9603  0.2268
 2606TIP3   OH2 7781   0.402   3.585   0.053  0.3845 -0.1988 -0.3009
 2606TIP3    H1 7782   0.328   3.580   0.113  0.2422 -0.7969 -0.5256
 2606TIP3    H2 7783   0.364   3.597  -0.033  0.5802  0.3552 -0.3128
 2607TIP3   OH2 7784   4.505   2.789   1.150 -0.3668 -0.2464 -0.0881
 2607TIP3    H1 7785   4.501   2.695   1.134  1.7078 -0.3326 -0.3971
 2607TIP3    H2 7786   4.599   2.809   1.153 -0.7568  1.7856  0.1564
 2608TIP3   OH2 7787   3.591   5.261   4.689  0.5118 -0.2051  0.0115
 2608TIP3    H1 7788   3.672   5.296   4.651  1.7065 -1.6699  1.0954
 2608TIP3    H2 7789   3.545   5.338   4.723  0.1430  0.9899 -2.8712
 2609TIP3   OH2 7790   4.384   5.587   4.989  0.4759  0.4655 -0.3577
 2609TIP3    H1 7791   4.340   5.672   4.990 -0.1874  0.1306  0.8213
 2609TIP3    H2 7792   4.315   5.524   5.008  1.1138 -0.2571 -0.3918
 2610TIP3   OH2 7793   2.089   6.485   1.960  0.3487 -0.1522 -0.1569
 2610TIP3    H1 7794   2.172   6.503   1.915  0.5572  0.2729  0.3884
 2610TIP3    H2 7795   2.065   6.568   2.001  0.5767 -0.7150  1.1802
 2611TIP3   OH2 7796   2.559   1.253   3.205 -0.5137  0.1770 -0.0081
 2611TIP3    H1 7797   2.636   1.213   3.246  0.2184 -0.3288 -1.7620
 2611TIP3    H2 7798   2.507   1.286   3.278 -0.0692 -2.0444  1.3911
 2612TIP3   OH2 7799   1.678   0.873   0.913 -0.4971 -0.1910 -0.1107
 2612TIP3    H1 7800   1.695   0.957   0.870 -1.2199 -0.5900 -1.2395
 2612TIP3    H2 7801   1.713   0.808   0.852  2.5039 -0.7133  1.9234
 2613TIP3   OH2 7802   4.637   2.470   5.722  0.2209 -0.0665  0.2875
 2613TIP3    H1 7803   4.721   2.433   5.695  1.1504  0.7154  1.9433
 2613TIP3    H2 7804   4.630   2.553   5.675 -0.1451 -0.6218 -0.6586
 2614TIP3   OH2 7805   1.095   4.318   2.922 -0.0405 -0.2619 -0.3957
 2614TIP3    H1 7806   1.058   4.234   2.893 -0.0431 -0.2030 -0.5639
 2614TIP3    H2 7807   1.107   4.307   3.016 -1.8441  0.2159 -0.0756
 2615TIP3   OH2 7808   3.940   3.393   2.304  0.3723 -0.0210  0.7478
 2615TIP3    H1 7809   3.851   3.408   2.335  1.1344  4.0274  1.6797
 2615TIP3    H2 7810   3.995   3.436   2.369  2.7285  0.7701 -1.5766
 2616TIP3   OH2 7811   6.724   0.934   0.698 -0.3030 -0.0801 -0.0158
 2616TIP3    H1 7812   6.721   0.863   0.762  1.9871 -0.5557 -0.3624
 2616TIP3    H2 7813   6.785   0.904   0.631 -1.7880  0.8718 -1.8974
 2617TIP3   OH2 7814   5.857   6.269   5.365 -0.0097  0.5852  0.0985
 2617TIP3    H1 7815   5.899   6.222   5.293 -0.4802 -0.1576  0.2982
 2617TIP3    H2 7816   5.821   6.348   5.324  1.2633  1.0549 -0.1346
 2618TIP3   OH2 7817   5.774   0.592   4.891 -0.1419 -0.0621  0.0315
 2618TIP3    H1 7818   5.725   0.583   4.973  1.1054 -0.4202  0.7800
 2618TIP3    H2 7819   5.856   0.636   4.917  1.2600 -2.1434 -0.5863
 2619TIP3   OH2 7820   2.811   6.322   2.564 -0.1007 -0.3532  0.4550
 2619TIP3    H1 7821   2.745   6.255   2.584  0.9955 -1.1692  1.4759
 2619TIP3    H2 7822   2.767   6.405   2.583 -0.8264 -0.8810  1.1521
 2620TIP3   OH2 7823   7.183   1.693   5.258  0.0748 -0.1394  0.0679
 2620TIP3    H1 7824   7.234   1.633   5.312  1.4672 -0.6560 -1.7343
 2620TIP3    H2 7825   7.092   1.662   5.268  0.2720 -0.2125  2.0401
 2621TIP3   OH2 7826   4.329   3.565   0.523 -0.0495  0.3180 -0.0048
 2621TIP3    H1 7827   4.254   3.594   0.575  0.3440  0.6161  0.4030
 2621TIP3    H2 7828   4.357   3.483   0.564  1.0002  1.1514  1.0217
 2622TIP3   OH2 7829   3.942   4.235   1.328 -0.1153  0.2015 -0.4483
 2622TIP3    H1 7830   3.869   4.204   1.381  0.1611  0.8632  0.3434
 2622TIP3    H2 7831   3.999   4.158   1.318  0.1465  0.2064  0.7715
 2623TIP3   OH2 7832   6.808   3.275   0.265 -0.4907 -0.0324 -0.2761
 2623TIP3    H1 7833   6.740   3.212   0.285 -0.3838 -0.2747 -0.6686
 2623TIP3    H2 7834   6.776   3.322   0.188 -0.5584  0.3767 -0.0037
 2624TIP3   OH2 7835   0.675   4.891   4.524  0.1963 -0.4065 -0.0880
 2624TIP3    H1 7836   0.637   4.906   4.611 -1.2374 -0.5193 -0.6774
 2624TIP3    H2 7837   0.710   4.801   4.529  3.7403  0.8559  1.6060
 2625TIP3   OH2 7838   0.796   2.124   5.268 -0.4290  0.2216  0.6835
 2625TIP3    H1 7839   0.796   2.085   5.355 -0.2360  0.7989  0.9468
 2625TIP3    H2 7840   0.857   2.071   5.217  1.3989  1.3539  1.5878
 2626TIP3   OH2 7841   0.745   5.550   3.753  0.2140 -0.5869  0.3596
 2626TIP3    H1 7842   0.753   5.590   3.839  1.5366 -1.2259  0.5473
 2626TIP3    H2 7843   0.819   5.584   3.702 -0.9846  0.4082 -0.8101
 2627TIP3   OH2 7844   4.575   6.049   5.014  0.6096  0.0100 -0.5183
 2627TIP3    H1 7845   4.620   6.133   5.017  0.8274 -0.1391  1.2526
 2627TIP3    H2 7846   4.623   5.993   5.075 -0.3450 -0.9740 -0.6365
 2628TIP3   OH2 7847   3.908   3.128   3.650 -0.4638 -0.4229  0.3222
 2628TIP3    H1 7848   3.948   3.055   3.698 -0.6959 -0.5850  0.2712
 2628TIP3    H2 7849   3.881   3.089   3.566 -3.5664 -1.1382  1.5083
 2629TIP3   OH2 7850   4.570   5.660   0.361  0.0948 -0.0226  0.0648
 2629TIP3    H1 7851   4.507   5.691   0.426  0.7853  1.0941  0.2371
 2629TIP3    H2 7852   4.558   5.719   0.286  0.1577 -0.5164 -0.3357
 2630TIP3   OH2 7853   2.174   0.047   4.672 -0.0912  0.4344 -0.6281
 2630TIP3    H1 7854   2.109   0.117   4.664 -0.1256  0.7853  2.0438
 2630TIP3    H2 7855   2.258   0.089   4.652 -0.4650  0.3109 -2.6759
 2631TIP3   OH2 7856   2.396   4.360   4.985  0.5627 -0.0189 -0.2751
 2631TIP3    H1 7857   2.350   4.364   5.068 -0.8844  1.1861 -1.0847
 2631TIP3    H2 7858   2.488   4.349   5.009  0.3120  1.3613  1.5067
 2632TIP3   OH2 7859   1.286   3.032   5.686 -0.1213 -0.3880  0.1738
 2632TIP3    H1 7860   1.227   2.981   5.631  1.0355 -1.8127  0.2049
 2632TIP3    H2 7861   1.250   3.024   5.774 -0.4434 -0.3954  0.0419
 2633TIP3   OH2 7862   6.721   0.927   2.953 -0.4446 -0.0262  0.6775
 2633TIP3    H1 7863   6.693   1.018   2.966  2.0084  1.0276 -0.6829
 2633TIP3    H2 7864   6.789   0.914   3.019  0.0635 -0.4327  0.0861
 2634TIP3   OH2 7865   0.806   0.525   4.999 -0.0929 -0.0798  0.0664
 2634TIP3    H1 7866   0.718   0.508   5.032 -0.0654  1.1768  0.8272
 2634TIP3    H2 7867   0.826   0.614   5.028  0.8917  0.1633 -1.2819
 2635TIP3   OH2 7868   3.879   5.203   1.241  0.3681  0.8640 -0.7881
 2635TIP3    H1 7869   3.837   5.122   1.214  0.6478 -0.6921  2.9561
 2635TIP3    H2 7870   3.973   5.186   1.231  0.6036 -0.4626  2.4334
 2636TIP3   OH2 7871   2.570   1.121   5.746  0.2977  0.0397  0.2326
 2636TIP3    H1 7872   2.481   1.087   5.752  0.3767  0.0771  2.0077
 2636TIP3    H2 7873   2.565   1.209   5.783  0.8640  0.4888 -0.7238
 2637TIP3   OH2 7874   4.932   1.842   5.450  0.1618 -0.7580  0.2808
 2637TIP3    H1 7875   5.023   1.857   5.424  0.1170  0.2478  0.6474
 2637TIP3    H2 7876   4.895   1.790   5.379  1.2788 -2.0298  0.5972
 2638TIP3   OH2 7877   2.792   0.749   5.390 -0.8205 -0.9139 -0.1797
 2638TIP3    H1 7878   2.844   0.828   5.378 -0.6429 -0.9062  0.5628
 2638TIP3    H2 7879   2.851   0.677   5.365 -0.3957 -0.9142  0.7849
 2639TIP3   OH2 7880   3.636   5.399   5.040  0.5023 -0.4069  0.0252
 2639TIP3    H1 7881   3.611   5.394   5.133 -0.2887 -0.5546 -0.1875
 2639TIP3    H2 7882   3.701   5.329   5.029  2.3839  1.0986  0.9933
 2640TIP3   OH2 7883   3.858   1.909   1.050  0.0619  0.3475  0.3719
 2640TIP3    H1 7884   3.794   1.976   1.071  0.1799  0.2878  0.9387
 2640TIP3    H2 7885   3.920   1.911   1.123  0.9015  0.6371 -0.3167
 2641TIP3   OH2 7886   3.146   4.639   1.031 -0.1321  0.2442  0.3492
 2641TIP3    H1 7887   3.070   4.676   1.076 -0.2126  0.3317  0.1409
 2641TIP3    H2 7888   3.160   4.696   0.955 -1.0305 -0.8741 -0.6884
 2642TIP3   OH2 7889   4.291   1.754   4.666  0.5412  0.3960 -0.1943
 2642TIP3    H1 7890   4.330   1.841   4.655 -0.2503  0.7546 -0.2658
 2642TIP3    H2 7891   4.196   1.770   4.661  0.3421 -0.2985  1.0265
 2643TIP3   OH2 7892   2.748   5.052   2.565  0.2542 -0.1991  0.1440
 2643TIP3    H1 7893   2.787   5.091   2.487 -0.8945 -0.1085 -0.4116
 2643TIP3    H2 7894   2.721   4.964   2.537  1.9972 -1.0962  1.1260
 2644TIP3   OH2 7895   3.218   6.236   2.613  0.2001  0.5263 -0.0128
 2644TIP3    H1 7896   3.228   6.158   2.666  0.3028  0.2252 -0.4723
 2644TIP3    H2 7897   3.307   6.261   2.588  0.1272  0.4573 -0.3449
 2645TIP3   OH2 7898   6.724   6.430   1.707  0.1555  0.4365  0.1890
 2645TIP3    H1 7899   6.778   6.430   1.786  1.3396 -1.6354 -0.5615
 2645TIP3    H2 7900   6.695   6.521   1.698  1.9686  1.2227  1.6608
 2646TIP3   OH2 7901   2.050   5.360   2.764  0.7024 -0.3815  0.3239
 2646TIP3    H1 7902   2.094   5.355   2.679  1.0750  0.1623  0.4818
 2646TIP3    H2 7903   1.983   5.291   2.761  0.4295 -0.0775 -0.5706
 2647TIP3   OH2 7904   0.149   6.294   3.839  0.0421 -0.4239 -0.1539
 2647TIP3    H1 7905   0.235   6.265   3.871 -0.4052 -0.0544  1.4726
 2647TIP3    H2 7906   0.148   6.268   3.746  1.1490 -2.1517  0.2642
 2648TIP3   OH2 7907   4.450   4.006   3.720  0.2457  0.1982  0.1329
 2648TIP3    H1 7908   4.539   4.041   3.720  0.0183  0.8140  1.5120
 2648TIP3    H2 7909   4.456   3.923   3.767 -0.4005  1.6791  3.0041
 2649TIP3   OH2 7910   5.646   3.370   0.443  0.2888  0.2792  0.2115
 2649TIP3    H1 7911   5.641   3.274   0.448  0.7498  0.3241  2.8474
 2649TIP3    H2 7912   5.556   3.398   0.426 -0.1304 -0.5783  0.9513
 2650TIP3   OH2 7913   7.125   5.100   4.580 -0.3477  0.0896  0.3197
 2650TIP3    H1 7914   7.101   5.125   4.669  0.8906 -0.8655  0.9396
 2650TIP3    H2 7915   7.091   5.171   4.526 -1.2265  0.6244  1.5304
 2651TIP3   OH2 7916   2.023   0.758   3.282  0.1299  0.2573  0.5979
 2651TIP3    H1 7917   2.080   0.701   3.230 -0.0593 -0.1769  0.8595
 2651TIP3    H2 7918   2.012   0.836   3.228  2.1706  1.0011  1.1542
 2652TIP3   OH2 7919   0.720   2.042   3.652  0.2916  0.0240 -0.2868
 2652TIP3    H1 7920   0.814   2.043   3.640  0.3724 -0.9293  0.1564
 2652TIP3    H2 7921   0.691   2.129   3.627  1.2387  0.1919 -0.8126
 2653TIP3   OH2 7922   0.205   1.081   2.002  0.4209  0.2426 -0.0009
 2653TIP3    H1 7923   0.192   1.091   2.097  1.9345  0.9077  0.1682
 2653TIP3    H2 7924   0.300   1.074   1.992  0.1809 -3.0660 -1.1974
 2654TIP3   OH2 7925   0.110   5.559   5.519 -0.1265  0.3597  0.6319
 2654TIP3    H1 7926   0.199   5.546   5.486 -0.3462  1.5552 -0.5026
 2654TIP3    H2 7927   0.099   5.491   5.585  0.8369 -1.2576 -0.7853
 2655TIP3   OH2 7928   1.229   3.425   4.304  0.0043 -0.2466  0.3760
 2655TIP3    H1 7929   1.319   3.456   4.315  0.9659 -1.6753 -2.6401
 2655TIP3    H2 7930   1.191   3.484   4.239 -1.1914  0.1374  1.3731
 2656TIP3   OH2 7931   5.356   6.513   2.645  0.1088  0.6973 -0.3181
 2656TIP3    H1 7932   5.385   6.498   2.555 -1.5493  1.7552 -1.0753
 2656TIP3    H2 7933   5.328   6.604   2.647 -0.9080  0.3852  0.9744
 2657TIP3   OH2 7934   6.924   3.946   2.392  0.0989 -0.4345 -0.3322
 2657TIP3    H1 7935   6.980   3.902   2.328  0.5883  0.0825 -0.2678
 2657TIP3    H2 7936   6.913   4.035   2.357 -3.9534 -1.5406 -2.4450
 2658TIP3   OH2 7937   2.403   0.710   1.880  0.2976  0.2843  0.2202
 2658TIP3    H1 7938   2.462   0.726   1.954 -0.9261  1.2096  1.0445
 2658TIP3    H2 7939   2.331   0.772   1.893 -1.1458 -1.1923 -0.4242
 2659TIP3   OH2 7940   4.861   2.155   1.821 -0.4638  0.1327 -0.6522
 2659TIP3    H1 7941   4.781   2.151   1.873  0.3735  1.1155  0.7606
 2659TIP3    H2 7942   4.931   2.133   1.882  0.3190 -1.6838 -2.0794
 2660TIP3   OH2 7943   4.301   1.193   4.437  0.0890 -0.1445 -0.1287
 2660TIP3    H1 7944   4.352   1.272   4.418 -1.7488  2.2258  3.5123
 2660TIP3    H2 7945   4.365   1.129   4.467  1.4087  1.0336 -0.3138
 2661TIP3   OH2 7946   5.072   5.003   0.994  0.3454 -0.1682 -0.3918
 2661TIP3    H1 7947   5.104   5.092   1.013  0.9010 -0.2045 -1.1135
 2661TIP3    H2 7948   5.021   4.979   1.071  2.9362 -0.5126  1.3455
 2662TIP3   OH2 7949   3.595   6.459   0.327 -0.3555  0.0492  0.0293
 2662TIP3    H1 7950   3.615   6.547   0.298  1.1937 -0.2560  0.1030
 2662TIP3    H2 7951   3.680   6.417   0.340 -1.0401 -1.6005 -0.4479
 2663TIP3   OH2 7952   0.080   0.804   2.458 -0.2523 -0.4486 -0.0634
 2663TIP3    H1 7953   0.113   0.845   2.379 -0.0454  2.2771  1.3366
 2663TIP3    H2 7954   0.158   0.771   2.503 -0.2478 -0.8643 -0.3695
 2664TIP3   OH2 7955   2.156   3.190   1.453  0.1954  0.1238 -0.2886
 2664TIP3    H1 7956   2.246   3.221   1.442 -0.4575  1.7630 -1.3087
 2664TIP3    H2 7957   2.156   3.102   1.415  1.7262 -0.5981  1.2446
 2665TIP3   OH2 7958   2.313   3.992   4.301  0.1370 -0.0038 -0.1203
 2665TIP3    H1 7959   2.283   4.002   4.211  1.4129 -1.5569 -0.7563
 2665TIP3    H2 7960   2.403   4.024   4.300  0.4762 -0.9152  0.3698
 2666TIP3   OH2 7961   5.765   1.297   4.389 -0.4197  0.0326 -0.2135
 2666TIP3    H1 7962   5.750   1.203   4.383  0.1912 -0.0684 -0.2117
 2666TIP3    H2 7963   5.844   1.305   4.443 -1.0586  0.5915  0.6710
 2667TIP3   OH2 7964   3.826   6.143   4.973 -0.0504  0.1603 -0.1632
 2667TIP3    H1 7965   3.896   6.088   5.006 -0.5331 -0.5100 -0.2381
 2667TIP3    H2 7966   3.811   6.113   4.883 -0.5253  0.1968 -0.1011
 2668TIP3   OH2 7967   5.899   0.751   5.339  0.3861  0.3128  0.0457
 2668TIP3    H1 7968   5.804   0.765   5.334  0.3769  0.9179  1.4394
 2668TIP3    H2 7969   5.937   0.837   5.323  0.8261 -0.2817 -2.5223
 2669TIP3   OH2 7970   1.745   3.394   4.193  0.1387 -0.3081  0.1667
 2669TIP3    H1 7971   1.815   3.345   4.235 -0.8092 -0.1660  2.0283
 2669TIP3    H2 7972   1.787   3.440   4.120  2.0278 -0.0030  1.3830
 2670TIP3   OH2 7973   1.955   1.614   3.833  0.1859  0.5855  0.0750
 2670TIP3    H1 7974   1.867   1.578   3.834  0.4227 -0.0247  1.2345
 2670TIP3    H2 7975   1.968   1.646   3.744 -0.6273 -0.7558 -0.5497
 2671TIP3   OH2 7976   4.997   0.769   1.980 -0.2815  0.1556 -0.0916
 2671TIP3    H1 7977   4.948   0.830   2.035 -0.1407  1.1901 -1.0753
 2671TIP3    H2 7978   5.076   0.818   1.955 -0.5839 -0.0870 -1.6157
 2672TIP3   OH2 7979   7.112   3.093   5.815 -0.1405  0.4292 -0.2946
 2672TIP3    H1 7980   7.185   3.144   5.850  0.3339 -0.6492  0.3526
 2672TIP3    H2 7981   7.061   3.155   5.764  0.9335  1.3253 -0.3098
 2673TIP3   OH2 7982   1.566   0.377   0.636  0.0462  0.1571 -0.1152
 2673TIP3    H1 7983   1.610   0.441   0.580  2.7811  0.4887  2.2008
 2673TIP3    H2 7984   1.481   0.418   0.655 -0.1568  0.9070 -2.3613
 2674TIP3   OH2 7985   2.816   4.290   0.624 -0.4496 -0.6463 -0.0973
 2674TIP3    H1 7986   2.851   4.377   0.645  1.6442 -1.1899 -1.0886
 2674TIP3    H2 7987   2.723   4.305   0.609 -0.2061  1.3628  0.0697
 2675TIP3   OH2 7988   4.212   5.955   2.710  0.1058  0.2561 -0.1139
 2675TIP3    H1 7989   4.131   5.976   2.756  0.1500 -0.4693  0.3096
 2675TIP3    H2 7990   4.253   6.040   2.694 -0.3197  0.5720  0.4269
 2676TIP3   OH2 7991   2.212   2.737   2.065  0.1406 -0.3430  0.5305
 2676TIP3    H1 7992   2.187   2.824   2.034  0.9888  0.0822  0.9891
 2676TIP3    H2 7993   2.248   2.694   1.987 -0.5837 -0.4115  0.2258
 2677TIP3   OH2 7994   5.747   0.116   3.366 -0.5062  0.4964 -0.1885
 2677TIP3    H1 7995   5.673   0.059   3.351 -1.2505  1.3549  0.1040
 2677TIP3    H2 7996   5.814   0.060   3.406 -0.0417 -0.8416 -2.6587
 2678TIP3   OH2 7997   1.369   3.577   3.315 -0.2361 -0.2163 -0.6286
 2678TIP3    H1 7998   1.362   3.623   3.231  1.4800 -1.2870 -1.3962
 2678TIP3    H2 7999   1.349   3.486   3.294 -3.2717 -0.0277  0.8211
 2679TIP3   OH2 8000   1.644   2.179   5.808  0.4576 -0.3456  0.1433
 2679TIP3    H1 8001   1.568   2.237   5.816  0.0882 -0.8033  0.0229
 2679TIP3    H2 8002   1.660   2.149   5.898  1.6818  1.2046  0.4943
 2680TIP3   OH2 8003   3.717   3.456   3.831  0.1812  0.4858  0.2878
 2680TIP3    H1 8004   3.713   3.550   3.848 -0.0280  0.2912  1.3843
 2680TIP3    H2 8005   3.810   3.434   3.842 -0.2606 -0.1424  4.3787
 2681TIP3   OH2 8006   3.088   2.451   2.032 -0.2765 -0.1949  0.6684
 2681TIP3    H1 8007   3.017   2.422   2.089  0.0309 -0.8998  0.7006
 2681TIP3    H2 8008   3.044   2.500   1.962 -0.9684 -1.9492 -0.1796
 2682TIP3   OH2 8009   3.867   2.898   0.267  0.1766  0.0925 -0.5119
 2682TIP3    H1 8010   3.922   2.934   0.337 -1.3159  3.5880 -0.9453
 2682TIP3    H2 8011   3.811   2.835   0.311  1.1380  0.1603  0.8770
 2683TIP3   OH2 8012   3.169   3.589   4.930 -0.1832 -0.3681 -0.0865
 2683TIP3    H1 8013   3.188   3.500   4.899  2.4899  0.5395 -1.3606
 2683TIP3    H2 8014   3.124   3.630   4.857 -0.0634 -0.2516 -0.0958
 2684TIP3   OH2 8015   3.155   1.442   3.067 -0.0192  0.0003 -0.1145
 2684TIP3    H1 8016   3.135   1.398   2.984  2.8385 -1.3117 -0.2508
 2684TIP3    H2 8017   3.158   1.535   3.044 -0.0358 -0.2764 -1.3334
 2685TIP3   OH2 8018   0.574   6.177   2.728  0.2098 -0.3814 -0.4563
 2685TIP3    H1 8019   0.566   6.113   2.657  1.2668 -0.1082 -0.8509
 2685TIP3    H2 8020   0.587   6.260   2.683 -2.5042  0.3933  0.0254
 2686TIP3   OH2 8021   3.262   4.089   2.716  0.2673  0.5070 -0.1086
 2686TIP3    H1 8022   3.300   4.100   2.629  1.8634 -2.2843  0.1098
 2686TIP3    H2 8023   3.314   4.146   2.772  1.1714  0.1412 -0.5523
 2687TIP3   OH2 8024   4.006   1.934   1.904 -0.3162  0.3543  0.3378
 2687TIP3    H1 8025   4.093   1.910   1.935  0.3455  0.9252 -0.9791
 2687TIP3    H2 8026   4.014   2.027   1.879 -0.9844  0.1415 -0.7690
 2688TIP3   OH2 8027   0.782   0.169   2.195  0.1368  0.1106  0.2718
 2688TIP3    H1 8028   0.815   0.088   2.232  0.8871  1.6529  3.3174
 2688TIP3    H2 8029   0.859   0.224   2.183 -0.6434  1.6098  1.7086
 2689TIP3   OH2 8030   6.719   2.986   2.114  0.6108 -0.0269 -0.4045
 2689TIP3    H1 8031   6.666   3.060   2.084  1.9989  0.7380 -1.0611
 2689TIP3    H2 8032   6.664   2.942   2.179 -1.1555  0.2197 -1.6664
 2690TIP3   OH2 8033   5.355   6.195   3.496 -0.2233 -0.7697 -0.1941
 2690TIP3    H1 8034   5.365   6.190   3.401  1.2957  1.8893 -0.2573
 2690TIP3    H2 8035   5.407   6.122   3.529  1.4023 -0.2052 -1.3559
 2691TIP3   OH2 8036   4.036   4.036   0.728  0.2462 -0.0935 -0.6704
 2691TIP3    H1 8037   4.010   3.950   0.762  1.3004  0.6334  2.2601
 2691TIP3    H2 8038   4.131   4.037   0.737  0.0794  2.2874  1.9307
 2692TIP3   OH2 8039   4.154   4.917   4.650  0.3389 -0.1549 -0.4764
 2692TIP3    H1 8040   4.184   4.904   4.740 -0.2786 -1.2686 -0.4068
 2692TIP3    H2 8041   4.235   4.916   4.598  0.7338  0.9135  0.0894
 2693TIP3   OH2 8042   3.723   3.180   1.916 -0.6502  0.0606 -0.5431
 2693TIP3    H1 8043   3.663   3.169   1.842 -0.7545  0.4539 -0.5200
 2693TIP3    H2 8044   3.810   3.186   1.876 -0.5594 -1.0707 -0.5394
 2694TIP3   OH2 8045   2.533   6.804   3.154 -0.1911 -0.9545 -0.3788
 2694TIP3    H1 8046   2.496   6.720   3.180 -0.5151 -0.8280 -0.4263
 2694TIP3    H2 8047   2.479   6.869   3.198 -1.5373 -0.6905 -2.3162
 2695TIP3   OH2 8048   0.178   3.570   2.123  0.0097  0.3677 -0.1095
 2695TIP3    H1 8049   0.238   3.624   2.174 -0.4398  0.4959  0.2879
 2695TIP3    H2 8050   0.131   3.632   2.067 -0.2331  0.3485  0.0703
 2696TIP3   OH2 8051   0.582   0.729   0.189 -0.6278 -0.2844 -0.0477
 2696TIP3    H1 8052   0.496   0.757   0.158 -0.8706 -0.9460  0.0133
 2696TIP3    H2 8053   0.579   0.744   0.283 -0.3603  0.5023 -0.1585
 2697TIP3   OH2 8054   1.953   4.485   4.766 -0.6493 -0.3039  0.2774
 2697TIP3    H1 8055   2.007   4.539   4.708  0.0345 -0.7771  0.4639
 2697TIP3    H2 8056   1.898   4.548   4.813  1.0632  0.3755  1.4552
 2698TIP3   OH2 8057   3.170   1.666   0.961  0.5935 -0.6661 -0.1811
 2698TIP3    H1 8058   3.211   1.752   0.973  1.0301 -0.9752  0.5983
 2698TIP3    H2 8059   3.131   1.670   0.873  2.8645 -0.5967 -1.2602
 2699TIP3   OH2 8060   5.991   2.761   4.690 -1.3200  0.1667 -0.8008
 2699TIP3    H1 8061   5.995   2.685   4.632  0.1683  1.3417 -2.3477
 2699TIP3    H2 8062   5.910   2.805   4.666 -1.6470 -0.3513 -0.6601
 2700TIP3   OH2 8063   5.070   2.944   4.965  0.1285  0.1560 -0.5041
 2700TIP3    H1 8064   5.159   2.977   4.957 -0.3658  1.2189 -2.3181
 2700TIP3    H2 8065   5.065   2.873   4.901  0.0104 -0.7540  0.4870
 2701TIP3   OH2 8066   1.131   4.586   2.968 -0.0097  0.0453 -0.6686
 2701TIP3    H1 8067   1.084   4.599   3.051 -1.8650  1.2826 -1.8425
 2701TIP3    H2 8068   1.120   4.493   2.949  0.1188 -0.1772  0.2910
 2702TIP3   OH2 8069   7.136   3.777   0.853  0.0928 -0.3128  0.0296
 2702TIP3    H1 8070   7.056   3.827   0.839  0.8850  1.5401  1.5309
 2702TIP3    H2 8071   7.171   3.811   0.935  2.6640 -0.6978 -0.8016
 2703TIP3   OH2 8072   5.865   1.071   4.185 -0.1874 -0.4350  0.6701
 2703TIP3    H1 8073   5.792   1.033   4.233 -0.4374 -0.0508  0.5933
 2703TIP3    H2 8074   5.941   1.057   4.242 -0.3323 -0.7509  0.7881
 2704TIP3   OH2 8075   6.416   4.601   1.410 -0.6571 -0.3115 -0.8177
 2704TIP3    H1 8076   6.397   4.507   1.411  1.8512 -0.9328  1.5408
 2704TIP3    H2 8077   6.341   4.642   1.454 -2.0118 -1.0632 -2.3131
 2705TIP3   OH2 8078   6.531   5.831   4.897 -0.4596 -0.2733  0.4032
 2705TIP3    H1 8079   6.474   5.899   4.862 -1.2863 -2.0548 -1.9680
 2705TIP3    H2 8080   6.542   5.855   4.990 -1.4523  2.5062 -0.0875
 2706TIP3   OH2 8081   6.632   2.016   3.572  0.4764  0.1325 -0.3815
 2706TIP3    H1 8082   6.639   2.084   3.506  1.1921  1.1609  0.7053
 2706TIP3    H2 8083   6.611   1.937   3.523  0.6491  0.9204 -1.7868
 2707TIP3   OH2 8084   4.158   3.229   0.683 -0.3742 -0.4489 -0.5154
 2707TIP3    H1 8085   4.138   3.242   0.776 -2.5147  0.7027 -1.0543
 2707TIP3    H2 8086   4.249   3.256   0.674 -0.2591 -0.1518  1.1809
 2708TIP3   OH2 8087   1.071   1.863   2.030 -0.0840 -0.2641 -0.4483
 2708TIP3    H1 8088   1.166   1.864   2.013  0.3128  1.7134  1.5147
 2708TIP3    H2 8089   1.058   1.782   2.080  0.6197 -0.4161 -0.4881
 2709TIP3   OH2 8090   3.020   3.852   5.477  0.0920  0.0083  0.2672
 2709TIP3    H1 8091   3.114   3.835   5.483 -0.5030 -4.0081  0.7676
 2709TIP3    H2 8092   2.987   3.836   5.565 -1.4479 -2.2670 -0.6413
 2710TIP3   OH2 8093   2.249   3.853   4.849  0.6150 -0.3810 -0.0414
 2710TIP3    H1 8094   2.335   3.875   4.811  0.7089 -0.3103  0.2071
 2710TIP3    H2 8095   2.270   3.819   4.936  0.3884 -0.3551  0.0223
 2711TIP3   OH2 8096   2.143   2.198   3.351 -0.2695 -0.0255 -0.5515
 2711TIP3    H1 8097   2.121   2.174   3.441 -1.4402 -0.1388 -0.8563
 2711TIP3    H2 8098   2.218   2.257   3.360 -0.5775  0.2269  0.5216
 2712TIP3   OH2 8099   4.580   0.076   0.092  0.3123 -0.0111 -0.6489
 2712TIP3    H1 8100   4.522   0.012   0.134  0.1573  0.7392  0.3129
 2712TIP3    H2 8101   4.667   0.037   0.102  0.1482 -0.4020 -0.6929
 2713TIP3   OH2 8102   5.175   0.279   0.946  0.2446  0.3393  0.3890
 2713TIP3    H1 8103   5.139   0.244   0.864 -1.0372  0.2426  0.9721
 2713TIP3    H2 8104   5.245   0.339   0.918  0.0107  0.0920 -0.7593
 2714TIP3   OH2 8105   2.646   1.342   2.746  0.2593 -0.1629 -0.1361
 2714TIP3    H1 8106   2.602   1.299   2.673 -1.9567  0.7477  0.5567
 2714TIP3    H2 8107   2.575   1.387   2.793  2.0071  1.5871  0.9716
 2715TIP3   OH2 8108   1.688   6.015   1.712 -0.2641  0.0360 -0.2462
 2715TIP3    H1 8109   1.696   6.060   1.627 -0.8671  0.9634  0.1732
 2715TIP3    H2 8110   1.725   6.077   1.775  0.9467 -0.9805  0.0932
 2716TIP3   OH2 8111   3.813   1.181   4.884  0.3615  0.3803 -0.0431
 2716TIP3    H1 8112   3.746   1.117   4.909  1.2927 -0.4990  0.2548
 2716TIP3    H2 8113   3.775   1.265   4.909 -0.0564 -0.2091  1.4619
 2717TIP3   OH2 8114   5.466   6.505   4.641  0.3187 -0.4580 -0.1790
 2717TIP3    H1 8115   5.550   6.496   4.684 -0.6298  1.2036  2.2348
 2717TIP3    H2 8116   5.461   6.597   4.617 -0.6266 -0.6323 -0.7084
 2718TIP3   OH2 8117   3.367   1.149   4.297 -0.1786 -0.4603 -0.0389
 2718TIP3    H1 8118   3.381   1.229   4.246 -0.3389  0.1805  0.8954
 2718TIP3    H2 8119   3.430   1.156   4.369  0.9479 -1.9689 -0.8152
 2719TIP3   OH2 8120   1.525   2.750   0.852  0.2905  0.4652 -0.6558
 2719TIP3    H1 8121   1.514   2.752   0.947 -0.2428 -0.5025 -0.6786
 2719TIP3    H2 8122   1.613   2.783   0.836  1.5281 -2.0738  0.4031
 2720TIP3   OH2 8123   4.709   1.622   0.380 -0.0996 -0.4434 -0.4143
 2720TIP3    H1 8124   4.657   1.551   0.418  1.4396 -1.0341  0.6841
 2720TIP3    H2 8125   4.793   1.581   0.360  0.4781  0.8493 -0.6859
 2721TIP3   OH2 8126   6.828   6.760   2.119  0.5504  0.1233 -0.3827
 2721TIP3    H1 8127   6.737   6.779   2.140 -0.0370 -1.0751 -1.6995
 2721TIP3    H2 8128   6.871   6.846   2.120 -0.1916  0.5355  1.8525
 2722TIP3   OH2 8129   3.419   4.914   5.730 -0.1733 -0.1396 -0.5670
 2722TIP3    H1 8130   3.416   4.825   5.763 -0.8770 -0.7049 -2.0933
 2722TIP3    H2 8131   3.491   4.915   5.667 -0.4819  0.2527 -0.9187
 2723TIP3   OH2 8132   1.049   3.122   3.996  0.0502  0.2164  0.1874
 2723TIP3    H1 8133   1.119   3.153   4.053  0.3378 -0.6335  0.3098
 2723TIP3    H2 8134   0.976   3.182   4.012  0.3114  0.3116  1.0477
 2724TIP3   OH2 8135   0.041   3.253   2.889  0.3727  0.5425 -0.0947
 2724TIP3    H1 8136   0.034   3.300   2.972 -1.1000 -0.4237  0.3831
 2724TIP3    H2 8137  -0.004   3.309   2.826 -0.9005  0.0694  0.3593
 2725TIP3   OH2 8138   5.807   0.829   3.411  0.1388  0.2966 -0.1727
 2725TIP3    H1 8139   5.831   0.792   3.496 -0.2863 -0.0986 -0.2213
 2725TIP3    H2 8140   5.790   0.753   3.355 -1.1038  0.5415 -0.1714
 2726TIP3   OH2 8141   6.599   3.546   2.920 -0.4017 -0.4532  0.1145
 2726TIP3    H1 8142   6.574   3.562   3.011 -1.2355  0.8346 -0.3303
 2726TIP3    H2 8143   6.691   3.571   2.916 -0.6392  0.5025  0.3729
 2727TIP3   OH2 8144   5.783   4.112   3.646  0.1351  0.8358 -0.3779
 2727TIP3    H1 8145   5.751   4.130   3.734 -0.1572 -0.5610 -0.1905
 2727TIP3    H2 8146   5.723   4.047   3.610  2.6031 -1.7888 -0.0661
 2728TIP3   OH2 8147   5.899   1.436   0.025  0.1982 -0.1769  0.3673
 2728TIP3    H1 8148   5.821   1.477   0.063 -0.7555 -1.3320 -0.2433
 2728TIP3    H2 8149   5.903   1.473  -0.064 -0.2274 -0.8129  0.0738
 2729TIP3   OH2 8150   2.090   5.235   3.755 -0.0195 -0.0375  0.1746
 2729TIP3    H1 8151   2.140   5.156   3.774 -1.4753 -1.0376 -0.0062
 2729TIP3    H2 8152   2.144   5.282   3.691  1.5004 -0.1921  1.2784
 2730TIP3   OH2 8153   5.949   2.075   3.557 -0.2245 -0.1363  0.3848
 2730TIP3    H1 8154   6.035   2.062   3.597 -0.0203  1.6688  0.6133
 2730TIP3    H2 8155   5.968   2.114   3.471 -0.8029  0.1316  0.3701
 2731TIP3   OH2 8156   0.745   0.680   1.810 -0.1385  0.3758 -0.1620
 2731TIP3    H1 8157   0.746   0.725   1.726 -0.0405  0.2625 -0.2218
 2731TIP3    H2 8158   0.827   0.705   1.852 -0.5903  1.1490  0.2833
 2732TIP3   OH2 8159   3.517   0.299   4.694 -0.1934  0.2785  0.0301
 2732TIP3    H1 8160   3.528   0.394   4.696 -0.9186  0.3664  0.1161
 2732TIP3    H2 8161   3.431   0.286   4.654  0.4240 -0.3818 -1.1471
 2733TIP3   OH2 8162   2.756   4.906   3.511  0.1394 -0.1435  0.0489
 2733TIP3    H1 8163   2.788   4.899   3.600 -2.5918  1.5565  1.3024
 2733TIP3    H2 8164   2.821   4.860   3.458  2.2975 -0.4773  2.7716
 2734TIP3   OH2 8165   6.379   2.698   4.080  0.0535  0.6891 -0.6848
 2734TIP3    H1 8166   6.357   2.648   4.158 -1.2916  1.0166 -0.8345
 2734TIP3    H2 8167   6.415   2.781   4.113  1.6341 -0.0594 -0.4385
 2735TIP3   OH2 8168   3.736   3.312   2.857  0.3294  0.7889 -0.5764
 2735TIP3    H1 8169   3.653   3.269   2.838  0.3715  0.6275 -0.3959
 2735TIP3    H2 8170   3.712   3.386   2.914  0.6055 -0.9366  1.9316
 2736TIP3   OH2 8171   0.318   0.087   1.452  0.4716 -0.2911  0.0338
 2736TIP3    H1 8172   0.335   0.177   1.426  1.0636  0.0454  1.5106
 2736TIP3    H2 8173   0.235   0.065   1.409  1.2324  0.3059 -1.8268
 2737TIP3   OH2 8174   6.087   1.634   4.660  0.1201  0.3640 -0.7126
 2737TIP3    H1 8175   6.010   1.681   4.628  0.3486  0.2692 -1.4390
 2737TIP3    H2 8176   6.052   1.570   4.722  0.0020  2.8913  2.0522
 2738TIP3   OH2 8177   0.240   1.000   0.348 -0.2189  0.3807 -0.2408
 2738TIP3    H1 8178   0.259   0.927   0.408  0.7270  2.1645  1.7494
 2738TIP3    H2 8179   0.295   0.982   0.272 -0.3043 -1.1725  0.0279
 2739TIP3   OH2 8180   0.343   5.432   5.018  0.8014 -0.1868 -0.9631
 2739TIP3    H1 8181   0.436   5.433   4.994  1.1942  0.8577  0.4602
 2739TIP3    H2 8182   0.320   5.340   5.021  2.8210 -0.7589  2.2731
 2740TIP3   OH2 8183   0.541   3.581   1.440 -0.1433  0.3851 -0.2891
 2740TIP3    H1 8184   0.466   3.614   1.490 -0.5455  1.5358 -1.5906
 2740TIP3    H2 8185   0.526   3.612   1.350  1.0510 -0.7818 -0.9373
 2741TIP3   OH2 8186   5.407   1.553   2.061  0.1311 -0.4713 -0.3213
 2741TIP3    H1 8187   5.349   1.572   1.988 -0.7995 -0.0996  0.4973
 2741TIP3    H2 8188   5.495   1.559   2.024 -0.2686  1.0345 -1.1226
 2742TIP3   OH2 8189   6.384   6.037   1.201 -0.1423  0.2145  0.4354
 2742TIP3    H1 8190   6.384   6.056   1.295 -0.5149 -1.4152  0.7788
 2742TIP3    H2 8191   6.298   6.066   1.171 -0.3197  0.0065  0.7452
 2743TIP3   OH2 8192   3.339   2.778   5.550  0.0879 -0.2261 -0.3647
 2743TIP3    H1 8193   3.431   2.785   5.576 -0.0405  1.3110 -0.2454
 2743TIP3    H2 8194   3.341   2.783   5.454  0.0590  1.0572 -0.3149
 2744TIP3   OH2 8195   1.715   0.459   1.439  0.5403 -0.4109  0.0885
 2744TIP3    H1 8196   1.660   0.452   1.517  0.8535  0.7386  0.4446
 2744TIP3    H2 8197   1.708   0.551   1.414 -0.5790 -1.0132 -2.0225
 2745TIP3   OH2 8198   1.569   6.727   5.097  0.0778  0.0653  0.4448
 2745TIP3    H1 8199   1.527   6.701   5.179  1.4300  0.1966  1.2120
 2745TIP3    H2 8200   1.515   6.800   5.065 -1.2306 -0.8518  0.5069
 2746TIP3   OH2 8201   4.631   3.237   1.293 -0.0574 -0.3689 -0.1578
 2746TIP3    H1 8202   4.582   3.296   1.352  0.5481  0.2147 -0.2309
 2746TIP3    H2 8203   4.681   3.296   1.237  1.0055 -0.9638  0.1472
 2747TIP3   OH2 8204   3.647   1.599   2.485 -0.2001  0.0194 -0.0664
 2747TIP3    H1 8205   3.599   1.539   2.427  1.3783 -1.1956 -0.1953
 2747TIP3    H2 8206   3.631   1.686   2.448 -0.0632 -0.6312 -1.7303
 2748TIP3   OH2 8207   6.971   2.230   3.660 -0.6703  0.1963 -0.2940
 2748TIP3    H1 8208   6.960   2.241   3.754  0.9261 -1.1359  0.0888
 2748TIP3    H2 8209   7.012   2.144   3.650 -0.7338  0.3376 -2.1988
 2749TIP3   OH2 8210   2.360   5.872   0.500 -0.1313  0.0130  0.1324
 2749TIP3    H1 8211   2.394   5.801   0.555 -3.0065  0.0841  2.2129
 2749TIP3    H2 8212   2.398   5.855   0.413  1.6877 -2.2526  1.2537
 2750TIP3   OH2 8213   1.226   0.282   1.609 -0.1984  0.4693  0.3580
 2750TIP3    H1 8214   1.200   0.267   1.700  0.1537 -1.2238  0.2109
 2750TIP3    H2 8215   1.191   0.207   1.561  0.1413  1.0287 -0.8083
 2751TIP3   OH2 8216   0.333   0.789   2.533 -0.1987 -0.2031  0.3979
 2751TIP3    H1 8217   0.419   0.827   2.514 -0.3478 -0.6327 -1.3294
 2751TIP3    H2 8218   0.352   0.699   2.560 -0.0728 -0.0550  0.8175
 2752TIP3   OH2 8219   3.164   1.057   0.429 -0.2384  0.1895 -0.2951
 2752TIP3    H1 8220   3.096   1.052   0.361  1.8844 -1.8568 -2.4828
 2752TIP3    H2 8221   3.184   0.965   0.449  2.7048  0.6369 -0.6978
 2753TIP3   OH2 8222   2.183   4.435   1.207  0.6702  0.3540  0.1052
 2753TIP3    H1 8223   2.210   4.348   1.237  1.2827  1.1407  1.9585
 2753TIP3    H2 8224   2.242   4.455   1.134  0.4099 -0.8307 -0.4556
 2754TIP3   OH2 8225   4.862   1.951   5.703 -0.6407 -0.4789 -0.3394
 2754TIP3    H1 8226   4.915   1.895   5.760  0.3678  0.6211 -0.1483
 2754TIP3    H2 8227   4.880   1.919   5.615  0.8409  0.2325 -0.3314
 2755TIP3   OH2 8228   3.487   6.783   2.854 -0.1725  0.1252  0.5451
 2755TIP3    H1 8229   3.460   6.706   2.804 -0.0964  0.3289  0.1908
 2755TIP3    H2 8230   3.583   6.780   2.854 -0.1199  1.0407 -0.7670
 2756TIP3   OH2 8231   1.487   4.408   0.022  0.7908 -0.2585 -0.2881
 2756TIP3    H1 8232   1.482   4.318  -0.012  2.7412 -0.2724 -0.6198
 2756TIP3    H2 8233   1.432   4.406   0.100 -0.6342 -1.2546 -1.2571
 2757TIP3   OH2 8234   4.489   0.580   5.277 -0.5137 -0.4602  0.3423
 2757TIP3    H1 8235   4.537   0.613   5.353 -1.3468 -0.9660  1.1011
 2757TIP3    H2 8236   4.417   0.642   5.266 -0.9742 -0.9448  0.5902
 2758TIP3   OH2 8237   3.698   1.440   2.874 -0.1515 -0.2275  0.2371
 2758TIP3    H1 8238   3.750   1.485   2.807 -0.2910 -0.8547 -0.3076
 2758TIP3    H2 8239   3.762   1.392   2.925  0.0555  0.9684  1.1479
 2759TIP3   OH2 8240   5.726   0.991   2.941  0.0453  0.1834 -0.1614
 2759TIP3    H1 8241   5.647   1.020   2.987 -2.3892 -1.9582 -2.6038
 2759TIP3    H2 8242   5.734   1.050   2.867  0.6637  0.2716 -0.0303
 2760TIP3   OH2 8243   3.650   4.094   3.473  0.6813  0.2394  0.2537
 2760TIP3    H1 8244   3.723   4.145   3.440  0.5801 -0.1868 -0.6404
 2760TIP3    H2 8245   3.572   4.139   3.439  0.5936 -0.5194 -0.5568
 2761TIP3   OH2 8246   5.735   5.247   2.812 -0.2335 -0.6237 -0.2746
 2761TIP3    H1 8247   5.717   5.227   2.904  0.5471  1.3217  0.3635
 2761TIP3    H2 8248   5.658   5.215   2.765 -2.2456  1.2291  1.5071
 2762TIP3   OH2 8249   5.790   5.411   5.558  0.8668  0.4614  0.0207
 2762TIP3    H1 8250   5.798   5.473   5.486  1.6840  0.9457  0.5230
 2762TIP3    H2 8251   5.768   5.328   5.515  2.5066  0.4699 -0.9046
 2763TIP3   OH2 8252   4.324   6.591   2.803  0.0547 -0.4234  0.0012
 2763TIP3    H1 8253   4.235   6.556   2.812  0.7817 -2.4018 -0.1345
 2763TIP3    H2 8254   4.329   6.621   2.712 -0.1854 -1.2073 -0.2788
 2764TIP3   OH2 8255   1.538   6.691   2.573  0.2691 -0.2773 -0.1284
 2764TIP3    H1 8256   1.574   6.656   2.654 -0.3355  1.1299  0.7875
 2764TIP3    H2 8257   1.453   6.647   2.563  1.0694 -1.7075 -0.9368
 2765TIP3   OH2 8258   2.112   2.930   5.462  0.0611  0.4854 -0.2053
 2765TIP3    H1 8259   2.139   2.978   5.541 -0.3341  0.2598  0.0683
 2765TIP3    H2 8260   2.159   2.847   5.468 -1.3553 -0.2920  0.7470
 2766TIP3   OH2 8261   1.497   6.354   2.143 -0.9055  0.2014 -0.9800
 2766TIP3    H1 8262   1.539   6.301   2.211 -0.2547  0.1873 -1.3903
 2766TIP3    H2 8263   1.425   6.399   2.189 -0.5895  0.0440 -0.3243
 2767TIP3   OH2 8264   6.107   2.253   3.400  0.1318  0.2183  0.3991
 2767TIP3    H1 8265   6.107   2.190   3.328 -1.0519  0.9636 -0.2938
 2767TIP3    H2 8266   6.082   2.336   3.359  1.3806  1.0914  1.3343
 2768TIP3   OH2 8267   2.831   2.587   0.542  0.3793 -0.2494 -0.0064
 2768TIP3    H1 8268   2.824   2.682   0.533 -1.1619 -0.2271  1.0593
 2768TIP3    H2 8269   2.816   2.571   0.635 -1.6006 -1.6697 -0.4985
 2769TIP3   OH2 8270   4.988   5.381   5.275  0.0792  0.2137 -0.5674
 2769TIP3    H1 8271   4.907   5.405   5.232  0.1163 -0.3055 -0.9428
 2769TIP3    H2 8272   4.968   5.299   5.320  0.5676 -0.2860 -1.2306
 2770TIP3   OH2 8273   0.970   1.930   3.602  0.1767  0.1717  0.0055
 2770TIP3    H1 8274   0.951   1.837   3.614 -0.8426  0.4772  0.8811
 2770TIP3    H2 8275   1.009   1.936   3.515 -1.5425 -0.8373 -0.8739
 2771TIP3   OH2 8276   4.090   4.542   1.949 -0.4786 -0.0495 -0.3954
 2771TIP3    H1 8277   4.001   4.521   1.977 -0.4233  0.2572  0.0296
 2771TIP3    H2 8278   4.133   4.575   2.028  0.2880 -1.0463 -0.3797
 2772TIP3   OH2 8279   3.203   3.364   5.855  0.1810  0.0378 -0.4913
 2772TIP3    H1 8280   3.111   3.339   5.868 -0.0404  1.1728  0.2194
 2772TIP3    H2 8281   3.241   3.289   5.809 -0.3632 -1.7989  1.8653
 2773TIP3   OH2 8282   3.778   6.634   2.832  0.1597  0.3247  0.1452
 2773TIP3    H1 8283   3.759   6.614   2.740 -2.6328 -0.8201  0.8473
 2773TIP3    H2 8284   3.824   6.718   2.829  1.5409 -0.4212 -2.3327
 2774TIP3   OH2 8285   5.625   3.830   4.312  0.3408 -0.2086 -0.1087
 2774TIP3    H1 8286   5.596   3.814   4.223  3.1730 -1.0632 -0.9715
 2774TIP3    H2 8287   5.565   3.897   4.345 -0.8858  0.0032 -2.5514
 2775TIP3   OH2 8288   1.133   5.093   5.036  0.2326  0.4787  0.3131
 2775TIP3    H1 8289   1.072   5.089   4.963  0.8891 -0.0273 -0.2262
 2775TIP3    H2 8290   1.118   5.179   5.076 -1.2647  0.1151  0.5993
 2776TIP3   OH2 8291   5.825   6.633   0.104  0.4010 -0.5781  0.0490
 2776TIP3    H1 8292   5.744   6.618   0.154  1.6903 -4.3119  1.3715
 2776TIP3    H2 8293   5.805   6.599   0.017 -0.1039  0.5827 -0.2985
 2777TIP3   OH2 8294   5.737   1.440   4.666  0.3854 -0.1966  0.2474
 2777TIP3    H1 8295   5.825   1.418   4.696  0.8148 -1.0659 -1.5495
 2777TIP3    H2 8296   5.694   1.356   4.652  0.1028  0.1575 -1.1717
 2778TIP3   OH2 8297   5.535   0.829   3.209 -0.0270  0.0660 -0.2495
 2778TIP3    H1 8298   5.581   0.774   3.147 -0.0653 -1.9960  1.4365
 2778TIP3    H2 8299   5.604   0.866   3.264 -0.1358  0.0733 -0.1171
 2779TIP3   OH2 8300   2.847   4.676   3.683  0.6970 -0.2709 -0.0374
 2779TIP3    H1 8301   2.798   4.622   3.745  0.2438  0.0327 -0.1279
 2779TIP3    H2 8302   2.855   4.622   3.605 -1.0181  0.3181 -0.6520
 2780TIP3   OH2 8303   2.179   0.620   3.986 -0.5500 -0.2501 -0.3165
 2780TIP3    H1 8304   2.242   0.614   3.914 -1.7113 -1.1044 -1.3062
 2780TIP3    H2 8305   2.160   0.713   3.994 -0.2158 -0.1211 -0.9536
 2781TIP3   OH2 8306   1.204   4.475   0.627  0.0676 -0.0348  0.3023
 2781TIP3    H1 8307   1.115   4.442   0.639  0.3955 -0.8100  0.6589
 2781TIP3    H2 8308   1.247   4.461   0.712  0.1093  1.6917  0.6114
 2782TIP3   OH2 8309   6.851   3.385   3.797  0.2471 -0.0488 -0.0948
 2782TIP3    H1 8310   6.794   3.448   3.841 -0.1186  0.2103 -0.9220
 2782TIP3    H2 8311   6.926   3.437   3.768 -0.4608  0.2015 -1.5435
 2783TIP3   OH2 8312   4.642   5.981   4.248  0.4891  0.2476 -0.0253
 2783TIP3    H1 8313   4.640   5.898   4.200  1.7506 -0.3902  0.9832
 2783TIP3    H2 8314   4.556   5.986   4.290  0.6608 -0.9219  0.5031
 2784TIP3   OH2 8315   4.948   6.143   3.371  0.2571  0.4187  0.6017
 2784TIP3    H1 8316   4.877   6.137   3.307 -0.3805  2.5283  1.0338
 2784TIP3    H2 8317   5.026   6.163   3.319  0.0128  0.7358  0.3565
 2785TIP3   OH2 8318   4.850   5.171   5.095  0.1364 -0.1974  0.1051
 2785TIP3    H1 8319   4.849   5.101   5.160  0.4937  0.0489  0.3781
 2785TIP3    H2 8320   4.758   5.181   5.069 -0.2039  0.6258  1.5563
 2786TIP3   OH2 8321   4.751   1.401   2.770  0.8856  0.5059  0.1633
 2786TIP3    H1 8322   4.663   1.416   2.736  0.1834 -1.3839  1.0206
 2786TIP3    H2 8323   4.806   1.391   2.691  0.0472  0.1451 -0.3844
 2787TIP3   OH2 8324   3.333   6.472   0.376 -0.4104  0.2944  0.2001
 2787TIP3    H1 8325   3.300   6.464   0.286  0.4212 -0.2434 -0.0730
 2787TIP3    H2 8326   3.424   6.443   0.370 -0.0271  1.2677  1.0197
 2788TIP3   OH2 8327   3.688   0.245   3.339  0.7665 -0.1631 -0.3162
 2788TIP3    H1 8328   3.731   0.260   3.254  1.5289  0.2892  0.1391
 2788TIP3    H2 8329   3.679   0.332   3.377 -0.9934 -0.1978 -0.5834
 2789TIP3   OH2 8330   2.027   6.217   2.065  0.0969 -0.5532 -0.3890
 2789TIP3    H1 8331   2.025   6.303   2.021 -1.6817  0.3291  1.2844
 2789TIP3    H2 8332   1.954   6.169   2.027  1.2211 -1.4577 -1.4757
 2790TIP3   OH2 8333   2.919   5.363   1.084  0.2916 -0.2044  0.3645
 2790TIP3    H1 8334   2.947   5.443   1.039 -0.0666 -0.2967 -0.0294
 2790TIP3    H2 8335   2.832   5.385   1.119 -0.0656 -0.6114 -0.2544
 2791TIP3   OH2 8336   4.280   4.505   1.208  0.6710  0.9060 -0.0156
 2791TIP3    H1 8337   4.375   4.495   1.208  0.7787  1.6690 -1.2582
 2791TIP3    H2 8338   4.250   4.458   1.286  1.8469 -1.3339 -0.8452
 2792TIP3   OH2 8339   1.409   5.531   2.476 -0.0332 -0.2919 -0.6123
 2792TIP3    H1 8340   1.320   5.498   2.468  0.5829 -1.9350 -0.9857
 2792TIP3    H2 8341   1.419   5.551   2.569 -1.4095  1.8741 -0.8429
 2793TIP3   OH2 8342   0.781   3.884   1.193  0.3456  0.9347 -0.4159
 2793TIP3    H1 8343   0.731   3.863   1.272 -0.9630  0.9711 -1.1916
 2793TIP3    H2 8344   0.847   3.815   1.187 -2.0247 -1.4229 -1.3518
 2794TIP3   OH2 8345   0.937   1.377   4.670  0.1259 -0.4630 -0.3357
 2794TIP3    H1 8346   0.874   1.307   4.651  0.1109 -0.4801 -0.2256
 2794TIP3    H2 8347   0.975   1.399   4.585 -0.3443 -0.1465 -0.4646
 2795TIP3   OH2 8348   6.786   3.967   4.440  0.3474  0.0338 -0.5573
 2795TIP3    H1 8349   6.697   3.948   4.410  0.5133  0.5314 -1.3788
 2795TIP3    H2 8350   6.775   3.994   4.531 -0.0282 -2.7273  0.3053
 2796TIP3   OH2 8351   1.789   2.138   3.344 -0.0688  0.2816 -0.0506
 2796TIP3    H1 8352   1.715   2.161   3.288 -1.1846  0.5827  1.4861
 2796TIP3    H2 8353   1.750   2.116   3.428  1.6416  1.7363  1.2248
 2797TIP3   OH2 8354   2.652   0.075   4.095 -0.3185 -0.0447  0.1869
 2797TIP3    H1 8355   2.703   0.020   4.154  0.0982 -0.6612 -0.7071
 2797TIP3    H2 8356   2.717   0.108   4.032 -0.8358  0.1132 -0.2708
 2798TIP3   OH2 8357   1.838   3.855   4.498 -0.2030 -0.0163 -0.3342
 2798TIP3    H1 8358   1.882   3.775   4.468  0.4017  0.0187  0.4084
 2798TIP3    H2 8359   1.822   3.840   4.591 -1.4981  0.1144 -0.5184
 2799TIP3   OH2 8360   5.300   0.850   4.343 -0.6344  0.1659  0.1229
 2799TIP3    H1 8361   5.318   0.761   4.315  1.3257  0.0724  1.5092
 2799TIP3    H2 8362   5.236   0.840   4.414 -1.1942 -0.0432 -0.4053
 2800TIP3   OH2 8363   2.587   0.594   3.877 -0.3218  0.3045 -0.4527
 2800TIP3    H1 8364   2.540   0.623   3.955  1.7737  1.5672  0.4168
 2800TIP3    H2 8365   2.611   0.503   3.895 -0.1108  0.4968  0.2276
 2801TIP3   OH2 8366   5.466   1.068   1.685  0.1806 -0.2762  0.2448
 2801TIP3    H1 8367   5.560   1.082   1.690  0.5178 -2.0170 -0.5725
 2801TIP3    H2 8368   5.433   1.147   1.641  1.0647  0.8436  1.4825
 2802TIP3   OH2 8369   6.412   5.790   2.166  0.9836  0.4040  0.5765
 2802TIP3    H1 8370   6.451   5.841   2.095  0.8436 -0.5830 -0.2425
 2802TIP3    H2 8371   6.318   5.799   2.152  0.9573 -0.0817  0.3999
 2803TIP3   OH2 8372   0.833   1.687   2.266 -0.1116  0.4807  0.1439
 2803TIP3    H1 8373   0.912   1.648   2.229 -0.0995 -1.0050  1.6167
 2803TIP3    H2 8374   0.800   1.745   2.197  0.4773 -1.3391 -1.7679
 2804TIP3   OH2 8375   5.612   0.187   5.365  0.1030 -0.0965 -0.3461
 2804TIP3    H1 8376   5.650   0.168   5.451  0.3861  1.4537 -0.0842
 2804TIP3    H2 8377   5.620   0.105   5.317 -1.5175 -1.4989  1.5879
 2805TIP3   OH2 8378   5.333   0.011   5.360  0.1338  0.2176  0.7568
 2805TIP3    H1 8379   5.354  -0.064   5.305 -0.7307 -0.3614  1.2148
 2805TIP3    H2 8380   5.316   0.082   5.297  2.0937  0.3741  0.3407
 2806TIP3   OH2 8381   3.644   2.737   3.267  0.4279  0.3875 -0.2485
 2806TIP3    H1 8382   3.659   2.774   3.354  1.9901  0.7703 -0.6418
 2806TIP3    H2 8383   3.644   2.813   3.208  1.7685 -0.0411 -0.8385
 2807TIP3   OH2 8384   1.100   4.581   5.656  0.4000 -0.5777  0.5006
 2807TIP3    H1 8385   1.136   4.560   5.570  1.4487  0.0289  0.7741
 2807TIP3    H2 8386   1.112   4.676   5.663  0.3453 -0.6305  1.3295
 2808TIP3   OH2 8387   2.799   1.268   0.479 -0.2901  0.1100  0.0994
 2808TIP3    H1 8388   2.804   1.359   0.450 -1.5514  0.1516 -0.0647
 2808TIP3    H2 8389   2.848   1.266   0.561 -1.0122  1.1603  0.5742
 2809TIP3   OH2 8390   3.887   5.634   4.447 -0.8692 -0.8288 -0.0230
 2809TIP3    H1 8391   3.961   5.690   4.426 -0.8150 -0.8115  0.2105
 2809TIP3    H2 8392   3.814   5.695   4.458 -0.7126 -0.7576  0.6817
 2810TIP3   OH2 8393   0.034   6.675   2.768 -0.2943  1.0681 -0.0678
 2810TIP3    H1 8394   0.115   6.669   2.818 -0.8600  0.6776  0.8279
 2810TIP3    H2 8395   0.059   6.718   2.686  0.7297  1.3407  0.3759
 2811TIP3   OH2 8396   6.367   0.699   2.924  0.3594  0.0662 -0.0169
 2811TIP3    H1 8397   6.290   0.715   2.978  1.7681 -0.0179  2.1503
 2811TIP3    H2 8398   6.361   0.607   2.900  1.3235 -0.8810  2.9190
 2812TIP3   OH2 8399   5.706   2.459   0.138 -0.9952  0.3468 -0.1579
 2812TIP3    H1 8400   5.700   2.417   0.053  0.2271  0.6802 -0.4290
 2812TIP3    H2 8401   5.632   2.423   0.188 -2.2581  0.7983 -1.6130
 2813TIP3   OH2 8402   5.205   4.258   1.557  0.1514 -0.0524 -0.0624
 2813TIP3    H1 8403   5.240   4.172   1.532  1.9192  0.5452  0.2339
 2813TIP3    H2 8404   5.127   4.238   1.609  0.6269 -1.4830  0.1349
 2814TIP3   OH2 8405   6.562   3.026   2.712  0.6116  0.5942  0.0282
 2814TIP3    H1 8406   6.606   3.066   2.637 -0.0845  1.2431 -0.0421
 2814TIP3    H2 8407   6.562   2.932   2.692  0.2339  0.7742 -0.9017
 2815TIP3   OH2 8408   2.865   1.947   5.476  0.7245 -0.1788 -0.4254
 2815TIP3    H1 8409   2.945   1.997   5.493 -0.0270  0.4846  1.2858
 2815TIP3    H2 8410   2.832   1.982   5.393 -1.1826  4.1986  1.8606
 2816TIP3   OH2 8411   3.770   6.175   5.236  0.3971  0.6200  0.1851
 2816TIP3    H1 8412   3.846   6.182   5.293  0.1244 -0.2770  0.6741
 2816TIP3    H2 8413   3.806   6.149   5.151  0.6055 -0.4329  0.5739
 2817TIP3   OH2 8414   3.085   1.285   2.167  0.0030  0.0609 -0.4884
 2817TIP3    H1 8415   3.164   1.332   2.192  0.1072  0.6338 -1.7885
 2817TIP3    H2 8416   3.101   1.194   2.191 -0.2391  0.6475  2.1861
 2818TIP3   OH2 8417   5.558   6.282   5.513 -0.4067 -0.2159  0.4931
 2818TIP3    H1 8418   5.561   6.332   5.431  0.7817 -0.8771  0.1107
 2818TIP3    H2 8419   5.541   6.192   5.485 -0.2647 -0.4008  0.9898
 2819TIP3   OH2 8420   6.974   3.461   3.209 -0.4022 -0.0473  0.0447
 2819TIP3    H1 8421   7.068   3.468   3.228  0.1692 -1.3578 -1.9191
 2819TIP3    H2 8422   6.939   3.409   3.281  0.9411 -1.7330 -0.4200
 2820TIP3   OH2 8423   6.066   6.784   2.066  0.2628 -0.2104  0.4363
 2820TIP3    H1 8424   6.000   6.816   2.128 -1.5972 -1.3102 -0.8861
 2820TIP3    H2 8425   6.056   6.689   2.068 -0.7335 -0.2492 -2.4045
 2821TIP3   OH2 8426   0.038   3.755   2.395 -0.0481 -0.0401 -0.0244
 2821TIP3    H1 8427   0.101   3.810   2.348 -0.4664  1.1670  0.7817
 2821TIP3    H2 8428  -0.041   3.757   2.341 -0.6702  1.6971  0.8846
 2822TIP3   OH2 8429   4.345   6.741   4.458  0.5495  0.3248  0.2036
 2822TIP3    H1 8430   4.433   6.721   4.491  0.6558  0.2520 -0.1171
 2822TIP3    H2 8431   4.312   6.807   4.518  1.1839  1.0306 -0.2089
 2823TIP3   OH2 8432   0.155   0.062   2.490 -0.2737  0.3309  0.2832
 2823TIP3    H1 8433   0.063   0.036   2.499  0.3411 -1.4911  2.0237
 2823TIP3    H2 8434   0.157   0.152   2.522 -1.6086  0.7778 -0.7836
 2824TIP3   OH2 8435   3.051   4.836   5.742 -0.1310 -0.6133  0.8426
 2824TIP3    H1 8436   3.038   4.852   5.649  2.3887  1.5615  0.7445
 2824TIP3    H2 8437   2.963   4.839   5.780 -1.0064  0.6584 -1.1590
 2825TIP3   OH2 8438   3.378   0.357   3.145 -0.3348  0.0469  0.1870
 2825TIP3    H1 8439   3.367   0.384   3.236 -1.1531  2.4914 -0.5688
 2825TIP3    H2 8440   3.473   0.359   3.132 -0.2810  1.2037  0.5954
 2826TIP3   OH2 8441   3.863   1.241   0.745 -0.0757  0.0213 -0.2755
 2826TIP3    H1 8442   3.846   1.335   0.757 -1.4108 -0.1529 -0.6715
 2826TIP3    H2 8443   3.854   1.227   0.651  3.4804  0.0856 -0.7605
 2827TIP3   OH2 8444   1.329   1.591   4.276 -0.8878 -0.6529 -0.3419
 2827TIP3    H1 8445   1.416   1.553   4.264 -0.7808 -0.3947 -0.3916
 2827TIP3    H2 8446   1.303   1.620   4.189 -0.3973  0.6074 -0.1010
 2828TIP3   OH2 8447   3.742   0.095   4.734  0.1984 -0.0770 -0.4178
 2828TIP3    H1 8448   3.710   0.148   4.661  0.4822 -0.7034 -1.0133
 2828TIP3    H2 8449   3.670   0.092   4.796  0.8145  2.6261  0.5640
 2829TIP3   OH2 8450   6.559   6.780   2.304  0.1453 -0.6122  0.0928
 2829TIP3    H1 8451   6.496   6.843   2.268  0.3036 -1.0324 -0.9843
 2829TIP3    H2 8452   6.514   6.696   2.297  1.4970 -1.2283 -2.6136
 2830TIP3   OH2 8453   1.767   4.667   3.188  0.4441 -0.5032 -0.1192
 2830TIP3    H1 8454   1.838   4.667   3.252  1.0551  0.0223 -0.7812
 2830TIP3    H2 8455   1.755   4.574   3.165  1.4387 -0.5387 -0.5530
 2831TIP3   OH2 8456   5.531   0.072   1.484  0.4440  0.4240  0.4761
 2831TIP3    H1 8457   5.624   0.091   1.488  0.3724  1.0843 -0.7398
 2831TIP3    H2 8458   5.489   0.157   1.473  0.0682 -0.0995 -4.1874
 2832TIP3   OH2 8459   0.240   3.572   5.045  0.0046 -0.0746  0.0053
 2832TIP3    H1 8460   0.227   3.555   5.139 -1.6165  0.4098 -0.1079
 2832TIP3    H2 8461   0.303   3.644   5.043  1.2327 -1.0735  0.6543
 2833TIP3   OH2 8462   6.463   6.530   2.363  0.1216  0.0624 -0.3692
 2833TIP3    H1 8463   6.520   6.454   2.346  0.8500  0.1814  1.3825
 2833TIP3    H2 8464   6.442   6.524   2.456 -1.0669  1.1861 -0.5373
 2834TIP3   OH2 8465   1.173   2.857   4.895  0.0375  0.4187  0.9070
 2834TIP3    H1 8466   1.154   2.951   4.896 -0.8925  0.2837 -0.5989
 2834TIP3    H2 8467   1.246   2.847   4.834 -0.0336  0.1407  0.8633
 2835TIP3   OH2 8468   5.910   1.363   3.449  0.6997  0.0870 -0.0036
 2835TIP3    H1 8469   5.853   1.440   3.439  1.9041  0.9178 -0.6641
 2835TIP3    H2 8470   5.865   1.308   3.513 -1.8918 -0.2439 -1.9253
 2836TIP3   OH2 8471   7.242   4.522   3.760  0.1528  0.2202 -0.2007
 2836TIP3    H1 8472   7.154   4.559   3.752  0.4163  0.7653 -0.6773
 2836TIP3    H2 8473   7.234   4.432   3.729 -0.1957  0.3274 -0.4219
 2837TIP3   OH2 8474   6.017   5.435   3.198 -0.4481  0.1754 -0.3416
 2837TIP3    H1 8475   6.045   5.347   3.222 -3.7683 -1.3194 -1.4121
 2837TIP3    H2 8476   5.937   5.450   3.249 -0.7288  2.0007 -1.2400
 2838TIP3   OH2 8477   3.847   4.914   0.237  0.1129  0.5017  0.2975
 2838TIP3    H1 8478   3.778   4.857   0.270  1.7598 -1.7524  0.1559
 2838TIP3    H2 8479   3.883   4.957   0.315 -0.4976  0.5537  0.5504
 2839TIP3   OH2 8480   6.171   4.432   5.468  0.5013 -0.1548  0.4077
 2839TIP3    H1 8481   6.254   4.428   5.516  0.3566  1.0559  0.7836
 2839TIP3    H2 8482   6.110   4.472   5.529 -0.0438  0.1319 -0.3157
 2840TIP3   OH2 8483   3.707   6.755   4.491 -0.2963 -0.2632  0.0255
 2840TIP3    H1 8484   3.670   6.768   4.579 -0.2796 -1.1382  0.1722
 2840TIP3    H2 8485   3.783   6.699   4.506 -0.4851 -0.6901 -0.5898
 2841TIP3   OH2 8486   5.943   5.317   0.816  0.3853  0.6764 -0.3140
 2841TIP3    H1 8487   5.906   5.237   0.852 -1.0541  1.5723  0.2434
 2841TIP3    H2 8488   5.888   5.337   0.740 -0.9315  2.5239  1.0569
 2842TIP3   OH2 8489   5.185   1.977   2.963 -0.1914 -0.4130  0.4593
 2842TIP3    H1 8490   5.132   1.921   2.906  0.2054 -0.5143  0.1903
 2842TIP3    H2 8491   5.187   1.932   3.047 -0.7077 -0.3055  0.5335
 2843TIP3   OH2 8492   5.113   5.171   3.892 -0.2764  0.3649  0.2795
 2843TIP3    H1 8493   5.108   5.227   3.969 -0.9932  0.4690  0.1638
 2843TIP3    H2 8494   5.022   5.161   3.863  0.0334  0.8092 -0.9009
 2844TIP3   OH2 8495   2.925   1.212   0.052 -0.1936 -0.0332  0.4112
 2844TIP3    H1 8496   2.983   1.272   0.005 -0.0588 -0.4292  0.0597
 2844TIP3    H2 8497   2.837   1.248   0.037 -0.1836 -0.3133 -0.4081
 2845TIP3   OH2 8498   4.140   5.232   0.621  0.5036  0.3008  0.1585
 2845TIP3    H1 8499   4.221   5.281   0.604 -0.4760  1.3148 -2.0301
 2845TIP3    H2 8500   4.155   5.189   0.704  3.9323 -0.8955 -0.9198
 2846TIP3   OH2 8501   5.453  -0.026   0.893 -0.1054 -0.3178 -0.0299
 2846TIP3    H1 8502   5.409   0.041   0.946  1.4455  1.8492 -1.2899
 2846TIP3    H2 8503   5.425  -0.006   0.803  0.7168 -1.1098 -0.4690
 2847TIP3   OH2 8504   1.515   5.390   0.106  0.2093 -0.4006  0.0144
 2847TIP3    H1 8505   1.521   5.358   0.195 -1.4571  0.4460  0.4794
 2847TIP3    H2 8506   1.559   5.323   0.053  0.8394 -1.1270  1.4072
 2848TIP3   OH2 8507   3.282   2.017   4.962  1.0027 -0.7517 -0.1957
 2848TIP3    H1 8508   3.299   1.940   5.015 -0.4849 -0.8544  0.1718
 2848TIP3    H2 8509   3.218   2.068   5.012  2.1830  0.8915 -0.2782
 2849TIP3   OH2 8510   5.660   6.127   4.140 -0.1046 -0.3819  0.0388
 2849TIP3    H1 8511   5.681   6.117   4.233  1.2262 -1.3962 -0.3333
 2849TIP3    H2 8512   5.734   6.086   4.095 -1.3054 -0.9900 -1.4508
 2850TIP3   OH2 8513   6.045   5.463   1.649  0.0621 -0.0971 -0.4211
 2850TIP3    H1 8514   6.047   5.504   1.562  0.1046 -0.6184 -0.6669
 2850TIP3    H2 8515   6.045   5.537   1.710  1.7419  0.2669 -0.8226
 2851TIP3   OH2 8516   6.727   5.974   4.721 -0.5039 -0.3858 -0.3731
 2851TIP3    H1 8517   6.691   5.992   4.808  1.7345  0.7299  0.4008
 2851TIP3    H2 8518   6.806   5.924   4.739  0.1037  0.0587 -1.7670
 2852TIP3   OH2 8519   0.706   4.474   4.618 -0.4413  0.2344 -0.0955
 2852TIP3    H1 8520   0.760   4.545   4.584  0.4686 -0.6067 -0.4354
 2852TIP3    H2 8521   0.639   4.461   4.550 -0.0272  0.1157 -0.4850
 2853TIP3   OH2 8522   6.010   6.001   4.217 -0.1162 -0.2699 -0.5442
 2853TIP3    H1 8523   6.059   6.043   4.147  0.8395 -0.7904 -0.2006
 2853TIP3    H2 8524   6.067   5.931   4.248 -1.4119 -1.4117 -0.6686
 2854TIP3   OH2 8525   1.484   4.120   0.416 -0.1119 -0.4387  0.2549
 2854TIP3    H1 8526   1.509   4.101   0.326 -2.4869 -0.4318 -0.4799
 2854TIP3    H2 8527   1.429   4.198   0.410 -0.4441 -0.5424  1.6864
 2855TIP3   OH2 8528   1.221   5.130   3.740  0.1945  0.1755  0.1047
 2855TIP3    H1 8529   1.305   5.165   3.711 -0.5482  1.7377 -0.2622
 2855TIP3    H2 8530   1.230   5.124   3.836  0.3232  1.5369  0.2018
 2856TIP3   OH2 8531   5.422   1.417   5.285 -0.0766  0.2514  0.0137
 2856TIP3    H1 8532   5.508   1.378   5.297  0.4767  1.5611  0.4409
 2856TIP3    H2 8533   5.401   1.400   5.193  0.2740 -0.7382  0.0983
 2857TIP3   OH2 8534   4.821   0.766   4.764 -0.0606 -0.6393 -0.0171
 2857TIP3    H1 8535   4.731   0.800   4.759  0.7417  1.5417 -0.8743
 2857TIP3    H2 8536   4.857   0.807   4.843  0.6329 -0.3082 -0.5020
 2858TIP3   OH2 8537   0.171   4.698   2.687  0.1715  0.3246  0.0961
 2858TIP3    H1 8538   0.196   4.787   2.712 -0.6458  0.4356  0.5790
 2858TIP3    H2 8539   0.114   4.669   2.759  1.4036 -1.0492  0.5442
 2859TIP3   OH2 8540   7.017   5.155   4.842  0.4481 -0.0420 -0.1807
 2859TIP3    H1 8541   6.952   5.225   4.839 -1.1940 -1.5255 -0.7485
 2859TIP3    H2 8542   6.995   5.105   4.921  1.8476  0.2810  0.4390
 2860TIP3   OH2 8543   6.195   3.740   5.578 -0.3136 -0.4388 -0.0016
 2860TIP3    H1 8544   6.221   3.651   5.603  0.3689 -0.5871 -1.1626
 2860TIP3    H2 8545   6.169   3.733   5.486  0.7217  0.7335 -0.4218
 2861TIP3   OH2 8546   1.988   5.426   4.661 -0.6101 -0.0225 -0.1244
 2861TIP3    H1 8547   2.062   5.406   4.718 -0.3297  0.5018 -0.3000
 2861TIP3    H2 8548   2.011   5.510   4.620 -2.4468  1.5267  1.7973
 2862TIP3   OH2 8549   6.741   2.313   2.238 -0.0237 -0.6809  0.8109
 2862TIP3    H1 8550   6.820   2.365   2.222 -0.3509 -0.8095 -1.5460
 2862TIP3    H2 8551   6.773   2.223   2.249  0.2065 -0.6190  0.6541
 2863TIP3   OH2 8552   5.448   0.360   4.537 -0.3250 -0.1042  0.0416
 2863TIP3    H1 8553   5.461   0.276   4.492  0.7741 -0.3523  0.7784
 2863TIP3    H2 8554   5.521   0.366   4.598  0.0604  1.7551 -0.5331
 2864TIP3   OH2 8555   6.696   0.997   5.506 -0.0112 -0.6773 -0.2475
 2864TIP3    H1 8556   6.670   0.911   5.472 -0.4886 -0.7944  0.4017
 2864TIP3    H2 8557   6.651   1.004   5.590 -1.7965  1.1607 -1.2646
 2865TIP3   OH2 8558   3.500   3.857   0.591  0.4673 -0.2844  0.2166
 2865TIP3    H1 8559   3.503   3.952   0.586 -1.0583 -0.2904 -1.6877
 2865TIP3    H2 8560   3.478   3.839   0.683 -0.8605  1.2794  0.2526
 2866TIP3   OH2 8561   6.462   4.916   2.634 -0.0198  0.5882 -0.2452
 2866TIP3    H1 8562   6.418   5.000   2.650 -0.6958  0.4834 -1.4459
 2866TIP3    H2 8563   6.554   4.940   2.623 -0.4615  1.5004 -2.6364
 2867TIP3   OH2 8564   1.858   4.864   2.602  0.5660  0.1765  0.5801
 2867TIP3    H1 8565   1.838   4.796   2.667 -1.6636  1.8245  1.7814
 2867TIP3    H2 8566   1.774   4.905   2.585  1.0471 -0.1461 -3.4692
 2868TIP3   OH2 8567   0.267   2.135   4.537 -0.5284 -0.3900  0.0568
 2868TIP3    H1 8568   0.339   2.137   4.474 -1.5010  0.8517 -1.0646
 2868TIP3    H2 8569   0.197   2.185   4.496 -2.3035 -2.1012  0.8313
 2869TIP3   OH2 8570   2.674   2.318   0.153  0.6554  0.8374  0.7754
 2869TIP3    H1 8571   2.768   2.338   0.152  0.7049  0.6523 -0.7113
 2869TIP3    H2 8572   2.669   2.226   0.181  0.9626  0.6972  0.3821
 2870TIP3   OH2 8573   3.335   3.334   3.494 -0.1649  0.0466 -0.4668
 2870TIP3    H1 8574   3.410   3.313   3.550 -1.4864 -0.3558  1.2308
 2870TIP3    H2 8575   3.258   3.319   3.550 -1.5332  0.1674 -2.2361
 2871TIP3   OH2 8576   2.693   0.648   4.762  0.1592  0.1933 -0.4213
 2871TIP3    H1 8577   2.706   0.621   4.670 -0.7198  0.0700 -0.5205
 2871TIP3    H2 8578   2.753   0.721   4.774  1.7422 -1.0196 -0.5058
 2872TIP3   OH2 8579   6.620   5.071   0.278 -0.5288  0.1210 -0.0263
 2872TIP3    H1 8580   6.690   5.018   0.240  0.2101  0.8543  0.2853
 2872TIP3    H2 8581   6.567   5.009   0.327 -0.5983 -0.5867 -0.9682
 2873TIP3   OH2 8582   6.159   5.463   2.133  0.1069  0.0636  0.1820
 2873TIP3    H1 8583   6.160   5.428   2.222 -3.0638  0.6897  0.5998
 2873TIP3    H2 8584   6.204   5.547   2.139 -1.1746  0.6948  1.5648
 2874TIP3   OH2 8585   2.330   1.890   2.736 -0.8326  0.2205 -0.2754
 2874TIP3    H1 8586   2.245   1.848   2.727 -0.7504 -0.1945  0.7847
 2874TIP3    H2 8587   2.316   1.959   2.801 -0.4077  0.2797 -0.2427
 2875TIP3   OH2 8588   6.759   6.623   5.215 -0.4008  0.6625 -0.2874
 2875TIP3    H1 8589   6.670   6.608   5.245 -0.7599  2.8040 -0.1116
 2875TIP3    H2 8590   6.811   6.557   5.260 -1.9035 -0.8551 -0.6476
 2876TIP3   OH2 8591   3.934   1.712   3.064  0.1442 -0.2398  0.3823
 2876TIP3    H1 8592   3.975   1.626   3.055  0.7727  0.0616  0.3720
 2876TIP3    H2 8593   4.003   1.775   3.045 -0.6998  0.2586 -1.3018
 2877TIP3   OH2 8594   2.130   5.433   1.276  0.0516 -0.1229 -0.0623
 2877TIP3    H1 8595   2.092   5.347   1.257 -0.5599  0.4289 -1.4812
 2877TIP3    H2 8596   2.081   5.464   1.353  0.5503 -1.1891  0.7029
 2878TIP3   OH2 8597   0.891   6.413   2.785  0.1115 -0.1138  0.0152
 2878TIP3    H1 8598   0.796   6.402   2.782 -0.0064  0.9073 -1.4597
 2878TIP3    H2 8599   0.914   6.405   2.877 -1.3056 -1.0806  0.3176
 2879TIP3   OH2 8600   4.044   4.556   3.016 -0.1685 -0.6728 -0.4026
 2879TIP3    H1 8601   4.094   4.588   2.941  1.9306  0.3125  1.3338
 2879TIP3    H2 8602   4.088   4.474   3.040 -0.6313 -0.8201 -0.0511
 2880TIP3   OH2 8603   1.485   1.444   5.565  0.1623 -0.2960 -0.1611
 2880TIP3    H1 8604   1.458   1.392   5.640 -0.2880  0.1805  0.0121
 2880TIP3    H2 8605   1.485   1.382   5.491 -2.3785 -0.1275 -0.3673
 2881TIP3   OH2 8606   5.297   2.075   0.781 -0.5653 -0.1044 -0.1044
 2881TIP3    H1 8607   5.348   2.012   0.832 -1.6020 -0.5187  0.4494
 2881TIP3    H2 8608   5.347   2.087   0.701  1.3257  0.8826  1.1550
 2882TIP3   OH2 8609   6.356   0.242   4.060 -0.2102 -0.0755 -0.0911
 2882TIP3    H1 8610   6.329   0.158   4.097  1.0775 -0.9075 -0.9453
 2882TIP3    H2 8611   6.451   0.235   4.050 -0.0879  1.4336 -0.3272
 2883TIP3   OH2 8612   1.256   4.183   1.355 -0.2833  0.1970 -0.5994
 2883TIP3    H1 8613   1.190   4.247   1.328  2.1502  2.3984 -1.7549
 2883TIP3    H2 8614   1.295   4.152   1.273 -1.0714 -2.5749 -0.0536
 2884TIP3   OH2 8615   6.950   2.805   5.355 -0.8851 -0.4849  0.2242
 2884TIP3    H1 8616   6.868   2.804   5.405 -2.3520 -0.8440 -2.0369
 2884TIP3    H2 8617   6.930   2.755   5.276  0.4049  2.2433 -2.0101
 2885TIP3   OH2 8618   3.289   0.471   0.738 -0.0731  0.2750  0.2167
 2885TIP3    H1 8619   3.313   0.442   0.826  1.2583  1.7373  0.3757
 2885TIP3    H2 8620   3.262   0.391   0.694  1.9249 -0.9912  1.1009
 2886TIP3   OH2 8621   4.255   1.640   2.743  0.3980  0.4754  0.0390
 2886TIP3    H1 8622   4.302   1.670   2.665  1.7048  1.8951  1.3234
 2886TIP3    H2 8623   4.166   1.672   2.730  0.7136  1.1111 -0.6683
 2887TIP3   OH2 8624   0.313   5.782   0.971 -0.4312 -0.3494 -0.2361
 2887TIP3    H1 8625   0.320   5.817   0.882 -0.5968 -0.2414 -0.2069
 2887TIP3    H2 8626   0.402   5.782   1.004 -0.5001  0.5609 -0.0367
 2888TIP3   OH2 8627   1.967   0.742   0.547 -1.0840 -0.8214 -0.5291
 2888TIP3    H1 8628   1.934   0.732   0.637  0.4926 -0.9840  0.0769
 2888TIP3    H2 8629   1.890   0.763   0.495 -1.8698  0.5623  1.0787
 2889TIP3   OH2 8630   3.715   4.161   0.606  0.0605 -0.1716 -0.0049
 2889TIP3    H1 8631   3.736   4.252   0.627  0.2499  0.0287 -1.0388
 2889TIP3    H2 8632   3.690   4.123   0.690  0.7451  0.6209  0.5794
 2890TIP3   OH2 8633   5.650   0.571   1.759 -0.0902 -0.0631  0.3149
 2890TIP3    H1 8634   5.735   0.605   1.730  0.2210 -0.4845  0.7239
 2890TIP3    H2 8635   5.589   0.643   1.743  0.3106  0.1770 -0.1502
 2891TIP3   OH2 8636   5.716   1.217   2.762  0.3665  0.0116 -0.2055
 2891TIP3    H1 8637   5.675   1.304   2.763  0.7945  0.2385 -1.0592
 2891TIP3    H2 8638   5.744   1.205   2.671  1.2895 -0.5588  0.1398
 2892TIP3   OH2 8639   6.966   2.803   0.292 -0.4693 -0.2101  0.2390
 2892TIP3    H1 8640   7.049   2.790   0.246 -0.0514 -0.1150  0.9588
 2892TIP3    H2 8641   6.942   2.717   0.324 -0.0990 -0.0569  0.9479
 2893TIP3   OH2 8642   6.505   3.948   4.426  0.0129 -0.0179  0.0490
 2893TIP3    H1 8643   6.488   3.912   4.514  0.0708  1.6892  0.7920
 2893TIP3    H2 8644   6.518   4.042   4.441  2.1135 -0.0026 -1.5190
 2894TIP3   OH2 8645   1.245   0.664   2.236 -0.2453 -0.1753 -0.3177
 2894TIP3    H1 8646   1.234   0.628   2.148 -0.3832 -0.5463 -0.1498
 2894TIP3    H2 8647   1.179   0.732   2.242 -1.1469 -1.0673 -0.0156
 2895TIP3   OH2 8648   7.205   2.132   0.622  0.1678  0.4804 -0.0331
 2895TIP3    H1 8649   7.146   2.204   0.644 -0.1013 -0.0531  1.0593
 2895TIP3    H2 8650   7.175   2.059   0.676  0.9322 -0.2255 -0.5374
 2896TIP3   OH2 8651   1.214   4.248   3.448 -0.1107  0.3702 -0.6113
 2896TIP3    H1 8652   1.181   4.170   3.493 -0.2850  1.5040  1.3631
 2896TIP3    H2 8653   1.148   4.315   3.466  1.1309  1.5535 -0.3213
 2897TIP3   OH2 8654   5.640   4.472   5.483 -0.5455  0.0046  0.2738
 2897TIP3    H1 8655   5.609   4.501   5.397 -0.8208 -1.9332 -0.3164
 2897TIP3    H2 8656   5.578   4.511   5.545 -1.1029  0.3760 -0.5081
 2898TIP3   OH2 8657   1.692   5.381   2.648 -0.0621  0.2578 -0.3083
 2898TIP3    H1 8658   1.685   5.295   2.690 -0.4487  0.6684  0.4849
 2898TIP3    H2 8659   1.602   5.409   2.635  0.0634  0.6610 -0.3307
 2899TIP3   OH2 8660   2.532   2.886   4.607 -0.0548  0.1333 -0.6895
 2899TIP3    H1 8661   2.556   2.977   4.591 -1.4884  0.4889 -0.9574
 2899TIP3    H2 8662   2.546   2.874   4.701 -0.6007  0.8753 -0.5031
 2900TIP3   OH2 8663   3.582   5.523   5.770  0.1743  0.6169 -0.1199
 2900TIP3    H1 8664   3.495   5.512   5.731  0.4602 -0.8564 -0.3983
 2900TIP3    H2 8665   3.633   5.568   5.702 -0.5857  2.3259  0.3916
 2901TIP3   OH2 8666   1.685   1.536   3.793 -0.0999  0.0895  0.0750
 2901TIP3    H1 8667   1.671   1.475   3.865  0.0316  0.3823  0.3483
 2901TIP3    H2 8668   1.669   1.484   3.714  1.0225 -0.5654  0.2646
 2902TIP3   OH2 8669   1.569   1.894   1.583 -0.4937 -0.7561  0.2223
 2902TIP3    H1 8670   1.645   1.836   1.588  0.1626 -0.0135 -0.8683
 2902TIP3    H2 8671   1.595   1.964   1.524 -1.5775  0.2099  0.8366
 2903TIP3   OH2 8672   7.134   0.295   2.769  0.1939  0.0057  0.1553
 2903TIP3    H1 8673   7.091   0.310   2.685  0.6349  1.3014  0.1461
 2903TIP3    H2 8674   7.227   0.288   2.747  0.3410  0.6570  0.5648
 2904TIP3   OH2 8675   6.754   0.990   1.372  0.0640 -0.2846  0.1517
 2904TIP3    H1 8676   6.684   1.017   1.312  0.4244  0.7833  0.2019
 2904TIP3    H2 8677   6.742   0.895   1.380 -0.0215 -0.4482 -1.5558
 2905TIP3   OH2 8678   3.906   5.412   3.828  0.6819 -0.2477 -0.6024
 2905TIP3    H1 8679   3.927   5.387   3.738 -0.6409  0.4770 -1.1403
 2905TIP3    H2 8680   3.984   5.387   3.879  0.7841 -2.2949 -1.6379
 2906TIP3   OH2 8681   4.660   3.857   0.665 -0.4090  0.0239 -0.3306
 2906TIP3    H1 8682   4.747   3.891   0.642  1.0713 -2.7114  0.7101
 2906TIP3    H2 8683   4.627   3.820   0.583 -0.3542  0.6031 -0.6188
 2907TIP3   OH2 8684   0.222   5.817   1.687 -0.0927  0.3447 -0.4510
 2907TIP3    H1 8685   0.294   5.881   1.684  0.1072  0.1848  0.6456
 2907TIP3    H2 8686   0.162   5.846   1.619  0.7046  0.8553 -0.9560
 2908TIP3   OH2 8687   3.717   0.493   0.138  0.5295  0.1883  0.1987
 2908TIP3    H1 8688   3.659   0.456   0.205  2.7348 -1.3412  1.3974
 2908TIP3    H2 8689   3.687   0.452   0.056 -0.8103  0.3765  0.5673
 2909TIP3   OH2 8690   4.678   4.552   1.865 -0.1314  0.0000  0.4124
 2909TIP3    H1 8691   4.585   4.548   1.844 -0.4459  0.1949  1.6868
 2909TIP3    H2 8692   4.689   4.490   1.936  1.2025 -1.7993 -1.2460
 2910TIP3   OH2 8693   3.349   1.971   3.336  0.2546  0.0066  0.1046
 2910TIP3    H1 8694   3.408   1.899   3.314 -1.6396 -1.6593  0.1027
 2910TIP3    H2 8695   3.359   2.034   3.265  1.5171 -0.5430 -0.2178
 2911TIP3   OH2 8696   3.597   1.566   0.604  0.2045  0.2262 -0.8805
 2911TIP3    H1 8697   3.592   1.470   0.602  0.5768  0.2180 -1.5533
 2911TIP3    H2 8698   3.641   1.589   0.523  0.5763  0.9423 -0.4794
 2912TIP3   OH2 8699   0.522   4.014   3.967 -0.1245 -0.4894  0.4122
 2912TIP3    H1 8700   0.434   3.975   3.962 -0.5664  0.4350  0.6805
 2912TIP3    H2 8701   0.513   4.083   4.032  0.3265  0.8282 -0.8807
 2913TIP3   OH2 8702   4.817   5.205   4.192 -0.2409 -0.0694  0.1259
 2913TIP3    H1 8703   4.865   5.266   4.248 -0.8415 -0.7027  1.3517
 2913TIP3    H2 8704   4.874   5.128   4.186 -0.5432 -0.3297  0.5571
 2914TIP3   OH2 8705   1.545   0.321   5.315 -0.2646 -0.1475  0.6762
 2914TIP3    H1 8706   1.527   0.307   5.222 -3.3156  0.4714  1.0686
 2914TIP3    H2 8707   1.507   0.407   5.335 -0.3314 -0.5777  2.6285
 2915TIP3   OH2 8708   3.880   2.171   4.876 -0.5279 -0.1268  0.2724
 2915TIP3    H1 8709   3.800   2.128   4.907 -1.3149  0.7523 -0.4756
 2915TIP3    H2 8710   3.866   2.264   4.895  0.3636  0.0322  0.2053
 2916TIP3   OH2 8711   4.584   3.055   5.707  0.7183  0.0984 -0.1795
 2916TIP3    H1 8712   4.489   3.045   5.699  0.5295  1.4332  0.0106
 2916TIP3    H2 8713   4.618   3.031   5.621  0.0607  0.9093 -0.6923
 2917TIP3   OH2 8714   6.039   2.589   5.882  0.3759 -0.4601 -0.7729
 2917TIP3    H1 8715   6.015   2.645   5.808  0.0099 -0.5161 -0.6964
 2917TIP3    H2 8716   6.063   2.506   5.842  2.2100  0.1243 -1.0098
 2918TIP3   OH2 8717   2.720   6.277   0.225  0.3663  0.0395 -0.1400
 2918TIP3    H1 8718   2.747   6.325   0.146 -0.0107  1.0863  0.3457
 2918TIP3    H2 8719   2.636   6.239   0.202  0.5360 -0.1614 -0.4393
 2919TIP3   OH2 8720   0.330   5.331   1.024 -0.1223 -0.1734  0.1212
 2919TIP3    H1 8721   0.285   5.267   1.078 -0.9405  0.0317 -0.3059
 2919TIP3    H2 8722   0.294   5.415   1.053 -0.0717 -0.0151 -0.2788
 2920TIP3   OH2 8723   2.811   5.167   4.913 -0.1907 -0.0948  0.2426
 2920TIP3    H1 8724   2.748   5.094   4.918 -1.7078  1.1705  0.2119
 2920TIP3    H2 8725   2.831   5.176   4.820  0.6413 -0.9664  0.3191
 2921TIP3   OH2 8726   3.403   0.805   1.326 -0.4138 -0.5975  0.1410
 2921TIP3    H1 8727   3.404   0.759   1.410  0.6285  0.8556  0.9717
 2921TIP3    H2 8728   3.312   0.804   1.300 -1.1165  0.5725  2.2741
 2922TIP3   OH2 8729   6.464   3.421   0.241  0.0311 -0.4044  0.3658
 2922TIP3    H1 8730   6.391   3.359   0.250 -0.7417  0.4771  0.3023
 2922TIP3    H2 8731   6.510   3.391   0.163 -1.4159  0.1660 -0.7549
 2923TIP3   OH2 8732   1.766   2.846   3.367  0.7778  0.4032 -0.0839
 2923TIP3    H1 8733   1.676   2.875   3.353  0.0098 -2.0144 -0.6566
 2923TIP3    H2 8734   1.815   2.926   3.383 -1.2886  1.8723 -0.7286
 2924TIP3   OH2 8735   2.522   1.446   1.309 -0.1033 -0.3759 -0.1577
 2924TIP3    H1 8736   2.563   1.521   1.266 -1.0322 -0.5021 -1.3132
 2924TIP3    H2 8737   2.563   1.369   1.269 -1.2397 -0.4996 -1.1355
 2925TIP3   OH2 8738   5.973   2.384   1.325 -0.1384 -0.4494 -0.0718
 2925TIP3    H1 8739   6.046   2.333   1.290  0.4318  0.5708 -0.3835
 2925TIP3    H2 8740   6.009   2.427   1.403 -0.3388  0.2232 -0.3462
 2926TIP3   OH2 8741   3.704   2.035   1.420 -0.1868 -0.2776  0.7469
 2926TIP3    H1 8742   3.685   2.125   1.447 -1.0110 -0.2436  0.1201
 2926TIP3    H2 8743   3.695   2.036   1.324 -3.4501 -1.6655  0.8746
 2927TIP3   OH2 8744   5.829   2.635   5.280 -0.5195 -0.1950  0.2328
 2927TIP3    H1 8745   5.761   2.571   5.258 -0.3468 -0.0943 -0.6341
 2927TIP3    H2 8746   5.797   2.717   5.244  0.7338 -0.4378 -1.5565
 2928TIP3   OH2 8747   0.353   5.479   3.620  0.1312  0.4048  0.2725
 2928TIP3    H1 8748   0.386   5.406   3.568 -0.5359  0.4484 -0.2181
 2928TIP3    H2 8749   0.270   5.502   3.579  0.1337  1.1637  0.6868
 2929TIP3   OH2 8750   1.903   2.999   4.130  0.8951 -0.4134 -0.0505
 2929TIP3    H1 8751   1.828   2.962   4.177  0.9270 -1.3977 -0.7498
 2929TIP3    H2 8752   1.958   3.037   4.198 -0.6795  1.2025  0.4173
 2930TIP3   OH2 8753   3.901   5.190   1.845  0.1200  0.2701  0.1909
 2930TIP3    H1 8754   3.866   5.102   1.859 -0.4464  0.6276  1.1488
 2930TIP3    H2 8755   3.943   5.187   1.759  1.9219 -1.5143  1.0627
 2931TIP3   OH2 8756   0.810   6.419   2.449 -0.4139  0.2256 -0.1530
 2931TIP3    H1 8757   0.879   6.415   2.383  0.9526  1.6127  1.1288
 2931TIP3    H2 8758   0.797   6.512   2.466  0.7221 -0.0568  2.9179
 2932TIP3   OH2 8759   3.111   2.896   1.791  0.1906 -0.4694  0.0522
 2932TIP3    H1 8760   3.108   2.956   1.716  1.8381 -2.2084 -1.5133
 2932TIP3    H2 8761   3.186   2.925   1.842 -0.3119  0.0889  0.4833
 2933TIP3   OH2 8762   0.879   3.300   3.339  0.1397 -0.2693  0.7192
 2933TIP3    H1 8763   0.953   3.280   3.281 -0.4564  0.2714 -0.2658
 2933TIP3    H2 8764   0.902   3.383   3.380  0.0984 -0.1090  0.4247
 2934TIP3   OH2 8765   4.325   3.948   5.561 -0.5062  0.4526  0.2308
 2934TIP3    H1 8766   4.285   3.921   5.479 -1.9767 -0.4031  1.1903
 2934TIP3    H2 8767   4.384   3.876   5.584 -0.6221  0.3660  0.2613
 2935TIP3   OH2 8768   4.050   2.777   5.190 -0.2119 -0.5605 -0.2361
 2935TIP3    H1 8769   4.018   2.696   5.230 -2.0657 -0.1363 -0.7335
 2935TIP3    H2 8770   4.043   2.762   5.096 -0.6095  0.1692 -0.3347
 2936TIP3   OH2 8771   6.641   5.714   2.925 -0.4725 -0.1892 -0.2993
 2936TIP3    H1 8772   6.547   5.728   2.914 -0.4574 -0.9503 -1.5495
 2936TIP3    H2 8773   6.676   5.718   2.836  0.4690 -1.3167  0.0013
 2937TIP3   OH2 8774   4.240   0.412   4.076  0.1342 -0.1020 -0.0557
 2937TIP3    H1 8775   4.207   0.331   4.037 -0.2733 -0.0262  0.1247
 2937TIP3    H2 8776   4.172   0.439   4.137 -0.5255  1.2745 -1.3358
 2938TIP3   OH2 8777   1.939   3.106   0.193  0.3880  0.0972  0.3674
 2938TIP3    H1 8778   1.875   3.088   0.263  1.2212 -0.1535  1.0894
 2938TIP3    H2 8779   1.943   3.201   0.188 -0.3219  0.1168  0.0452
 2939TIP3   OH2 8780   6.118   4.004   5.131  0.2145  0.0230 -0.3794
 2939TIP3    H1 8781   6.115   4.095   5.162 -1.2172 -0.0253 -0.3091
 2939TIP3    H2 8782   6.207   3.976   5.149  0.3551  1.0492  0.6859
 2940TIP3   OH2 8783   4.983   1.883   0.086  0.1694  0.3017  0.2282
 2940TIP3    H1 8784   5.005   1.791   0.098  1.5190  0.3313 -1.6781
 2940TIP3    H2 8785   5.019   1.927   0.163  0.8263 -0.5550  0.4182
 2941TIP3   OH2 8786   6.726   1.940   2.492 -0.7165 -0.4210  0.3064
 2941TIP3    H1 8787   6.653   2.001   2.505 -0.7091 -0.6785  1.7766
 2941TIP3    H2 8788   6.781   1.952   2.569  1.5417  0.7049 -1.3803
 2942TIP3   OH2 8789   6.198   6.503   3.505 -0.7818  0.4953 -0.2085
 2942TIP3    H1 8790   6.228   6.564   3.572  0.1051  0.3051 -0.4234
 2942TIP3    H2 8791   6.271   6.496   3.444 -2.3248  2.4388 -2.4975
 2943TIP3   OH2 8792   2.656   2.545   2.605  0.3955 -0.2898  0.7085
 2943TIP3    H1 8793   2.647   2.517   2.514 -1.6708  2.2763 -0.0067
 2943TIP3    H2 8794   2.571   2.583   2.627  0.7500 -0.9915  3.8366
 2944TIP3   OH2 8795   0.107   2.347   4.085  0.0256  0.1567 -0.6461
 2944TIP3    H1 8796   0.074   2.259   4.103  1.4176 -0.5678 -1.4355
 2944TIP3    H2 8797   0.185   2.355   4.140  0.5848  0.4073 -1.4474
 2945TIP3   OH2 8798   1.351   2.272   1.032  0.8311 -0.1192 -0.4145
 2945TIP3    H1 8799   1.390   2.360   1.040 -0.6399  0.4629  1.2366
 2945TIP3    H2 8800   1.356   2.237   1.121  0.1307 -1.1502 -0.7751
 2946TIP3   OH2 8801   0.121   5.067   3.734  0.4047  0.5750  0.4127
 2946TIP3    H1 8802   0.184   5.107   3.674  1.4962 -0.3662  0.8865
 2946TIP3    H2 8803   0.135   5.114   3.817 -0.2807  1.0808  0.2521
 2947TIP3   OH2 8804   4.164   5.310   3.624  0.0771 -0.3041 -0.0641
 2947TIP3    H1 8805   4.133   5.383   3.571  2.3379 -0.1410 -1.2774
 2947TIP3    H2 8806   4.210   5.253   3.563  0.3382 -1.5742  1.2496
 2948TIP3   OH2 8807   4.227   2.811   2.279 -0.2312 -0.5683  0.2186
 2948TIP3    H1 8808   4.228   2.738   2.341 -0.0833 -0.4622  0.3417
 2948TIP3    H2 8809   4.319   2.826   2.258 -0.1407  0.4492  1.2163
 2949TIP3   OH2 8810   4.367   0.670   1.978 -0.4193  0.1935  1.0358
 2949TIP3    H1 8811   4.363   0.691   1.884 -0.5430 -1.5774  0.6034
 2949TIP3    H2 8812   4.328   0.583   1.984 -0.6109  0.3752  2.7842
 2950TIP3   OH2 8813   3.516   2.413   3.575  0.4210  0.6527  0.0210
 2950TIP3    H1 8814   3.520   2.319   3.558 -2.0235 -0.0190  2.4915
 2950TIP3    H2 8815   3.481   2.451   3.494  1.3975 -0.5066 -0.9811
 2951TIP3   OH2 8816   0.905   0.203   1.355  0.4463  0.5387 -0.2511
 2951TIP3    H1 8817   0.905   0.163   1.268  1.0731 -0.4645  0.1917
 2951TIP3    H2 8818   0.997   0.224   1.372  0.4581 -0.1306  0.5446
 2952TIP3   OH2 8819   2.739   3.355   3.072 -0.1892  0.4080 -0.0066
 2952TIP3    H1 8820   2.732   3.434   3.019  0.9842 -0.1202 -1.0067
 2952TIP3    H2 8821   2.690   3.375   3.152 -0.2801  1.9744 -0.4201
 2953TIP3   OH2 8822   2.555   5.688   3.787 -0.4719  0.1265 -0.4318
 2953TIP3    H1 8823   2.513   5.658   3.706 -1.8659  0.0799  0.2916
 2953TIP3    H2 8824   2.563   5.783   3.775  0.1510  0.0184 -0.9799
 2954TIP3   OH2 8825   4.982   2.126   1.202  0.4729  0.3162 -0.0737
 2954TIP3    H1 8826   5.047   2.136   1.132  0.3915  0.4288 -0.1325
 2954TIP3    H2 8827   5.027   2.073   1.268  1.1502  1.6345  0.5605
 2955TIP3   OH2 8828   1.026   2.877   5.657  0.1293 -0.3620 -0.4876
 2955TIP3    H1 8829   0.960   2.872   5.726  1.1629 -0.8274  0.4949
 2955TIP3    H2 8830   1.001   2.809   5.595 -0.4497 -0.3681 -0.2550
 2956TIP3   OH2 8831   3.901   6.418   4.680  0.9216 -0.3955  0.4800
 2956TIP3    H1 8832   3.898   6.353   4.610  0.7704 -1.5392  1.5197
 2956TIP3    H2 8833   3.928   6.499   4.636  1.4140 -1.2165 -0.7895
 2957TIP3   OH2 8834   3.930   4.163   0.417  0.0418 -0.5722  0.0891
 2957TIP3    H1 8835   3.936   4.071   0.393  1.1721 -0.4358 -0.2211
 2957TIP3    H2 8836   3.856   4.167   0.478 -1.0840 -1.3979 -1.1607
 2958TIP3   OH2 8837   7.207   4.237   1.940  0.6214 -0.0390 -0.2280
 2958TIP3    H1 8838   7.128   4.285   1.964 -0.6928 -2.1988  0.0535
 2958TIP3    H2 8839   7.254   4.226   2.022  1.0178  0.8876 -0.3242
 2959TIP3   OH2 8840   5.923   6.322   2.998  0.0458 -0.0022  0.2807
 2959TIP3    H1 8841   5.955   6.391   2.941 -0.7002  0.5486  0.5015
 2959TIP3    H2 8842   5.979   6.326   3.075 -0.0372  0.4071  0.3197
 2960TIP3   OH2 8843   3.772   2.053   0.164  0.3576  0.1288 -0.0938
 2960TIP3    H1 8844   3.699   2.100   0.124 -0.1235  0.0109  0.6253
 2960TIP3    H2 8845   3.779   1.972   0.114 -0.0510  0.1150 -0.1358
 2961TIP3   OH2 8846   3.061   1.670   0.704  0.7475 -0.6276 -0.3411
 2961TIP3    H1 8847   3.146   1.670   0.660  1.3994 -1.3070  0.8454
 2961TIP3    H2 8848   3.001   1.635   0.639  0.9951  1.5341 -1.8128
 2962TIP3   OH2 8849   6.319   1.380   4.806  0.3402  0.2597 -0.1796
 2962TIP3    H1 8850   6.395   1.367   4.750  0.1385  1.5502 -0.7838
 2962TIP3    H2 8851   6.263   1.303   4.789  0.4144  0.4922 -1.5428
 2963TIP3   OH2 8852   0.815   4.231   3.836 -0.1783 -0.0752 -0.2050
 2963TIP3    H1 8853   0.824   4.322   3.807 -2.9679  0.2972 -0.1773
 2963TIP3    H2 8854   0.834   4.235   3.930 -1.2267  0.7265  0.0020
 2964TIP3   OH2 8855   4.835   1.974   3.930  0.3036 -0.0221 -0.6863
 2964TIP3    H1 8856   4.743   1.950   3.923  0.5554 -0.9291 -1.1075
 2964TIP3    H2 8857   4.835   2.069   3.942 -0.7137 -0.1049  0.1100
 2965TIP3   OH2 8858   0.481   0.092   1.871 -0.8326  0.1639  0.6233
 2965TIP3    H1 8859   0.570   0.097   1.835 -0.7598  1.0442  0.8974
 2965TIP3    H2 8860   0.429   0.149   1.814 -0.9319  0.7398  1.2819
 2966TIP3   OH2 8861   2.973   2.487   1.671  0.5127  0.0804 -0.1006
 2966TIP3    H1 8862   2.918   2.536   1.610 -1.1050 -0.4079  0.8941
 2966TIP3    H2 8863   2.981   2.543   1.748  1.7438  0.2957 -0.3600
 2967TIP3   OH2 8864   1.169   1.841   0.278 -0.0710  0.2661 -0.4179
 2967TIP3    H1 8865   1.152   1.875   0.191  0.9980 -1.2142 -1.2547
 2967TIP3    H2 8866   1.238   1.898   0.314  0.5398 -0.0058 -1.1417
 2968TIP3   OH2 8867   2.867   5.728   2.729 -0.0175  0.0223  0.0525
 2968TIP3    H1 8868   2.941   5.760   2.678 -0.0166  3.1225  1.8095
 2968TIP3    H2 8869   2.840   5.802   2.783 -3.7783 -1.2599  0.2673
 2969TIP3   OH2 8870   7.077   3.249   0.340 -0.0600 -0.3037 -0.1534
 2969TIP3    H1 8871   7.127   3.183   0.292 -0.2078 -0.0400 -0.6770
 2969TIP3    H2 8872   6.989   3.244   0.304 -0.0549  0.2260 -0.2455
 2970TIP3   OH2 8873   2.641   4.018   0.344 -0.1177  0.3840  0.4378
 2970TIP3    H1 8874   2.574   4.006   0.412 -0.8375  1.9378  0.0464
 2970TIP3    H2 8875   2.595   4.062   0.272  1.0423  0.3490 -0.3555
 2971TIP3   OH2 8876   5.820   4.276   3.422 -0.5615  0.4096 -0.2155
 2971TIP3    H1 8877   5.812   4.251   3.514  0.3206  1.7549  0.2545
 2971TIP3    H2 8878   5.796   4.369   3.420  2.4290  1.2653 -0.7690
 2972TIP3   OH2 8879   5.701   6.715   2.025 -0.5302  0.0451  0.4868
 2972TIP3    H1 8880   5.735   6.713   2.114 -0.7121 -1.5029  0.5417
 2972TIP3    H2 8881   5.654   6.633   2.015 -0.6406  0.2580 -0.9927
 2973TIP3   OH2 8882   4.050   5.481   1.716  0.3486  0.0221  0.1047
 2973TIP3    H1 8883   3.977   5.536   1.687 -1.2593 -1.7466  0.5752
 2973TIP3    H2 8884   4.050   5.406   1.656 -0.4934 -1.7149  2.1337
 2974TIP3   OH2 8885   4.580   6.770   2.617 -0.1949  0.3104  0.4551
 2974TIP3    H1 8886   4.535   6.732   2.540 -1.2244  1.1144  0.6341
 2974TIP3    H2 8887   4.566   6.864   2.608  1.1330  0.5509  0.7570
 2975TIP3   OH2 8888   6.479   5.197   1.047 -0.1277 -0.6602  0.1560
 2975TIP3    H1 8889   6.557   5.250   1.065  0.1913 -0.6553 -1.1315
 2975TIP3    H2 8890   6.435   5.190   1.132  0.4958  0.5800  0.6168
 2976TIP3   OH2 8891   4.925   6.706   1.123 -0.4012  0.4404  0.2137
 2976TIP3    H1 8892   4.852   6.723   1.183 -0.5876 -0.8133  0.3592
 2976TIP3    H2 8893   4.889   6.646   1.058  0.0453  1.1245 -0.6932
 2977TIP3   OH2 8894   3.279   0.281   0.276  0.3529  0.8453 -0.3803
 2977TIP3    H1 8895   3.303   0.333   0.200  0.7891 -1.1394 -1.6688
 2977TIP3    H2 8896   3.320   0.196   0.261 -0.7757 -0.0653  1.3591
 2978TIP3   OH2 8897   3.220   2.196   3.860  0.3145  0.1107  0.0324
 2978TIP3    H1 8898   3.161   2.267   3.836 -0.4146 -0.3065  0.5625
 2978TIP3    H2 8899   3.283   2.235   3.920 -0.1154  0.2970  0.3601
 2979TIP3   OH2 8900   2.377   5.576   0.602  0.3845  0.3850  0.3001
 2979TIP3    H1 8901   2.310   5.629   0.558 -2.3344 -1.8944  1.3743
 2979TIP3    H2 8902   2.415   5.523   0.533 -0.0931  0.5587 -0.1004
 2980TIP3   OH2 8903   7.165   5.907   1.904  0.1244  0.0565 -0.1742
 2980TIP3    H1 8904   7.163   5.965   1.980 -0.2610  1.2272 -1.0424
 2980TIP3    H2 8905   7.150   5.965   1.829 -0.8965 -1.2597 -1.0363
 2981TIP3   OH2 8906   3.886   3.787   1.492  0.0153  0.3615  0.2523
 2981TIP3    H1 8907   3.853   3.781   1.582 -0.5313 -2.7772 -0.0304
 2981TIP3    H2 8908   3.841   3.863   1.455 -1.3645  0.4774  2.0268
 2982TIP3   OH2 8909   4.713   5.323   5.465  0.3735 -0.4654  0.1581
 2982TIP3    H1 8910   4.659   5.392   5.426  0.6265 -1.5350 -2.2320
 2982TIP3    H2 8911   4.783   5.371   5.510  0.2941  0.8765 -1.0771
 2983TIP3   OH2 8912   4.682   5.400   1.230  0.3037  0.2589  0.5988
 2983TIP3    H1 8913   4.668   5.352   1.148  0.7432  1.2925 -0.1045
 2983TIP3    H2 8914   4.772   5.432   1.224  0.4120  0.1624  1.5928
 2984TIP3   OH2 8915   5.833   0.216   3.095  0.1972 -0.1178 -0.3600
 2984TIP3    H1 8916   5.772   0.288   3.114  0.4336  0.2164 -0.8606
 2984TIP3    H2 8917   5.817   0.153   3.165  0.1773  0.5455  0.2495
 2985TIP3   OH2 8918   0.721   3.651   5.775  0.1941  0.0087  0.5467
 2985TIP3    H1 8919   0.707   3.635   5.682 -0.7923  0.9602  0.5125
 2985TIP3    H2 8920   0.775   3.730   5.778 -2.5762  2.0241  0.7627
 2986TIP3   OH2 8921   7.186   3.171   3.984  0.4002  0.1519  0.8262
 2986TIP3    H1 8922   7.136   3.135   3.911  2.3759  1.3383 -1.2557
 2986TIP3    H2 8923   7.258   3.109   3.996  0.5040  0.3553  1.2733
 2987TIP3   OH2 8924   0.763   4.274   4.375 -0.6025  0.0777 -0.2375
 2987TIP3    H1 8925   0.801   4.356   4.407  0.0359 -0.7498  1.2221
 2987TIP3    H2 8926   0.796   4.207   4.435 -1.2097 -1.2435 -1.3210
 2988TIP3   OH2 8927   2.782   3.416   1.618  0.2659 -0.0630 -0.8170
 2988TIP3    H1 8928   2.876   3.432   1.628  0.0799  0.6620 -0.1247
 2988TIP3    H2 8929   2.751   3.401   1.708 -0.3503  0.1323 -0.9920
 2989TIP3   OH2 8930   4.018   5.734   1.130  0.5421 -0.5819  0.1497
 2989TIP3    H1 8931   4.049   5.823   1.149  0.8392 -0.7457  0.4299
 2989TIP3    H2 8932   4.059   5.711   1.047 -1.0076  0.2603 -0.9207
 2990TIP3   OH2 8933   5.810   6.152   1.213 -0.8137  0.1244  0.1879
 2990TIP3    H1 8934   5.885   6.208   1.234 -0.4680  0.0125 -0.7092
 2990TIP3    H2 8935   5.736   6.212   1.210 -0.6157  0.3723  0.2221
 2991TIP3   OH2 8936   6.994   1.070   1.300 -0.5165 -0.5714  0.3700
 2991TIP3    H1 8937   7.006   1.144   1.360 -0.3704 -0.7084  0.5108
 2991TIP3    H2 8938   6.901   1.049   1.306 -0.8722  0.5422 -0.7764
 2992TIP3   OH2 8939   6.800   6.043   5.511 -0.0653  0.0043  0.8326
 2992TIP3    H1 8940   6.796   6.068   5.419 -0.5155  1.0325  1.1238
 2992TIP3    H2 8941   6.793   5.947   5.510  0.0673  0.0016 -0.2052
 2993TIP3   OH2 8942   2.841   4.831   4.507  0.1749  0.3765  0.0719
 2993TIP3    H1 8943   2.895   4.752   4.516  0.3722  0.2548 -1.7359
 2993TIP3    H2 8944   2.892   4.887   4.448 -0.5577  1.3275  0.3260
 2994TIP3   OH2 8945   2.093   5.044   1.357 -0.0684  0.3958  0.3464
 2994TIP3    H1 8946   2.039   4.975   1.395  1.4297 -2.4069 -2.2082
 2994TIP3    H2 8947   2.075   5.040   1.263  1.5460  2.1711 -0.1028
 2995TIP3   OH2 8948   2.967   1.645   1.954  0.3360 -0.3323  0.0106
 2995TIP3    H1 8949   3.027   1.681   2.020 -0.1995 -0.2009  0.4288
 2995TIP3    H2 8950   2.921   1.575   1.999  0.3720 -0.6245 -0.3970
 2996TIP3   OH2 8951   2.537   6.572   0.326  0.5675 -0.4841  0.7799
 2996TIP3    H1 8952   2.581   6.657   0.333 -0.4717  0.1392 -0.0324
 2996TIP3    H2 8953   2.607   6.510   0.306  1.3140  0.1971  1.2436
 2997TIP3   OH2 8954   4.311   2.438   5.649 -0.3424 -0.4295 -0.5228
 2997TIP3    H1 8955   4.255   2.452   5.725  1.3522 -2.5198  1.2659
 2997TIP3    H2 8956   4.396   2.476   5.674  0.0297 -0.4360 -1.7012
 2998TIP3   OH2 8957   2.304   4.481   0.664  1.1050  0.5414 -0.1541
 2998TIP3    H1 8958   2.298   4.524   0.749 -0.8332  2.1075 -1.0000
 2998TIP3    H2 8959   2.217   4.446   0.648  1.8577 -1.1050 -0.8502
 2999TIP3   OH2 8960   0.254   6.451   0.518 -0.1492 -0.1082  0.5558
 2999TIP3    H1 8961   0.263   6.367   0.564 -1.0410 -0.9143 -0.7032
 2999TIP3    H2 8962   0.195   6.433   0.445  1.3211  1.0949 -1.0225
 3000TIP3   OH2 8963   4.447   0.276   3.735  0.4608  0.1905  0.2942
 3000TIP3    H1 8964   4.536   0.287   3.703  0.2595 -0.1878 -0.4137
 3000TIP3    H2 8965   4.456   0.225   3.815  0.7058 -2.2546 -1.2054
 3001TIP3   OH2 8966   6.655   3.254   3.374  0.6717  0.9539 -0.8181
 3001TIP3    H1 8967   6.628   3.250   3.466  1.2761 -0.6662 -0.6755
 3001TIP3    H2 8968   6.575   3.235   3.325  0.6938  0.0934 -0.5426
 3002TIP3   OH2 8969   0.320   2.511   3.400 -0.0394  0.4615  0.2036
 3002TIP3    H1 8970   0.297   2.420   3.417 -1.0016  0.5818 -0.3823
 3002TIP3    H2 8971   0.406   2.522   3.441  0.5556 -0.9888 -0.5966
 3003TIP3   OH2 8972   2.876   4.444   3.158  0.1131  0.2279 -0.7673
 3003TIP3    H1 8973   2.940   4.512   3.137  0.6080 -0.5990 -2.0019
 3003TIP3    H2 8974   2.818   4.442   3.082  0.9603 -1.6974 -1.4166
 3004TIP3   OH2 8975   7.154   1.438   0.502 -0.2048  0.0516 -0.6181
 3004TIP3    H1 8976   7.223   1.500   0.481  0.2123 -0.2684 -0.2194
 3004TIP3    H2 8977   7.184   1.355   0.465 -1.4125  0.3453 -2.4193
 3005TIP3   OH2 8978   0.175   4.197   2.147  0.2838 -0.2169  0.6687
 3005TIP3    H1 8979   0.239   4.242   2.092  0.4597 -1.1208  0.1041
 3005TIP3    H2 8980   0.194   4.225   2.236 -0.3655  1.7220  0.2381
 3006TIP3   OH2 8981   0.565   6.241   1.358  0.3771 -0.8573  0.2124
 3006TIP3    H1 8982   0.507   6.262   1.432  0.3394  1.1301 -0.3154
 3006TIP3    H2 8983   0.647   6.215   1.399 -0.1850 -1.5037  0.9585
 3007TIP3   OH2 8984   5.982   3.211   3.554  0.1590  0.1651  0.2305
 3007TIP3    H1 8985   6.038   3.274   3.601  0.8906  0.0422 -0.4618
 3007TIP3    H2 8986   5.991   3.235   3.462 -1.4957  0.5918  0.1438
 3008TIP3   OH2 8987   1.051   1.943   5.461  0.3807  0.3073 -0.1816
 3008TIP3    H1 8988   1.046   1.944   5.365 -0.4506 -0.6314 -0.1605
 3008TIP3    H2 8989   1.123   2.004   5.481  2.9012 -1.9659 -1.5542
 3009TIP3   OH2 8990   5.361   3.033   4.697  0.2698 -0.5682  0.2149
 3009TIP3    H1 8991   5.355   3.038   4.602  2.1169  0.1733  0.1057
 3009TIP3    H2 8992   5.369   2.939   4.716 -1.8301 -0.8734 -0.1913
 3010TIP3   OH2 8993   0.908   3.819   3.777 -0.3321 -0.0147  0.4740
 3010TIP3    H1 8994   0.842   3.858   3.834  0.3587 -1.1462  2.1268
 3010TIP3    H2 8995   0.873   3.733   3.755 -1.4601  1.0869 -2.4584
 3011TIP3   OH2 8996   2.096   6.227   1.262 -0.0191 -0.6017 -0.3489
 3011TIP3    H1 8997   2.140   6.254   1.181 -0.2662 -1.0341 -0.6309
 3011TIP3    H2 8998   2.132   6.285   1.329  0.0266 -0.0899 -0.8077
 3012TIP3   OH2 8999   3.994   0.289   2.290  0.1060 -0.0810  0.3414
 3012TIP3    H1 9000   4.041   0.227   2.235 -0.9687 -1.8667  1.3412
 3012TIP3    H2 9001   4.020   0.267   2.379  1.5486  2.5238  0.6730
 3013TIP3   OH2 9002   6.357   2.116   1.043 -0.0989  0.2437  0.9725
 3013TIP3    H1 9003   6.319   2.048   1.098  1.4323 -0.1163  1.6056
 3013TIP3    H2 9004   6.410   2.069   0.978  0.1149  0.7829  0.7443
 3014TIP3   OH2 9005   2.971   2.855   5.150  0.1105  0.7384 -0.2328
 3014TIP3    H1 9006   2.927   2.798   5.087  0.1149 -1.1985  1.3845
 3014TIP3    H2 9007   3.025   2.913   5.097 -1.5471  0.6757 -2.0780
 3015TIP3   OH2 9008   3.353   2.152   3.527  0.3537 -0.0248 -0.3333
 3015TIP3    H1 9009   3.359   2.097   3.449 -1.2659 -0.8861  0.0959
 3015TIP3    H2 9010   3.265   2.190   3.522 -0.9798 -2.3598  2.4322
 3016TIP3   OH2 9011   1.164   4.073   2.096  0.0892  0.0174  0.3474
 3016TIP3    H1 9012   1.238   4.054   2.154  0.4500 -0.4888 -0.2529
 3016TIP3    H2 9013   1.193   4.148   2.044 -0.5862  1.0303  1.4245
 3017TIP3   OH2 9014   2.972   6.241   1.198 -0.9518 -0.0872 -0.2986
 3017TIP3    H1 9015   2.959   6.277   1.111 -0.3262 -0.5105 -0.5786
 3017TIP3    H2 9016   3.063   6.263   1.219 -0.5271 -1.5272 -0.5042
 3018TIP3   OH2 9017   5.206   4.391   0.439 -0.6689  0.0791  0.0297
 3018TIP3    H1 9018   5.231   4.448   0.512  1.3167  1.5939 -1.7068
 3018TIP3    H2 9019   5.285   4.341   0.421 -1.3292 -0.7168 -0.6957
 3019TIP3   OH2 9020   4.338   3.297   4.697 -0.8973 -0.6614  0.3115
 3019TIP3    H1 9021   4.321   3.329   4.608 -0.4415 -1.5100 -0.0828
 3019TIP3    H2 9022   4.253   3.263   4.726 -1.4812  1.1273  0.8602
 3020TIP3   OH2 9023   6.282   5.092   2.304 -0.3182  0.0630 -0.6638
 3020TIP3    H1 9024   6.364   5.140   2.297  0.6635 -1.5065 -0.4759
 3020TIP3    H2 9025   6.268   5.080   2.399 -1.0972  0.8477 -0.6685
 3021TIP3   OH2 9026   3.137   4.641   1.976  0.2246 -0.3454  0.1451
 3021TIP3    H1 9027   3.165   4.709   1.916  0.0038  0.2983  0.7616
 3021TIP3    H2 9028   3.120   4.686   2.059  2.1190 -1.4406  1.2004
 3022TIP3   OH2 9029   3.526   1.176   4.525 -0.4393  0.3214 -0.8000
 3022TIP3    H1 9030   3.515   1.231   4.603  1.2270 -0.6714  0.2090
 3022TIP3    H2 9031   3.617   1.146   4.530 -1.9156 -4.8683  0.3740
 3023TIP3   OH2 9032   0.008   4.232   4.199  0.3377  0.0757 -0.5153
 3023TIP3    H1 9033   0.017   4.299   4.266 -2.7457 -0.3104  0.4237
 3023TIP3    H2 9034   0.018   4.149   4.246  0.7698 -0.1774 -1.0409
 3024TIP3   OH2 9035   6.294   2.455   2.713 -0.1242 -0.2875 -0.2429
 3024TIP3    H1 9036   6.277   2.406   2.632  1.2666  0.0572 -0.7740
 3024TIP3    H2 9037   6.238   2.532   2.706 -0.8311 -0.8011 -0.3518
 3025TIP3   OH2 9038   2.978   2.910   2.908  0.4380  0.1568  0.1497
 3025TIP3    H1 9039   2.937   2.971   2.970  1.9810 -0.1302  1.5374
 3025TIP3    H2 9040   2.997   2.964   2.831 -0.1635  0.9087  0.5132
 3026TIP3   OH2 9041   5.156   2.044   3.619 -0.2770 -0.4239 -0.5612
 3026TIP3    H1 9042   5.138   2.015   3.708  1.6542  0.6030  0.2348
 3026TIP3    H2 9043   5.088   2.108   3.600 -0.9228 -0.9294  0.0305
 3027TIP3   OH2 9044   6.138   4.644   4.724  0.1430  0.0360  0.3169
 3027TIP3    H1 9045   6.100   4.589   4.793 -0.0107  0.4012  0.5231
 3027TIP3    H2 9046   6.084   4.723   4.723 -1.0091 -0.6956 -1.4407
 3028TIP3   OH2 9047   6.947   3.148   2.233  0.1482 -0.0086 -0.2690
 3028TIP3    H1 9048   6.852   3.148   2.220  0.0942 -0.9390  0.0957
 3028TIP3    H2 9049   6.967   3.238   2.260 -0.3232  0.8028 -2.3516
 3029TIP3   OH2 9050   5.275   3.127   0.484 -1.1043  0.1506 -0.5689
 3029TIP3    H1 9051   5.179   3.131   0.488 -1.2491 -1.8969 -1.0419
 3029TIP3    H2 9052   5.294   3.039   0.452  0.9824  0.0805  0.7224
 3030TIP3   OH2 9053   1.409   4.319   0.845 -0.0942 -0.2968  0.4056
 3030TIP3    H1 9054   1.342   4.254   0.822  1.1839 -1.9752  1.1834
 3030TIP3    H2 9055   1.448   4.345   0.761 -2.0096  1.1181 -0.1112
 3031TIP3   OH2 9056   0.039   2.681   1.878  0.1759  0.0276 -0.3964
 3031TIP3    H1 9057   0.001   2.627   1.809  0.1899 -0.5514  0.0369
 3031TIP3    H2 9058   0.075   2.757   1.833 -0.2656 -0.0972 -0.9665
 3032TIP3   OH2 9059   0.059   5.416   4.663 -0.1719 -0.0238  0.0111
 3032TIP3    H1 9060  -0.018   5.469   4.643 -0.0890  0.8499  1.8655
 3032TIP3    H2 9061   0.049   5.390   4.754  0.5069 -2.0446 -0.4243
 3033TIP3   OH2 9062   3.179   4.812   2.568  0.6684  0.4637  0.3565
 3033TIP3    H1 9063   3.193   4.790   2.476 -0.4855 -0.0013  0.2734
 3033TIP3    H2 9064   3.152   4.904   2.568  2.6920  1.0957  0.4411
 3034TIP3   OH2 9065   5.361   4.600   5.578  0.0293 -0.1168 -0.2390
 3034TIP3    H1 9066   5.390   4.652   5.653 -5.1241  1.6439  0.9887
 3034TIP3    H2 9067   5.347   4.664   5.508  0.8227 -1.1075 -1.3401
 3035TIP3   OH2 9068   3.907   0.942   2.856  0.2805 -0.6232 -0.1358
 3035TIP3    H1 9069   3.848   0.879   2.814  0.6323 -0.1742 -1.3520
 3035TIP3    H2 9070   3.904   1.019   2.799 -0.3435  0.5799  1.4601
 3036TIP3   OH2 9071   5.637   1.271   2.415 -0.3496 -0.1392  0.2617
 3036TIP3    H1 9072   5.564   1.209   2.416 -2.3923  2.1019 -0.8374
 3036TIP3    H2 9073   5.601   1.350   2.374  2.4916  1.3499  0.4062
 3037TIP3   OH2 9074   6.688   3.329   0.044 -0.0454  0.5124  0.1364
 3037TIP3    H1 9075   6.659   3.414   0.012 -1.3339  0.7280  1.7396
 3037TIP3    H2 9076   6.619   3.268   0.018  0.5531  0.0606 -0.4319
 3038TIP3   OH2 9077   3.872   2.968   1.335  0.0441 -0.0859  0.4495
 3038TIP3    H1 9078   3.804   2.978   1.269  0.5608  0.2885 -0.0348
 3038TIP3    H2 9079   3.928   3.045   1.324  0.9775 -0.7611  0.3386
 3039TIP3   OH2 9080   3.160   2.703   1.254  0.1277  0.1965  0.2181
 3039TIP3    H1 9081   3.144   2.783   1.204 -1.9279 -0.9016 -1.0354
 3039TIP3    H2 9082   3.238   2.665   1.215  0.5574  1.0836  0.1857
 3040TIP3   OH2 9083   5.047   5.057   1.815 -0.0758 -0.0363 -0.0692
 3040TIP3    H1 9084   5.037   4.962   1.813  0.0354 -0.0793  0.8923
 3040TIP3    H2 9085   4.987   5.086   1.884  0.5094  0.5073  0.2187
 3041TIP3   OH2 9086   3.919   6.108   5.461 -0.0279 -0.1493  0.0680
 3041TIP3    H1 9087   3.849   6.043   5.457  1.3431 -1.6635  0.1660
 3041TIP3    H2 9088   3.902   6.156   5.542 -1.1553 -0.2346 -0.0990
 3042TIP3   OH2 9089   4.660   5.411   4.457 -0.4226 -0.1578 -0.0810
 3042TIP3    H1 9090   4.664   5.441   4.366 -0.5773 -0.9463 -0.3483
 3042TIP3    H2 9091   4.732   5.459   4.500  0.0352 -0.2294 -0.7470
 3043TIP3   OH2 9092   1.724   0.475   0.968  0.4906 -0.4815  0.0629
 3043TIP3    H1 9093   1.647   0.532   0.970  0.2787 -0.7146 -0.9344
 3043TIP3    H2 9094   1.780   0.508   1.039 -0.1407  0.2363  0.2398
 3044TIP3   OH2 9095   2.484   0.381   4.657  0.0556 -0.2682  0.1140
 3044TIP3    H1 9096   2.543   0.316   4.696 -1.0588 -1.8692 -0.7977
 3044TIP3    H2 9097   2.427   0.407   4.729 -1.1605 -2.2648 -0.0413
 3045TIP3   OH2 9098   0.842   1.404   3.442  0.2725  0.1380  0.3968
 3045TIP3    H1 9099   0.762   1.382   3.490  0.2235  0.2037  0.3459
 3045TIP3    H2 9100   0.912   1.387   3.505  0.1867  0.5412  0.6069
 3046TIP3   OH2 9101   3.001   4.942   1.465 -0.3016  0.0772  0.1870
 3046TIP3    H1 9102   3.039   4.946   1.377 -0.4545  1.4645  0.1614
 3046TIP3    H2 9103   3.061   4.993   1.520 -0.8341  0.2295  0.6401
 3047TIP3   OH2 9104   2.659   1.290   0.758 -0.4041 -0.0764 -0.4232
 3047TIP3    H1 9105   2.672   1.246   0.674  1.4617 -1.0470  0.2985
 3047TIP3    H2 9106   2.584   1.347   0.745 -3.0705 -3.4824 -1.4584
 3048TIP3   OH2 9107   2.515   2.545   0.161 -0.2630 -0.5506 -0.2856
 3048TIP3    H1 9108   2.566   2.464   0.161 -0.5866 -0.7616  0.0314
 3048TIP3    H2 9109   2.570   2.609   0.117  0.1517 -0.8475 -0.2004
 3049TIP3   OH2 9110   4.962   2.365   3.105 -0.1894  0.2731 -0.0711
 3049TIP3    H1 9111   5.033   2.346   3.167 -1.3226 -1.2141  0.8432
 3049TIP3    H2 9112   5.004   2.360   3.019  0.6284 -1.7822  0.3847
 3050TIP3   OH2 9113   0.178   1.563   2.861  0.1042 -0.2861  0.4844
 3050TIP3    H1 9114   0.209   1.601   2.778  1.0782  2.0496  1.8341
 3050TIP3    H2 9115   0.230   1.483   2.870 -0.7455 -1.1577 -1.5980
 3051TIP3   OH2 9116   4.252   4.653   2.154  0.3665  0.2210  0.1501
 3051TIP3    H1 9117   4.328   4.697   2.115 -0.3970  2.3208  0.9153
 3051TIP3    H2 9118   4.290   4.595   2.220  1.3837  0.1146 -0.5044
 3052TIP3   OH2 9119   6.178   6.197   2.927  0.2341  0.0296 -0.5299
 3052TIP3    H1 9120   6.087   6.181   2.951 -0.3355  3.1578 -0.1155
 3052TIP3    H2 9121   6.173   6.233   2.838  0.8711  1.5937  0.0390
 3053TIP3   OH2 9122   3.088   1.394   4.022 -0.6232 -0.1522 -0.2978
 3053TIP3    H1 9123   3.042   1.357   3.947 -0.7154  0.3123 -0.4791
 3053TIP3    H2 9124   3.105   1.485   3.997 -1.2204  0.1864  0.5020
 3054TIP3   OH2 9125   4.294   6.134   2.997 -0.1934 -0.4070 -0.0338
 3054TIP3    H1 9126   4.301   6.220   3.039 -2.1664 -0.4381  0.4608
 3054TIP3    H2 9127   4.302   6.152   2.904 -1.0440  0.4115  0.0299
 3055TIP3   OH2 9128   5.256   0.118   4.693 -0.2718  0.3576 -0.1533
 3055TIP3    H1 9129   5.197   0.079   4.629  0.7790  0.3889 -1.1751
 3055TIP3    H2 9130   5.291   0.196   4.650 -0.5539  1.1461  0.9805
 3056TIP3   OH2 9131   6.268   1.869   3.176 -0.1181 -0.0450 -0.1736
 3056TIP3    H1 9132   6.195   1.928   3.162 -0.9839 -1.1774 -0.6411
 3056TIP3    H2 9133   6.300   1.849   3.088  1.8491  1.6820  0.0534
 3057TIP3   OH2 9134   5.030   4.129   3.287  0.3946 -0.0856  0.6839
 3057TIP3    H1 9135   4.944   4.171   3.282 -0.0915 -0.7451  2.5677
 3057TIP3    H2 9136   5.012   4.040   3.317  1.5501 -1.1842 -1.6265
 3058TIP3   OH2 9137   7.036   6.218   5.595  0.2326  0.2811 -0.3477
 3058TIP3    H1 9138   7.048   6.130   5.631 -0.5007 -0.4145 -1.7355
 3058TIP3    H2 9139   6.945   6.220   5.567 -0.1325  1.9404  0.7895
 3059TIP3   OH2 9140   2.996   0.659   3.993 -0.2277 -0.1055 -0.0194
 3059TIP3    H1 9141   2.913   0.642   3.949 -0.0943 -1.9095  0.3563
 3059TIP3    H2 9142   3.060   0.607   3.945 -0.0394 -1.9898  2.0910
 3060TIP3   OH2 9143   2.698   1.927   4.368  0.9409  0.2759 -0.1507
 3060TIP3    H1 9144   2.608   1.958   4.382 -0.0153 -1.2892 -2.1450
 3060TIP3    H2 9145   2.724   1.890   4.452 -0.8334 -0.4070  0.1491
 3061TIP3   OH2 9146   0.723   5.798   2.968  0.1691 -0.4992 -0.1099
 3061TIP3    H1 9147   0.761   5.884   2.983  1.4564 -1.2709  1.2718
 3061TIP3    H2 9148   0.691   5.801   2.877  1.4878  0.9423 -0.5593
 3062TIP3   OH2 9149   4.733   1.262   1.642  0.2328  0.1840 -0.0197
 3062TIP3    H1 9150   4.783   1.184   1.619  0.6036  0.8153 -1.5135
 3062TIP3    H2 9151   4.671   1.233   1.709 -0.3320 -1.6326 -1.2478
 3063TIP3   OH2 9152   3.648   0.325   4.973 -0.3909 -0.3535  0.6575
 3063TIP3    H1 9153   3.626   0.280   4.891 -1.6005  1.1307  0.1274
 3063TIP3    H2 9154   3.577   0.387   4.986  1.0596  1.1941  1.5436
 3064TIP3   OH2 9155   0.286   4.581   4.103 -0.1512  0.4435  0.3615
 3064TIP3    H1 9156   0.294   4.531   4.022  0.2600 -0.0870  0.7186
 3064TIP3    H2 9157   0.262   4.669   4.075 -0.3803  0.1713 -0.3108
 3065TIP3   OH2 9158   4.740   5.406   1.801  0.1730 -0.2291  0.3287
 3065TIP3    H1 9159   4.735   5.498   1.777  1.0511 -0.0997  0.5902
 3065TIP3    H2 9160   4.677   5.362   1.743  1.5541  0.1853 -1.5996
 3066TIP3   OH2 9161   1.105   4.729   1.275  1.2161 -0.6169 -0.5156
 3066TIP3    H1 9162   1.121   4.684   1.358  0.6795 -1.4156 -0.8340
 3066TIP3    H2 9163   1.141   4.817   1.289 -0.6404 -0.0477  1.2825
 3067TIP3   OH2 9164   2.440   2.567   1.179 -0.2506  0.0002  0.1613
 3067TIP3    H1 9165   2.493   2.642   1.154 -0.9600 -0.1192 -1.8600
 3067TIP3    H2 9166   2.395   2.595   1.259 -1.3370  2.1830 -1.1034
 3068TIP3   OH2 9167   3.634   0.322   1.627 -0.2409 -0.1049  0.2338
 3068TIP3    H1 9168   3.720   0.359   1.606 -0.4567 -0.2805 -1.0675
 3068TIP3    H2 9169   3.578   0.399   1.640 -0.6466  0.1238 -2.2888
 3069TIP3   OH2 9170   3.627   2.060   1.144  0.0381 -0.1549  0.1078
 3069TIP3    H1 9171   3.535   2.062   1.119 -0.4086  0.5780  1.6728
 3069TIP3    H2 9172   3.654   2.151   1.144  0.9808 -0.4155 -1.0211
 3070TIP3   OH2 9173   3.691   2.007   2.485 -0.1495  0.2444  0.2851
 3070TIP3    H1 9174   3.611   1.998   2.433 -0.4973  1.0485  0.6662
 3070TIP3    H2 9175   3.757   1.960   2.435 -1.2871 -2.2215  0.9664
 3071TIP3   OH2 9176   4.374   2.782   5.837 -0.5920  0.0265  0.1574
 3071TIP3    H1 9177   4.281   2.759   5.837 -0.9885  1.5083  1.0735
 3071TIP3    H2 9178   4.390   2.818   5.924  0.5418  0.9362 -0.4005
 3072TIP3   OH2 9179   2.642   5.924   5.693  0.0145 -0.0393  0.7708
 3072TIP3    H1 9180   2.569   5.979   5.665 -1.1675 -2.3020 -0.9392
 3072TIP3    H2 9181   2.720   5.970   5.663 -0.9385  0.6269 -0.7862
 3073TIP3   OH2 9182   3.629   1.594   2.042 -0.8394  0.1713  0.1970
 3073TIP3    H1 9183   3.642   1.499   2.039  0.0149  0.1798  2.1740
 3073TIP3    H2 9184   3.699   1.630   1.988 -0.8910 -0.2823 -0.1812
 3074TIP3   OH2 9185   2.115   3.489   2.412 -0.0059 -0.5019  0.1551
 3074TIP3    H1 9186   2.050   3.419   2.414 -0.3112 -0.3771 -2.0962
 3074TIP3    H2 9187   2.064   3.570   2.411  0.2797 -0.3086  0.8269
 3075TIP3   OH2 9188   3.542   6.461   1.647  0.4968  0.8334  0.5263
 3075TIP3    H1 9189   3.483   6.396   1.686  0.9384  1.0059  1.5109
 3075TIP3    H2 9190   3.630   6.429   1.669  0.8889 -0.3409 -2.3740
 3076TIP3   OH2 9191   6.985   1.622   5.527 -0.2737 -0.2378  0.0370
 3076TIP3    H1 9192   6.917   1.672   5.483 -0.8067 -0.3151  0.7472
 3076TIP3    H2 9193   7.028   1.686   5.584 -1.7123 -0.7710  1.8231
 3077TIP3   OH2 9194   5.361   4.737   1.185  0.1475 -0.2710  0.4612
 3077TIP3    H1 9195   5.442   4.724   1.235  0.4109 -1.9865 -0.3220
 3077TIP3    H2 9196   5.368   4.826   1.151  1.4238 -0.1700  0.9237
 3078TIP3   OH2 9197   3.384   3.561   5.358  0.0943 -0.0936 -0.2033
 3078TIP3    H1 9198   3.420   3.509   5.285  1.1706  0.3685 -0.0257
 3078TIP3    H2 9199   3.321   3.620   5.316  2.2464  1.6711 -1.1592
 3079TIP3   OH2 9200   0.629   6.765   2.749  0.2436 -0.8503 -0.2521
 3079TIP3    H1 9201   0.704   6.793   2.801 -0.0433 -1.6791  0.6405
 3079TIP3    H2 9202   0.650   6.791   2.659 -0.0156  2.2091  0.4805
 3080TIP3   OH2 9203   0.070   4.681   0.768  0.1613  0.0374 -0.4113
 3080TIP3    H1 9204   0.101   4.649   0.684 -0.1909 -0.5575 -0.3215
 3080TIP3    H2 9205  -0.006   4.735   0.748  0.0750 -0.1084 -0.4791
 3081TIP3   OH2 9206   2.178   0.483   2.205 -0.8202  0.4629  0.8046
 3081TIP3    H1 9207   2.247   0.548   2.195  0.9279 -1.4159 -0.1855
 3081TIP3    H2 9208   2.114   0.524   2.263  0.6967  2.6282  1.0499
 3082TIP3   OH2 9209   5.647   1.069   5.587  0.0421  0.3820 -0.5169
 3082TIP3    H1 9210   5.631   1.027   5.672 -1.8974  1.1159 -0.4591
 3082TIP3    H2 9211   5.643   0.998   5.523  0.4428 -0.0289 -0.0894
 3083TIP3   OH2 9212   1.171   0.990   3.939 -0.1847  0.7715  0.0483
 3083TIP3    H1 9213   1.265   0.974   3.928 -0.5988 -1.6768 -0.5264
 3083TIP3    H2 9214   1.151   0.958   4.026 -0.6284  0.5412 -0.1371
 3084TIP3   OH2 9215   3.040   5.773   4.576 -0.0819 -0.2630  0.5611
 3084TIP3    H1 9216   2.960   5.817   4.547  0.5823  0.2125 -0.5944
 3084TIP3    H2 9217   3.080   5.835   4.637  0.6185  0.5854 -0.7156
 3085TIP3   OH2 9218   6.578   0.178   2.717 -0.4821 -0.3057  0.1511
 3085TIP3    H1 9219   6.649   0.219   2.767  1.2757 -1.2138 -1.4615
 3085TIP3    H2 9220   6.506   0.240   2.722  0.3759  0.6407  1.9156
 3086TIP3   OH2 9221   5.439   2.384   2.176  0.1601  0.4421  0.0738
 3086TIP3    H1 9222   5.386   2.460   2.198 -0.1587  0.3803 -0.4581
 3086TIP3    H2 9223   5.475   2.354   2.260 -0.0708  0.9096  0.3418
 3087TIP3   OH2 9224   0.099   0.057   0.372  0.4697  0.3419  0.0696
 3087TIP3    H1 9225   0.057  -0.030   0.377  1.0700  0.0004 -0.6876
 3087TIP3    H2 9226   0.073   0.100   0.453  1.1681 -1.0011  1.0361
 3088TIP3   OH2 9227   6.683   1.787   3.896  0.7839  0.1144 -0.4795
 3088TIP3    H1 9228   6.588   1.791   3.907  0.8236 -0.4764  0.0740
 3088TIP3    H2 9229   6.696   1.718   3.831  0.8359  0.2784 -0.6465
 3089TIP3   OH2 9230   5.003   1.182   3.548  0.7086 -0.4017  0.0308
 3089TIP3    H1 9231   4.909   1.167   3.540  0.8270 -0.7851 -0.7773
 3089TIP3    H2 9232   5.038   1.099   3.582  0.9377 -0.8110 -1.1594
 3090TIP3   OH2 9233   6.028   5.150   3.012  0.1123 -0.1597  0.0535
 3090TIP3    H1 9234   5.994   5.094   3.082 -0.3087 -1.0827 -0.8602
 3090TIP3    H2 9235   6.123   5.147   3.021  0.0586 -0.3268  0.5455
 3091TIP3   OH2 9236   6.620   5.243   4.013 -0.5739  0.2933 -0.1965
 3091TIP3    H1 9237   6.710   5.215   3.992  0.0089  2.5692 -1.0126
 3091TIP3    H2 9238   6.575   5.162   4.035  2.0567 -0.8216  1.7531
 3092TIP3   OH2 9239   2.362   2.853   5.633 -0.1187 -0.1958  0.0005
 3092TIP3    H1 9240   2.322   2.873   5.718 -0.6637  1.0826 -0.5304
 3092TIP3    H2 9241   2.439   2.800   5.654 -0.6437 -0.4883  1.2367
 3093TIP3   OH2 9242   2.308   2.470   5.096  0.0480 -0.3312  0.0321
 3093TIP3    H1 9243   2.282   2.541   5.155  2.2826  1.1444 -0.6233
 3093TIP3    H2 9244   2.284   2.501   5.009  3.0622  0.8443 -0.5358
 3094TIP3   OH2 9245   0.994   2.248   3.657  0.1812  0.0474 -0.3248
 3094TIP3    H1 9246   1.001   2.317   3.592  2.2075  0.0197 -0.1930
 3094TIP3    H2 9247   1.009   2.167   3.609 -0.3361 -0.1508 -0.1611
 3095TIP3   OH2 9248   5.409   1.664   2.808 -0.9608 -0.3890 -0.4470
 3095TIP3    H1 9249   5.455   1.602   2.752  1.1093  0.9096 -0.2799
 3095TIP3    H2 9250   5.443   1.647   2.896 -0.6148  0.7373 -0.3523
 3096TIP3   OH2 9251   0.527   5.665   4.145  0.1690  1.0767 -0.3528
 3096TIP3    H1 9252   0.471   5.689   4.219 -0.8810 -1.8746 -0.0391
 3096TIP3    H2 9253   0.465   5.633   4.078  1.3167 -0.7141 -0.6286
 3097TIP3   OH2 9254   3.949   4.269   2.810 -0.0029  0.3425  0.7760
 3097TIP3    H1 9255   3.964   4.222   2.727 -2.4501 -1.5370  1.2866
 3097TIP3    H2 9256   3.925   4.358   2.782 -1.7282 -0.4926 -0.6932
 3098TIP3   OH2 9257   5.601   2.250   1.776  0.3321 -0.6930 -0.0668
 3098TIP3    H1 9258   5.535   2.319   1.764  1.4830  0.2970 -1.0367
 3098TIP3    H2 9259   5.668   2.270   1.710  2.0283 -1.1287  1.4412
 3099TIP3   OH2 9260   0.621   4.321   2.676  0.1467  0.1423 -0.2732
 3099TIP3    H1 9261   0.542   4.375   2.679  0.3034  0.3198  1.1409
 3099TIP3    H2 9262   0.693   4.384   2.672  0.2597 -0.0139 -0.9482
 3100TIP3   OH2 9263   2.090   2.979   0.680 -0.3168  0.0671 -0.0093
 3100TIP3    H1 9264   2.007   2.979   0.633 -0.7255  0.7537  0.6922
 3100TIP3    H2 9265   2.098   2.890   0.714  0.0309 -0.4678 -1.4346
 3101TIP3   OH2 9266   3.492   3.505   2.767 -0.3134 -0.4954 -0.1894
 3101TIP3    H1 9267   3.562   3.479   2.707 -1.4131 -2.5055 -0.6747
 3101TIP3    H2 9268   3.440   3.426   2.780 -2.2339  0.8111  0.5361
 3102TIP3   OH2 9269   4.285   1.491   4.924  0.6768 -0.5174  0.0733
 3102TIP3    H1 9270   4.306   1.422   4.987 -1.1328 -1.1424  0.0441
 3102TIP3    H2 9271   4.327   1.463   4.843  0.5443 -1.2392  0.2463
 3103TIP3   OH2 9272   5.165   2.075   1.838  0.0542  0.4117 -0.2245
 3103TIP3    H1 9273   5.238   2.115   1.886  2.0219  1.6364 -3.9040
 3103TIP3    H2 9274   5.174   1.981   1.855  1.2815  0.7086  0.9297
 3104TIP3   OH2 9275   6.339   4.689   0.707  0.2226  0.0384 -0.3306
 3104TIP3    H1 9276   6.374   4.773   0.675  0.8595 -0.2295 -0.3588
 3104TIP3    H2 9277   6.416   4.634   0.717 -0.2449 -0.7098 -0.7849
 3105TIP3   OH2 9278   2.538   0.335   2.719  0.1737 -0.1814 -0.6682
 3105TIP3    H1 9279   2.453   0.310   2.684 -0.0229 -0.5929  0.0829
 3105TIP3    H2 9280   2.566   0.409   2.664 -0.7406  0.0773 -0.8025
 3106TIP3   OH2 9281   3.288   0.440   3.433 -0.2629 -0.6665 -0.2262
 3106TIP3    H1 9282   3.269   0.347   3.442  0.8031 -0.7729  1.0564
 3106TIP3    H2 9283   3.257   0.480   3.514 -1.6727  0.2979 -1.1780
 3107TIP3   OH2 9284   0.863   1.862   4.174 -0.1220  0.0081 -0.1395
 3107TIP3    H1 9285   0.781   1.847   4.126  0.7170 -0.3265 -1.4896
 3107TIP3    H2 9286   0.931   1.822   4.120  0.7593 -1.2584  1.7932
 3108TIP3   OH2 9287   1.487   1.964   3.048  0.0968 -0.2618  0.5250
 3108TIP3    H1 9288   1.575   1.969   3.085 -0.0816  0.6668  0.8441
 3108TIP3    H2 9289   1.482   2.037   2.986 -0.5361 -0.1346  0.7116
 3109TIP3   OH2 9290   0.684   2.202   0.277 -0.4412  0.0518 -0.4653
 3109TIP3    H1 9291   0.597   2.206   0.238 -0.3345  2.0194 -0.6130
 3109TIP3    H2 9292   0.740   2.252   0.217  0.9363 -1.6464 -0.6680
 3110TIP3   OH2 9293   4.062   1.436   5.157 -0.2101 -0.1284 -0.2147
 3110TIP3    H1 9294   4.121   1.467   5.225 -1.2705 -0.1387  0.7355
 3110TIP3    H2 9295   4.056   1.509   5.095 -0.4204  0.4664  0.4971
 3111TIP3   OH2 9296   2.856   4.227   3.518 -0.0312  0.3479  0.4033
 3111TIP3    H1 9297   2.943   4.195   3.494 -0.0845  0.1210  0.5054
 3111TIP3    H2 9298   2.860   4.321   3.503 -0.2534  0.1432 -1.0796
 3112TIP3   OH2 9299   0.544   2.220   4.672 -0.3290 -0.2214 -0.3999
 3112TIP3    H1 9300   0.495   2.208   4.591 -0.1955 -1.4310 -0.3180
 3112TIP3    H2 9301   0.629   2.180   4.655 -0.4903 -0.9905  0.5141
 3113TIP3   OH2 9302   6.855   1.806   4.913  0.0913 -0.1017 -0.0268
 3113TIP3    H1 9303   6.912   1.882   4.904 -1.2247  0.8037 -1.1161
 3113TIP3    H2 9304   6.848   1.771   4.824 -2.1248  0.6587 -0.2128
 3114TIP3   OH2 9305   4.061   6.508   2.920 -0.5551 -0.0191 -0.6144
 3114TIP3    H1 9306   3.998   6.556   2.866  1.7301  1.8009 -1.8911
 3114TIP3    H2 9307   4.074   6.563   2.997  0.9613  0.7324 -1.3651
 3115TIP3   OH2 9308   4.140   0.519   0.389 -0.3532 -0.0138 -0.2020
 3115TIP3    H1 9309   4.053   0.547   0.359 -1.0352 -0.4099  1.3356
 3115TIP3    H2 9310   4.125   0.483   0.476  1.4171  0.2387  0.2410
 3116TIP3   OH2 9311   6.938   0.205   5.731 -0.1140 -0.9089  0.2597
 3116TIP3    H1 9312   7.002   0.135   5.742 -1.6053 -2.1173  1.6616
 3116TIP3    H2 9313   6.947   0.259   5.809 -0.0355 -0.3836 -0.0993
 3117TIP3   OH2 9314   0.300   5.587   2.384 -0.0305 -0.0173 -0.6040
 3117TIP3    H1 9315   0.262   5.500   2.373 -0.4013  0.0536  0.0377
 3117TIP3    H2 9316   0.241   5.630   2.446  0.8093  0.2866 -0.0118
 3118TIP3   OH2 9317   1.355   5.053   2.188  0.4645  0.2238 -0.0634
 3118TIP3    H1 9318   1.300   5.057   2.267  0.5526 -1.3383  0.1054
 3118TIP3    H2 9319   1.395   5.140   2.183  1.0521  0.1497  2.0533
 3119TIP3   OH2 9320   2.781   6.353   3.793 -0.0445 -0.4101  0.8374
 3119TIP3    H1 9321   2.686   6.364   3.795  0.1008  0.9805  1.6757
 3119TIP3    H2 9322   2.806   6.347   3.885  0.6850 -0.6847  0.6229
 3120TIP3   OH2 9323   6.275   2.114   5.718 -0.1813  0.4102  0.0660
 3120TIP3    H1 9324   6.320   2.078   5.794 -0.8087  1.3154  0.8848
 3120TIP3    H2 9325   6.182   2.115   5.743 -0.8210 -1.9187 -1.7671
 3121TIP3   OH2 9326   2.322   6.156   3.645 -0.1709 -0.6284  0.0277
 3121TIP3    H1 9327   2.300   6.221   3.579  0.6803 -0.8515 -0.4977
 3121TIP3    H2 9328   2.243   6.148   3.699 -0.3182  0.7372  0.0329
 3122TIP3   OH2 9329   4.302   5.796   0.761 -0.6357 -0.7146 -0.4507
 3122TIP3    H1 9330   4.342   5.785   0.674 -1.0817 -3.2510 -0.4097
 3122TIP3    H2 9331   4.362   5.856   0.806  0.9268 -1.2094 -1.7275
 3123TIP3   OH2 9332   3.550   5.725   1.653 -0.5725  0.0658  0.3641
 3123TIP3    H1 9333   3.533   5.791   1.586 -1.4811  0.2199  0.7311
 3123TIP3    H2 9334   3.618   5.670   1.616  0.7405  1.6412  0.3440
 3124TIP3   OH2 9335   2.593   4.756   1.712 -0.9651 -0.2987 -0.1043
 3124TIP3    H1 9336   2.499   4.775   1.715 -0.7871  0.9137 -1.1605
 3124TIP3    H2 9337   2.625   4.807   1.637  1.1334  2.1267  2.2393
 3125TIP3   OH2 9338   4.565   3.673   3.873 -0.1880 -0.2294  0.1971
 3125TIP3    H1 9339   4.547   3.582   3.850  0.6104 -0.1040 -1.0154
 3125TIP3    H2 9340   4.546   3.679   3.967  1.1409 -2.0150  0.6273
 3126TIP3   OH2 9341   6.164   2.453   2.202 -0.5998  0.0357 -0.1128
 3126TIP3    H1 9342   6.084   2.425   2.157 -0.2286 -2.0630  0.4422
 3126TIP3    H2 9343   6.206   2.512   2.140 -1.4417 -0.6524 -1.3928
 3127TIP3   OH2 9344   1.237   0.466   0.221  0.3577 -0.0642 -0.1270
 3127TIP3    H1 9345   1.181   0.543   0.230 -1.3737 -1.3166  0.2924
 3127TIP3    H2 9346   1.185   0.404   0.169  1.3188 -1.3082  0.3341
 3128TIP3   OH2 9347   4.491   3.762   0.418  0.5883  0.0759  0.6760
 3128TIP3    H1 9348   4.421   3.826   0.430 -1.1373 -1.3242 -1.2925
 3128TIP3    H2 9349   4.458   3.682   0.460 -1.3454 -2.0399 -4.1368
 3129TIP3   OH2 9350   6.947   6.072   3.230  0.6023  0.3692 -0.0184
 3129TIP3    H1 9351   6.911   6.022   3.157  1.7313  0.0947 -0.4099
 3129TIP3    H2 9352   6.881   6.064   3.299 -0.0471 -0.1620 -0.6748
 3130TIP3   OH2 9353   3.440   5.780   2.945 -0.0009  0.4325  0.4120
 3130TIP3    H1 9354   3.510   5.839   2.974  0.2203  0.4527 -0.1510
 3130TIP3    H2 9355   3.477   5.692   2.954  1.0051  0.5128 -2.1159
 3131TIP3   OH2 9356   0.256   0.726   0.395 -0.2030 -0.4802  0.0613
 3131TIP3    H1 9357   0.284   0.732   0.304  0.4374  0.5715  0.3098
 3131TIP3    H2 9358   0.197   0.650   0.397  0.1440 -0.8042 -1.1198
 3132TIP3   OH2 9359   5.927   6.452   0.852  0.4022 -0.1338 -0.4351
 3132TIP3    H1 9360   5.832   6.466   0.853  0.5227  0.7514 -0.0084
 3132TIP3    H2 9361   5.937   6.357   0.847 -0.4924 -0.1633 -2.6001
 3133TIP3   OH2 9362   1.828   1.067   0.300  0.9970  0.2206 -0.4025
 3133TIP3    H1 9363   1.765   1.051   0.229  1.1943  0.4137 -0.6211
 3133TIP3    H2 9364   1.844   1.161   0.297  0.3864  0.3644  0.4231
 3134TIP3   OH2 9365   1.389   1.236   3.126 -0.8030 -0.2908 -0.2429
 3134TIP3    H1 9366   1.416   1.166   3.186  1.5788  1.7522  1.2558
 3134TIP3    H2 9367   1.429   1.212   3.042 -0.2432 -0.8849  0.1833
 3135TIP3   OH2 9368   3.947   2.850   4.233 -0.5527  0.5233 -0.3716
 3135TIP3    H1 9369   3.859   2.817   4.253  0.0974 -0.1862  1.5812
 3135TIP3    H2 9370   3.966   2.815   4.146 -1.4266 -0.9985  0.0110
 3136TIP3   OH2 9371   3.972   3.825   1.040  0.0032  0.4870 -0.0137
 3136TIP3    H1 9372   3.951   3.785   0.956  0.0047 -0.1324  0.2798
 3136TIP3    H2 9373   3.887   3.847   1.078 -0.0680 -0.5026  0.4332
 3137TIP3   OH2 9374   5.276   0.257   1.679  0.6248 -0.4374 -0.0380
 3137TIP3    H1 9375   5.349   0.293   1.629 -0.0913 -0.1133 -0.8724
 3137TIP3    H2 9376   5.198   0.284   1.630 -0.0760 -0.3946  1.0790
 3138TIP3   OH2 9377   6.698   4.004   5.003 -0.3349 -0.5232  0.2600
 3138TIP3    H1 9378   6.777   4.058   5.012 -0.3805 -0.4212  0.0385
 3138TIP3    H2 9379   6.697   3.978   4.910 -1.1711  0.3945  0.0035
 3139TIP3   OH2 9380   4.325   3.753   4.129 -0.7473 -0.7815  0.2647
 3139TIP3    H1 9381   4.269   3.720   4.058 -0.0759 -0.8831 -0.2370
 3139TIP3    H2 9382   4.307   3.846   4.132 -0.8048 -0.7809 -0.0236
 3140TIP3   OH2 9383   4.339   1.142   2.313 -0.1329 -0.5509  0.2090
 3140TIP3    H1 9384   4.343   1.048   2.300  1.0572 -0.5054  0.1523
 3140TIP3    H2 9385   4.246   1.161   2.327 -0.5026 -1.5951 -0.7331
 3141TIP3   OH2 9386   6.870   0.055   3.732 -0.4204 -0.3362 -0.0571
 3141TIP3    H1 9387   6.906   0.108   3.661 -0.0862  0.6179  0.8038
 3141TIP3    H2 9388   6.917   0.084   3.810 -0.4834 -1.6629  0.4996
 3142TIP3   OH2 9389   3.846   3.604   2.127  0.2997  0.5099 -0.1680
 3142TIP3    H1 9390   3.915   3.573   2.070 -1.6521 -1.7636 -1.4930
 3142TIP3    H2 9391   3.853   3.550   2.206 -0.1383  0.0302 -0.4495
 3143TIP3   OH2 9392   6.001   3.352   1.868  0.1013 -0.0926 -0.1867
 3143TIP3    H1 9393   5.945   3.319   1.798 -0.3791 -2.2410  1.1353
 3143TIP3    H2 9394   5.941   3.376   1.938  0.7010 -1.0136  0.6793
 3144TIP3   OH2 9395   0.620   5.226   5.523 -0.4763  0.2308  0.2890
 3144TIP3    H1 9396   0.714   5.210   5.511 -0.5474 -0.5795  0.7236
 3144TIP3    H2 9397   0.604   5.309   5.479  0.9120  1.6470  2.2921
 3145TIP3   OH2 9398   6.329   5.074   1.846 -0.2058 -0.1139 -0.0923
 3145TIP3    H1 9399   6.325   5.164   1.814  0.9491 -1.3243 -4.2306
 3145TIP3    H2 9400   6.241   5.057   1.882 -0.7629  2.2862 -0.1921
 3146TIP3   OH2 9401   4.766   6.034   1.903  0.0270 -0.2909 -0.2178
 3146TIP3    H1 9402   4.840   6.065   1.850 -0.0411 -0.0010 -0.1475
 3146TIP3    H2 9403   4.744   6.109   1.958 -1.4145  0.2270 -1.4136
 3147TIP3   OH2 9404   1.488   4.063   0.131 -0.3330  0.3210 -0.4556
 3147TIP3    H1 9405   1.555   4.007   0.092 -0.6723 -0.9107  0.6727
 3147TIP3    H2 9406   1.442   4.102   0.057  0.5206 -0.1656 -1.2472
 3148TIP3   OH2 9407   0.861   1.664   5.237  0.5972 -0.7960 -0.1631
 3148TIP3    H1 9408   0.776   1.638   5.201  1.3686 -1.9930 -1.2201
 3148TIP3    H2 9409   0.858   1.634   5.328  0.4735 -2.3614 -0.6484
 3149TIP3   OH2 9410   2.876   6.770   4.064 -0.5364 -0.0734 -0.3735
 3149TIP3    H1 9411   2.830   6.842   4.107 -0.6975 -0.9612  1.0179
 3149TIP3    H2 9412   2.827   6.754   3.983 -1.0692  0.7355 -0.2170
 3150TIP3   OH2 9413   6.920   1.712   3.334  0.0090 -0.1063  0.1504
 3150TIP3    H1 9414   6.852   1.771   3.302  1.9134  1.7412 -0.7080
 3150TIP3    H2 9415   6.927   1.732   3.427 -0.1594  0.1855  0.1020
 3151TIP3   OH2 9416   5.307   3.067   2.693  0.4142  0.1846  0.0281
 3151TIP3    H1 9417   5.225   3.114   2.673  1.0210  0.9958 -0.6406
 3151TIP3    H2 9418   5.283   2.975   2.690 -0.5001  0.4122 -0.0728
 3152TIP3   OH2 9419   5.383   3.346   4.210 -0.0060  0.7461 -0.3855
 3152TIP3    H1 9420   5.452   3.337   4.275 -2.4970  0.2994  2.3914
 3152TIP3    H2 9421   5.323   3.411   4.247 -1.3134  0.8180 -2.4636
 3153TIP3   OH2 9422   6.590   2.760   2.640  0.0361  0.7197  0.4653
 3153TIP3    H1 9423   6.672   2.787   2.597  0.5949  0.0094  1.0493
 3153TIP3    H2 9424   6.589   2.665   2.630 -1.9641  0.8810 -1.7098
 3154TIP3   OH2 9425   3.291   3.003   2.951  0.2527 -0.4905 -0.2324
 3154TIP3    H1 9426   3.298   2.946   2.874  2.0579 -0.6080 -0.0113
 3154TIP3    H2 9427   3.210   3.052   2.936  1.0856  0.3079 -2.7715
 3155TIP3   OH2 9428   5.443   1.784   5.425 -0.4167 -0.6057 -0.0378
 3155TIP3    H1 9429   5.491   1.829   5.493  0.0979 -1.0080 -0.1314
 3155TIP3    H2 9430   5.490   1.804   5.344 -1.9130  1.1767 -0.5374
 3156TIP3   OH2 9431   5.826   5.318   1.148 -0.2003 -0.2334 -0.4976
 3156TIP3    H1 9432   5.805   5.325   1.241 -0.5130 -0.0327 -0.5798
 3156TIP3    H2 9433   5.760   5.372   1.104  2.1254  2.8430 -0.5680
 3157TIP3   OH2 9434   3.875   4.203   4.215  0.2155  0.0327 -0.2742
 3157TIP3    H1 9435   3.922   4.282   4.188  1.3497 -0.1254  1.1799
 3157TIP3    H2 9436   3.820   4.232   4.288 -1.1918 -0.0337 -1.2502
 3158TIP3   OH2 9437   5.323   1.813   0.935 -0.0594  0.5805 -1.0030
 3158TIP3    H1 9438   5.417   1.813   0.948  0.1469 -1.6481 -2.0586
 3158TIP3    H2 9439   5.286   1.804   1.024  0.6102  2.9780 -0.4302
 3159TIP3   OH2 9440   5.461   2.639   1.991 -0.2753 -0.0939  0.1742
 3159TIP3    H1 9441   5.450   2.633   2.086  0.6219 -0.4821  0.2648
 3159TIP3    H2 9442   5.530   2.705   1.979 -1.2982  0.9303 -0.2793
 3160TIP3   OH2 9443   7.157   1.180   2.037  0.7579 -0.0286  0.5279
 3160TIP3    H1 9444   7.078   1.165   1.986  0.3598 -0.8630  1.3483
 3160TIP3    H2 9445   7.228   1.144   1.983  0.9434  2.6473 -1.1912
 3161TIP3   OH2 9446   6.951   1.380   1.460 -0.2438  0.9443  0.5732
 3161TIP3    H1 9447   7.010   1.441   1.416 -0.8781  2.2620  1.4585
 3161TIP3    H2 9448   6.989   1.369   1.547  0.6038 -1.0499 -0.0089
 3162TIP3   OH2 9449   0.129   3.954   4.826 -0.0938 -0.0707  0.5272
 3162TIP3    H1 9450   0.185   4.032   4.825 -2.1004  1.4497  1.2905
 3162TIP3    H2 9451   0.190   3.881   4.811  1.8164  1.6337 -0.5197
 3163TIP3   OH2 9452   0.706   4.764   5.716  0.6589 -0.3804  0.5698
 3163TIP3    H1 9453   0.728   4.688   5.769  0.5094 -0.5563  0.3797
 3163TIP3    H2 9454   0.653   4.729   5.644 -0.6389  0.0882  1.2582
 3164TIP3   OH2 9455   6.172   5.730   0.318 -0.0604 -0.5033  0.0945
 3164TIP3    H1 9456   6.175   5.635   0.323 -0.1299 -0.4984  0.2366
 3164TIP3    H2 9457   6.243   5.760   0.375  0.2544 -0.4771 -0.3055
 3165TIP3   OH2 9458   6.403   6.432   2.643  0.8505  0.2746 -0.4175
 3165TIP3    H1 9459   6.482   6.468   2.684  1.6416  0.2031 -1.8482
 3165TIP3    H2 9460   6.339   6.503   2.649  0.6389 -0.0304  1.7176
 3166TIP3   OH2 9461   2.226   5.537   0.034 -0.3096  0.0680 -0.0374
 3166TIP3    H1 9462   2.148   5.482   0.025  1.2333 -1.9958 -1.6142
 3166TIP3    H2 9463   2.194   5.616   0.078 -2.8399 -1.6119  1.4179
 3167TIP3   OH2 9464   6.744   2.635   2.115 -0.2520  0.2117  0.2656
 3167TIP3    H1 9465   6.794   2.642   2.034  1.5583  0.0235  1.3113
 3167TIP3    H2 9466   6.657   2.608   2.087 -0.0098  1.2686 -1.6950
 3168TIP3   OH2 9467   4.304   4.975   3.094  0.0304  0.2058  0.6978
 3168TIP3    H1 9468   4.355   4.938   3.167  0.6886  0.2227  0.2517
 3168TIP3    H2 9469   4.329   5.067   3.091  0.8913 -0.0473 -0.2838
 3169TIP3   OH2 9470   6.442   1.499   3.448  0.0222 -0.6945  0.1600
 3169TIP3    H1 9471   6.406   1.497   3.360  1.2327 -1.9298 -0.3512
 3169TIP3    H2 9472   6.480   1.411   3.461  1.0582 -0.1096  1.3866
 3170TIP3   OH2 9473   6.863   6.449   5.444 -0.7114 -0.2789  0.3309
 3170TIP3    H1 9474   6.885   6.533   5.485  1.1097 -1.0862  1.0921
 3170TIP3    H2 9475   6.803   6.407   5.505 -2.3643  0.8011 -0.4766
 3171TIP3   OH2 9476   4.596   6.334   5.561  0.0624 -0.7362  0.1744
 3171TIP3    H1 9477   4.579   6.250   5.604 -0.1403 -0.2453  1.0893
 3171TIP3    H2 9478   4.509   6.368   5.540  0.0904 -0.3152  0.7046
 3172TIP3   OH2 9479   2.414   6.396   1.157 -0.1378  0.3782 -0.6218
 3172TIP3    H1 9480   2.347   6.442   1.208 -0.1229  0.1426 -0.3882
 3172TIP3    H2 9481   2.408   6.305   1.186  1.1430  0.5754  0.3121
 3173TIP3   OH2 9482   6.580   6.546   4.557 -0.2012 -0.1820  0.3079
 3173TIP3    H1 9483   6.526   6.544   4.478  1.0076 -0.5570 -0.5284
 3173TIP3    H2 9484   6.660   6.592   4.531 -0.9009  2.2527  2.0760
 3174TIP3   OH2 9485   3.250   4.509   3.563  0.1846 -0.2823 -0.4890
 3174TIP3    H1 9486   3.298   4.549   3.635  1.3439 -0.2524 -1.2615
 3174TIP3    H2 9487   3.240   4.417   3.588  0.9471 -0.3609 -0.4695
 3175TIP3   OH2 9488   1.780   2.826   3.789  0.0479 -0.0736  0.3400
 3175TIP3    H1 9489   1.833   2.795   3.863 -0.2770 -1.0182  0.1859
 3175TIP3    H2 9490   1.841   2.824   3.715 -0.2526 -1.4100  0.1098
 3176TIP3   OH2 9491   5.345   6.386   1.146 -0.7160 -0.2603 -0.1165
 3176TIP3    H1 9492   5.347   6.364   1.053 -0.2195  0.9273 -0.4033
 3176TIP3    H2 9493   5.299   6.470   1.150  1.4407  0.9510  0.4111
 3177TIP3   OH2 9494   0.937   4.065   4.999 -0.0514 -0.3074  0.1805
 3177TIP3    H1 9495   0.859   4.030   5.041 -0.4728 -1.0894 -1.1830
 3177TIP3    H2 9496   0.922   4.160   4.996 -1.9599 -0.5772 -1.8674
 3178TIP3   OH2 9497   2.901   5.771   3.728  0.1882  0.0172  0.1020
 3178TIP3    H1 9498   2.820   5.819   3.706  1.7197  2.6303 -0.2691
 3178TIP3    H2 9499   2.921   5.722   3.648  0.7582  2.1288 -1.1300
 3179TIP3   OH2 9500   7.010   1.069   4.988 -0.1198 -0.3062 -0.3192
 3179TIP3    H1 9501   7.032   1.126   4.915 -0.1672  0.3369  0.1681
 3179TIP3    H2 9502   6.921   1.040   4.969  0.8332 -2.4610 -2.0002
 3180TIP3   OH2 9503   0.452   2.093   3.493 -0.2838  0.2288 -0.5087
 3180TIP3    H1 9504   0.369   2.120   3.455 -1.0586 -0.7922  0.3738
 3180TIP3    H2 9505   0.427   2.036   3.566  1.1988 -0.3883 -0.4507
 3181TIP3   OH2 9506   1.341   0.541   2.451  0.3483  0.4287  0.0908
 3181TIP3    H1 9507   1.304   0.572   2.368  0.3497 -1.4376 -0.6658
 3181TIP3    H2 9508   1.267   0.501   2.496  0.7745 -0.4670  0.0120
 3182TIP3   OH2 9509   3.010   3.917   3.296 -0.0797 -0.0454  0.2540
 3182TIP3    H1 9510   3.011   3.995   3.351  1.1356 -0.7493  1.2774
 3182TIP3    H2 9511   2.928   3.924   3.246 -1.6482  0.2768  2.6856
 3183TIP3   OH2 9512   0.139   2.809   2.576  0.3847 -0.3500  0.0115
 3183TIP3    H1 9513   0.080   2.742   2.612 -0.2219  0.0196 -0.2730
 3183TIP3    H2 9514   0.225   2.786   2.610  0.1398 -1.1229  0.1362
 3184TIP3   OH2 9515   4.723   4.581   4.106 -0.8089 -0.4060 -0.4680
 3184TIP3    H1 9516   4.734   4.533   4.023  2.7909 -0.5524 -0.0450
 3184TIP3    H2 9517   4.769   4.663   4.093  0.4607 -0.7301  1.5900
 3185TIP3   OH2 9518   4.900   2.767   0.292 -0.0313  0.4605  0.0538
 3185TIP3    H1 9519   4.902   2.820   0.371 -1.8617  2.7982 -1.3520
 3185TIP3    H2 9520   4.819   2.717   0.298  0.7239 -0.7780  0.4431
 3186TIP3   OH2 9521   4.740   1.024   0.964 -0.3754  0.0195 -0.1953
 3186TIP3    H1 9522   4.820   1.004   0.915  0.5073 -0.4560  1.3569
 3186TIP3    H2 9523   4.693   0.941   0.968 -0.1109 -0.1149  0.3038
 3187TIP3   OH2 9524   6.298   6.239   3.903  0.7335 -0.1613 -0.2128
 3187TIP3    H1 9525   6.302   6.313   3.843 -1.4758  0.3961  0.2465
 3187TIP3    H2 9526   6.270   6.165   3.848  0.4628 -0.0691 -0.1983
 3188TIP3   OH2 9527   6.205   4.325   3.020 -0.1338 -0.0281 -0.0647
 3188TIP3    H1 9528   6.193   4.310   2.926 -2.4853 -0.1482  0.2182
 3188TIP3    H2 9529   6.120   4.309   3.059  0.4475  1.3415  1.9428
 3189TIP3   OH2 9530   0.562   2.950   4.336 -0.5648  0.5881  0.3100
 3189TIP3    H1 9531   0.608   2.966   4.254 -1.8845 -1.1311 -0.8563
 3189TIP3    H2 9532   0.631   2.931   4.400  0.4093 -0.1447 -0.9232
 3190TIP3   OH2 9533   4.611   1.684   2.477  0.7321 -0.2005 -0.5463
 3190TIP3    H1 9534   4.612   1.618   2.547 -0.7719 -1.3361 -1.5445
 3190TIP3    H2 9535   4.583   1.636   2.399 -0.2727  1.5963 -1.3453
 3191TIP3   OH2 9536   2.155   4.297   4.603 -0.7342 -0.1976 -0.0440
 3191TIP3    H1 9537   2.189   4.220   4.557 -1.5078  0.5971 -2.0776
 3191TIP3    H2 9538   2.231   4.353   4.616 -0.3191 -0.8991  0.6680
 3192TIP3   OH2 9539   1.834   3.047   5.121 -0.1094 -0.2348  0.3512
 3192TIP3    H1 9540   1.838   2.996   5.202 -1.9643  0.2716  0.8230
 3192TIP3    H2 9541   1.773   3.118   5.141 -1.2618 -0.5567 -1.7396
 3193TIP3   OH2 9542   3.324   6.092   2.308 -0.5707  0.4367 -0.1471
 3193TIP3    H1 9543   3.364   6.063   2.226 -0.1698  0.1825  0.1342
 3193TIP3    H2 9544   3.281   6.175   2.286  1.0005  1.2769 -0.2245
 3194TIP3   OH2 9545   3.164   0.922   0.699  0.3495 -0.2472  0.5102
 3194TIP3    H1 9546   3.192   0.839   0.662  0.6512 -0.4587  1.2026
 3194TIP3    H2 9547   3.068   0.921   0.691  0.4792  0.5137 -1.9201
 3195TIP3   OH2 9548   2.012   4.812   0.130  0.2966  0.3894 -0.2088
 3195TIP3    H1 9549   2.083   4.795   0.068  1.9038 -1.4223  1.9521
 3195TIP3    H2 9550   1.970   4.727   0.141  0.6985  0.4082  1.8635
 3196TIP3   OH2 9551   7.186   0.701   0.232 -0.2743 -0.3855  0.0993
 3196TIP3    H1 9552   7.191   0.793   0.259 -1.9102 -0.1022 -0.4722
 3196TIP3    H2 9553   7.161   0.654   0.311 -0.7442 -0.1522  0.0913
 3197TIP3   OH2 9554   2.372   2.227   0.056 -0.2203  0.6298  0.2801
 3197TIP3    H1 9555   2.467   2.232   0.063  0.0234 -0.5591 -1.4269
 3197TIP3    H2 9556   2.340   2.302   0.105  1.5623  0.6897  1.4472
 3198TIP3   OH2 9557   4.989   5.613   4.650  0.2205  0.0003 -0.4722
 3198TIP3    H1 9558   5.067   5.636   4.700 -0.3240 -1.2357  1.0366
 3198TIP3    H2 9559   4.933   5.568   4.713 -3.0766  3.4014 -0.6328
 3199TIP3   OH2 9560   3.328   0.777   4.671  0.1686 -0.1148  0.3168
 3199TIP3    H1 9561   3.352   0.864   4.704  2.1194 -1.7521  3.6884
 3199TIP3    H2 9562   3.245   0.758   4.715 -0.9954  0.5136 -1.5147
 3200TIP3   OH2 9563   3.355   4.838   0.301  0.0816 -0.0284 -0.5854
 3200TIP3    H1 9564   3.354   4.922   0.256 -1.3005  0.4831  0.3575
 3200TIP3    H2 9565   3.357   4.860   0.394  0.5879 -1.0527 -0.3383
 3201TIP3   OH2 9566   6.249   2.562   4.315 -0.0617  0.7767  0.4815
 3201TIP3    H1 9567   6.286   2.600   4.394 -0.0352 -0.0514  0.8795
 3201TIP3    H2 9568   6.166   2.524   4.343 -0.2918  0.9202  0.0057
 3202TIP3   OH2 9569   6.958   4.538   0.742  0.3778  0.0469  0.2613
 3202TIP3    H1 9570   6.995   4.585   0.667 -1.0458  1.2891  0.2983
 3202TIP3    H2 9571   6.955   4.446   0.713  1.3184  0.2712 -0.5893
 3203TIP3   OH2 9572   0.652   1.608   3.880  0.3768 -0.5043 -0.1160
 3203TIP3    H1 9573   0.580   1.570   3.931  0.5348  0.8902  1.2142
 3203TIP3    H2 9574   0.725   1.549   3.893  0.6167  0.1646  1.9019
 3204TIP3   OH2 9575   1.850   4.772   4.774  0.0265 -0.4231  0.4489
 3204TIP3    H1 9576   1.900   4.783   4.855 -0.7452 -1.1802  1.0429
 3204TIP3    H2 9577   1.772   4.826   4.786  0.1001 -0.2209  0.0364
 3205TIP3   OH2 9578   1.206   6.556   3.315 -0.1131  0.2594 -0.0662
 3205TIP3    H1 9579   1.266   6.500   3.265  0.4973  0.1379  0.7832
 3205TIP3    H2 9580   1.229   6.645   3.290  2.5631  0.4076  2.4964
 3206TIP3   OH2 9581   1.046   4.856   4.324 -0.0888  0.7283  0.0129
 3206TIP3    H1 9582   1.020   4.765   4.312 -1.8899  1.3356 -0.9303
 3206TIP3    H2 9583   1.140   4.851   4.343  0.0972 -1.2347 -1.1537
 3207TIP3   OH2 9584   1.547   2.098   0.152 -0.1483  0.3699  0.3808
 3207TIP3    H1 9585   1.551   2.004   0.170  0.6699 -0.1103 -1.9881
 3207TIP3    H2 9586   1.470   2.128   0.200 -1.2611 -1.7930  0.0922
 3208TIP3   OH2 9587   3.706   0.630   5.592 -0.2991  0.5908 -0.0389
 3208TIP3    H1 9588   3.767   0.702   5.607 -1.5629  1.1604  3.2547
 3208TIP3    H2 9589   3.624   0.660   5.631 -1.5150 -1.7673 -0.6152
 3209TIP3   OH2 9590   4.231   6.746   2.584 -0.5040  0.0918 -0.2337
 3209TIP3    H1 9591   4.203   6.829   2.623 -1.9205 -0.1279 -0.7243
 3209TIP3    H2 9592   4.266   6.771   2.498  0.3675  0.3200  0.1826
 3210TIP3   OH2 9593   2.727   0.586   4.495 -0.0383 -0.0437 -0.9615
 3210TIP3    H1 9594   2.779   0.592   4.414  0.2037 -0.5813 -0.8484
 3210TIP3    H2 9595   2.695   0.496   4.496 -0.3071  0.0549 -0.6157
 3211TIP3   OH2 9596   3.231   1.152   4.537 -0.1785 -0.5740 -0.0354
 3211TIP3    H1 9597   3.175   1.078   4.513 -0.4885 -0.3596  0.0365
 3211TIP3    H2 9598   3.293   1.159   4.464 -0.4128 -0.6381 -0.2387
 3212TIP3   OH2 9599   5.934   3.025   4.948  0.4807  0.7474 -0.2753
 3212TIP3    H1 9600   5.889   3.030   4.864  1.1993 -0.9371 -0.8063
 3212TIP3    H2 9601   5.943   2.931   4.965 -0.0630  1.0254  1.9248
 3213TIP3   OH2 9602   6.222   1.019   1.311 -0.5049  0.4313 -0.2489
 3213TIP3    H1 9603   6.139   1.001   1.355 -0.4494 -2.4429 -1.1529
 3213TIP3    H2 9604   6.288   0.976   1.364 -0.2278 -1.4968 -2.0256
 3214TIP3   OH2 9605   5.080   6.336   5.074  0.0296 -0.4596  0.1425
 3214TIP3    H1 9606   5.009   6.313   5.014 -0.5159  0.3138  0.4764
 3214TIP3    H2 9607   5.128   6.406   5.029  1.6500 -2.0982 -0.8435
 3215TIP3   OH2 9608   1.234   4.958   0.597 -0.2059 -0.3215 -0.4731
 3215TIP3    H1 9609   1.157   4.911   0.562  0.2652 -1.4562 -0.0553
 3215TIP3    H2 9610   1.204   4.993   0.681 -0.7395  0.6629 -1.0583
 3216TIP3   OH2 9611   4.680   4.828   4.728  0.0151  0.3033 -0.2086
 3216TIP3    H1 9612   4.690   4.922   4.714  1.4693  0.3911  1.1593
 3216TIP3    H2 9613   4.713   4.788   4.648  0.4793  0.9277 -0.3366
 3217TIP3   OH2 9614   5.769   2.737   0.080 -0.2560 -0.2558  0.2223
 3217TIP3    H1 9615   5.837   2.709   0.018  1.4966 -0.7312  2.2657
 3217TIP3    H2 9616   5.744   2.656   0.126  0.9348  0.5759  2.4375
 3218TIP3   OH2 9617   5.636   6.611   0.279 -0.0461  0.5885  0.2981
 3218TIP3    H1 9618   5.680   6.543   0.331  0.4561  0.2358 -0.5699
 3218TIP3    H2 9619   5.577   6.563   0.222 -0.3168  0.9489  0.2703
 3219TIP3   OH2 9620   4.082   5.341   1.981 -0.1683 -0.2594  0.1055
 3219TIP3    H1 9621   4.092   5.397   1.903 -1.1708  0.5002  0.4950
 3219TIP3    H2 9622   4.033   5.266   1.949 -1.7235  0.6554  0.2287
 3220TIP3   OH2 9623   3.453   5.075   5.409  0.0327 -0.0325 -0.1734
 3220TIP3    H1 9624   3.516   5.013   5.446 -0.6961 -0.5509  0.2142
 3220TIP3    H2 9625   3.500   5.158   5.407 -0.1049  0.2186  2.6616
 3221TIP3   OH2 9626   3.586   5.455   4.173 -0.9146 -0.3820 -0.1411
 3221TIP3    H1 9627   3.639   5.396   4.120 -0.7790 -0.7920  0.4380
 3221TIP3    H2 9628   3.505   5.466   4.124 -0.4630 -0.0699 -0.8400
 3222TIP3   OH2 9629   3.805   3.525   3.536 -0.4099 -0.2799  0.1357
 3222TIP3    H1 9630   3.873   3.572   3.487  0.6126 -2.4912 -0.7170
 3222TIP3    H2 9631   3.729   3.583   3.535  0.4629  0.8993 -1.7200
 3223TIP3   OH2 9632   5.704   3.334   0.887  0.4252 -0.1420  0.0467
 3223TIP3    H1 9633   5.614   3.306   0.874  1.2053 -1.6741 -3.0495
 3223TIP3    H2 9634   5.753   3.252   0.900  1.7191  0.4004 -1.1412
 3224TIP3   OH2 9635   5.970   5.419   5.797  0.0510 -0.4196 -0.2073
 3224TIP3    H1 9636   6.036   5.436   5.731  1.5455  2.0965  1.7314
 3224TIP3    H2 9637   5.886   5.426   5.750  1.0390 -2.3051 -2.4328
 3225TIP3   OH2 9638   2.145   4.771   4.641 -0.1268 -0.1905 -0.0922
 3225TIP3    H1 9639   2.115   4.755   4.731  2.3155 -3.3201  0.3210
 3225TIP3    H2 9640   2.217   4.833   4.651  0.3158 -0.7397  0.1525
 3226TIP3   OH2 9641   3.149   6.763   3.245  0.1285  0.1212 -0.0087
 3226TIP3    H1 9642   3.137   6.670   3.265 -1.3199  0.5145  1.0467
 3226TIP3    H2 9643   3.178   6.764   3.153  0.2822 -1.3637  0.0035
 3227TIP3   OH2 9644   1.483   0.203   4.793 -0.0228  0.6283 -0.2277
 3227TIP3    H1 9645   1.491   0.258   4.871 -0.7157  1.7115 -0.8908
 3227TIP3    H2 9646   1.562   0.220   4.743  0.2589  0.1965  0.0606
 3228TIP3   OH2 9647   0.223   5.723   1.965  0.7497 -0.1172  0.0727
 3228TIP3    H1 9648   0.182   5.764   1.889 -1.0674  0.2853  1.2072
 3228TIP3    H2 9649   0.178   5.762   2.040  3.3139  0.4231  1.4497
 3229TIP3   OH2 9650   4.435   0.274   0.224  0.4817  0.0829  0.0673
 3229TIP3    H1 9651   4.491   0.311   0.291  0.1068 -2.2595  1.8169
 3229TIP3    H2 9652   4.490   0.207   0.182 -0.2820 -0.7205  0.3170
 3230TIP3   OH2 9653   3.357   6.429   4.432  0.1224  0.0172  0.3272
 3230TIP3    H1 9654   3.431   6.413   4.374  0.1604 -1.0828  0.6693
 3230TIP3    H2 9655   3.395   6.433   4.520  0.0824  1.8028  0.2966
 3231TIP3   OH2 9656   6.975   2.025   1.297 -0.0157  0.7541 -0.0499
 3231TIP3    H1 9657   6.971   2.066   1.384 -3.6149 -1.2396  0.9084
 3231TIP3    H2 9658   6.955   1.933   1.312 -0.3607  0.2467 -2.9738
 3232TIP3   OH2 9659   1.944   2.900   5.799 -0.5154  0.8418 -0.4356
 3232TIP3    H1 9660   1.935   2.808   5.775  0.2991  0.5093  0.4780
 3232TIP3    H2 9661   1.970   2.898   5.891  0.5159  1.9427 -0.6762
 3233TIP3   OH2 9662   5.824   4.183   2.541  0.7007 -0.1545 -0.2359
 3233TIP3    H1 9663   5.804   4.201   2.449  0.3900  0.6060 -0.0262
 3233TIP3    H2 9664   5.813   4.088   2.549  0.2820 -0.1726 -0.8784
 3234TIP3   OH2 9665   0.293   2.345   5.349  0.3898 -0.0453  0.7294
 3234TIP3    H1 9666   0.311   2.289   5.272 -0.9045  1.0467 -0.4183
 3234TIP3    H2 9667   0.200   2.331   5.367  0.6210 -0.0819  1.9779
 3235TIP3   OH2 9668   2.803   3.735   1.021  0.1841 -0.2430  0.1525
 3235TIP3    H1 9669   2.807   3.757   0.928  3.2431 -0.6362  0.1119
 3235TIP3    H2 9670   2.793   3.819   1.065  0.8670  0.1571 -0.4461
 3236TIP3   OH2 9671   2.802   0.947   5.052  0.1558 -0.7841  0.9978
 3236TIP3    H1 9672   2.761   1.025   5.091  1.5347  0.4237  0.1797
 3236TIP3    H2 9673   2.880   0.933   5.106  0.3252 -1.1100  0.6698
 3237TIP3   OH2 9674   4.877   1.145   4.850  0.3806  0.8132  0.0482
 3237TIP3    H1 9675   4.827   1.223   4.827 -0.3499  0.5293  0.6097
 3237TIP3    H2 9676   4.870   1.088   4.773 -0.8823  0.4358  0.4144
 3238TIP3   OH2 9677   4.973   6.278   1.431 -0.2744  0.2492 -1.0224
 3238TIP3    H1 9678   4.994   6.363   1.392 -0.1949  0.2678 -0.9400
 3238TIP3    H2 9679   4.944   6.299   1.520 -2.4238  0.3969 -1.7031
 3239TIP3   OH2 9680   0.263   2.097   0.837 -1.2479  0.4368 -0.0115
 3239TIP3    H1 9681   0.205   2.027   0.866  1.1755 -1.6628  0.0660
 3239TIP3    H2 9682   0.304   2.064   0.758  0.0893  1.7057  0.1073
 3240TIP3   OH2 9683   4.319   4.811   5.877 -0.2746 -0.1147 -0.0277
 3240TIP3    H1 9684   4.224   4.803   5.884 -0.3940 -1.3805 -2.1128
 3240TIP3    H2 9685   4.337   4.903   5.894 -1.9395  0.2495 -0.1040
 3241TIP3   OH2 9686   1.152   1.289   2.377  0.3522  0.0021  0.3050
 3241TIP3    H1 9687   1.121   1.315   2.463 -0.4825  1.2082 -0.3238
 3241TIP3    H2 9688   1.104   1.210   2.356 -1.6545  1.2976 -0.2369
 3242TIP3   OH2 9689   4.166   5.791   2.481  0.2032 -0.2731 -0.0391
 3242TIP3    H1 9690   4.195   5.827   2.565 -1.9969  0.4180  0.4883
 3242TIP3    H2 9691   4.124   5.865   2.437  0.6823 -0.8114 -1.4551
 3243TIP3   OH2 9692   1.838   4.400   2.773 -0.8927  0.3487  0.0259
 3243TIP3    H1 9693   1.925   4.439   2.780 -0.6274 -0.3368  0.7015
 3243TIP3    H2 9694   1.836   4.333   2.841 -1.4671 -0.5427 -0.8309
 3244TIP3   OH2 9695   2.973   5.149   0.452  0.0536  0.0984 -0.1827
 3244TIP3    H1 9696   2.898   5.092   0.436  1.3721 -1.7153 -0.2817
 3244TIP3    H2 9697   3.038   5.122   0.387  0.2965  2.6856 -1.1531
 3245TIP3   OH2 9698   0.353   6.126   1.973 -0.1382  0.0033  0.0562
 3245TIP3    H1 9699   0.418   6.060   1.996 -1.0453 -0.6385  0.8786
 3245TIP3    H2 9700   0.396   6.210   1.987  0.7593 -0.4088 -0.1874
 3246TIP3   OH2 9701   6.878   5.984   1.932 -0.1620 -0.1573  0.2249
 3246TIP3    H1 9702   6.805   6.012   1.988 -0.7780 -0.4900 -0.4082
 3246TIP3    H2 9703   6.954   6.033   1.966 -0.6211 -0.0038  1.0493
 3247TIP3   OH2 9704   3.530   5.558   1.091 -0.1384  0.3135 -0.0964
 3247TIP3    H1 9705   3.580   5.495   1.039 -0.1956  0.5762 -0.4791
 3247TIP3    H2 9706   3.448   5.569   1.042  0.3056  1.4986 -0.6275
 3248TIP3   OH2 9707   0.126   1.880   0.357 -0.1581  0.4921  0.3480
 3248TIP3    H1 9708   0.210   1.925   0.374 -0.4901  1.0103  0.6525
 3248TIP3    H2 9709   0.089   1.928   0.283 -0.3749  0.5311  0.4806
 3249TIP3   OH2 9710   0.854   5.609   1.652  0.6427 -0.6810 -0.3914
 3249TIP3    H1 9711   0.884   5.528   1.693  0.9556 -0.2610  0.2321
 3249TIP3    H2 9712   0.916   5.675   1.683 -0.2579 -0.0060  0.0011
 3250TIP3   OH2 9713   6.854   5.408   5.730 -0.1262 -0.0261  0.2487
 3250TIP3    H1 9714   6.946   5.413   5.752 -0.1366 -1.8577  0.8677
 3250TIP3    H2 9715   6.833   5.494   5.694  2.2543 -0.1053 -1.6273
 3251TIP3   OH2 9716   5.851   2.605   2.265  0.7479 -0.0376 -0.3577
 3251TIP3    H1 9717   5.765   2.563   2.272  0.1841  1.1899  0.6708
 3251TIP3    H2 9718   5.912   2.538   2.295 -0.2533  0.1813  2.5868
 3252TIP3   OH2 9719   2.727   0.323   1.665  0.1313  0.2531 -0.1896
 3252TIP3    H1 9720   2.643   0.341   1.624 -0.7233 -2.7748  0.0079
 3252TIP3    H2 9721   2.749   0.234   1.637  2.0614  0.0481  1.7338
 3253TIP3   OH2 9722   2.698   0.567   3.421  0.1076  1.0160  0.3039
 3253TIP3    H1 9723   2.628   0.616   3.377 -0.3051 -0.3356 -0.5874
 3253TIP3    H2 9724   2.652   0.495   3.465  1.0458 -0.7821 -1.5417
 3254TIP3   OH2 9725   5.044   4.700   1.126 -0.1306  0.0480 -0.0171
 3254TIP3    H1 9726   5.023   4.787   1.091  0.9435  0.3851  0.1197
 3254TIP3    H2 9727   5.053   4.715   1.220 -0.3739 -0.2995  0.0590
 3255TIP3   OH2 9728   3.815   3.990   0.119 -0.3356  0.8443  0.0205
 3255TIP3    H1 9729   3.846   4.080   0.107 -0.9160  0.8211 -2.2995
 3255TIP3    H2 9730   3.721   3.999   0.134 -0.5369  0.6166 -1.0324
 3256TIP3   OH2 9731   7.012   2.192   2.563  0.1534 -0.1665  0.1795
 3256TIP3    H1 9732   6.989   2.194   2.470 -0.7798  0.2046  0.4033
 3256TIP3    H2 9733   6.997   2.101   2.589 -1.2306  0.0758  0.3359
 3257TIP3   OH2 9734   6.847   4.601   2.142 -0.2553 -0.2959  0.1133
 3257TIP3    H1 9735   6.804   4.665   2.085 -1.8647  0.1112  1.6810
 3257TIP3    H2 9736   6.792   4.598   2.220  1.2000 -1.7205  1.1545
 3258TIP3   OH2 9737   5.163   4.865   4.995  0.4097 -0.4568 -0.2881
 3258TIP3    H1 9738   5.211   4.859   4.912  0.9234  0.7906 -0.0931
 3258TIP3    H2 9739   5.156   4.774   5.024  0.4325 -0.8999 -1.5735
 3259TIP3   OH2 9740   5.426   5.457   2.007  0.0695 -0.3813  0.5559
 3259TIP3    H1 9741   5.494   5.408   2.053  0.6534  0.1960  0.3318
 3259TIP3    H2 9742   5.356   5.393   1.991 -0.4584 -0.4428  2.8430
 3260TIP3   OH2 9743   5.354   6.779   1.092  0.3573 -0.1056  0.5986
 3260TIP3    H1 9744   5.421   6.710   1.095  0.2817 -0.5055 -2.6066
 3260TIP3    H2 9745   5.275   6.734   1.062  0.1463  1.2265 -0.9602
 3261TIP3   OH2 9746   3.236   5.121   5.240  0.2374  0.4762  0.1889
 3261TIP3    H1 9747   3.312   5.100   5.295  1.3049  0.1898 -1.3320
 3261TIP3    H2 9748   3.274   5.156   5.159 -1.3311  2.2613  0.1762
 3262TIP3   OH2 9749   2.444   3.238   5.285  0.2983  0.3824  0.0006
 3262TIP3    H1 9750   2.487   3.263   5.367 -1.9139  0.4700  1.2212
 3262TIP3    H2 9751   2.350   3.244   5.305 -0.3520 -2.7852 -1.5230
 3263TIP3   OH2 9752   2.404   0.810   1.079  0.7324  0.0838 -0.3767
 3263TIP3    H1 9753   2.397   0.905   1.088  2.1360  0.4361 -2.3520
 3263TIP3    H2 9754   2.356   0.790   0.998  2.5060 -0.5239 -1.3228
 3264TIP3   OH2 9755   0.770   2.282   3.116 -0.0204 -0.4337 -0.1976
 3264TIP3    H1 9756   0.688   2.330   3.130  0.2378 -0.1131  0.2249
 3264TIP3    H2 9757   0.831   2.348   3.085 -0.4771 -1.0490 -2.6259
 3265TIP3   OH2 9758   2.166   3.075   5.736 -0.0758  0.2597  0.4895
 3265TIP3    H1 9759   2.083   3.031   5.751  0.3871 -2.0175 -2.5186
 3265TIP3    H2 9760   2.148   3.168   5.752 -2.4470 -0.4254  2.3276
 3266TIP3   OH2 9761   0.394   1.447   3.920 -0.3295  0.0046 -0.0673
 3266TIP3    H1 9762   0.367   1.365   3.879 -0.7491  0.3200 -0.4335
 3266TIP3    H2 9763   0.347   1.515   3.871  0.5212  0.5127 -0.2078
 3267TIP3   OH2 9764   6.891   5.312   2.766  0.0211  0.1977 -0.0924
 3267TIP3    H1 9765   6.837   5.271   2.833  0.5023  0.0480  0.2092
 3267TIP3    H2 9766   6.833   5.375   2.723 -0.6558 -0.6168 -0.3941
 3268TIP3   OH2 9767   6.147   3.237   5.419 -0.9389 -0.3028  0.1354
 3268TIP3    H1 9768   6.120   3.234   5.327 -0.0469  1.6803 -0.2393
 3268TIP3    H2 9769   6.065   3.229   5.469 -1.4892 -0.8433 -0.8375
 3269TIP3   OH2 9770   5.070   4.057   0.856  0.0006 -0.6144 -0.1299
 3269TIP3    H1 9771   5.087   4.061   0.762  1.5992 -0.1388  0.1528
 3269TIP3    H2 9772   5.043   3.967   0.872 -0.9782 -0.5200 -1.1377
 3270TIP3   OH2 9773   6.092   5.232   1.124  0.4950  0.0480 -0.0361
 3270TIP3    H1 9774   6.004   5.261   1.149 -0.1546 -1.1198 -0.8858
 3270TIP3    H2 9775   6.136   5.312   1.095 -0.9073  0.4010 -1.3465
 3271TIP3   OH2 9776   1.308   6.274   4.221 -0.3045  0.2904  0.3543
 3271TIP3    H1 9777   1.255   6.203   4.186 -0.5272  1.3231 -1.5287
 3271TIP3    H2 9778   1.392   6.234   4.243 -0.7183 -0.7020  0.1803
 3272TIP3   OH2 9779   1.013   0.916   3.735  0.4123  0.0074 -0.4446
 3272TIP3    H1 9780   0.933   0.867   3.755  1.4513 -2.1522 -1.2618
 3272TIP3    H2 9781   1.053   0.931   3.821  0.0272 -0.5243 -0.1643
 3273TIP3   OH2 9782   3.586   5.576   2.060  0.2682 -0.0664  0.1238
 3273TIP3    H1 9783   3.504   5.623   2.040  1.4535  2.4011  0.6367
 3273TIP3    H2 9784   3.608   5.532   1.978 -1.1598 -0.1264 -0.2586
 3274TIP3   OH2 9785   1.838   4.912   3.590  0.3612  0.4587 -0.7131
 3274TIP3    H1 9786   1.773   4.842   3.591  1.2334 -0.3805 -0.4353
 3274TIP3    H2 9787   1.881   4.906   3.676  0.3171  1.4742 -0.6034
 3275TIP3   OH2 9788   1.459   1.640   0.726 -0.0610  0.3570  0.4636
 3275TIP3    H1 9789   1.380   1.608   0.770 -0.8042  1.6334  0.1140
 3275TIP3    H2 9790   1.511   1.561   0.709 -1.7315 -0.6557 -0.2224
 3276TIP3   OH2 9791   0.767   5.301   1.269  0.1700  0.7382 -0.3742
 3276TIP3    H1 9792   0.734   5.264   1.187  0.7911  2.1595 -1.3086
 3276TIP3    H2 9793   0.696   5.285   1.333 -0.9037  0.7894 -1.5147
 3277TIP3   OH2 9794   3.959   5.402   4.299 -0.1243  0.0502  0.5612
 3277TIP3    H1 9795   3.881   5.348   4.315 -1.1810  1.2204 -0.4263
 3277TIP3    H2 9796   3.939   5.485   4.341  1.0762  0.0373  1.2105
 3278TIP3   OH2 9797   6.669   2.247   3.388  0.1929 -0.0339 -0.3580
 3278TIP3    H1 9798   6.718   2.187   3.332 -0.2380  0.1436 -0.9375
 3278TIP3    H2 9799   6.680   2.333   3.348 -1.6841 -0.1829 -1.2906
 3279TIP3   OH2 9800   6.831   6.507   0.887 -0.1150  0.0877  0.4107
 3279TIP3    H1 9801   6.896   6.491   0.956 -0.0729 -0.5239  0.2286
 3279TIP3    H2 9802   6.794   6.593   0.909 -1.1704 -0.7330  2.0642
 3280TIP3   OH2 9803   0.729   3.777   0.935  0.1888 -0.5224 -0.4493
 3280TIP3    H1 9804   0.690   3.718   0.999 -0.0498 -0.6027 -0.6644
 3280TIP3    H2 9805   0.702   3.864   0.963  2.3162 -0.2910  1.1146
 3281TIP3   OH2 9806   5.592   5.255   0.038 -0.6900  0.1805 -0.6906
 3281TIP3    H1 9807   5.543   5.196   0.094 -0.2805 -0.0673 -0.5908
 3281TIP3    H2 9808   5.586   5.216  -0.050  0.2948 -0.4722 -0.4771
 3282TIP3   OH2 9809   1.031   3.565   4.096  0.8421 -0.3620 -0.0328
 3282TIP3    H1 9810   1.054   3.656   4.076  1.6973 -0.5106  0.2402
 3282TIP3    H2 9811   0.987   3.569   4.181 -2.5484  0.2376 -1.6303
 3283TIP3   OH2 9812   3.437   2.718   2.530  0.1605 -0.1215  0.8375
 3283TIP3    H1 9813   3.413   2.676   2.447 -1.7958  1.7819  0.3401
 3283TIP3    H2 9814   3.508   2.664   2.564  0.2039 -1.6916 -1.4644
 3284TIP3   OH2 9815   6.623   4.066   3.052  0.3775 -0.0698 -0.6164
 3284TIP3    H1 9816   6.542   4.079   3.003 -0.0497  0.1298  0.1232
 3284TIP3    H2 9817   6.674   4.006   2.998 -0.7368 -1.1023 -0.5854
 3285TIP3   OH2 9818   5.800   2.911   0.571 -0.1276 -0.1071  0.4223
 3285TIP3    H1 9819   5.743   2.843   0.606  0.3672 -1.1072 -0.6810
 3285TIP3    H2 9820   5.760   2.993   0.601 -2.2490 -0.7588 -0.4483
 3286TIP3   OH2 9821   1.777   3.923   0.110 -0.3028  0.9268 -0.0634
 3286TIP3    H1 9822   1.839   3.855   0.137 -1.8277 -0.0730  1.2108
 3286TIP3    H2 9823   1.801   4.000   0.161  1.4784  1.4092 -1.5565
 3287TIP3   OH2 9824   2.128   6.622   0.306 -0.4269  0.0587 -0.2980
 3287TIP3    H1 9825   2.199   6.683   0.327  0.3642 -1.0066  0.2071
 3287TIP3    H2 9826   2.172   6.545   0.271 -1.3237 -0.6623  0.1130
 3288TIP3   OH2 9827   3.168   2.246   0.331 -0.5022 -0.2802 -0.3269
 3288TIP3    H1 9828   3.114   2.301   0.387 -0.6511  0.3510 -1.0806
 3288TIP3    H2 9829   3.157   2.158   0.367 -0.4991  0.1254  0.7014
 3289TIP3   OH2 9830   4.683   0.950   1.621 -0.2585  0.4956  0.4872
 3289TIP3    H1 9831   4.626   0.884   1.661 -0.6744 -0.0366 -0.9145
 3289TIP3    H2 9832   4.627   1.027   1.612 -0.4300  0.3336  0.1419
 3290TIP3   OH2 9833   1.607   6.502   2.761  0.1212 -0.0677  0.4214
 3290TIP3    H1 9834   1.666   6.564   2.804 -0.0222  0.6799 -0.4131
 3290TIP3    H2 9835   1.645   6.416   2.778  0.2586  0.2331  1.7053
 3291TIP3   OH2 9836   5.384   4.445   1.628  0.5698 -0.0005 -0.1801
 3291TIP3    H1 9837   5.336   4.382   1.574  1.0918  1.8462 -2.9978
 3291TIP3    H2 9838   5.471   4.447   1.590  1.8719 -0.5801  2.5439
 3292TIP3   OH2 9839   5.351   5.895   3.076  0.2386 -0.0027  0.5707
 3292TIP3    H1 9840   5.342   5.887   3.171  0.6081  0.2537  0.6275
 3292TIP3    H2 9841   5.269   5.935   3.047  0.6272  1.0780  0.9279
 3293TIP3   OH2 9842   6.703   3.443   1.233  0.1137 -0.0322  0.1192
 3293TIP3    H1 9843   6.792   3.417   1.257  0.2418 -0.0982 -0.4158
 3293TIP3    H2 9844   6.650   3.423   1.310  0.1633 -2.0815 -0.3310
 3294TIP3   OH2 9845   0.822   4.446   1.608  0.0385 -0.8108  0.3281
 3294TIP3    H1 9846   0.834   4.410   1.696  0.9475 -0.2266  0.4576
 3294TIP3    H2 9847   0.910   4.443   1.569 -0.2863 -0.7075 -0.4247
 3295TIP3   OH2 9848   3.292   4.654   5.707 -0.0159  0.1992  0.2600
 3295TIP3    H1 9849   3.284   4.573   5.657 -0.7920  0.7612 -0.5544
 3295TIP3    H2 9850   3.210   4.701   5.690  1.0490  1.8558 -0.5516
 3296TIP3   OH2 9851   4.510   1.681   4.851  0.3266  0.8560  0.2443
 3296TIP3    H1 9852   4.487   1.722   4.767  0.9768  0.7185 -0.0111
 3296TIP3    H2 9853   4.427   1.652   4.888 -0.1349  2.3073  0.3786
 3297TIP3   OH2 9854   6.541   1.677   3.134 -0.3467  0.2066  0.1795
 3297TIP3    H1 9855   6.491   1.682   3.052 -0.7133  0.2592  0.4031
 3297TIP3    H2 9856   6.492   1.615   3.188 -0.5529  0.7768  0.6598
 3298TIP3   OH2 9857   6.161   6.599   1.464  0.3699 -0.2049 -0.2104
 3298TIP3    H1 9858   6.208   6.569   1.541  0.4877 -0.1401 -0.2562
 3298TIP3    H2 9859   6.228   6.642   1.410 -0.0607  1.4828  0.5384
 3299TIP3   OH2 9860   7.109   0.064   2.087 -0.1075 -0.0249 -0.2755
 3299TIP3    H1 9861   7.071   0.103   2.008  0.9185 -0.1997 -0.8788
 3299TIP3    H2 9862   7.202   0.055   2.067  0.1453 -0.2165  0.9078
 3300TIP3   OH2 9863   5.562   0.375   3.138 -0.3138 -0.3588 -0.2086
 3300TIP3    H1 9864   5.498   0.322   3.186  1.5756 -2.0831  0.5526
 3300TIP3    H2 9865   5.597   0.436   3.203  0.8958 -1.4233  0.1709
 3301TIP3   OH2 9866   1.445   0.352   0.100 -0.1278 -0.5241  0.4386
 3301TIP3    H1 9867   1.409   0.271   0.065 -1.1995 -1.5656  3.6476
 3301TIP3    H2 9868   1.372   0.394   0.145  0.6461  1.7986 -0.2769
 3302TIP3   OH2 9869   0.050   2.587   0.270 -0.3358 -0.1039  0.0371
 3302TIP3    H1 9870   0.043   2.499   0.309 -0.3155 -0.1921 -0.1598
 3302TIP3    H2 9871   0.052   2.646   0.346  0.4249 -0.3228  0.1892
 3303TIP3   OH2 9872   1.185   3.085   2.008  0.1282  0.2921  0.0744
 3303TIP3    H1 9873   1.205   3.083   2.101 -1.9995 -0.8676  0.5698
 3303TIP3    H2 9874   1.264   3.052   1.965  0.5015 -0.8723  1.5906
 3304TIP3   OH2 9875   6.478   4.430   4.192 -0.1587 -0.3290  0.5407
 3304TIP3    H1 9876   6.532   4.500   4.228  0.6368  0.0453 -1.2698
 3304TIP3    H2 9877   6.488   4.358   4.254  2.6683 -0.3582  0.1633
 3305TIP3   OH2 9878   2.512   3.950   2.133 -0.3899  0.7896 -0.2133
 3305TIP3    H1 9879   2.559   4.032   2.121 -1.3936  1.3874 -0.1778
 3305TIP3    H2 9880   2.470   3.958   2.219 -2.2096  1.1463 -1.0813
 3306TIP3   OH2 9881   0.411   2.139   3.116  0.0030  0.7225 -0.4929
 3306TIP3    H1 9882   0.490   2.115   3.165 -0.0667  0.8511 -0.3151
 3306TIP3    H2 9883   0.339   2.107   3.169 -0.0477 -0.0153 -1.0026
 3307TIP3   OH2 9884   6.827   4.352   5.404  0.0882 -0.5549 -0.4796
 3307TIP3    H1 9885   6.735   4.378   5.417  0.1855 -1.0256  1.3742
 3307TIP3    H2 9886   6.829   4.259   5.424  1.4705  0.0182  2.6180
 3308TIP3   OH2 9887   2.154   2.234   3.089 -0.8529  0.3701 -0.6173
 3308TIP3    H1 9888   2.136   2.223   3.183  0.8414  2.4344  0.0533
 3308TIP3    H2 9889   2.202   2.155   3.064 -0.3658  0.2650  0.5599
 3309TIP3   OH2 9890   5.078   4.939   0.336 -0.2827 -0.0196  0.1725
 3309TIP3    H1 9891   5.086   5.008   0.401  1.9718  1.8609 -1.8798
 3309TIP3    H2 9892   4.985   4.935   0.316 -0.5442  2.1048  0.7359
 3310TIP3   OH2 9893   4.026   3.199   1.342 -0.2576  0.1999  0.0921
 3310TIP3    H1 9894   4.059   3.264   1.405 -0.2664  1.4022 -1.1026
 3310TIP3    H2 9895   4.092   3.198   1.272  0.5189 -2.2219  0.7756
 3311TIP3   OH2 9896   3.627   5.287   5.533  0.3823  0.2086 -0.1634
 3311TIP3    H1 9897   3.706   5.241   5.563 -0.5657 -1.8827 -0.6991
 3311TIP3    H2 9898   3.567   5.282   5.606 -0.2666 -0.7687 -0.7476
 3312TIP3   OH2 9899   6.250   3.242   0.215  0.3263  0.1293  0.2524
 3312TIP3    H1 9900   6.165   3.286   0.212  0.9037  1.4777 -4.5474
 3312TIP3    H2 9901   6.234   3.156   0.177  0.9778  0.2278 -0.2673
 3313TIP3   OH2 9902   4.286   0.069   1.868  1.0083 -0.1950  0.2762
 3313TIP3    H1 9903   4.367   0.035   1.906  0.8086 -0.2183  0.6894
 3313TIP3    H2 9904   4.226  -0.005   1.869  1.4271 -0.6024 -1.4095
 3314TIP3   OH2 9905   1.775   1.712   1.590  0.0957  0.3821 -0.3147
 3314TIP3    H1 9906   1.846   1.672   1.539  0.1463 -0.1827  0.1913
 3314TIP3    H2 9907   1.739   1.640   1.641 -0.1731  0.8805  0.2055
 3315TIP3   OH2 9908   4.240   0.730   5.269  0.0516  0.2824 -0.2293
 3315TIP3    H1 9909   4.189   0.650   5.282 -2.0670  1.2594 -1.9859
 3315TIP3    H2 9910   4.228   0.780   5.349 -0.4539 -0.1985 -0.0016
 3316TIP3   OH2 9911   6.954   2.272   4.503 -0.2744 -0.3225 -0.0649
 3316TIP3    H1 9912   6.985   2.224   4.579 -2.1570  0.4438  1.2512
 3316TIP3    H2 9913   6.890   2.334   4.537  0.9022  2.1006 -1.8872
 3317TIP3   OH2 9914   4.012   2.714   3.986 -0.0623  0.6603  0.0167
 3317TIP3    H1 9915   4.090   2.672   4.022  0.2802  0.9683 -0.3728
 3317TIP3    H2 9916   3.943   2.648   3.997 -0.1266  0.9724  1.8385
 3318TIP3   OH2 9917   7.026   0.253   1.227 -0.5052 -0.1266  0.3752
 3318TIP3    H1 9918   7.039   0.194   1.301 -0.2301 -0.4382  0.0810
 3318TIP3    H2 9919   7.113   0.265   1.190 -0.7010 -0.3329 -0.1700
 3319TIP3   OH2 9920   4.290   5.340   3.946  0.6123  0.0410  0.5305
 3319TIP3    H1 9921   4.314   5.329   3.854  0.9571  1.1408  0.4811
 3319TIP3    H2 9922   4.296   5.251   3.982  0.0334 -0.4822 -0.5981
 3320TIP3   OH2 9923   3.165   5.517   1.379 -0.3320 -0.1564 -0.0894
 3320TIP3    H1 9924   3.150   5.548   1.468 -0.3709 -1.1778  0.2640
 3320TIP3    H2 9925   3.190   5.596   1.330 -3.2785  1.0088  0.0896
 3321TIP3   OH2 9926   4.614   0.965   0.210 -0.2914  0.1436 -0.4279
 3321TIP3    H1 9927   4.621   0.902   0.281  0.1995 -0.2479 -0.8184
 3321TIP3    H2 9928   4.521   0.987   0.206 -0.2097  0.8849  0.9406
 3322TIP3   OH2 9929   5.349   2.426   5.293 -0.0579  0.0146  0.7036
 3322TIP3    H1 9930   5.342   2.382   5.377 -1.7059 -2.6811 -0.7075
 3322TIP3    H2 9931   5.261   2.421   5.256  0.5856  1.2396 -1.1495
 3323TIP3   OH2 9932   5.436   5.868   3.927  0.5176 -0.1189 -0.3650
 3323TIP3    H1 9933   5.441   5.897   4.018 -1.3642 -0.6486 -0.0443
 3323TIP3    H2 9934   5.511   5.810   3.916  1.4924  0.9456  0.4518
 3324TIP3   OH2 9935   5.961   4.843   2.116  0.0404  0.8983 -0.0830
 3324TIP3    H1 9936   5.874   4.869   2.087  0.5460  3.2891  0.3662
 3324TIP3    H2 9937   5.969   4.880   2.204  1.3982  0.4175  0.0179
 3325TIP3   OH2 9938   6.381   3.919   5.148 -0.5149 -0.7344  0.0603
 3325TIP3    H1 9939   6.411   3.828   5.143 -1.3564 -1.1079  1.3536
 3325TIP3    H2 9940   6.443   3.961   5.208 -0.1024 -0.4291 -0.5675
 3326TIP3   OH2 9941   6.515   0.972   3.696 -0.2503 -0.1611 -0.2873
 3326TIP3    H1 9942   6.537   0.883   3.669  0.3153  0.5374 -2.2544
 3326TIP3    H2 9943   6.435   0.993   3.648 -0.7687  0.1864  0.6831
 3327TIP3   OH2 9944   0.725   5.177   0.771  0.2255  0.2159 -0.2591
 3327TIP3    H1 9945   0.780   5.202   0.698 -0.5962  1.2948 -0.5362
 3327TIP3    H2 9946   0.723   5.254   0.828 -1.7592  0.5920 -0.7538
 3328TIP3   OH2 9947   6.007   5.068   4.297 -0.1824 -0.2499 -0.6500
 3328TIP3    H1 9948   5.959   5.058   4.379 -1.1762 -0.6107 -1.2524
 3328TIP3    H2 9949   6.100   5.070   4.323 -0.5451  2.0602  0.6855
 3329TIP3   OH2 9950   5.120   1.676   3.085  0.0039 -0.5437  0.7325
 3329TIP3    H1 9951   5.085   1.697   3.172  0.2089  0.6993  0.5368
 3329TIP3    H2 9952   5.046   1.689   3.025  0.7580  2.3994  0.2776
 3330TIP3   OH2 9953   1.399   2.516   5.377 -0.2827  0.3882 -0.5332
 3330TIP3    H1 9954   1.409   2.543   5.286  1.1552 -0.2455 -0.5923
 3330TIP3    H2 9955   1.415   2.421   5.376 -0.0562  0.4093  0.4072
 3331TIP3   OH2 9956   0.193   5.039   1.901  0.4424  0.0189  0.4980
 3331TIP3    H1 9957   0.219   4.979   1.970  0.2002  1.9880  2.4053
 3331TIP3    H2 9958   0.244   5.011   1.825  2.0334 -1.1693  1.9195
 3332TIP3   OH2 9959   2.781   3.616   2.950 -0.4375  0.0642 -0.0573
 3332TIP3    H1 9960   2.797   3.704   2.984  0.3163  0.3644 -1.1268
 3332TIP3    H2 9961   2.708   3.627   2.890  0.6639  0.3032 -1.4055
 3333TIP3   OH2 9962   4.912   0.635   5.726  0.2123  0.2763 -0.2610
 3333TIP3    H1 9963   4.986   0.680   5.766 -0.0227  1.6932 -1.3283
 3333TIP3    H2 9964   4.924   0.649   5.632 -0.9483 -0.2243 -0.4955
 3334TIP3   OH2 9965   5.503   0.938   3.891  0.0010  0.4823 -0.7795
 3334TIP3    H1 9966   5.530   1.027   3.867  0.7977  0.8696  1.3108
 3334TIP3    H2 9967   5.472   0.946   3.982 -0.8428 -1.2039 -0.8884
 3335TIP3   OH2 9968   1.027   3.097   0.699 -0.1483 -0.1605  0.5930
 3335TIP3    H1 9969   1.006   3.010   0.732 -1.4659 -0.3343 -0.6397
 3335TIP3    H2 9970   1.024   3.153   0.777 -1.8756 -0.7826  1.0144
 3336TIP3   OH2 9971   6.893   1.368   1.968 -0.3876  0.1715  0.0459
 3336TIP3    H1 9972   6.952   1.442   1.982 -0.9492  1.0846 -2.0030
 3336TIP3    H2 9973   6.819   1.385   2.026  0.6656 -0.2179  1.5550
 3337TIP3   OH2 9974   4.292   5.107   4.104  0.3400  0.0210  0.5968
 3337TIP3    H1 9975   4.369   5.131   4.156 -1.3548  0.3914  3.1074
 3337TIP3    H2 9976   4.252   5.034   4.152 -1.1290  0.1222 -0.3968
 3338TIP3   OH2 9977   1.658   6.357   5.214  0.1277  0.0111  0.1973
 3338TIP3    H1 9978   1.571   6.374   5.176 -0.1404 -0.8289  0.4125
 3338TIP3    H2 9979   1.639   6.318   5.300  0.7173 -0.6128  0.0477
 3339TIP3   OH2 9980   4.279   2.514   4.715 -0.1031  0.1290  0.0274
 3339TIP3    H1 9981   4.362   2.482   4.681  0.0666  0.0244  0.5291
 3339TIP3    H2 9982   4.252   2.447   4.778 -0.2852  0.4454  0.2844
 3340TIP3   OH2 9983   5.657   4.432   4.513 -0.2707  0.2416 -0.0206
 3340TIP3    H1 9984   5.590   4.501   4.516 -1.1463 -0.6020  0.7159
 3340TIP3    H2 9985   5.662   4.400   4.603  0.8655  0.0311 -0.1484
 3341TIP3   OH2 9986   3.264   5.362   4.262 -0.2003  0.3989 -0.9470
 3341TIP3    H1 9987   3.298   5.405   4.184  0.9963  1.0664 -0.0828
 3341TIP3    H2 9988   3.248   5.433   4.324 -1.6883 -0.0618 -0.7563
 3342TIP3   OH2 9989   6.849   3.805   0.681 -0.2637 -0.1350  0.2071
 3342TIP3    H1 9990   6.770   3.759   0.707 -1.1316  0.8341 -0.6278
 3342TIP3    H2 9991   6.863   3.869   0.750  0.1082 -0.6558  0.6234
 3343TIP3   OH2 9992   2.309   5.167   1.467 -0.2990 -0.4165 -0.1717
 3343TIP3    H1 9993   2.372   5.171   1.395 -0.0105 -1.2495  0.0243
 3343TIP3    H2 9994   2.225   5.146   1.425 -0.3013 -0.0772 -0.3444
 3344TIP3   OH2 9995   2.911   5.203   4.180  0.4869 -0.4654 -0.2677
 3344TIP3    H1 9996   2.870   5.192   4.266 -4.3331  3.4670 -1.5905
 3344TIP3    H2 9997   2.978   5.269   4.194  0.6354 -0.7802  0.6255
 3345TIP3   OH2 9998   2.823   5.355   2.976  0.0950 -0.0050 -0.0695
 3345TIP3    H1 9999   2.765   5.306   2.918 -0.2897  0.4513 -0.0807
 3345TIP3    H210000   2.774   5.364   3.058 -0.0691  0.8227 -0.2487
 3346TIP3   OH210001   6.130   0.187   2.323  0.3402 -0.0969 -0.2560
 3346TIP3    H110002   6.151   0.106   2.370  1.2060  0.4513  0.3330
 3346TIP3    H210003   6.112   0.250   2.392  1.9941  0.8215 -0.6287
 3347TIP3   OH210004   6.876   6.806   0.516 -0.2390 -0.4792  0.4779
 3347TIP3    H110005   6.865   6.857   0.435  2.4572  1.6147  1.2882
 3347TIP3    H210006   6.833   6.723   0.497 -0.3133  0.1676 -2.8741
 3348TIP3   OH210007   5.285   0.249   2.167  0.2814  0.7173  0.1944
 3348TIP3    H110008   5.208   0.302   2.190 -0.0371 -0.1575  1.2364
 3348TIP3    H210009   5.302   0.270   2.075  1.1868  3.8894  0.9583
 3349TIP3   OH210010   6.602   1.294  -0.007  0.4373  0.6424  0.3038
 3349TIP3    H110011   6.637   1.241   0.064  0.5511  0.7005  0.2910
 3349TIP3    H210012   6.522   1.332   0.029  0.8969  1.2864  0.6624
 3350TIP3   OH210013   5.179   6.525   4.579 -0.4339 -0.1133  0.2208
 3350TIP3    H110014   5.261   6.533   4.627 -0.1296 -0.8959 -0.1408
 3350TIP3    H210015   5.141   6.443   4.612  0.1711 -1.1145 -1.4024
 3351TIP3   OH210016   1.749   4.210   4.789 -0.2168 -0.1705  0.3071
 3351TIP3    H110017   1.740   4.197   4.694 -0.2248  0.8977  0.1464
 3351TIP3    H210018   1.702   4.136   4.828 -0.5401 -0.4161 -0.5165
 3352TIP3   OH210019   3.687   6.666   1.570 -0.4154  0.1181 -0.1783
 3352TIP3    H110020   3.668   6.726   1.498 -2.0185 -0.5409 -0.3451
 3352TIP3    H210021   3.626   6.593   1.558 -0.8971  0.0922  1.9805
 3353TIP3   OH210022   5.883   1.807   4.579  0.3507 -0.0979 -0.2204
 3353TIP3    H110023   5.788   1.811   4.571  0.2324 -1.1645  0.4170
 3353TIP3    H210024   5.915   1.883   4.530 -0.9576  2.2629  2.2812
 3354TIP3   OH210025   7.163   5.939   5.296  0.3226 -0.5271 -0.5719
 3354TIP3    H110026   7.210   5.917   5.376  0.0209 -0.9374 -0.5076
 3354TIP3    H210027   7.126   6.026   5.314  1.8732  0.2538 -0.9936
 3355TIP3   OH210028   2.093   4.433   3.087  0.0437  0.4427 -0.1162
 3355TIP3    H110029   2.110   4.443   3.181  1.4451  1.9055 -0.4715
 3355TIP3    H210030   2.022   4.370   3.082  0.9412 -0.8182  1.8538
 3356TIP3   OH210031   3.074   1.659   5.083  0.5916  0.2100 -0.7747
 3356TIP3    H110032   3.015   1.722   5.041  1.5303  0.3400 -1.9399
 3356TIP3    H210033   3.032   1.574   5.069  0.6939  0.2941 -1.6438
 3357TIP3   OH210034   0.022   3.433   3.206 -0.3739  0.1923  0.2694
 3357TIP3    H110035   0.034   3.351   3.253 -0.3190 -0.8975 -1.5448
 3357TIP3    H210036   0.071   3.497   3.257  1.0907 -1.2689  0.7979
 3358TIP3   OH210037   3.806   4.440   0.154  0.0921 -0.2315 -0.6129
 3358TIP3    H110038   3.723   4.488   0.155  0.2237 -0.0057 -0.0505
 3358TIP3    H210039   3.789   4.361   0.205  0.1219 -0.3586 -0.8005
 3359TIP3   OH210040   0.253   3.197   1.071  1.0351  0.2260  0.1790
 3359TIP3    H110041   0.311   3.123   1.054 -0.2871 -0.7122 -0.4005
 3359TIP3    H210042   0.311   3.274   1.067  2.3683 -0.7251  0.4386
 3360TIP3   OH210043   5.089   1.284   0.231  0.1168 -0.1147 -0.3325
 3360TIP3    H110044   5.103   1.192   0.256  0.2222 -0.2488 -0.8693
 3360TIP3    H210045   5.003   1.285   0.190 -0.6240  0.3408  1.1517
 3361TIP3   OH210046   1.456   6.790   0.220 -0.2492  0.8844  0.2270
 3361TIP3    H110047   1.461   6.866   0.161 -0.6672  0.3216 -0.5633
 3361TIP3    H210048   1.499   6.720   0.171 -0.8013  0.3521  0.4944
 3362TIP3   OH210049   5.941   0.370   3.861  0.2552  0.3909  0.7472
 3362TIP3    H110050   5.989   0.292   3.888 -1.3829 -1.0604 -0.3047
 3362TIP3    H210051   6.008   0.438   3.855  1.8355 -1.0416  1.2177
 3363TIP3   OH210052   2.234   6.531   2.329  0.3936  0.1277 -0.1899
 3363TIP3    H110053   2.291   6.566   2.261 -2.6666  2.2020 -1.9054
 3363TIP3    H210054   2.256   6.582   2.407  3.1229 -1.4866  0.2450
 3364TIP3   OH210055   1.534   0.351   2.531 -0.2513 -0.2392 -0.1014
 3364TIP3    H110056   1.461   0.411   2.515 -0.4982  0.0863  1.9506
 3364TIP3    H210057   1.612   0.405   2.514 -0.4803 -0.0099 -0.4409
 3365TIP3   OH210058   5.552   1.274   4.150 -0.1426 -0.8053 -0.3230
 3365TIP3    H110059   5.567   1.296   4.242 -2.2181 -0.0561 -0.1310
 3365TIP3    H210060   5.640   1.276   4.111  0.4146  3.5827  0.6167
 3366TIP3   OH210061   4.933   4.369   5.482 -0.3899  0.0997  0.0839
 3366TIP3    H110062   4.902   4.329   5.564 -0.6095 -0.8288 -0.4429
 3366TIP3    H210063   4.986   4.443   5.511  0.6790 -1.0292  1.1162
 3367TIP3   OH210064   5.323   0.272   2.804  0.0266 -0.3069 -0.8280
 3367TIP3    H110065   5.418   0.283   2.797  0.0559 -0.9456 -1.5523
 3367TIP3    H210066   5.311   0.189   2.848 -0.2043  0.0877 -0.1340
 3368TIP3   OH210067   2.445   3.606   2.622  0.2923  0.4028  0.7910
 3368TIP3    H110068   2.506   3.532   2.622  1.0461  0.9564 -1.1642
 3368TIP3    H210069   2.450   3.641   2.533 -1.4070  1.7065  1.1564
 3369TIP3   OH210070   7.141   3.877   4.651  0.8740 -0.4659 -0.2275
 3369TIP3    H110071   7.066   3.921   4.693  2.1571  0.5831  1.0636
 3369TIP3    H210072   7.217   3.905   4.702  2.3536 -0.2975 -2.3972
 3370TIP3   OH210073   3.466   5.910   0.440  0.3252 -0.4794 -0.3238
 3370TIP3    H110074   3.502   5.945   0.359  1.3715 -1.8394 -0.4783
 3370TIP3    H210075   3.537   5.917   0.504 -0.7613  1.3996  0.7692
 3371TIP3   OH210076   4.659   5.839   3.167  0.4225  0.4377  0.3135
 3371TIP3    H110077   4.656   5.748   3.196 -0.6438 -0.0898 -1.2749
 3371TIP3    H210078   4.688   5.835   3.076 -1.1904  1.5115 -0.2995
 3372TIP3   OH210079   4.595   5.793   4.761 -0.8351 -0.0187 -0.4811
 3372TIP3    H110080   4.502   5.804   4.776 -0.7534 -0.4495  0.4237
 3372TIP3    H210081   4.621   5.868   4.708 -1.5455  0.5125 -0.0788
 3373TIP3   OH210082   1.493   2.612   2.519  0.1259  0.0594 -0.2753
 3373TIP3    H110083   1.502   2.625   2.613  0.2918  0.7615 -0.3845
 3373TIP3    H210084   1.401   2.588   2.507  0.4349 -1.4742  0.2136
 3374TIP3   OH210085   4.683   1.692   5.718 -0.7741  0.0560  0.1720
 3374TIP3    H110086   4.597   1.686   5.760 -0.7129 -2.2035  0.1058
 3374TIP3    H210087   4.666   1.683   5.625 -0.4497 -0.9009  0.1929
 3375TIP3   OH210088   5.306   3.516   4.676 -0.4059  0.0251  0.2526
 3375TIP3    H110089   5.290   3.603   4.713 -0.0880  0.1848  0.0247
 3375TIP3    H210090   5.386   3.486   4.721 -0.1734  0.1063 -0.1015
 3376TIP3   OH210091   3.038   6.782   0.580 -0.3865  0.0188 -0.0428
 3376TIP3    H110092   3.076   6.706   0.536  0.4857  0.2135  0.3396
 3376TIP3    H210093   2.957   6.800   0.533 -0.5848 -1.1178 -0.1632
 3377TIP3   OH210094   1.158   1.138   2.631  0.6426 -0.9020  0.5540
 3377TIP3    H110095   1.183   1.065   2.574 -0.9563 -2.8376  2.1941
 3377TIP3    H210096   1.236   1.154   2.683  0.8090 -1.9337  0.6495
 3378TIP3   OH210097   5.027   4.877   4.609 -0.0284  0.1859  0.4756
 3378TIP3    H110098   5.117   4.855   4.631  0.1470  1.4118  1.0750
 3378TIP3    H210099   4.990   4.913   4.690 -0.8580  0.2794  0.0715
 3379TIP3   OH210100   2.863   1.429   2.097 -0.1735  0.1360 -0.0398
 3379TIP3    H110101   2.937   1.377   2.127 -0.2181  0.7054  1.1294
 3379TIP3    H210102   2.849   1.493   2.167 -1.3652  0.4442 -0.5323
 3380TIP3   OH210103   7.208   2.303   0.376 -0.4521 -0.1549 -0.0239
 3380TIP3    H110104   7.198   2.223   0.427 -1.9632  0.3079  0.4654
 3380TIP3    H210105   7.133   2.303   0.317  0.9202 -0.3560 -1.8339
 3381TIP3   OH210106   0.697   4.003   3.745  0.4538 -0.0632  0.0182
 3381TIP3    H110107   0.740   4.080   3.783 -0.1334  1.4297 -2.0950
 3381TIP3    H210108   0.615   3.995   3.793 -0.4951  2.0598 -1.0975
 3382TIP3   OH210109   1.055   1.429   3.702 -0.3679 -0.5871  0.1465
 3382TIP3    H110110   1.147   1.458   3.704 -0.4301 -0.3432 -0.4453
 3382TIP3    H210111   1.049   1.367   3.775 -0.0028  0.2010  0.8736
 3383TIP3   OH210112   2.217   5.390   4.815  0.0351 -0.1776 -0.0899
 3383TIP3    H110113   2.192   5.450   4.885  0.1197 -1.1731  0.8313
 3383TIP3    H210114   2.307   5.415   4.793  0.4534 -0.5887  1.0159
 3384TIP3   OH210115   5.253   2.660   0.890  0.3393 -0.1186 -0.2908
 3384TIP3    H110116   5.281   2.706   0.811  0.6379  0.9876  0.4240
 3384TIP3    H210117   5.269   2.568   0.872 -0.1626  0.0589 -1.7384
 3385TIP3   OH210118   2.866   1.967   3.093  0.1299 -0.3372  0.1242
 3385TIP3    H110119   2.832   1.884   3.059 -3.1209  0.6526  0.6643
 3385TIP3    H210120   2.881   2.020   3.015 -1.9679 -0.0065 -0.1209
 3386TIP3   OH210121   0.539   6.563   1.534 -0.2672 -0.8973 -0.0483
 3386TIP3    H110122   0.469   6.498   1.533 -1.0672 -0.0694 -1.3198
 3386TIP3    H210123   0.571   6.562   1.624 -1.2627 -1.9891  0.3234
 3387TIP3   OH210124   6.480   2.184   4.080  0.0897  0.1661 -0.5736
 3387TIP3    H110125   6.489   2.171   3.985  0.1214  1.4657 -0.7704
 3387TIP3    H210126   6.439   2.270   4.088 -1.5145 -0.6722  0.5696
 3388TIP3   OH210127   1.961   0.891   2.736 -0.0503 -0.5627  0.3719
 3388TIP3    H110128   1.999   0.966   2.783  0.4778 -0.3255 -0.4231
 3388TIP3    H210129   1.867   0.899   2.752  0.0655 -0.1347  0.8893
 3389TIP3   OH210130   2.924   1.094   0.306 -1.0213  0.3448 -0.1425
 3389TIP3    H110131   2.881   1.150   0.370  0.4175 -0.2722  1.4515
 3389TIP3    H210132   2.908   1.137   0.222 -0.9619  2.5246  0.8832
 3390TIP3   OH210133   4.194   3.628   3.911 -0.3570 -0.1676  0.0732
 3390TIP3    H110134   4.210   3.661   3.822 -1.6108 -0.4933 -0.2990
 3390TIP3    H210135   4.177   3.534   3.898 -0.5192 -0.2184  0.6625
 3391TIP3   OH210136   4.876   6.678   1.529 -0.4547  0.4301  0.7702
 3391TIP3    H110137   4.932   6.623   1.473  0.1239  1.1454  0.6302
 3391TIP3    H210138   4.927   6.690   1.609 -0.8534  0.2482  1.0559
 3392TIP3   OH210139   3.180   5.821   2.926  0.0926 -0.1283  0.2841
 3392TIP3    H110140   3.138   5.736   2.933 -0.4790 -0.0027 -1.2469
 3392TIP3    H210141   3.269   5.807   2.958 -0.0699 -1.2342  0.2716
 3393TIP3   OH210142   6.159   4.207   4.012  0.1693  0.1832 -0.7450
 3393TIP3    H110143   6.179   4.258   4.090  1.2699  0.0764 -0.9489
 3393TIP3    H210144   6.244   4.176   3.980 -0.4743 -2.6064 -0.0656
 3394TIP3   OH210145   3.337   2.842   4.275 -0.8530  0.3380  0.6641
 3394TIP3    H110146   3.379   2.808   4.196 -2.9030 -0.2708 -0.2149
 3394TIP3    H210147   3.302   2.765   4.319  1.3649  0.5020  2.9310
 3395TIP3   OH210148   0.527   0.283   3.394 -0.2319 -0.2486 -0.7134
 3395TIP3    H110149   0.617   0.296   3.365 -0.4793 -0.7226 -1.7079
 3395TIP3    H210150   0.523   0.327   3.479  1.1176 -0.7862 -0.3452
 3396TIP3   OH210151   5.589   5.755   1.035 -0.6285 -0.0103 -0.1479
 3396TIP3    H110152   5.626   5.792   1.116 -2.8376  1.0905  0.4482
 3396TIP3    H210153   5.644   5.790   0.965  0.4324  0.2346  0.7817
 3397TIP3   OH210154   5.703   6.319   0.303  0.1424  0.8139 -0.0143
 3397TIP3    H110155   5.744   6.349   0.221  0.2326 -0.9271 -0.6427
 3397TIP3    H210156   5.651   6.243   0.278 -0.0845  0.4317  1.5042
 3398TIP3   OH210157   5.059   3.162   2.612 -0.5729 -0.2072  0.1602
 3398TIP3    H110158   5.000   3.234   2.634  1.5784  1.3397  1.1381
 3398TIP3    H210159   5.000   3.089   2.592 -2.8093  1.0781  1.6084
 3399TIP3   OH210160   5.416   0.877   5.499  0.2472 -0.0142 -0.1799
 3399TIP3    H110161   5.418   0.793   5.547  1.0564  0.6004  0.9169
 3399TIP3    H210162   5.334   0.918   5.527 -0.4586 -0.6735 -1.1917
 3400TIP3   OH210163   2.438   0.433   3.127  0.0995  0.3531 -0.7256
 3400TIP3    H110164   2.525   0.467   3.102 -0.3631 -0.0108 -3.0042
 3400TIP3    H210165   2.413   0.376   3.054 -2.3360  0.9600 -0.4214
 3401TIP3   OH210166   7.171   3.423   4.360 -0.0067 -0.0307  0.3834
 3401TIP3    H110167   7.204   3.487   4.424  0.2314 -0.5263  0.7669
 3401TIP3    H210168   7.175   3.339   4.406  2.3117 -0.7689 -0.9797
 3402TIP3   OH210169   4.178   5.529   4.540 -0.1517 -0.0501 -0.6206
 3402TIP3    H110170   4.117   5.532   4.614 -0.7342 -0.0312 -1.0866
 3402TIP3    H210171   4.207   5.620   4.529 -1.8065  0.4033 -1.7990
 3403TIP3   OH210172   4.182   3.767   5.040 -0.2485  0.3243  0.2733
 3403TIP3    H110173   4.126   3.694   5.067 -0.3960  0.4680  0.3539
 3403TIP3    H210174   4.234   3.731   4.968 -0.4465  0.1901  0.1954
 3404TIP3   OH210175   0.770   2.632   2.738  0.0658  0.1827  0.1289
 3404TIP3    H110176   0.684   2.631   2.780 -1.3095  2.4103 -2.3458
 3404TIP3    H210177   0.804   2.720   2.753  1.8440 -0.5838  0.8374
 3405TIP3   OH210178   4.120   4.744   1.760  0.3798 -0.5903 -0.3280
 3405TIP3    H110179   4.083   4.682   1.823 -1.1698  1.3849  0.8125
 3405TIP3    H210180   4.153   4.816   1.814  0.5446  0.3970 -1.7039
 3406TIP3   OH210181   7.154   3.554   0.056  0.3306 -0.2668 -0.8552
 3406TIP3    H110182   7.214   3.546   0.130  0.0204  1.3528 -0.3950
 3406TIP3    H210183   7.120   3.465   0.044  0.8725 -0.6933  0.5325
 3407TIP3   OH210184   5.310   1.688   0.196 -0.0673  0.2423  0.1369
 3407TIP3    H110185   5.400   1.680   0.166  0.5816  0.1975  1.9868
 3407TIP3    H210186   5.288   1.780   0.180  1.0214  0.7677  1.4939
 3408TIP3   OH210187   0.299   1.702   5.248 -0.5788  0.1538  0.1795
 3408TIP3    H110188   0.231   1.648   5.289 -0.2780  0.1825  0.7322
 3408TIP3    H210189   0.291   1.685   5.154 -1.8301  0.7048  0.1615
 3409TIP3   OH210190   2.910   2.692   5.424 -0.1601  0.1939  0.1775
 3409TIP3    H110191   2.943   2.734   5.345 -0.1183  1.3928  0.7986
 3409TIP3    H210192   2.846   2.755   5.459  0.5387  0.1542  1.6026
 3410TIP3   OH210193   4.234   3.923   3.328 -0.9075 -0.4728  0.3276
 3410TIP3    H110194   4.293   3.935   3.254 -0.9599  1.7727  0.5718
 3410TIP3    H210195   4.286   3.951   3.404 -0.9954 -2.3198  1.1094
 3411TIP3   OH210196   4.465   4.621   4.192 -0.6978 -0.4423 -0.2512
 3411TIP3    H110197   4.550   4.600   4.153 -1.6711  1.8314 -4.1623
 3411TIP3    H210198   4.470   4.714   4.212 -1.7311 -0.6653  1.1801
 3412TIP3   OH210199   6.566   4.233   0.379  0.0006  0.0157  0.1814
 3412TIP3    H110200   6.524   4.298   0.435  0.6033  0.2786  0.3250
 3412TIP3    H210201   6.658   4.236   0.402 -0.2132 -2.3877  1.7407
 3413TIP3   OH210202   3.992   1.902   0.788  0.3384  0.2671  0.4927
 3413TIP3    H110203   3.948   1.925   0.870 -0.3571 -0.9414  0.4889
 3413TIP3    H210204   4.005   1.986   0.744 -0.5103  0.8167  1.2340
 3414TIP3   OH210205   1.783   3.974   2.497 -0.0232 -0.2293  0.3741
 3414TIP3    H110206   1.722   4.044   2.474 -0.4932 -0.2101  1.6390
 3414TIP3    H210207   1.754   3.943   2.582  0.2293 -1.9181 -0.1069
 3415TIP3   OH210208   1.986   0.095   5.278 -0.6919 -0.3956  0.2577
 3415TIP3    H110209   1.981  -0.001   5.272  0.8208 -0.5293  0.8939
 3415TIP3    H210210   1.895   0.122   5.288 -1.1066 -1.8084  0.6204
 3416TIP3   OH210211   0.989   5.490   0.152  0.0018  0.4187 -0.0426
 3416TIP3    H110212   0.964   5.430   0.082  0.8221  1.2271 -1.0651
 3416TIP3    H210213   0.906   5.521   0.188 -0.4418  0.1521 -0.8113
 3417TIP3   OH210214   2.393   2.638   5.387 -0.2459  0.2480  0.3925
 3417TIP3    H110215   2.302   2.631   5.360 -0.3844 -0.6047  1.0381
 3417TIP3    H210216   2.390   2.688   5.469 -0.1629 -0.0536  0.5796
 3418TIP3   OH210217   3.263   0.111   2.603  0.1221 -0.5797 -0.2711
 3418TIP3    H110218   3.269   0.139   2.511  1.0483 -0.6479 -0.2399
 3418TIP3    H210219   3.324   0.037   2.609  0.7428 -0.0083  0.6015
 3419TIP3   OH210220   3.636   5.791   0.131  0.0738 -0.3630 -0.5674
 3419TIP3    H110221   3.645   5.862   0.195 -0.0572 -1.5331  0.7789
 3419TIP3    H210222   3.648   5.835   0.046  2.0970  0.9088  0.3045
 3420TIP3   OH210223   1.833   3.128   0.864 -0.1897 -0.1738  0.7839
 3420TIP3    H110224   1.853   3.035   0.877 -0.1959 -0.2318  0.4008
 3420TIP3    H210225   1.822   3.137   0.769  2.9923  0.8060  0.3600
 3421TIP3   OH210226   1.130   4.030   0.045 -0.2197 -0.0742  0.3275
 3421TIP3    H110227   1.169   3.952   0.004 -0.1677 -0.6845  1.5052
 3421TIP3    H210228   1.069   3.994   0.110 -2.5243  0.8299 -1.1898
 3422TIP3   OH210229   5.436   2.625   4.599  0.2513 -0.1162 -0.9899
 3422TIP3    H110230   5.373   2.605   4.530 -0.5187  0.4624 -0.4787
 3422TIP3    H210231   5.521   2.601   4.562  0.1619  2.3832 -3.0662
 3423TIP3   OH210232   1.822   2.552   5.102  0.2139 -0.0765  0.7265
 3423TIP3    H110233   1.804   2.525   5.012 -0.1473 -1.3251  1.1597
 3423TIP3    H210234   1.738   2.582   5.136  0.0557 -0.8799  1.0632
 3424TIP3   OH210235   2.150   5.398   5.229 -0.2793 -0.2244 -0.1895
 3424TIP3    H110236   2.093   5.394   5.152  0.1352 -0.2655 -0.4983
 3424TIP3    H210237   2.236   5.422   5.194 -0.0209 -0.5270  0.2241
 3425TIP3   OH210238   0.721   3.812   4.014 -0.6524 -0.1052 -0.5225
 3425TIP3    H110239   0.645   3.869   4.002 -1.1798 -0.3601  1.2677
 3425TIP3    H210240   0.783   3.865   4.065 -0.1804 -0.3620 -0.8174
 3426TIP3   OH210241   2.992   0.332   0.264  0.0719  0.1770 -0.3938
 3426TIP3    H110242   3.087   0.325   0.253  0.3226  0.5483  1.2869
 3426TIP3    H210243   2.959   0.244   0.247  0.8388 -0.1865 -0.0239
 3427TIP3   OH210244   6.024   2.386   4.341 -0.2320 -0.0434 -0.4390
 3427TIP3    H110245   6.026   2.295   4.369  0.4661 -0.0853 -0.6162
 3427TIP3    H210246   5.945   2.393   4.286  0.9405 -1.1327 -2.3712
 3428TIP3   OH210247   6.974   3.510   0.386  0.5293 -0.0570 -0.2550
 3428TIP3    H110248   6.879   3.515   0.378  0.3078 -1.5701  0.8272
 3428TIP3    H210249   6.995   3.422   0.355  1.4797 -0.0195  0.2610
 3429TIP3   OH210250   4.051   2.251   1.046  0.2435 -0.6162 -0.2864
 3429TIP3    H110251   4.048   2.292   1.132 -0.2354 -2.7496  0.7779
 3429TIP3    H210252   3.960   2.233   1.025  0.1688  1.5499 -2.1560
 3430TIP3   OH210253   2.835   0.374   5.038 -0.1663 -0.1053  0.3694
 3430TIP3    H110254   2.825   0.467   5.061 -3.1617 -0.1968 -0.2097
 3430TIP3    H210255   2.868   0.333   5.117  0.0692  1.2621  1.0129
 3431TIP3   OH210256   4.383   4.092   5.817 -0.0356  0.1235  0.5087
 3431TIP3    H110257   4.326   4.166   5.799 -0.5613  0.1312  2.0311
 3431TIP3    H210258   4.384   4.042   5.736 -2.1972  0.1449  0.4177
 3432TIP3   OH210259   0.369   3.406   3.306  0.1266  0.4635 -0.6655
 3432TIP3    H110260   0.424   3.450   3.242 -0.8118 -1.2431 -2.7706
 3432TIP3    H210261   0.287   3.454   3.305 -0.0741  0.1125 -1.1596
 3433TIP3   OH210262   4.790   2.785   1.503  0.2175  0.2099  0.0982
 3433TIP3    H110263   4.820   2.751   1.587 -0.2597  0.2004  0.2697
 3433TIP3    H210264   4.781   2.707   1.447  0.7438  0.2385 -0.0354
 3434TIP3   OH210265   1.347   5.582   1.010  0.2861 -0.3104 -0.6310
 3434TIP3    H110266   1.259   5.618   1.020  0.4533 -0.3717  1.6548
 3434TIP3    H210267   1.403   5.659   1.000 -0.0120 -0.2813 -2.3637
 3435TIP3   OH210268   1.150   5.456   2.488 -0.4026  0.4342 -0.5222
 3435TIP3    H110269   1.067   5.477   2.445 -1.3447  0.4399  1.2164
 3435TIP3    H210270   1.134   5.372   2.530  0.6612  0.1897 -0.5878
 3436TIP3   OH210271   2.826   3.461   5.061 -0.2436  0.1305  0.5017
 3436TIP3    H110272   2.824   3.366   5.045 -0.3872  0.2421 -0.1946
 3436TIP3    H210273   2.798   3.499   4.977 -1.6508  0.7449  1.2195
 3437TIP3   OH210274   2.289   0.925   3.910 -0.1527  0.4630  0.1670
 3437TIP3    H110275   2.342   1.005   3.909 -0.8090  0.9011  0.3768
 3437TIP3    H210276   2.334   0.867   3.972 -0.5596  1.2778  1.2407
 3438TIP3   OH210277   5.168   5.870   4.218 -0.3798 -0.2771 -0.1961
 3438TIP3    H110278   5.242   5.925   4.191  1.2116 -2.2728 -0.0928
 3438TIP3    H210279   5.164   5.883   4.313  1.0875 -1.5481  0.0792
 3439TIP3   OH210280   2.289   3.945   0.846  0.3674  0.0943 -0.3286
 3439TIP3    H110281   2.254   3.898   0.921  1.1016 -0.5959 -0.3978
 3439TIP3    H210282   2.215   3.996   0.812 -0.1682 -0.1960  0.3867
 3440TIP3   OH210283   4.342   0.694   0.442  0.1979  0.6327 -0.2337
 3440TIP3    H110284   4.306   0.739   0.518 -0.4647 -1.3575  0.6987
 3440TIP3    H210285   4.273   0.634   0.415  1.9406 -1.7893  0.3119
 3441TIP3   OH210286   4.575   5.331   1.604  0.1412  0.3440 -0.5065
 3441TIP3    H110287   4.530   5.369   1.528 -0.0349 -0.5024 -0.8403
 3441TIP3    H210288   4.609   5.248   1.572 -1.0277 -0.6321  0.6594
 3442TIP3   OH210289   0.653   4.195   3.482 -0.3764 -0.0646 -0.6288
 3442TIP3    H110290   0.667   4.173   3.574  1.5000  0.5824 -0.7336
 3442TIP3    H210291   0.680   4.117   3.434  2.1642  0.8368 -0.7780
 3443TIP3   OH210292   1.688   1.059   0.074  0.5534  0.2422 -0.3570
 3443TIP3    H110293   1.612   1.094   0.027  0.4443 -0.2444 -0.5496
 3443TIP3    H210294   1.723   0.992   0.016  0.8156  0.0978 -0.0340
 3444TIP3   OH210295   4.379   2.399   2.830  0.4034  0.1208 -0.1876
 3444TIP3    H110296   4.329   2.391   2.749 -2.5497 -0.6799  1.5795
 3444TIP3    H210297   4.379   2.493   2.849  1.0003  0.2975 -0.9902
 3445TIP3   OH210298   0.395   1.915   1.880  0.3820 -0.2245 -0.0195
 3445TIP3    H110299   0.443   1.937   1.801  0.2071 -0.9944 -0.3443
 3445TIP3    H210300   0.384   1.999   1.926 -0.1439  0.3382 -1.1484
 3446TIP3   OH210301   6.952   5.041   3.419 -0.1604  0.0327 -0.0020
 3446TIP3    H110302   6.868   5.017   3.459 -1.9177  4.1703 -0.6434
 3446TIP3    H210303   6.932   5.051   3.326  1.1435  0.5880 -0.2440
 3447TIP3   OH210304   5.397   3.097   1.257  0.2978 -0.0630 -0.5479
 3447TIP3    H110305   5.476   3.147   1.278 -0.6841  1.8247 -1.1603
 3447TIP3    H210306   5.381   3.043   1.334  3.2280 -1.9772 -1.1129
 3448TIP3   OH210307   1.950   6.288   3.541  0.0516  0.1533  0.4045
 3448TIP3    H110308   1.930   6.194   3.533 -0.0247  0.2217 -0.3107
 3448TIP3    H210309   1.962   6.302   3.635  0.9060 -0.7477  0.4476
 3449TIP3   OH210310   5.876   3.548   0.022 -0.3199  0.3134  0.0300
 3449TIP3    H110311   5.947   3.542   0.085 -0.7874  1.0049  0.6420
 3449TIP3    H210312   5.907   3.610  -0.044  0.7273 -1.4278 -1.2137
 3450TIP3   OH210313   1.502   1.180   0.415 -0.3584 -0.0496  0.0984
 3450TIP3    H110314   1.481   1.185   0.322 -1.9736 -0.0052  0.4330
 3450TIP3    H210315   1.453   1.252   0.455  0.6024  0.1625  0.9348
 3451TIP3   OH210316   1.479   5.296   3.023  0.1968  0.5942  0.1460
 3451TIP3    H110317   1.435   5.381   3.017  1.9738  1.5259 -0.2692
 3451TIP3    H210318   1.407   5.233   3.019 -1.0850  2.0133 -1.2204
 3452TIP3   OH210319   0.630   0.876   5.672 -0.0911 -0.3244  0.2658
 3452TIP3    H110320   0.547   0.885   5.624 -0.4720  0.7265  1.0928
 3452TIP3    H210321   0.641   0.960   5.717  3.0724  0.8924 -2.3565
 3453TIP3   OH210322   4.174   2.330   4.505 -0.6341 -0.5836 -0.3188
 3453TIP3    H110323   4.107   2.379   4.551  0.0395 -0.1839  0.2652
 3453TIP3    H210324   4.238   2.396   4.478 -0.0442 -1.0581 -0.1042
 3454TIP3   OH210325   2.417   4.987   5.481 -0.3810 -0.0101 -0.0062
 3454TIP3    H110326   2.373   5.071   5.492  0.5637  0.3272  1.3330
 3454TIP3    H210327   2.501   5.009   5.441  0.3915 -0.1477  1.4745
 3455TIP3   OH210328   5.286   3.622   2.900  0.3333 -0.2015  0.2185
 3455TIP3    H110329   5.283   3.527   2.895 -0.5309 -0.1339 -1.1082
 3455TIP3    H210330   5.305   3.642   2.992 -1.2970 -1.6086  0.8919
 3456TIP3   OH210331   6.878   6.626   3.509  0.5407 -0.0839 -0.3648
 3456TIP3    H110332   6.839   6.540   3.495  0.1351  0.2377 -1.3282
 3456TIP3    H210333   6.804   6.686   3.509  0.9111  0.3780 -0.7709
 3457TIP3   OH210334   1.109   3.133   3.227 -0.6946 -0.6621  0.0980
 3457TIP3    H110335   1.080   3.081   3.152  1.7254  0.6722 -1.9500
 3457TIP3    H210336   1.161   3.072   3.280 -2.2666 -1.5711  0.6425
 3458TIP3   OH210337   3.730   6.651   4.193 -0.8781 -0.1820 -0.0383
 3458TIP3    H110338   3.767   6.592   4.127 -3.3005 -1.0949 -0.6619
 3458TIP3    H210339   3.770   6.736   4.175  1.8004 -1.2853  0.1234
 3459TIP3   OH210340   0.950   6.223   3.589  0.0129 -0.0508 -0.0296
 3459TIP3    H110341   0.887   6.155   3.612 -0.2950 -0.1463 -1.0903
 3459TIP3    H210342   0.998   6.188   3.515 -0.3803  1.0011 -0.8108
 3460TIP3   OH210343   5.820   3.890   0.264  0.3667 -0.4243  0.2327
 3460TIP3    H110344   5.890   3.828   0.285  2.6984  1.6171 -0.9884
 3460TIP3    H210345   5.854   3.939   0.190 -2.0696  1.2468  0.1309
 3461TIP3   OH210346   1.666   3.644   1.338 -0.1441 -0.0343  0.4110
 3461TIP3    H110347   1.651   3.715   1.275 -0.1279 -0.4187 -0.0370
 3461TIP3    H210348   1.711   3.685   1.411  1.1892  0.1595 -0.4735
 3462TIP3   OH210349   0.119   3.002   2.862 -0.2958  0.2442 -0.2615
 3462TIP3    H110350   0.102   3.095   2.877 -0.4467  0.0795  0.6704
 3462TIP3    H210351   0.037   2.958   2.883 -0.6316 -0.0092 -1.9531
 3463TIP3   OH210352   7.002   3.803   5.627 -0.1513  0.2183 -0.0694
 3463TIP3    H110353   7.060   3.828   5.699 -0.0838  0.0989 -0.0811
 3463TIP3    H210354   6.952   3.729   5.662  0.4007 -0.3208 -0.3889
 3464TIP3   OH210355   6.332   4.754   5.512 -0.1578 -0.2493  0.3924
 3464TIP3    H110356   6.375   4.827   5.557  1.9728 -1.0353 -0.2523
 3464TIP3    H210357   6.355   4.677   5.563 -0.8090 -0.7069  0.0109
 3465TIP3   OH210358   3.968   5.609   2.027  0.3089 -0.5505  0.5937
 3465TIP3    H110359   4.032   5.668   1.990  1.3556 -1.8054  0.3223
 3465TIP3    H210360   3.933   5.655   2.103  0.7126  0.6020  0.1000
 3466TIP3   OH210361   4.044   0.410   0.653  0.0032 -0.5053  0.2108
 3466TIP3    H110362   4.021   0.468   0.726  2.2034  1.4886 -0.5517
 3466TIP3    H210363   4.059   0.325   0.694 -2.7450 -0.5016  1.4550
 3467TIP3   OH210364   6.586   4.515   5.462  0.2297  0.0031 -0.4487
 3467TIP3    H110365   6.556   4.511   5.553  0.1451  2.5472 -0.2936
 3467TIP3    H210366   6.513   4.481   5.410  0.2236 -1.3382  0.3710
 3468TIP3   OH210367   2.653   3.939   1.474 -0.0001  0.0235  0.3873
 3468TIP3    H110368   2.685   3.866   1.527  0.7745  1.3691  1.8860
 3468TIP3    H210369   2.706   4.014   1.503  0.0363  0.9702 -1.8964
 3469TIP3   OH210370   1.598   1.274   1.182 -0.3258 -0.0101  0.0872
 3469TIP3    H110371   1.566   1.247   1.096  0.4951  1.2964 -0.6689
 3469TIP3    H210372   1.522   1.312   1.226 -0.5628  0.0729 -0.3909
 3470TIP3   OH210373   5.017   3.957   4.863  0.0184 -0.6403 -0.0028
 3470TIP3    H110374   4.950   4.002   4.812  0.9780  0.3813 -0.4188
 3470TIP3    H210375   5.004   3.987   4.953  1.4570  1.6325 -0.4573
 3471TIP3   OH210376   5.409   1.406   0.234  0.0990 -0.9646 -0.5048
 3471TIP3    H110377   5.447   1.431   0.318  1.0502 -0.5587 -1.0334
 3471TIP3    H210378   5.318   1.434   0.239  0.3341 -0.2743  0.1081
 3472TIP3   OH210379   0.939   3.568  -0.012 -0.3646 -0.7942 -0.2273
 3472TIP3    H110380   0.895   3.652  -0.022 -0.4082 -0.8418 -0.4379
 3472TIP3    H210381   1.007   3.584   0.054  0.9032 -0.1113 -1.6610
 3473TIP3   OH210382   4.285   5.090   1.400  0.4926 -0.5279 -0.3579
 3473TIP3    H110383   4.378   5.069   1.393 -0.1852 -3.6080 -1.6728
 3473TIP3    H210384   4.261   5.066   1.490  0.4842 -2.1838 -0.7799
 3474TIP3   OH210385   0.859   6.173   4.187  0.6700  0.2929  0.1568
 3474TIP3    H110386   0.823   6.086   4.203 -1.2216  1.0550  0.4409
 3474TIP3    H210387   0.802   6.210   4.119  1.8263  1.0868 -0.4161
 3475TIP3   OH210388   5.994   2.369   0.362  0.1838  0.0207  0.2866
 3475TIP3    H110389   6.082   2.369   0.326  0.0866  0.3982  0.0448
 3475TIP3    H210390   5.937   2.386   0.287 -0.1062 -0.3442  0.4178
 3476TIP3   OH210391   5.292   1.974   4.734  0.1145  0.4052  0.1685
 3476TIP3    H110392   5.291   1.879   4.742  1.1677  0.5167  2.3410
 3476TIP3    H210393   5.384   1.996   4.723 -0.0604  1.1918  0.2375
 3477TIP3   OH210394   0.663   0.098   0.353 -0.0351 -0.7627  0.3511
 3477TIP3    H110395   0.734   0.072   0.294  0.9372 -0.3737  1.3034
 3477TIP3    H210396   0.604   0.151   0.298  0.9536 -0.2316 -0.2330
 3478TIP3   OH210397   2.017   3.756   0.813  0.1284 -0.2259  0.3590
 3478TIP3    H110398   2.048   3.685   0.756 -0.8277 -0.4976  0.1633
 3478TIP3    H210399   1.946   3.797   0.764  0.1088  0.3253  0.8365
 3479TIP3   OH210400   6.706   3.135   2.510 -0.0340 -0.3004 -0.5020
 3479TIP3    H110401   6.640   3.159   2.445 -0.4268 -0.9504 -0.3543
 3479TIP3    H210402   6.741   3.218   2.541  0.0411  0.0253 -1.4256
 3480TIP3   OH210403   1.972   6.356   0.362 -0.4358 -0.4197  0.1308
 3480TIP3    H110404   1.923   6.342   0.281 -0.0355 -0.4561 -0.1106
 3480TIP3    H210405   2.017   6.439   0.348 -1.5341  0.3244  0.9144
 3481TIP3   OH210406   6.303   5.336   1.727  0.1240 -0.1293 -0.3397
 3481TIP3    H110407   6.233   5.324   1.792  1.4331  2.2840  1.6904
 3481TIP3    H210408   6.274   5.411   1.675  0.8657  0.4670  0.0919
 3482TIP3   OH210409   6.578   5.520   4.072  0.2612  0.3400  0.2416
 3482TIP3    H110410   6.667   5.522   4.106  0.3089 -2.1879  0.5184
 3482TIP3    H210411   6.574   5.438   4.021 -1.9489  0.2417  0.4723
 3483TIP3   OH210412   1.996   5.069   1.978  0.5338 -0.5519  0.2718
 3483TIP3    H110413   2.003   5.164   1.989 -1.9852 -0.3945  1.1767
 3483TIP3    H210414   2.013   5.054   1.886  2.0823  0.6359  0.3403
 3484TIP3   OH210415   6.851   4.340   1.481 -0.6468  0.8037 -0.6095
 3484TIP3    H110416   6.785   4.403   1.509 -2.1589 -0.1443 -1.8330
 3484TIP3    H210417   6.805   4.255   1.484  0.8092 -0.0179 -0.6035
 3485TIP3   OH210418   5.272   6.627   1.703  0.4868 -0.1539  0.0609
 3485TIP3    H110419   5.300   6.557   1.644  2.6256  0.5887  0.1091
 3485TIP3    H210420   5.286   6.708   1.654  0.6143  0.3737  0.9423
 3486TIP3   OH210421   5.526   1.785   0.614 -0.7724  0.2917 -0.5295
 3486TIP3    H110422   5.511   1.817   0.703  1.2917 -2.8672  1.1512
 3486TIP3    H210423   5.445   1.739   0.590 -0.9511  0.2386  0.1715
 3487TIP3   OH210424   2.474   4.597   3.517  0.2817 -0.0369 -0.5609
 3487TIP3    H110425   2.516   4.528   3.569  2.7338 -0.1181 -2.4775
 3487TIP3    H210426   2.533   4.611   3.444 -0.8078  3.2247 -0.9634
 3488TIP3   OH210427   4.399   0.542   3.688  0.0892 -0.0583 -0.3047
 3488TIP3    H110428   4.405   0.453   3.722  0.3080 -0.3806 -1.1471
 3488TIP3    H210429   4.310   0.570   3.711  0.5423  0.1039  1.3374
 3489TIP3   OH210430   2.087   6.712   5.422 -0.1635  0.0534 -0.1432
 3489TIP3    H110431   2.071   6.773   5.349  0.0916  0.2948 -0.0001
 3489TIP3    H210432   2.123   6.634   5.380  0.6065  0.4365 -0.2142
 3490TIP3   OH210433   1.972   1.291   3.238 -0.0542  0.3094  0.4883
 3490TIP3    H110434   1.888   1.331   3.260 -0.0192  0.1963  0.8308
 3490TIP3    H210435   2.011   1.350   3.174 -1.1754 -0.5226 -1.0340
 3491TIP3   OH210436   0.578   5.466   4.906  0.3227  0.2199 -0.0349
 3491TIP3    H110437   0.642   5.460   4.835  0.7713  0.8477  0.3099
 3491TIP3    H210438   0.599   5.548   4.950 -0.9680  0.6335 -0.1461
 3492TIP3   OH210439   4.022   3.328   2.788  0.3708 -0.0104  0.0814
 3492TIP3    H110440   4.076   3.293   2.860 -1.0223 -0.9896  0.6984
 3492TIP3    H210441   3.932   3.323   2.821 -0.0700  2.5259 -0.5344
 3493TIP3   OH210442   6.774   6.051   3.456  0.4093  0.1354 -0.2525
 3493TIP3    H110443   6.729   6.082   3.535  0.5589 -0.5220  0.0925
 3493TIP3    H210444   6.824   5.975   3.485 -1.4525 -1.6555 -1.4756
 3494TIP3   OH210445   6.585   1.230   3.724 -0.3575  0.0249 -0.3199
 3494TIP3    H110446   6.630   1.258   3.644  4.2510 -0.8398  1.6571
 3494TIP3    H210447   6.570   1.136   3.712 -2.3236  0.3925 -1.1610
 3495TIP3   OH210448   3.378   5.238   5.064 -0.1113  0.6097  0.4546
 3495TIP3    H110449   3.343   5.217   4.978  0.2202 -1.3656  0.7557
 3495TIP3    H210450   3.468   5.265   5.047  0.0499 -0.0660  0.1869
 3496TIP3   OH210451   6.200   4.164   1.202 -0.7060 -0.1859 -0.3305
 3496TIP3    H110452   6.120   4.113   1.186 -1.3575  0.9880 -0.9157
 3496TIP3    H210453   6.203   4.174   1.297 -1.2077 -0.3215 -0.2949
 3497TIP3   OH210454   4.264   0.203   5.633  0.0791 -0.1159  0.0310
 3497TIP3    H110455   4.257   0.107   5.638 -3.2031 -0.0731 -1.2167
 3497TIP3    H210456   4.307   0.219   5.549 -1.5178 -0.5731 -0.9314
 3498TIP3   OH210457   1.846   2.338   5.660 -0.2758 -0.3459 -0.1160
 3498TIP3    H110458   1.781   2.385   5.608  0.2471 -1.1978 -1.6118
 3498TIP3    H210459   1.797   2.301   5.734 -0.7979  1.9648  0.7532
 3499TIP3   OH210460   1.853   5.579   2.530 -0.2185  0.4391 -0.2449
 3499TIP3    H110461   1.923   5.534   2.483  0.5148  1.0482  0.2505
 3499TIP3    H210462   1.790   5.509   2.551 -0.3884  0.0910 -1.7836
 3500TIP3   OH210463   0.909   1.530   1.931 -0.2466 -0.0442 -0.1235
 3500TIP3    H110464   0.979   1.532   1.995 -0.5892 -0.5240  0.2794
 3500TIP3    H210465   0.866   1.615   1.939  0.3280  0.2795 -0.4261
 3501TIP3   OH210466   6.848   2.850   1.155  0.4438  0.3823  0.2632
 3501TIP3    H110467   6.788   2.852   1.080  0.6955  0.0093  0.0523
 3501TIP3    H210468   6.878   2.941   1.163  2.4368 -0.0135 -1.7356
 3502TIP3   OH210469   0.668   4.934   2.374  0.0799 -0.4181  0.1270
 3502TIP3    H110470   0.626   4.941   2.460 -0.0550 -0.7247  0.0888
 3502TIP3    H210471   0.622   4.861   2.332  0.2598 -0.3759 -0.1402
 3503TIP3   OH210472   3.616   1.415   4.352 -0.0546  0.0007 -0.4804
 3503TIP3    H110473   3.693   1.447   4.398 -0.7257  0.6699  0.1992
 3503TIP3    H210474   3.591   1.335   4.399 -0.7659  0.7069  0.3879
 3504TIP3   OH210475   5.367   0.064   2.977  0.3244 -0.4260 -0.2699
 3504TIP3    H110476   5.338   0.009   3.050 -0.5981 -1.4238 -1.3587
 3504TIP3    H210477   5.458   0.039   2.964  0.6166  0.0397  0.7757
 3505TIP3   OH210478   4.544   4.035   1.744  0.0901  0.3287  0.1918
 3505TIP3    H110479   4.465   4.073   1.704 -0.4564  1.2802  2.0758
 3505TIP3    H210480   4.615   4.061   1.686 -0.9630 -0.8396 -1.7600
 3506TIP3   OH210481   6.127   0.477   0.525 -0.6193 -0.7974 -0.0058
 3506TIP3    H110482   6.171   0.488   0.609 -0.4725 -1.0616 -0.0480
 3506TIP3    H210483   6.061   0.410   0.540 -0.6159 -0.8205 -0.0900
 3507TIP3   OH210484   2.293   4.099   3.502  0.6669  0.4698  0.1336
 3507TIP3    H110485   2.318   4.041   3.574 -2.4433 -3.0942 -1.2813
 3507TIP3    H210486   2.343   4.067   3.427 -1.5606 -1.1030 -0.8112
 3508TIP3   OH210487   3.964   2.190   5.189  0.2453 -0.1878 -0.3485
 3508TIP3    H110488   3.887   2.243   5.167 -0.7593 -1.4277  0.0194
 3508TIP3    H210489   3.976   2.133   5.113 -0.2171 -1.1167  0.2646
 3509TIP3   OH210490   0.346   5.553   5.367  0.4821 -0.1449  0.5608
 3509TIP3    H110491   0.412   5.486   5.349  0.5051 -0.1787  0.7730
 3509TIP3    H210492   0.321   5.584   5.280  2.1149  1.1786  0.5062
 3510TIP3   OH210493   3.780   3.014   0.046 -0.4342  0.2789  0.1595
 3510TIP3    H110494   3.832   2.982   0.120  0.4285  1.5192  0.1161
 3510TIP3    H210495   3.762   2.936  -0.006 -0.4442 -0.5031  1.3038
 3511TIP3   OH210496   6.415   1.336   1.636  0.2345  0.3732 -0.3633
 3511TIP3    H110497   6.411   1.257   1.691  0.2681  0.7342  0.1633
 3511TIP3    H210498   6.351   1.320   1.566  0.9141 -0.5199 -0.7942
 3512TIP3   OH210499   2.488   5.880   1.554  0.5271 -0.4526 -0.9001
 3512TIP3    H110500   2.577   5.898   1.585 -0.0438 -0.5967  0.9487
 3512TIP3    H210501   2.464   5.957   1.503  0.5207  1.1884  1.4072
 3513TIP3   OH210502   6.140   3.150   5.870 -0.4812 -1.1561 -0.2922
 3513TIP3    H110503   6.079   3.209   5.913 -0.2598 -0.1955 -1.2431
 3513TIP3    H210504   6.084   3.090   5.820 -0.7484 -2.4676  1.5065
 3514TIP3   OH210505   4.506   0.460   0.940 -0.1535  0.6031  0.1470
 3514TIP3    H110506   4.486   0.367   0.944  0.1929  0.4629 -0.9287
 3514TIP3    H210507   4.454   0.492   0.866  1.1462  0.8627 -0.6893
 3515TIP3   OH210508   2.086   1.828   4.314 -0.2724  0.4775 -0.7687
 3515TIP3    H110509   2.165   1.791   4.354 -0.9825 -1.1500 -0.7904
 3515TIP3    H210510   2.070   1.773   4.237 -1.6992  0.4500 -0.4844
 3516TIP3   OH210511   6.116   5.639   1.106 -0.6727  0.2120 -0.3545
 3516TIP3    H110512   6.046   5.630   1.041 -1.4361  0.6301  0.4046
 3516TIP3    H210513   6.075   5.620   1.190  0.0534  0.7406  0.1343
 3517TIP3   OH210514   5.255   1.967   3.377 -0.3463  0.2066 -0.1088
 3517TIP3    H110515   5.251   1.875   3.349 -1.0336  0.3029 -0.3599
 3517TIP3    H210516   5.215   1.967   3.464 -0.6203  0.3140 -0.2350
 3518TIP3   OH210517   2.238   2.524   3.063 -0.0408  0.4125 -0.5189
 3518TIP3    H110518   2.225   2.433   3.037  0.0346  0.3726 -0.4147
 3518TIP3    H210519   2.189   2.533   3.144 -0.2729  0.5370 -0.6698
 3519TIP3   OH210520   0.984   5.374   1.424  0.1201 -0.1807  0.1917
 3519TIP3    H110521   0.909   5.364   1.366 -1.0216  0.8300  1.4204
 3519TIP3    H210522   1.032   5.449   1.389 -0.3513  0.1866  0.3237
 3520TIP3   OH210523   2.172   3.376   2.659  0.0483  0.1262 -0.0495
 3520TIP3    H110524   2.259   3.348   2.690 -0.3925 -1.1848  0.0655
 3520TIP3    H210525   2.187   3.406   2.570  0.6180 -0.1106 -0.0386
 3521TIP3   OH210526   1.725   3.050   5.702  0.6178  0.1800 -0.3692
 3521TIP3    H110527   1.659   3.029   5.637  0.3089  1.5607 -0.5249
 3521TIP3    H210528   1.795   2.986   5.688 -0.4278 -0.9441 -0.5621
 3522TIP3   OH210529   1.464   5.965   2.036 -0.0065 -0.3571 -0.1662
 3522TIP3    H110530   1.529   5.991   2.101 -1.4310  1.9996  0.4255
 3522TIP3    H210531   1.468   6.032   1.968 -2.0877  0.1290  0.1070
 3523TIP3   OH210532   5.395   0.556   5.290 -0.2757 -0.3599 -0.2413
 3523TIP3    H110533   5.422   0.511   5.370 -0.1295  1.8737  1.0574
 3523TIP3    H210534   5.307   0.523   5.273 -0.2468 -1.0001  0.7407
 3524TIP3   OH210535   1.933   3.278   1.276  0.4143  0.8089 -0.3248
 3524TIP3    H110536   1.922   3.372   1.289 -0.0938  0.7677 -0.4080
 3524TIP3    H210537   1.978   3.248   1.354  0.7733  1.1560 -0.3961
 3525TIP3   OH210538   1.447   5.157   4.992  0.1535  0.2134  0.3649
 3525TIP3    H110539   1.406   5.206   4.921 -0.3465  1.5402  1.5221
 3525TIP3    H210540   1.375   5.113   5.037  0.3839 -0.0929  0.4432
 3526TIP3   OH210541   5.973   4.735   5.761  0.2104 -0.1618  0.6988
 3526TIP3    H110542   5.921   4.813   5.743  2.0224  1.4763  2.0089
 3526TIP3    H210543   5.921   4.685   5.824 -0.6534  0.3608  0.4158
 3527TIP3   OH210544   2.060   5.792   4.052  0.9295  0.4249  0.0780
 3527TIP3    H110545   1.991   5.751   4.000 -0.6558  1.1802  1.5216
 3527TIP3    H210546   2.079   5.728   4.121  0.5241  0.8699  0.6122
 3528TIP3   OH210547   6.860   5.049   3.180  0.3304 -0.0622 -0.8628
 3528TIP3    H110548   6.874   5.143   3.170  1.1146 -0.1289 -0.4654
 3528TIP3    H210549   6.868   5.014   3.091  0.8580  0.1467 -0.9015
 3529TIP3   OH210550   4.855   2.132   3.231 -0.3158 -0.0139 -0.2723
 3529TIP3    H110551   4.849   2.213   3.180  1.3239  0.5695  0.4007
 3529TIP3    H210552   4.899   2.157   3.312  2.3633 -1.9090 -0.9664
 3530TIP3   OH210553   3.315   6.392   2.895  0.2447  0.3324  0.6426
 3530TIP3    H110554   3.307   6.299   2.917  0.4055  0.5620  1.7371
 3530TIP3    H210555   3.395   6.420   2.940  0.7113  0.7944 -0.4440
 3531TIP3   OH210556   1.581   2.899   3.582  0.5417 -0.2930 -0.1361
 3531TIP3    H110557   1.586   2.945   3.666  0.1864  0.2346 -0.3935
 3531TIP3    H210558   1.670   2.867   3.567  0.7921  0.2948  0.0660
 3532TIP3   OH210559   6.860   2.535   4.228 -0.0158 -0.3925 -0.0208
 3532TIP3    H110560   6.849   2.444   4.256  0.9819 -0.0001  1.7468
 3532TIP3    H210561   6.930   2.531   4.163 -1.2250 -1.0916 -1.3389
 3533TIP3   OH210562   6.806   2.447   4.644 -0.2872 -0.0785  0.5825
 3533TIP3    H110563   6.741   2.383   4.671  0.9399 -0.4609  2.8788
 3533TIP3    H210564   6.774   2.530   4.677 -0.3430 -0.0135  0.3684
 3534TIP3   OH210565   6.103   0.072   3.940 -0.0700 -0.5596  0.2188
 3534TIP3    H110566   6.110  -0.015   3.979 -1.1552  0.0077  1.7834
 3534TIP3    H210567   6.033   0.064   3.875 -2.3445 -0.2661  2.4256
 3535TIP3   OH210568   5.250   6.506   2.169 -0.4992  0.1140  0.5810
 3535TIP3    H110569   5.221   6.597   2.179 -1.9909 -0.4544  2.0485
 3535TIP3    H210570   5.319   6.509   2.104  0.0787  2.4205  1.2201
 3536TIP3   OH210571   3.960   0.643   3.962 -0.2588 -0.3698  0.0643
 3536TIP3    H110572   4.000   0.664   4.046 -2.6512  1.3225  0.8915
 3536TIP3    H210573   3.905   0.567   3.980  0.2268 -0.8200 -0.3197
 3537TIP3   OH210574   2.492   3.949   4.717  0.0146 -0.9568 -0.1738
 3537TIP3    H110575   2.511   3.959   4.810  0.5882  0.6092 -0.4234
 3537TIP3    H210576   2.565   3.898   4.683  0.9766  0.3206 -0.1213
 3538TIP3   OH210577   3.372   4.052   1.334 -0.1473  0.1936  0.2242
 3538TIP3    H110578   3.303   4.115   1.314  0.9257  1.9393  1.7389
 3538TIP3    H210579   3.453   4.096   1.307  0.5120 -1.3316 -0.4140
 3539TIP3   OH210580   0.112   4.080   0.943 -0.4215 -0.1069 -0.4576
 3539TIP3    H110581   0.080   4.010   1.000  0.1489  1.2850  1.6902
 3539TIP3    H210582   0.033   4.117   0.904 -0.7465 -1.7668 -1.5033
 3540TIP3   OH210583   7.194   2.696   3.768 -0.2599  0.4893 -0.4696
 3540TIP3    H110584   7.235   2.711   3.682  1.6337  0.7869  0.4395
 3540TIP3    H210585   7.202   2.779   3.814 -2.1346  0.6219 -0.3011
 3541TIP3   OH210586   4.471   5.457   2.015 -0.2037  0.1605  0.5472
 3541TIP3    H110587   4.443   5.511   1.941  1.6523 -0.9685 -1.0879
 3541TIP3    H210588   4.533   5.512   2.062 -1.3417  0.8600  1.2769
 3542TIP3   OH210589   0.695   2.626   0.565  0.2296 -0.2506  0.6654
 3542TIP3    H110590   0.692   2.570   0.643  2.2364 -1.3511  0.0293
 3542TIP3    H210591   0.785   2.617   0.533 -0.5299  0.1797 -1.7694
 3543TIP3   OH210592   0.767   5.453   2.109 -0.0130  0.0100  0.1972
 3543TIP3    H110593   0.841   5.422   2.162 -1.6411 -2.5208  1.1624
 3543TIP3    H210594   0.690   5.433   2.162 -1.5245  0.6357 -1.6799
 3544TIP3   OH210595   2.255   3.947   1.750  0.1922  0.2229 -0.1814
 3544TIP3    H110596   2.229   3.887   1.820 -1.4224  2.5023  1.3261
 3544TIP3    H210597   2.341   3.980   1.776 -0.0877  0.5227  0.3768
 3545TIP3   OH210598   0.598   5.504   1.695  0.9031 -0.0680  0.1261
 3545TIP3    H110599   0.680   5.553   1.690  0.8138  0.1508  0.7128
 3545TIP3    H210600   0.541   5.557   1.750  0.3297 -0.1744 -0.3601
 3546TIP3   OH210601   1.473   2.256   0.498  0.0468 -0.0754 -0.2408
 3546TIP3    H110602   1.422   2.335   0.482  1.5455  1.0974  0.5269
 3546TIP3    H210603   1.424   2.187   0.453 -1.1301  1.3160 -1.2092
 3547TIP3   OH210604   3.069   0.275   3.778 -0.2753 -0.0862 -0.5491
 3547TIP3    H110605   3.068   0.184   3.748  0.5354  0.0046 -0.8569
 3547TIP3    H210606   3.013   0.321   3.716  2.4352  0.3587 -2.8455
 3548TIP3   OH210607   3.627   6.132   1.508  0.5077  0.4172 -0.3292
 3548TIP3    H110608   3.628   6.106   1.599 -0.7882 -1.3094 -0.7651
 3548TIP3    H210609   3.704   6.089   1.469 -1.6456 -3.1390 -1.0600
 3549TIP3   OH210610   1.374   0.899   1.433 -0.2835  0.2760 -0.4410
 3549TIP3    H110611   1.458   0.856   1.417  0.2609  1.0073  0.3711
 3549TIP3    H210612   1.312   0.826   1.443  0.6796 -0.3600  1.2711
 3550TIP3   OH210613   3.515   2.506   5.300 -0.3426  0.1894 -0.2566
 3550TIP3    H110614   3.493   2.495   5.392 -0.0498 -0.0165 -0.2103
 3550TIP3    H210615   3.551   2.421   5.274 -0.2052  0.3208 -0.5001
 3551TIP3   OH210616   4.759   0.824   5.863 -0.7422 -0.0458 -0.0477
 3551TIP3    H110617   4.817   0.899   5.851 -0.9037  0.5390  2.2359
 3551TIP3    H210618   4.803   0.751   5.820  0.4154  0.9200 -0.5468
 3552TIP3   OH210619   6.567   2.832   4.883 -0.1005 -0.1027  0.2123
 3552TIP3    H110620   6.636   2.818   4.948  0.5157 -3.8209 -1.0076
 3552TIP3    H210621   6.486   2.806   4.927  0.2837 -2.3819 -0.3173
 3553TIP3   OH210622   4.412   4.148   1.983  0.8390 -0.3266  0.0871
 3553TIP3    H110623   4.406   4.243   1.970  0.5725 -0.2514  0.7089
 3553TIP3    H210624   4.451   4.115   1.902 -2.2206 -0.1083 -1.6208
 3554TIP3   OH210625   1.060   5.060   3.110  0.3544 -0.2522  0.2241
 3554TIP3    H110626   1.118   5.129   3.139  1.2799 -0.6804 -0.5508
 3554TIP3    H210627   0.979   5.105   3.085  0.1000  0.2820  1.8937
 3555TIP3   OH210628   6.081   3.570   4.005 -0.2014 -0.4617  0.0473
 3555TIP3    H110629   6.056   3.633   4.073 -1.1834  0.6374 -1.2736
 3555TIP3    H210630   6.023   3.495   4.019  0.3018 -0.6743  1.0332
 3556TIP3   OH210631   1.203   3.023   4.430  0.2464 -0.1474 -0.0432
 3556TIP3    H110632   1.263   2.949   4.423  2.3563  1.4722  0.1143
 3556TIP3    H210633   1.227   3.065   4.513 -0.4800  1.0821 -0.4382
 3557TIP3   OH210634   2.297   2.431   5.666 -0.2903 -0.3865 -0.3117
 3557TIP3    H110635   2.222   2.480   5.633  0.4209 -0.2399 -1.8296
 3557TIP3    H210636   2.363   2.440   5.597  1.0447 -0.6895  0.8828
 3558TIP3   OH210637   3.988   3.395   3.709  0.3059 -0.3213 -0.0025
 3558TIP3    H110638   3.960   3.305   3.693  3.0795 -1.0514 -1.2387
 3558TIP3    H210639   3.922   3.448   3.664 -0.4205 -1.8116 -0.7919
 3559TIP3   OH210640   5.413   5.964   2.089 -0.1246  0.4609 -0.2027
 3559TIP3    H110641   5.437   5.877   2.058 -0.3895  0.4429 -0.3660
 3559TIP3    H210642   5.342   5.992   2.030 -0.1052  0.7465 -0.0941
 3560TIP3   OH210643   4.585   4.140   0.685 -0.2909 -0.2870  0.2806
 3560TIP3    H110644   4.559   4.054   0.717  0.0914 -1.6498 -2.6755
 3560TIP3    H210645   4.554   4.141   0.594 -1.3999  3.2513  0.5581
 3561TIP3   OH210646   0.554   4.445   2.387  0.1567  0.0686 -0.4413
 3561TIP3    H110647   0.639   4.405   2.370  0.4417  1.1127 -1.6329
 3561TIP3    H210648   0.567   4.539   2.371 -0.4916  0.6944  2.2608
 3562TIP3   OH210649   5.319   1.079   4.900  0.2827  0.2241  0.1587
 3562TIP3    H110650   5.277   1.098   4.984  1.1153 -1.0831  0.9083
 3562TIP3    H210651   5.406   1.047   4.923  0.1003 -1.3464 -1.1270
 3563TIP3   OH210652   6.950   3.436   1.718 -0.8575 -0.3235 -0.0784
 3563TIP3    H110653   6.959   3.346   1.688 -1.3932 -0.1980 -0.6352
 3563TIP3    H210654   6.965   3.432   1.812 -1.9093 -1.1751  0.0744
 3564TIP3   OH210655   1.871   6.774   3.456 -0.0688  0.4070  0.1209
 3564TIP3    H110656   1.868   6.869   3.471 -2.1252  0.0844  2.5220
 3564TIP3    H210657   1.929   6.741   3.524  2.9864  0.0663 -2.4483
 3565TIP3   OH210658   6.728   4.811   2.396 -0.0823 -0.1450  0.2285
 3565TIP3    H110659   6.660   4.748   2.373 -1.5573  1.1044  0.9454
 3565TIP3    H210660   6.760   4.844   2.312 -0.8140 -0.3104 -0.1265
 3566TIP3   OH210661   1.011   5.007   4.717 -0.0238 -0.1713  0.3660
 3566TIP3    H110662   0.947   4.976   4.781  0.8962  0.4630  1.6256
 3566TIP3    H210663   1.045   4.928   4.676 -0.4720 -0.5994  0.8051
 3567TIP3   OH210664   2.646   5.227   0.997 -0.1292 -0.5832 -0.2450
 3567TIP3    H110665   2.595   5.258   1.072  1.2524 -1.7215  1.2317
 3567TIP3    H210666   2.705   5.299   0.977 -0.0121 -0.5451  0.2353
 3568TIP3   OH210667   1.862   1.180   4.406 -0.1830  0.7178 -0.0706
 3568TIP3    H110668   1.906   1.136   4.478 -0.0864 -0.6829 -0.9462
 3568TIP3    H210669   1.777   1.206   4.442 -0.5926 -0.9621  0.2550
 3569TIP3   OH210670   0.536   6.242   0.776  0.1404 -0.2359 -0.1887
 3569TIP3    H110671   0.472   6.205   0.715 -0.3545 -1.1744  0.8821
 3569TIP3    H210672   0.566   6.322   0.732 -1.2500 -0.1356 -1.0237
 3570TIP3   OH210673   6.630   5.515   4.539  0.1454 -0.7107 -0.5772
 3570TIP3    H110674   6.598   5.605   4.544 -0.4342 -0.9082 -0.6269
 3570TIP3    H210675   6.671   5.508   4.453 -0.7453 -0.7876 -1.0079
 3571TIP3   OH210676   0.827   4.840   5.017  0.1173  0.0808  0.2054
 3571TIP3    H110677   0.840   4.935   5.017  0.1901  0.0762 -0.6075
 3571TIP3    H210678   0.734   4.829   4.998  0.4186 -0.0283 -1.3416
 3572TIP3   OH210679   5.891   4.025   3.369  0.3861  0.0221 -0.5826
 3572TIP3    H110680   5.955   4.007   3.437 -1.4134 -2.7176  0.5807
 3572TIP3    H210681   5.853   4.110   3.393  0.4256 -0.4660  1.3577
 3573TIP3   OH210682   1.022   5.833   2.990  0.5948 -0.0342  0.2443
 3573TIP3    H110683   0.957   5.899   2.964  0.8997 -0.0481 -0.6020
 3573TIP3    H210684   0.985   5.750   2.960  1.0635 -0.0249 -0.3814
 3574TIP3   OH210685   2.925   4.971   5.485  0.1691  0.0511  0.0411
 3574TIP3    H110686   2.991   4.952   5.418  0.5711  2.6719 -0.4201
 3574TIP3    H210687   2.861   5.027   5.441 -0.5585  0.3134  1.3637
 3575TIP3   OH210688   5.987   0.981   2.348  0.0909  0.1708  0.3209
 3575TIP3    H110689   6.059   1.025   2.302  0.2683 -0.0872  0.3499
 3575TIP3    H210690   6.027   0.903   2.386 -0.2943 -0.1833  0.0066
 3576TIP3   OH210691   3.075   0.779   0.074  0.5702 -0.3620  0.0331
 3576TIP3    H110692   3.050   0.694   0.040 -2.4944  0.7209 -0.7409
 3576TIP3    H210693   3.039   0.781   0.163 -0.6187  0.5766 -0.4426
 3577TIP3   OH210694   3.614   1.434   3.572  0.5073 -0.0587 -0.3021
 3577TIP3    H110695   3.693   1.488   3.580  1.8309 -2.1238  1.7430
 3577TIP3    H210696   3.542   1.493   3.597  1.8057  0.9972  1.1260
 3578TIP3   OH210697   6.938   4.628   1.273 -0.5825  0.5540  0.0138
 3578TIP3    H110698   6.935   4.626   1.177 -0.5316 -2.2219 -0.0320
 3578TIP3    H210699   6.847   4.614   1.300 -0.5346  0.9092  0.3663
 3579TIP3   OH210700   6.825   5.077   0.949  0.1063  0.0973  0.8794
 3579TIP3    H110701   6.769   5.065   1.026  0.1904  1.6675  1.2228
 3579TIP3    H210702   6.905   5.030   0.970 -0.8867 -1.8545  0.5466
 3580TIP3   OH210703   2.492   5.277   5.653 -0.4155 -0.2042 -0.0567
 3580TIP3    H110704   2.537   5.358   5.630 -0.9418  0.0775 -0.1088
 3580TIP3    H210705   2.548   5.208   5.618  0.3398  0.1139  0.5146
 3581TIP3   OH210706   4.767   0.301   0.076 -0.8584  0.1450 -0.1580
 3581TIP3    H110707   4.690   0.244   0.073  0.6299 -1.9719  0.0979
 3581TIP3    H210708   4.748   0.369   0.010 -2.8205 -0.4303 -0.2588
 3582TIP3   OH210709   4.568   6.282   4.031 -0.1892  0.0585  0.1593
 3582TIP3    H110710   4.532   6.218   3.969  0.9942  0.1038 -0.6264
 3582TIP3    H210711   4.519   6.362   4.015  0.3744  0.1905 -1.0611
 3583TIP3   OH210712   5.784   2.380   2.969  0.4373 -0.2408  0.4709
 3583TIP3    H110713   5.704   2.357   3.016 -0.2994 -2.5150 -1.7132
 3583TIP3    H210714   5.829   2.296   2.956  2.1331  0.7238 -0.2130
 3584TIP3   OH210715   5.758   1.324   0.803 -0.5563  0.5263 -0.0886
 3584TIP3    H110716   5.794   1.236   0.794 -1.1131  0.3638 -0.8363
 3584TIP3    H210717   5.664   1.314   0.788 -0.6454  1.2237 -0.0344
 3585TIP3   OH210718   2.934   4.783   2.335 -0.3184 -0.1587  0.0010
 3585TIP3    H110719   2.850   4.828   2.346 -1.2119 -2.3648  5.0649
 3585TIP3    H210720   2.910   4.694   2.307  0.6136 -0.1619 -0.8378
 3586TIP3   OH210721   7.154   3.764   4.160 -0.1683 -0.2800  0.3933
 3586TIP3    H110722   7.168   3.810   4.242  0.1569 -0.1500  0.2692
 3586TIP3    H210723   7.095   3.820   4.110  1.4061  0.7982 -0.3763
 3587TIP3   OH210724   7.026   1.677   0.747 -0.2960  0.3581  0.3612
 3587TIP3    H110725   7.001   1.651   0.658  1.4138  0.7302 -0.2607
 3587TIP3    H210726   7.001   1.602   0.802  0.0265 -0.5315 -0.6693
 3588TIP3   OH210727   6.468   5.494   2.174 -0.6405 -0.1707 -0.1835
 3588TIP3    H110728   6.457   5.589   2.172  1.7804  0.2033  0.3566
 3588TIP3    H210729   6.518   5.475   2.095 -0.1887 -0.8153  0.2493
 3589TIP3   OH210730   3.991   3.741   3.493 -0.4008 -0.1763  0.1546
 3589TIP3    H110731   4.016   3.805   3.560  3.0046 -0.0153 -1.0663
 3589TIP3    H210732   3.971   3.795   3.416  0.5537 -0.4828 -0.3198
 3590TIP3   OH210733   4.194   4.630   0.362  0.0098 -0.2523 -0.6897
 3590TIP3    H110734   4.256   4.624   0.435 -2.2267  1.6999  1.5570
 3590TIP3    H210735   4.129   4.562   0.380  0.2787 -0.8368 -1.8187
 3591TIP3   OH210736   4.436   1.788   0.505  0.1237  0.1607  0.1284
 3591TIP3    H110737   4.507   1.841   0.469  0.0154  0.0970 -0.1773
 3591TIP3    H210738   4.367   1.851   0.525  0.0555  0.1526 -0.0873
 3592TIP3   OH210739   4.559   3.615   5.103  0.2661  0.8422  0.2677
 3592TIP3    H110740   4.577   3.699   5.061  1.3205  1.3681  1.6899
 3592TIP3    H210741   4.633   3.560   5.079  0.7700  1.0812  1.2267
 3593TIP3   OH210742   0.075   2.769   0.480 -0.1902  0.1049 -0.1271
 3593TIP3    H110743   0.151   2.806   0.436 -0.4734 -0.5050 -1.1591
 3593TIP3    H210744   0.029   2.845   0.516  1.5049  0.4074  1.5680
 3594TIP3   OH210745   6.057   4.551   3.095  0.4435 -0.1467  0.2248
 3594TIP3    H110746   6.011   4.475   3.131  0.4880  0.2357  1.1252
 3594TIP3    H210747   6.128   4.513   3.043 -0.7691 -0.7411 -1.0709
 3595TIP3   OH210748   5.231   6.674   5.776 -0.2301 -0.0180  0.0006
 3595TIP3    H110749   5.298   6.655   5.842  0.5260 -1.2489 -1.0782
 3595TIP3    H210750   5.176   6.741   5.817 -0.0720 -1.0835  2.0674
 3596TIP3   OH210751   3.096   6.484   5.356 -0.2485  0.0980 -0.3443
 3596TIP3    H110752   3.068   6.504   5.446 -0.9392 -1.9835 -0.0485
 3596TIP3    H210753   3.018   6.499   5.303 -0.2838 -0.1745 -0.3689
 3597TIP3   OH210754   0.281   4.482   5.845 -0.0495  0.4526 -0.0448
 3597TIP3    H110755   0.235   4.426   5.908 -0.2647  1.0983  0.3822
 3597TIP3    H210756   0.371   4.485   5.877 -0.7736  3.2568  2.0614
 3598TIP3   OH210757   2.249   1.542   1.237  0.1829  0.0649 -0.1828
 3598TIP3    H110758   2.299   1.619   1.213 -1.6279  1.5661  0.6127
 3598TIP3    H210759   2.315   1.475   1.257  1.8198  1.7169  0.1734
 3599TIP3   OH210760   5.066   5.367   0.715  0.2976 -0.0832 -0.3818
 3599TIP3    H110761   5.061   5.461   0.695  1.1061  0.0495 -0.0298
 3599TIP3    H210762   5.002   5.354   0.785  0.6861  0.3699  0.0761
 3600TIP3   OH210763   1.854   2.009   5.479  0.6602  0.6198 -0.1067
 3600TIP3    H110764   1.841   1.952   5.404  1.4783 -0.0334  0.2345
 3600TIP3    H210765   1.779   2.069   5.477 -0.1939 -0.4369 -0.4919
 3601TIP3   OH210766   1.267   0.417   4.468 -0.2425 -0.4567 -0.1514
 3601TIP3    H110767   1.203   0.484   4.441 -0.7816 -0.7103  0.4629
 3601TIP3    H210768   1.257   0.412   4.564  0.7174 -0.4857 -0.0453
 3602TIP3   OH210769   4.426   1.532   1.985 -0.1327 -0.0082 -0.6489
 3602TIP3    H110770   4.419   1.443   2.019 -1.0964  0.6317  0.9828
 3602TIP3    H210771   4.361   1.537   1.915 -1.0470 -0.2188  0.1620
 3603TIP3   OH210772   3.195   0.932   3.642 -0.0006  0.4083  0.0476
 3603TIP3    H110773   3.108   0.943   3.604 -0.0479  1.9633  0.5098
 3603TIP3    H210774   3.186   0.960   3.733  1.0525  0.9757 -0.0014
 3604TIP3   OH210775   3.198   4.411   5.641  0.7803 -0.3083 -0.0041
 3604TIP3    H110776   3.107   4.435   5.622  0.5793 -0.8823  0.2125
 3604TIP3    H210777   3.192   4.325   5.681  1.5198 -0.9817 -1.2669
 3605TIP3   OH210778   4.580   2.104   3.048  0.1732  0.0695 -0.0591
 3605TIP3    H110779   4.602   2.185   3.001  0.7712  0.0118  0.1142
 3605TIP3    H210780   4.648   2.042   3.020 -1.4647 -1.0271 -1.8469
 3606TIP3   OH210781   2.102   4.988   0.936  0.9136  0.3081 -0.4681
 3606TIP3    H110782   2.107   4.893   0.926  2.2564  0.3396 -0.2510
 3606TIP3    H210783   2.186   5.020   0.905 -0.6193  1.7580 -3.5981
 3607TIP3   OH210784   1.230   5.287   3.183 -0.2486  0.1070  0.0322
 3607TIP3    H110785   1.259   5.357   3.124 -1.2848 -0.3837 -1.1018
 3607TIP3    H210786   1.311   5.243   3.209  0.3503  1.2810  0.1898
 3608TIP3   OH210787   0.276   0.389   3.809  0.0672  0.4196  0.0195
 3608TIP3    H110788   0.247   0.360   3.895 -0.1146 -0.6048 -0.3727
 3608TIP3    H210789   0.322   0.313   3.773  1.1336  1.2090 -0.3358
 3609TIP3   OH210790   4.426   0.640   2.344 -0.0173 -0.3962 -0.4024
 3609TIP3    H110791   4.446   0.646   2.438 -1.0784 -1.3811 -0.0880
 3609TIP3    H210792   4.472   0.562   2.314 -1.0519 -1.0600 -0.3019
 3610TIP3   OH210793   3.958   6.393   5.398  0.5143 -0.1110 -0.2817
 3610TIP3    H110794   4.010   6.316   5.423 -0.3143 -0.5787  0.0326
 3610TIP3    H210795   3.946   6.441   5.480 -0.3018 -0.4771 -0.1757
 3611TIP3   OH210796   6.587   1.155   0.638  0.1564  0.6536 -0.1784
 3611TIP3    H110797   6.644   1.203   0.578  0.7141  0.1131 -0.1034
 3611TIP3    H210798   6.642   1.082   0.669 -0.7840 -0.2699 -0.6172
 3612TIP3   OH210799   5.798   1.822   3.894 -0.3801 -0.1368  1.1208
 3612TIP3    H110800   5.826   1.764   3.965  0.5563  0.1721  1.0191
 3612TIP3    H210801   5.842   1.905   3.912 -0.0321 -0.0909  0.1117
 3613TIP3   OH210802   3.823   1.401   3.306  0.1154  0.0202 -0.0137
 3613TIP3    H110803   3.755   1.335   3.321 -0.0443  0.0482 -0.5625
 3613TIP3    H210804   3.848   1.388   3.214 -0.1252  0.9118 -0.2141
 3614TIP3   OH210805   5.468   1.486   3.397 -0.6669 -0.4224  0.2087
 3614TIP3    H110806   5.422   1.501   3.314 -0.9663  1.3087  0.6297
 3614TIP3    H210807   5.516   1.405   3.384 -1.0387 -0.4114 -1.5175
 3615TIP3   OH210808   2.052   0.567   1.835 -0.2367 -0.0732  0.4694
 3615TIP3    H110809   2.108   0.595   1.762 -0.9452 -0.0997 -0.0899
 3615TIP3    H210810   2.035   0.647   1.884 -0.4322  0.0866  0.1402
 3616TIP3   OH210811   6.937   3.982   0.882  0.6341 -0.5957  0.2965
 3616TIP3    H110812   6.993   4.060   0.872 -0.3166 -0.0712 -1.2976
 3616TIP3    H210813   6.865   4.012   0.938  0.2726 -0.3036 -0.3094
 3617TIP3   OH210814   2.153   2.725   2.377  0.6562  0.1707 -0.4584
 3617TIP3    H110815   2.072   2.686   2.411  0.7200 -0.1318 -0.6542
 3617TIP3    H210816   2.221   2.698   2.438  0.9786 -1.3570 -1.4419
 3618TIP3   OH210817   1.359   0.858   4.142 -0.1815 -0.2718 -0.1600
 3618TIP3    H110818   1.384   0.767   4.158 -0.7044 -0.4315 -0.2247
 3618TIP3    H210819   1.269   0.864   4.174 -0.2054  0.1814 -0.3032
 3619TIP3   OH210820   4.595   1.574   3.226 -0.3782 -0.1987 -0.2535
 3619TIP3    H110821   4.606   1.664   3.258 -0.6933 -0.0829 -0.4600
 3619TIP3    H210822   4.653   1.522   3.281  1.0672  0.3552 -1.1973
 3620TIP3   OH210823   6.459   2.263   1.786  0.2400 -0.3643  0.4023
 3620TIP3    H110824   6.450   2.209   1.708 -1.4424  0.7979 -0.2631
 3620TIP3    H210825   6.543   2.307   1.774 -0.2796  0.2948 -1.1106
 3621TIP3   OH210826   3.222   4.288   1.260 -0.2739 -0.0490  0.3017
 3621TIP3    H110827   3.150   4.299   1.198  0.7131  0.6632 -0.7579
 3621TIP3    H210828   3.278   4.364   1.247  0.1852 -0.0896  1.7950
 3622TIP3   OH210829   2.422   5.870   3.065 -0.1188  0.4754 -0.1523
 3622TIP3    H110830   2.518   5.871   3.070 -0.1408  0.2283  0.4406
 3622TIP3    H210831   2.402   5.914   2.982  0.5575 -1.2166 -1.2611
 3623TIP3   OH210832   3.470   4.768   2.067  0.0087 -0.2695  0.2920
 3623TIP3    H110833   3.387   4.817   2.068  0.2769  0.1893  0.9618
 3623TIP3    H210834   3.538   4.836   2.062  0.3277 -0.6902 -1.9918
 3624TIP3   OH210835   0.950   2.757   1.379 -0.0697 -0.0182  0.0745
 3624TIP3    H110836   0.932   2.770   1.286  0.3145  1.2755  0.1579
 3624TIP3    H210837   1.010   2.683   1.383  1.5265  1.1552 -0.8983
 3625TIP3   OH210838   1.985   5.828   2.838  0.3639  0.0531 -0.6971
 3625TIP3    H110839   2.053   5.777   2.793  1.1411  2.1337 -2.0213
 3625TIP3    H210840   2.027   5.858   2.919  0.5345  0.1729 -0.8316
 3626TIP3   OH210841   7.186   6.410   5.478 -0.1325 -0.0090 -0.6440
 3626TIP3    H110842   7.130   6.342   5.516 -0.2525  0.3100 -0.2445
 3626TIP3    H210843   7.255   6.424   5.542  0.0172  0.0947 -0.8244
 3627TIP3   OH210844   6.129   0.947   0.446 -0.2284  0.0642 -0.1328
 3627TIP3    H110845   6.189   1.020   0.436 -0.5592  0.3042 -0.3591
 3627TIP3    H210846   6.125   0.932   0.541 -0.4199  0.5605 -0.0591
 3628TIP3   OH210847   6.567   6.240   4.409  0.1564 -0.3294  0.5238
 3628TIP3    H110848   6.521   6.320   4.385 -0.1634 -0.6817 -0.0437
 3628TIP3    H210849   6.640   6.234   4.348  0.1441 -0.4993  0.5243
 3629TIP3   OH210850   2.494   3.521   1.064 -0.0676  0.0413 -0.1740
 3629TIP3    H110851   2.404   3.495   1.079 -0.0471  0.3935  0.6405
 3629TIP3    H210852   2.505   3.600   1.118  0.5765  0.2864 -0.6508
 3630TIP3   OH210853   2.554   4.511   1.850  0.3321  0.0094 -0.8379
 3630TIP3    H110854   2.567   4.605   1.837 -1.4507  0.1660 -1.8015
 3630TIP3    H210855   2.583   4.471   1.768  0.0447 -0.1792 -0.8471
 3631TIP3   OH210856   6.181   0.190   4.784 -0.3244  0.2913 -0.0387
 3631TIP3    H110857   6.250   0.214   4.723  0.3294  1.2039  1.0312
 3631TIP3    H210858   6.153   0.273   4.823 -2.4858  0.0433 -0.8965
 3632TIP3   OH210859   3.081   3.946   0.785 -0.4481  0.4387 -0.8096
 3632TIP3    H110860   3.093   3.962   0.878  0.3970  1.5657 -1.0869
 3632TIP3    H210861   3.149   3.884   0.762  0.7938  1.8453 -1.0848
 3633TIP3   OH210862   2.768   6.249   1.391  0.3289  0.8107 -0.1634
 3633TIP3    H110863   2.774   6.171   1.337 -0.4237  0.6919 -0.0853
 3633TIP3    H210864   2.836   6.307   1.358  1.9993 -0.4974  0.8156
 3634TIP3   OH210865   6.562   2.011   2.222  0.4355 -0.4002 -0.1692
 3634TIP3    H110866   6.582   1.918   2.229 -0.8890 -0.7658 -0.8340
 3634TIP3    H210867   6.641   2.050   2.183  0.7181 -1.3755 -0.6084
 3635TIP3   OH210868   7.168   3.693   5.430  0.0727  0.3865 -0.0185
 3635TIP3    H110869   7.203   3.766   5.378  3.7201 -1.0371  0.0868
 3635TIP3    H210870   7.134   3.734   5.509 -1.3441  2.1929 -1.4770
 3636TIP3   OH210871   4.559   1.817   4.046  0.0274 -0.1330  0.0567
 3636TIP3    H110872   4.476   1.770   4.039 -0.6615  0.7174  1.9633
 3636TIP3    H210873   4.545   1.899   3.998  0.3908 -0.7336 -1.1197
 3637TIP3   OH210874   0.846   5.107   4.944  0.2279  0.0449  0.2228
 3637TIP3    H110875   0.883   5.176   4.889  1.6593 -0.0002  1.0882
 3637TIP3    H210876   0.751   5.118   4.935  0.4304  0.9558 -1.0825
 3638TIP3   OH210877   5.768   1.314   3.818 -0.6513  0.3439 -0.2550
 3638TIP3    H110878   5.697   1.295   3.757 -0.6957  1.2102 -0.4896
 3638TIP3    H210879   5.798   1.228   3.848 -1.4465 -0.0442 -0.5535
 3639TIP3   OH210880   4.704   5.361   0.150  0.3052 -0.2087  0.4668
 3639TIP3    H110881   4.648   5.364   0.073 -0.4315 -0.6137  0.9814
 3639TIP3    H210882   4.781   5.312   0.121  1.4457  2.1995 -0.8875
 3640TIP3   OH210883   4.127   2.675   4.420 -0.1033  0.0707 -0.3990
 3640TIP3    H110884   4.096   2.724   4.344 -0.2706  0.2003 -0.2463
 3640TIP3    H210885   4.222   2.673   4.409 -0.1203  0.1491 -0.5749
 3641TIP3   OH210886   3.836   3.578   1.267 -0.3232  0.3998  0.4275
 3641TIP3    H110887   3.920   3.615   1.294  0.2818 -2.4606  3.1006
 3641TIP3    H210888   3.772   3.645   1.291  1.0369  2.1112 -0.5034
 3642TIP3   OH210889   6.123   3.766   4.208  0.0394 -0.1731  0.6729
 3642TIP3    H110890   6.198   3.804   4.253  0.0902 -0.8563  1.1675
 3642TIP3    H210891   6.050   3.780   4.268  0.2438 -1.7498  1.3143
 3643TIP3   OH210892   5.175   5.554   3.212  0.1921 -0.2335 -0.1397
 3643TIP3    H110893   5.126   5.485   3.257 -1.1172  0.4317 -0.5141
 3643TIP3    H210894   5.140   5.555   3.124  1.5478 -0.3596 -0.7084
 3644TIP3   OH210895   0.119   3.931   2.111  0.7066 -0.0101 -0.2052
 3644TIP3    H110896   0.128   4.025   2.127  0.5941  0.0191 -0.3045
 3644TIP3    H210897   0.028   3.912   2.136  0.6373 -0.0326 -0.4655
 3645TIP3   OH210898   5.523   0.204   2.443 -0.1359 -0.1809 -0.4781
 3645TIP3    H110899   5.594   0.180   2.383 -1.3783 -2.4423 -1.1325
 3645TIP3    H210900   5.560   0.191   2.530  1.2168  1.7273 -0.7012
 3646TIP3   OH210901   7.097   5.618   4.630 -0.0023  0.2451 -0.2471
 3646TIP3    H110902   7.010   5.633   4.593 -0.2135 -1.4911 -0.5370
 3646TIP3    H210903   7.089   5.645   4.722 -0.4474  1.3315 -0.5863
 3647TIP3   OH210904   6.669   4.544   0.486  0.1255  0.4234 -0.1364
 3647TIP3    H110905   6.651   4.557   0.393 -0.1974 -0.1522 -0.1563
 3647TIP3    H210906   6.712   4.625   0.513 -0.7971  1.0505 -0.5223
 3648TIP3   OH210907   6.602   6.557   3.714  0.3336 -0.4223  0.0208
 3648TIP3    H110908   6.526   6.595   3.757  0.2707 -0.0614 -0.3995
 3648TIP3    H210909   6.609   6.468   3.751 -1.1985 -1.0217 -1.0231
 3649TIP3   OH210910   3.337   3.325   5.502  0.3675 -0.0208  0.1214
 3649TIP3    H110911   3.329   3.406   5.452 -2.0986  0.2978  0.8581
 3649TIP3    H210912   3.389   3.349   5.579  0.9989  0.4446 -0.4488
 3650TIP3   OH210913   2.383   6.281   4.827 -0.1345  0.0771  0.1103
 3650TIP3    H110914   2.457   6.223   4.806 -0.1894 -0.1531  0.5445
 3650TIP3    H210915   2.313   6.253   4.768 -0.4104 -0.8144  0.8259
 3651TIP3   OH210916   1.160   5.889   2.744  0.0143  0.1876 -0.0563
 3651TIP3    H110917   1.146   5.877   2.838  0.8689  0.0215  0.0617
 3651TIP3    H210918   1.244   5.936   2.738 -0.1303  0.3695 -0.7277
 3652TIP3   OH210919   6.017   6.334   1.299  0.2435 -0.2126  0.0905
 3652TIP3    H110920   6.056   6.402   1.244  1.4970 -0.4335  0.6778
 3652TIP3    H210921   6.078   6.323   1.372 -1.4856  0.2490  1.6934
 3653TIP3   OH210922   0.540   4.045   2.134 -0.6539  0.3554  0.0050
 3653TIP3    H110923   0.521   4.072   2.224 -2.0708  1.3116 -0.5354
 3653TIP3    H210924   0.614   3.985   2.141 -0.9216  0.2012  1.8264
 3654TIP3   OH210925   6.169   5.431   4.117  0.1056  0.5192 -0.1850
 3654TIP3    H110926   6.147   5.479   4.036  0.1594 -0.0051 -0.5121
 3654TIP3    H210927   6.137   5.488   4.187 -2.1574 -0.1287 -0.6275
 3655TIP3   OH210928   0.954   2.213   3.937 -0.3037 -0.2555 -0.0352
 3655TIP3    H110929   0.952   2.209   3.841 -1.8624 -1.2504 -0.0072
 3655TIP3    H210930   1.046   2.207   3.960 -0.0599 -3.5010 -1.3958
 3656TIP3   OH210931   5.407   1.435   2.368 -0.4322  0.6268  0.0401
 3656TIP3    H110932   5.379   1.396   2.285  0.3640 -0.5228  0.3018
 3656TIP3    H210933   5.350   1.512   2.378 -0.4932  0.8216 -1.5928
 3657TIP3   OH210934   1.242   2.545   5.790 -0.7097 -0.2730  0.1910
 3657TIP3    H110935   1.262   2.634   5.818  2.8705 -0.4516 -1.2428
 3657TIP3    H210936   1.220   2.554   5.697 -1.3870 -0.8053  0.2901
 3658TIP3   OH210937   3.990   3.658   2.885 -0.3415  0.2456 -0.3004
 3658TIP3    H110938   4.012   3.630   2.974 -0.2100 -0.2894 -0.4976
 3658TIP3    H210939   4.074   3.682   2.845 -0.3341 -0.0128 -0.4453
 3659TIP3   OH210940   6.765   3.610   2.128  0.1697 -0.3309 -0.2073
 3659TIP3    H110941   6.833   3.674   2.148 -0.1690  0.5392 -1.7196
 3659TIP3    H210942   6.686   3.646   2.170  0.3189 -0.5968  0.3103
 3660TIP3   OH210943   7.129   4.585   4.708 -0.0095 -0.6585  0.0580
 3660TIP3    H110944   7.035   4.573   4.698  0.0812 -0.9907 -0.4341
 3660TIP3    H210945   7.149   4.664   4.658 -0.1449 -0.1402  0.8151
 3661TIP3   OH210946   6.513   5.290   4.859  0.0324  0.0131  0.0954
 3661TIP3    H110947   6.540   5.379   4.834 -0.7693  0.0667 -0.6306
 3661TIP3    H210948   6.533   5.285   4.953 -0.5698  1.2197  0.3087
 3662TIP3   OH210949   5.629   6.786   4.029  0.5806 -0.0803  0.0823
 3662TIP3    H110950   5.644   6.695   4.004  0.4777  0.3518 -1.6302
 3662TIP3    H210951   5.676   6.837   3.964 -1.4292  1.1257 -0.4977
 3663TIP3   OH210952   4.808   0.577   4.261  0.8734 -0.1677 -0.0916
 3663TIP3    H110953   4.811   0.482   4.249 -3.2665 -0.3894 -0.7820
 3663TIP3    H210954   4.792   0.613   4.174 -0.5906  0.8082  0.5210
 3664TIP3   OH210955   0.411   2.985   1.031 -0.6333  0.4569  0.1713
 3664TIP3    H110956   0.370   2.899   1.025 -4.9204  2.1074  1.6096
 3664TIP3    H210957   0.464   2.982   1.110 -2.5138 -0.3419  1.4815
 3665TIP3   OH210958   6.356   3.632   0.733 -0.2658  0.3455 -0.1566
 3665TIP3    H110959   6.330   3.599   0.647 -0.5729 -0.1551  0.1255
 3665TIP3    H210960   6.334   3.562   0.794 -0.9672  1.0803  0.4604
 3666TIP3   OH210961   1.605   6.248   1.024 -0.7480 -0.1532 -0.3988
 3666TIP3    H110962   1.659   6.322   0.996  0.4095 -0.4937  0.8425
 3666TIP3    H210963   1.666   6.175   1.034 -1.5976 -0.8148  0.0872
 3667TIP3   OH210964   2.577   6.615   4.333  0.3928 -0.5800 -0.5186
 3667TIP3    H110965   2.566   6.615   4.238  0.9427  1.7141 -0.6467
 3667TIP3    H210966   2.499   6.658   4.367  1.1811  0.6333 -0.1540
 3668TIP3   OH210967   3.439   4.616   4.281 -0.4318  0.1853  0.2902
 3668TIP3    H110968   3.422   4.583   4.193 -0.0047 -0.2005  0.3464
 3668TIP3    H210969   3.377   4.571   4.337 -0.4609  0.1600  0.2369
 3669TIP3   OH210970   6.844   6.481   4.017  0.2080 -0.2498  0.0790
 3669TIP3    H110971   6.871   6.498   3.927 -0.0719  0.6962  0.1643
 3669TIP3    H210972   6.925   6.480   4.067  0.3480 -0.5886 -0.1536
 3670TIP3   OH210973   6.507   6.181   2.699  0.4707  0.9750 -0.3411
 3670TIP3    H110974   6.487   6.265   2.656  2.5097 -0.6044 -5.0511
 3670TIP3    H210975   6.454   6.117   2.652  0.5455 -0.6744  1.6944
 3671TIP3   OH210976   2.943   4.427   1.694 -0.2397 -0.2078  0.3602
 3671TIP3    H110977   2.850   4.414   1.671 -0.1705  0.0301 -0.0806
 3671TIP3    H210978   2.943   4.503   1.752 -0.3170 -0.1659  0.3063
 3672TIP3   OH210979   3.589   3.755   4.188  0.4605 -0.2565 -0.1505
 3672TIP3    H110980   3.584   3.681   4.249  0.0620 -0.2514 -0.1750
 3672TIP3    H210981   3.616   3.829   4.243 -0.0882 -0.2086  0.0634
 3673TIP3   OH210982   5.606   4.806   1.278 -0.1811 -0.3459 -0.8824
 3673TIP3    H110983   5.608   4.899   1.298 -0.3295 -0.4325 -0.4270
 3673TIP3    H210984   5.636   4.764   1.359 -1.3221 -0.7456 -0.6524
 3674TIP3   OH210985   6.293   5.122   5.533  0.1885  0.4265 -0.3207
 3674TIP3    H110986   6.222   5.186   5.531  0.2427  0.4803 -0.5396
 3674TIP3    H210987   6.296   5.087   5.444 -1.2682 -1.4421  0.2911
 3675TIP3   OH210988   2.994   4.185   4.183  0.3735 -0.2111 -0.4420
 3675TIP3    H110989   3.088   4.201   4.191  0.7810 -1.0709 -2.7703
 3675TIP3    H210990   2.988   4.099   4.141 -1.4159  0.3797 -1.4962
 3676TIP3   OH210991   0.338   6.325   0.242 -0.4326  0.5146  0.1332
 3676TIP3    H110992   0.247   6.352   0.249 -0.1499  1.7046 -0.4859
 3676TIP3    H210993   0.336   6.230   0.245 -1.6246  0.5526  0.8639
 3677TIP3   OH210994   2.250   3.293   0.170  0.2900  0.3705  0.2741
 3677TIP3    H110995   2.276   3.320   0.258 -0.8555 -0.0005  0.7473
 3677TIP3    H210996   2.157   3.314   0.165  0.0741 -0.6701 -0.4292
 3678TIP3   OH210997   3.682   2.600   5.699  0.1974 -0.4872 -0.2186
 3678TIP3    H110998   3.677   2.695   5.697  0.2023 -0.4943 -0.7610
 3678TIP3    H210999   3.768   2.579   5.664  0.0246 -0.6987 -0.5321
 3679TIP3   OH211000   1.906   6.076  -0.017 -0.1206  0.6577 -0.0339
 3679TIP3    H111001   1.914   6.079   0.078  0.2951 -0.5985 -0.0034
 3679TIP3    H211002   1.840   6.141  -0.038 -0.3848  0.7866  1.1382
 3680TIP3   OH211003   1.005   3.390   3.094  0.0297  0.2615  0.0396
 3680TIP3    H111004   0.937   3.330   3.063 -0.4339  1.4672 -1.3957
 3680TIP3    H211005   0.960   3.475   3.101  1.1871  0.9031 -0.1532
 3681TIP3   OH211006   3.915   2.842   0.552 -0.0245 -0.1315 -0.4015
 3681TIP3    H111007   3.846   2.787   0.516  2.0914 -2.3283 -1.4181
 3681TIP3    H211008   3.970   2.781   0.602  1.4024  1.4374  0.0398
 3682TIP3   OH211009   4.949   0.116   1.941  0.6210 -0.1968  0.1930
 3682TIP3    H111010   4.916   0.175   2.008  2.2060  2.2333 -1.0361
 3682TIP3    H211011   5.041   0.140   1.930  0.7647 -1.4350 -1.8548
 3683TIP3   OH211012   0.006   3.609   4.562 -0.1390  0.0401 -0.6529
 3683TIP3    H111013  -0.041   3.690   4.584 -0.7451 -0.8573  1.7527
 3683TIP3    H211014   0.043   3.580   4.646  1.5370 -1.2900 -1.7781
 3684TIP3   OH211015   4.132   1.523   2.973 -0.2614  0.4743 -0.7195
 3684TIP3    H111016   4.200   1.462   3.003 -0.5593 -0.1859 -1.3318
 3684TIP3    H211017   4.180   1.587   2.920  0.3495  1.9740  1.4930
 3685TIP3   OH211018   1.577   5.013   2.927  0.8608 -0.5557 -0.3228
 3685TIP3    H111019   1.482   5.005   2.932  0.8911 -1.8027 -1.4022
 3685TIP3    H211020   1.594   5.105   2.947 -0.3663 -0.8029  2.2798
 3686TIP3   OH211021   1.150   0.873   5.058 -0.0352  0.6875 -1.0997
 3686TIP3    H111022   1.190   0.789   5.036 -2.3428 -0.8183  0.0303
 3686TIP3    H211023   1.221   0.924   5.095  0.9777 -1.6714  0.4632
 3687TIP3   OH211024   4.947   1.230   0.779 -0.7430 -0.3175  0.0824
 3687TIP3    H111025   5.033   1.204   0.748 -0.9862  0.4256 -1.3302
 3687TIP3    H211026   4.886   1.194   0.714 -1.3509  0.5580  0.1466
 3688TIP3   OH211027   4.622   4.067   5.303  0.2202  0.4077 -0.2006
 3688TIP3    H111028   4.667   4.135   5.253 -1.5536  0.3151 -2.0322
 3688TIP3    H211029   4.551   4.114   5.347  0.4833  0.1176  0.5584
 3689TIP3   OH211030   0.768   4.802   2.005 -0.2441  0.1143 -0.6747
 3689TIP3    H111031   0.772   4.882   2.057 -0.5963  0.0313 -0.5122
 3689TIP3    H211032   0.820   4.739   2.054  0.3922  0.3600 -1.0221
 3690TIP3   OH211033   4.096   2.269   1.687  0.0891  0.1266  0.2651
 3690TIP3    H111034   4.063   2.359   1.691 -1.4975 -0.3269 -1.0253
 3690TIP3    H211035   4.074   2.231   1.772 -0.4884  0.5838  0.3261
 3691TIP3   OH211036   1.061   5.773   4.807  0.3892  0.0198 -0.3836
 3691TIP3    H111037   1.004   5.814   4.742 -1.5906 -0.5418  0.8872
 3691TIP3    H211038   1.148   5.809   4.789 -0.8336  3.1751 -0.6386
 3692TIP3   OH211039   6.930   4.410   0.287 -0.1847  0.6130 -0.5023
 3692TIP3    H111040   6.900   4.380   0.202 -0.1851  3.8332 -1.7972
 3692TIP3    H211041   6.888   4.352   0.350 -0.6216 -1.5289 -2.6305
 3693TIP3   OH211042   2.571   1.833   2.279 -0.7389  1.1918  0.3723
 3693TIP3    H111043   2.587   1.916   2.233 -1.6992  1.0137 -0.3220
 3693TIP3    H211044   2.529   1.859   2.361 -0.0055  1.4540  0.6703
 3694TIP3   OH211045   2.248   2.401   1.560 -0.3791  0.4638  0.0789
 3694TIP3    H111046   2.179   2.394   1.627 -1.1153  0.3428 -0.6747
 3694TIP3    H211047   2.302   2.323   1.572 -0.2959  0.6163  0.7514
 3695TIP3   OH211048   5.050   3.305   1.687  0.2673  0.1999  0.1718
 3695TIP3    H111049   5.098   3.304   1.604  1.8116  0.7175  1.0094
 3695TIP3    H211050   5.106   3.256   1.747 -0.9906 -0.4648  0.8355
 3696TIP3   OH211051   6.274   6.662   2.677 -0.2006  0.0294  0.3341
 3696TIP3    H111052   6.196   6.684   2.626 -1.3562  1.2783  2.4493
 3696TIP3    H211053   6.314   6.747   2.696 -0.7193 -0.1887  2.7466
 3697TIP3   OH211054   3.295   5.676   5.796 -0.0035 -0.0717  0.4407
 3697TIP3    H111055   3.317   5.686   5.704 -0.9079  0.6629  0.2927
 3697TIP3    H211056   3.255   5.589   5.802 -0.3438  0.0556  0.0572
 3698TIP3   OH211057   4.378   0.456   5.050  0.3987 -0.0720 -0.3714
 3698TIP3    H111058   4.449   0.483   5.108 -0.9038  1.1864  0.6883
 3698TIP3    H211059   4.353   0.536   5.004 -1.3894 -0.1032  0.4656
 3699TIP3   OH211060   6.683   1.461   2.769  0.1538 -0.1462  0.1018
 3699TIP3    H111061   6.600   1.489   2.807  0.6861  2.8287 -0.7031
 3699TIP3    H211062   6.750   1.489   2.832  0.7007 -0.1737 -0.4485
 3700TIP3   OH211063   4.807   3.890   0.970  0.4858 -0.5194 -0.0973
 3700TIP3    H111064   4.741   3.881   1.039  1.8565  2.7671  1.8600
 3700TIP3    H211065   4.792   3.977   0.933  1.2442 -1.3116 -2.4367
 3701TIP3   OH211066   0.737   5.522   3.091  1.0525 -0.4334  0.2756
 3701TIP3    H111067   0.727   5.602   3.040  2.3569 -0.1425  0.4287
 3701TIP3    H211068   0.665   5.523   3.154  1.2015  0.7495  0.4416
 3702TIP3   OH211069   6.202   0.001   4.990  0.0886 -0.3923 -0.0152
 3702TIP3    H111070   6.204   0.068   4.922 -1.2322 -1.2014 -0.9090
 3702TIP3    H211071   6.151   0.040   5.061  4.3453  1.8395  2.2074
 3703TIP3   OH211072   2.949   4.717   0.421  0.8442 -0.1033  0.1436
 3703TIP3    H111073   2.988   4.650   0.365  0.5531  0.9097 -1.3225
 3703TIP3    H211074   3.016   4.785   0.427  0.1731  0.6241 -0.5177
 3704TIP3   OH211075   5.724   0.122   5.601 -0.1637 -0.1247  0.3432
 3704TIP3    H111076   5.726   0.027   5.588  2.7540 -0.2528  1.0160
 3704TIP3    H211077   5.722   0.133   5.696  2.3218  0.3629  0.4128
 3705TIP3   OH211078   2.114   1.270   2.893 -0.6084  0.0435 -0.7024
 3705TIP3    H111079   2.058   1.198   2.923  2.0257 -0.8864  2.7344
 3705TIP3    H211080   2.153   1.238   2.812  0.8792 -2.8632  0.9755
 3706TIP3   OH211081   4.652   4.614   2.962  0.3869  0.1653 -0.3651
 3706TIP3    H111082   4.559   4.608   2.943  0.6012  0.8215 -1.7795
 3706TIP3    H211083   4.677   4.702   2.934  1.8036 -0.6553 -1.8762
 3707TIP3   OH211084   5.146   5.037   2.525 -0.4896 -0.4214  0.5484
 3707TIP3    H111085   5.151   4.995   2.611 -1.1446 -2.4441 -0.3477
 3707TIP3    H211086   5.057   5.071   2.520 -0.3823 -0.1082  0.7480
 3708TIP3   OH211087   3.653   1.229   5.377  0.5470 -0.5264 -0.6284
 3708TIP3    H111088   3.686   1.317   5.396  1.3401 -1.1653  1.1038
 3708TIP3    H211089   3.571   1.222   5.426  1.6384 -1.5214  1.1269
 3709TIP3   OH211090   3.481   2.491   1.676  0.4322 -0.3878 -0.1372
 3709TIP3    H111091   3.443   2.464   1.760  0.8785 -1.2399 -0.1967
 3709TIP3    H211092   3.516   2.410   1.639  1.1276  0.1592 -0.6909
 3710TIP3   OH211093   5.797   5.370   1.669  0.2740  0.1707 -0.1874
 3710TIP3    H111094   5.753   5.438   1.720 -0.5137 -0.5683  0.1524
 3710TIP3    H211095   5.888   5.397   1.666  0.0123  1.1310  0.1209
 3711TIP3   OH211096   4.617   2.275   5.009  0.0989 -0.5579 -0.0313
 3711TIP3    H111097   4.635   2.201   5.067  2.0854  0.7261  1.1177
 3711TIP3    H211098   4.596   2.347   5.068 -0.9846  0.0267 -1.0864
 3712TIP3   OH211099   5.714   0.454   3.719  0.4248 -0.5387 -0.4819
 3712TIP3    H111100   5.789   0.430   3.773  0.6295  1.5941  0.2764
 3712TIP3    H211101   5.646   0.479   3.782  0.4578  1.3898 -1.1482
 3713TIP3   OH211102   6.189   0.724   0.107  0.4652 -0.1894 -0.4558
 3713TIP3    H111103   6.259   0.730   0.173 -1.0396 -0.6128  1.2537
 3713TIP3    H211104   6.144   0.808   0.113  0.6913  0.0103 -1.4257
 3714TIP3   OH211105   3.664   1.857   3.907 -0.4034  0.2146  0.2815
 3714TIP3    H111106   3.623   1.821   3.986  1.9447 -0.4961  1.2745
 3714TIP3    H211107   3.713   1.784   3.870  0.6818  1.1993 -0.3069
 3715TIP3   OH211108   1.848   0.946   2.492  0.0274 -0.5588 -0.4627
 3715TIP3    H111109   1.881   0.912   2.576 -0.0894 -0.7153 -0.4795
 3715TIP3    H211110   1.919   0.999   2.458  0.3468 -1.0676 -0.5998
 3716TIP3   OH211111   2.165   4.902   2.734  0.5757  0.0341 -0.0482
 3716TIP3    H111112   2.127   4.827   2.688 -1.5618  0.8766  0.2439
 3716TIP3    H211113   2.156   4.881   2.826  0.1800  0.5407  0.0326
 3717TIP3   OH211114   1.416   4.985   4.143  0.2914  0.5060 -0.0955
 3717TIP3    H111115   1.465   5.065   4.124  0.0630  0.6007 -0.2830
 3717TIP3    H211116   1.396   4.948   4.057  0.2240  0.3513 -0.0135
 3718TIP3   OH211117   1.540   6.603   3.076 -0.2424  0.0725  0.0692
 3718TIP3    H111118   1.527   6.685   3.030  1.8738 -0.0996 -0.9354
 3718TIP3    H211119   1.601   6.624   3.147  1.5153 -0.8241 -1.0801
 3719TIP3   OH211120   6.723   4.330   5.777 -0.5199 -0.2746  0.0625
 3719TIP3    H111121   6.690   4.414   5.809  0.2435 -0.0359  0.2453
 3719TIP3    H211122   6.736   4.278   5.856  0.9418  0.1591  0.1319
 3720TIP3   OH211123   6.199   1.198   5.243  0.3233 -0.1145 -0.9476
 3720TIP3    H111124   6.291   1.175   5.233  1.0239  1.6480  0.7270
 3720TIP3    H211125   6.201   1.282   5.289 -2.1486 -1.0867  1.1601
 3721TIP3   OH211126   3.362   3.633   4.086 -0.2505 -0.0365  0.1587
 3721TIP3    H111127   3.272   3.666   4.086 -0.2627 -0.0249  1.1598
 3721TIP3    H211128   3.414   3.708   4.114  0.0151 -0.1784  0.0460
 3722TIP3   OH211129   4.532   4.359   0.292 -0.2275 -0.2968  0.3621
 3722TIP3    H111130   4.472   4.400   0.230 -0.5592 -2.0861 -0.5806
 3722TIP3    H211131   4.619   4.373   0.254 -0.2768  0.0329  0.3665
 3723TIP3   OH211132   4.008   4.006   2.920 -0.3417  0.3392 -0.2918
 3723TIP3    H111133   4.066   3.931   2.905 -1.7474 -0.4831 -1.9751
 3723TIP3    H211134   4.028   4.066   2.849  0.4714  1.4153  0.8041
 3724TIP3   OH211135   1.189   6.188   1.397  0.2220  0.3640 -0.1036
 3724TIP3    H111136   1.265   6.231   1.356  0.9109 -0.7941 -0.0690
 3724TIP3    H211137   1.136   6.158   1.323  0.0630  0.7029 -0.1294
 3725TIP3   OH211138   0.370   3.091   0.769  0.8568  0.2033 -0.4985
 3725TIP3    H111139   0.407   3.051   0.848 -2.9262 -0.2794  1.2591
 3725TIP3    H211140   0.351   3.017   0.711 -0.7606 -0.0682  0.2930
 3726TIP3   OH211141   6.170   5.885   1.677 -0.4656 -0.5993  0.3707
 3726TIP3    H111142   6.163   5.790   1.691 -1.1251 -0.5662  0.3123
 3726TIP3    H211143   6.264   5.901   1.667 -0.4764 -1.6380 -2.3589
 3727TIP3   OH211144   3.240   4.880   5.521  0.0211  0.1748  0.5872
 3727TIP3    H111145   3.238   4.892   5.616 -0.2267 -0.3202  0.6460
 3727TIP3    H211146   3.298   4.950   5.489  0.6041 -0.0337  1.1611
 3728TIP3   OH211147   4.269   4.806   5.434  0.0667  0.1449  0.1928
 3728TIP3    H111148   4.198   4.828   5.374  1.5628 -0.2569 -1.8495
 3728TIP3    H211149   4.261   4.712   5.446  0.1043  0.1366  0.1524
 3729TIP3   OH211150   1.729   6.662   1.857 -0.6337 -0.0130  0.3261
 3729TIP3    H111151   1.714   6.645   1.950 -0.3675 -1.6102  0.0934
 3729TIP3    H211152   1.654   6.623   1.813 -0.0786 -0.4657 -0.2282
 3730TIP3   OH211153   2.844   3.014   1.630 -0.4716  0.1298 -0.8067
 3730TIP3    H111154   2.897   3.070   1.575 -0.3641  0.4462 -0.3868
 3730TIP3    H211155   2.859   3.046   1.719 -2.2567  0.9724 -0.7740
 3731TIP3   OH211156   5.453   1.068   2.688 -0.3338  0.7137 -0.9040
 3731TIP3    H111157   5.370   1.047   2.729  0.6132  1.3479  1.4917
 3731TIP3    H211158   5.478   1.153   2.726  0.9700  0.9907 -2.2682
 3732TIP3   OH211159   2.865   0.615   4.251 -0.6459  0.5723  0.1629
 3732TIP3    H111160   2.906   0.528   4.254 -0.2482  0.7744  0.6012
 3732TIP3    H211161   2.902   0.656   4.172 -1.8424 -0.1461 -0.8052
 3733TIP3   OH211162   4.641   2.320   2.573  0.4385 -0.2371  0.0306
 3733TIP3    H111163   4.711   2.375   2.608  2.5926 -0.1515 -3.7853
 3733TIP3    H211164   4.583   2.380   2.527  0.0578 -0.6965 -0.1010
 3734TIP3   OH211165   4.336   6.220   2.721 -0.1858  0.8444  0.1861
 3734TIP3    H111166   4.429   6.216   2.701 -0.1833  0.3424  0.2917
 3734TIP3    H211167   4.307   6.304   2.684  0.2061  0.7872 -0.2594
 3735TIP3   OH211168   5.628   1.520   2.970  0.1752 -0.4717 -0.0620
 3735TIP3    H111169   5.662   1.591   3.024  1.1128 -0.6191 -0.4533
 3735TIP3    H211170   5.684   1.518   2.893 -0.0293 -1.4333 -0.2052
 3736TIP3   OH211171   6.676   4.018   3.846  1.0418 -0.1800  0.3455
 3736TIP3    H111172   6.696   3.939   3.796 -2.0461 -1.6484  1.2241
 3736TIP3    H211173   6.608   4.062   3.795  0.8178  0.4919  1.2042
 3737TIP3   OH211174   1.605   3.117   2.781 -0.0864 -0.0210  0.0591
 3737TIP3    H111175   1.608   3.079   2.869  0.7462  2.0679  0.9893
 3737TIP3    H211176   1.639   3.047   2.725  4.5501  0.2079  2.0775
 3738TIP3   OH211177   2.528   3.339   4.574 -0.0629 -0.0655  0.2140
 3738TIP3    H111178   2.487   3.365   4.657  0.2277  1.3294 -0.0485
 3738TIP3    H211179   2.562   3.251   4.590  0.2993  0.3129  1.6893
 3739TIP3   OH211180   6.495   6.783   5.637 -0.8055  0.4245 -0.2529
 3739TIP3    H111181   6.427   6.719   5.659  0.0201 -0.4112 -0.0755
 3739TIP3    H211182   6.479   6.804   5.545 -0.3967 -0.9284 -0.6592
 3740TIP3   OH211183   3.107   0.119   2.360 -0.2139  0.0057  0.0887
 3740TIP3    H111184   3.129   0.099   2.269 -1.1570  1.1967 -0.4391
 3740TIP3    H211185   3.015   0.095   2.369  0.3268 -1.8052  1.2894
 3741TIP3   OH211186   2.881   2.419   5.448  0.1275 -0.2808 -0.9376
 3741TIP3    H111187   2.885   2.515   5.441  1.2763 -0.3671 -1.6820
 3741TIP3    H211188   2.829   2.392   5.373  0.2550 -0.2760 -1.0276
 3742TIP3   OH211189   5.153   0.481   5.193 -0.0405 -0.2618 -0.2584
 3742TIP3    H111190   5.102   0.444   5.121 -2.3639  0.3159  0.9776
 3742TIP3    H211191   5.134   0.574   5.191 -3.6167 -0.5906  3.3541
 3743TIP3   OH211192   6.405   3.479   4.345  0.5322  0.2839 -0.0253
 3743TIP3    H111193   6.466   3.425   4.395  0.6148  0.1113 -0.3119
 3743TIP3    H211194   6.448   3.492   4.261  0.2237  0.2543 -0.1890
 3744TIP3   OH211195   2.675   4.893   1.187  0.4833  0.1907  0.5056
 3744TIP3    H111196   2.747   4.952   1.210  0.5256 -0.9047  3.6837
 3744TIP3    H211197   2.606   4.951   1.154  2.0700  1.4649 -0.7166
 3745TIP3   OH211198   3.328   5.658   5.523  0.3019 -0.3559  0.7093
 3745TIP3    H111199   3.285   5.608   5.453  1.5466 -0.9553  0.3486
 3745TIP3    H211200   3.281   5.741   5.526 -0.3701 -0.6942 -0.2027
 3746TIP3   OH211201   5.565   2.228   5.515  0.2550  0.0523  0.1513
 3746TIP3    H111202   5.633   2.199   5.454 -0.4969  1.9718 -1.7120
 3746TIP3    H211203   5.611   2.282   5.578  0.7853 -0.5711  0.3130
 3747TIP3   OH211204   2.537   0.836   1.352  0.3267  0.1963  0.2826
 3747TIP3    H111205   2.498   0.880   1.276  0.8830  0.0354 -0.1005
 3747TIP3    H211206   2.462   0.812   1.407 -0.1915 -0.9592 -0.8974
 3748TIP3   OH211207   4.043   6.680   5.036  0.7195 -0.3782 -0.4436
 3748TIP3    H111208   4.020   6.593   5.067 -0.2510 -0.4117 -1.2134
 3748TIP3    H211209   3.959   6.720   5.012  1.2580  0.3220 -1.2168
 3749TIP3   OH211210   4.240   2.770   4.670 -0.1318 -0.4071  0.4135
 3749TIP3    H111211   4.160   2.785   4.620  1.0456  0.4226 -1.3413
 3749TIP3    H211212   4.249   2.675   4.674 -1.1576 -0.5098  0.5984
 3750TIP3   OH211213   6.944   2.695   3.194  0.1254 -0.6059  0.1665
 3750TIP3    H111214   6.870   2.743   3.158 -0.0364  0.3551  1.6855
 3750TIP3    H211215   6.958   2.734   3.281  1.4240 -1.8097  0.5364
 3751TIP3   OH211216   0.902   3.100   5.037 -0.2398 -0.5241 -0.0542
 3751TIP3    H111217   0.912   3.090   4.942 -0.8989  1.2831 -0.3539
 3751TIP3    H211218   0.823   3.152   5.048 -0.2948 -0.8829  1.5148
 3752TIP3   OH211219   5.598   3.107   0.397  0.3561 -0.2449 -0.1755
 3752TIP3    H111220   5.521   3.104   0.453 -0.5195  0.3214 -1.3177
 3752TIP3    H211221   5.668   3.069   0.451 -0.8255 -1.2901  0.6722
 3753TIP3   OH211222   1.198   2.534   4.735  0.4635 -0.3691  0.3450
 3753TIP3    H111223   1.132   2.528   4.666  0.2290 -1.3855  0.6485
 3753TIP3    H211224   1.149   2.558   4.814  0.7188  0.6951  0.2012
 3754TIP3   OH211225   6.624   4.615   5.857 -0.0346  0.7276 -0.2231
 3754TIP3    H111226   6.538   4.599   5.817 -0.6160 -1.0161  1.5697
 3754TIP3    H211227   6.680   4.642   5.785 -1.2278 -1.4104 -2.0522
 3755TIP3   OH211228   4.384   3.644   2.864  0.1834 -0.3748  0.1140
 3755TIP3    H111229   4.468   3.687   2.848  0.2988 -0.7146 -0.2162
 3755TIP3    H211230   4.408   3.558   2.899 -0.0345 -0.3613  0.3009
 3756TIP3   OH211231   0.057   4.685   5.505 -0.6961  0.0209  0.0624
 3756TIP3    H111232   0.090   4.605   5.547 -1.2537 -0.3020 -0.1079
 3756TIP3    H211233   0.079   4.755   5.567  0.3077 -0.1778 -0.0445
 3757TIP3   OH211234   5.154   0.141   4.959 -0.3502 -0.5493  0.0642
 3757TIP3    H111235   5.229   0.165   5.014 -1.2990  0.7831  0.8390
 3757TIP3    H211236   5.189   0.140   4.870  0.3684  1.1279  0.2954
 3758TIP3   OH211237   6.159   5.102   4.542 -0.1608 -0.4908  0.0377
 3758TIP3    H111238   6.103   5.171   4.579 -0.6563 -0.2674 -1.0790
 3758TIP3    H211239   6.248   5.137   4.550 -0.3830  0.1831 -0.2740
 3759TIP3   OH211240   2.995   5.959   1.192  0.1898 -0.2095 -0.4030
 3759TIP3    H111241   2.985   5.941   1.099  0.8646 -0.2386 -0.4806
 3759TIP3    H211242   2.990   6.054   1.199  0.8689 -0.1561 -0.5746
 3760TIP3   OH211243   4.750   5.694   4.533  0.6015 -0.1971 -0.0956
 3760TIP3    H111244   4.695   5.687   4.611 -0.3939  0.2284 -0.7390
 3760TIP3    H211245   4.840   5.696   4.567  0.1637  0.4967  1.0737
 3761TIP3   OH211246   2.667   1.269   1.145  0.2314  0.1925  0.1477
 3761TIP3    H111247   2.726   1.313   1.084 -0.5949  1.5465  0.2786
 3761TIP3    H211248   2.610   1.216   1.089  0.2882  0.4428 -0.1473
 3762TIP3   OH211249   0.103   4.444   5.616  0.4012  0.0556  0.3935
 3762TIP3    H111250   0.171   4.457   5.681  1.2382 -2.9592  0.2493
 3762TIP3    H211251   0.034   4.396   5.662 -0.0849  0.0140 -0.3589
 3763TIP3   OH211252   2.541   2.310   4.075  0.1051 -0.1459 -0.3811
 3763TIP3    H111253   2.465   2.253   4.086  0.4554 -0.3071  1.4463
 3763TIP3    H211254   2.617   2.251   4.083  0.4690  0.0541 -1.9386
 3764TIP3   OH211255   2.218   4.710   2.498 -0.3496 -0.4149 -0.4185
 3764TIP3    H111256   2.274   4.722   2.574 -2.5502 -1.3664  1.4750
 3764TIP3    H211257   2.244   4.626   2.460 -0.5821 -0.9200  0.5298
 3765TIP3   OH211258   6.052   4.474   4.937 -0.6629 -0.1442  0.0585
 3765TIP3    H111259   5.985   4.476   5.005 -1.4310 -1.2096 -0.6449
 3765TIP3    H211260   6.056   4.383   4.909 -0.7098  0.3471 -1.6688
 3766TIP3   OH211261   5.721   0.796   0.454 -0.3024  0.3918  0.3357
 3766TIP3    H111262   5.806   0.760   0.478 -1.6937 -1.9276  2.3708
 3766TIP3    H211263   5.731   0.890   0.463  1.7512  0.1106  1.6500
 3767TIP3   OH211264   5.156   1.980   5.378 -0.7262 -0.1133 -0.4221
 3767TIP3    H111265   5.205   1.977   5.296 -1.6377 -2.2500 -0.9437
 3767TIP3    H211266   5.215   2.025   5.439  0.4262  0.5114 -1.9310
 3768TIP3   OH211267   5.590   1.975   5.622 -0.1819  0.3959  0.6166
 3768TIP3    H111268   5.677   1.937   5.619 -0.6007 -0.5740  0.1905
 3768TIP3    H211269   5.600   2.062   5.583  0.9814  1.1505  2.5163
 3769TIP3   OH211270   5.746   0.486   0.687 -0.2363 -0.1918  0.2603
 3769TIP3    H111271   5.812   0.429   0.646  0.3047 -1.4751  2.7414
 3769TIP3    H211272   5.669   0.477   0.630  0.7504 -1.1227 -1.0009
 3770TIP3   OH211273   3.827   0.508   2.248  0.9271 -0.4872 -0.0109
 3770TIP3    H111274   3.811   0.574   2.315  1.4960  1.7171 -1.9244
 3770TIP3    H211275   3.894   0.451   2.285  1.1813  0.6331  1.3109
 3771TIP3   OH211276   6.270   6.438   0.733  0.0116 -0.2941  0.3082
 3771TIP3    H111277   6.335   6.385   0.778  1.7857  0.8284 -0.8109
 3771TIP3    H211278   6.239   6.500   0.800  0.4286 -0.5370  0.7329
 3772TIP3   OH211279   1.686   3.476   5.388 -0.0117  0.3635 -0.0031
 3772TIP3    H111280   1.604   3.452   5.344 -0.5328  1.7392  0.1656
 3772TIP3    H211281   1.679   3.571   5.401  1.3989  0.4200  0.4629
 3773TIP3   OH211282   4.764   0.314   1.029 -0.0299  0.3227 -0.6149
 3773TIP3    H111283   4.676   0.292   1.001 -0.0051 -0.9379  0.1989
 3773TIP3    H211284   4.754   0.336   1.122  0.4541  0.5531 -0.6159
 3774TIP3   OH211285   5.725   3.475   1.765  0.8501 -0.2366  0.0383
 3774TIP3    H111286   5.634   3.479   1.737  1.0154  2.2379 -0.3071
 3774TIP3    H211287   5.771   3.539   1.711  2.8017 -1.2802  0.3311
 3775TIP3   OH211288   4.712   6.080   0.814 -0.2299 -0.3153 -0.2882
 3775TIP3    H111289   4.667   6.130   0.745 -0.3627  0.0074  0.0292
 3775TIP3    H211290   4.740   5.999   0.770  0.2949  0.1871 -0.8924
 3776TIP3   OH211291   4.831   2.972   5.104  0.1813 -1.0161 -0.2881
 3776TIP3    H111292   4.910   2.969   5.051  0.9138 -1.0347  0.7913
 3776TIP3    H211293   4.848   3.039   5.170  0.2464 -2.6633  1.4358
 3777TIP3   OH211294   4.718   5.333   0.873 -0.6220 -0.4202 -0.1107
 3777TIP3    H111295   4.761   5.381   0.944 -1.5245  2.2422 -1.2218
 3777TIP3    H211296   4.777   5.260   0.854  1.5222  0.9505  0.8853
 3778TIP3   OH211297  -0.012   5.112   1.617  0.0322  0.3152 -0.0581
 3778TIP3    H111298   0.077   5.094   1.587  0.5479 -0.0321  1.6205
 3778TIP3    H211299  -0.008   5.108   1.712 -1.6528  0.9388  0.0852
 3779TIP3   OH211300   6.656   3.372   0.559  0.3591  0.3984  0.1602
 3779TIP3    H111301   6.571   3.333   0.541 -0.4212  2.3525 -0.7001
 3779TIP3    H211302   6.696   3.385   0.473  1.7471 -0.8495  0.5683
 3780TIP3   OH211303   5.367   0.154   1.089  0.3103  0.0021 -0.0838
 3780TIP3    H111304   5.309   0.159   1.165 -1.6926 -2.2726 -1.3292
 3780TIP3    H211305   5.322   0.203   1.020  0.6696 -0.3958 -0.6119
 3781TIP3   OH211306   4.800   3.061   1.120 -0.0703  0.3788 -0.1148
 3781TIP3    H111307   4.759   3.125   1.178  1.5209  1.1875  0.1598
 3781TIP3    H211308   4.872   3.109   1.079  2.4124 -1.7020  1.5288
 3782TIP3   OH211309   0.110   5.829   5.510 -0.3276 -0.0690  0.0765
 3782TIP3    H111310   0.159   5.866   5.583 -0.7856  0.7935 -0.0361
 3782TIP3    H211311   0.115   5.734   5.522  1.2750 -0.0070  0.1257
 3783TIP3   OH211312   4.385   1.640   3.760  0.0251  0.0026 -0.0843
 3783TIP3    H111313   4.347   1.656   3.846 -0.4140  1.1866 -0.4813
 3783TIP3    H211314   4.424   1.553   3.767 -0.2136 -0.0193  1.2317
 3784TIP3   OH211315   2.731   3.811   3.875 -0.0101 -0.0828  0.6122
 3784TIP3    H111316   2.651   3.857   3.849  1.0610  0.2723 -2.5404
 3784TIP3    H211317   2.715   3.720   3.849  0.4181 -0.1000  0.4052
 3785TIP3   OH211318   0.274   2.297   0.435 -0.1168  0.2140  0.2858
 3785TIP3    H111319   0.314   2.383   0.447 -0.6379  0.5901 -0.6054
 3785TIP3    H211320   0.181   2.315   0.425 -0.2866 -0.5004  0.5246
 3786TIP3   OH211321   5.091   6.013   3.133 -0.2996 -0.0424  0.6978
 3786TIP3    H111322   5.109   5.959   3.210 -0.1853 -0.9347  0.0634
 3786TIP3    H211323   5.071   5.950   3.063  1.5266  0.6204 -0.5073
 3787TIP3   OH211324   1.384   5.297   1.092 -0.0424  0.2228  0.4039
 3787TIP3    H111325   1.289   5.298   1.104 -0.0917 -2.2765  0.7880
 3787TIP3    H211326   1.405   5.385   1.061 -2.7144  0.2995 -1.5891
 3788TIP3   OH211327   4.978   6.511   2.579 -0.2825  0.0141  0.1653
 3788TIP3    H111328   4.934   6.548   2.656  0.9508  2.0252 -0.0251
 3788TIP3    H211329   4.909   6.505   2.513 -0.5907  1.9470  0.2597
 3789TIP3   OH211330   0.982   3.999   3.588  0.1934  0.0470  0.0330
 3789TIP3    H111331   0.956   3.932   3.651  0.9373 -0.3380 -0.0636
 3789TIP3    H211332   1.067   3.969   3.555 -0.1116  0.3203 -1.0348
 3790TIP3   OH211333   2.505   5.583   1.479  0.3548 -0.5986  0.3659
 3790TIP3    H111334   2.532   5.675   1.479  0.1564 -0.5297  1.1600
 3790TIP3    H211335   2.531   5.550   1.393  0.9148  0.0574  0.2744
 3791TIP3   OH211336   5.403   3.383   3.131  0.1193 -0.5657  0.2781
 3791TIP3    H111337   5.355   3.382   3.214 -0.2722 -1.1347  0.0542
 3791TIP3    H211338   5.351   3.328   3.073  1.2465 -1.5486  0.1512
 3792TIP3   OH211339   0.765   5.370   3.340 -0.0554  0.5149 -0.1658
 3792TIP3    H111340   0.740   5.460   3.322  0.5354  1.0045  1.3324
 3792TIP3    H211341   0.756   5.361   3.435  0.4032 -0.8414 -0.2293
 3793TIP3   OH211342   3.354   3.805   1.217 -0.0405  0.1446 -0.3091
 3793TIP3    H111343   3.271   3.836   1.182 -0.1040 -0.8159 -1.0513
 3793TIP3    H211344   3.381   3.873   1.278 -0.7760  1.0498 -0.9595
 3794TIP3   OH211345   4.141   6.418   1.976  0.0827 -0.3205  0.4176
 3794TIP3    H111346   4.187   6.463   1.906 -0.2656 -1.4524 -0.5787
 3794TIP3    H211347   4.210   6.389   2.036  0.5484 -0.7107 -0.2883
 3795TIP3   OH211348   5.262   1.642   4.276 -0.4278 -0.3706 -0.4859
 3795TIP3    H111349   5.170   1.619   4.292 -0.6403  0.4368 -0.4812
 3795TIP3    H211350   5.288   1.587   4.202 -1.0597 -0.2702 -0.7902
 3796TIP3   OH211351   0.903   6.445   3.060  0.2580 -0.9540  0.1456
 3796TIP3    H111352   0.888   6.517   3.122 -0.0841  0.2260 -1.2470
 3796TIP3    H211353   0.820   6.437   3.013  1.0029 -0.7058 -1.2574
 3797TIP3   OH211354   3.349   4.859   0.591 -0.3048  0.0455  0.5540
 3797TIP3    H111355   3.287   4.854   0.664 -0.4902 -0.6846  0.3533
 3797TIP3    H211356   3.368   4.952   0.582 -1.8962  0.3650  0.1851
 3798TIP3   OH211357   0.960   1.548   0.921  0.1103  0.1925  0.4065
 3798TIP3    H111358   0.924   1.613   0.981 -0.5368  0.2607 -0.0436
 3798TIP3    H211359   0.997   1.480   0.977  0.4429  0.7572  0.8809
 3799TIP3   OH211360   6.212   6.091   5.852 -0.0014 -0.0275 -0.2278
 3799TIP3    H111361   6.174   6.045   5.777 -0.0369  0.4663 -0.5158
 3799TIP3    H211362   6.210   6.026   5.923 -0.0099 -0.4825 -0.6363
 3800TIP3   OH211363   4.990   1.576   3.977  0.1983 -0.1722 -0.0758
 3800TIP3    H111364   4.948   1.620   4.050 -2.0481 -0.6619 -0.9959
 3800TIP3    H211365   4.929   1.586   3.904  0.1574 -3.5698 -0.6885
 3801TIP3   OH211366   4.662   0.628   2.075 -0.2387 -0.1094 -0.6655
 3801TIP3    H111367   4.566   0.628   2.076 -0.2771 -1.7873 -0.7655
 3801TIP3    H211368   4.685   0.618   1.983 -0.0688 -2.3731 -0.4389
 3802TIP3   OH211369   3.086   1.284   5.581 -0.0251 -0.0908  0.6587
 3802TIP3    H111370   3.147   1.222   5.621 -1.2582 -1.8481 -0.0843
 3802TIP3    H211371   3.082   1.258   5.489 -0.0364  1.5727  0.1491
 3803TIP3   OH211372   3.132   1.188   5.271  0.2980  0.0437  0.3248
 3803TIP3    H111373   3.158   1.279   5.283 -0.1962  0.2468 -0.1586
 3803TIP3    H211374   3.213   1.138   5.286  1.3165  0.7324 -2.3780
 3804TIP3   OH211375   6.712   0.547   2.388  0.1417 -0.0497  0.0675
 3804TIP3    H111376   6.782   0.514   2.444 -1.2051 -1.9360  0.7722
 3804TIP3    H211377   6.687   0.631   2.426 -0.3342 -1.0118  1.9834
 3805TIP3   OH211378   5.503   6.252   5.773 -0.0398 -0.2822 -0.0344
 3805TIP3    H111379   5.589   6.222   5.804  0.4600  0.9314 -0.1722
 3805TIP3    H211380   5.510   6.250   5.677 -0.2744 -0.4676 -0.0490
 3806TIP3   OH211381   0.967   4.600   5.004 -0.0073  0.3653 -0.6691
 3806TIP3    H111382   0.921   4.679   5.032  1.2159  0.0183  2.8637
 3806TIP3    H211383   1.059   4.621   5.018  0.6155 -0.5279 -3.1152
 3807TIP3   OH211384   0.930   4.658   3.557  0.6132 -0.5041  0.2540
 3807TIP3    H111385   0.966   4.644   3.470 -2.1402 -0.3645 -1.0193
 3807TIP3    H211386   0.950   4.749   3.577  0.9669 -0.4314 -0.4126
 3808TIP3   OH211387   3.766   3.644   4.971  0.6526  0.6557  0.7817
 3808TIP3    H111388   3.830   3.641   4.900 -0.4106 -1.7363 -0.1996
 3808TIP3    H211389   3.700   3.580   4.946 -1.6139  2.2835  2.2570
 3809TIP3   OH211390   6.569   4.650   0.261  0.0987 -0.4718 -0.1513
 3809TIP3    H111391   6.511   4.721   0.287  0.5330 -0.4829  0.9143
 3809TIP3    H211392   6.525   4.608   0.188 -1.0667 -0.2604  0.4088
 3810TIP3   OH211393   1.452   1.743   5.260  0.4747  0.5993  0.4136
 3810TIP3    H111394   1.476   1.653   5.235  0.5605  0.6880  0.1694
 3810TIP3    H211395   1.406   1.777   5.183  0.1774  0.6663  0.6161
 3811TIP3   OH211396   1.067   1.266   1.950  0.7722 -0.2809  0.6985
 3811TIP3    H111397   0.984   1.249   1.994  0.4211  1.6344  0.8612
 3811TIP3    H211398   1.100   1.180   1.925 -1.5998 -1.0369  0.0077
 3812TIP3   OH211399   5.501   6.780   4.890  0.0956 -0.3301  0.0666
 3812TIP3    H111400   5.442   6.705   4.899 -0.1850  0.0907  2.3014
 3812TIP3    H211401   5.446   6.849   4.851 -0.1461 -0.7172 -0.2872
 3813TIP3   OH211402   5.028   5.781   0.116  0.0593  0.5733 -0.3127
 3813TIP3    H111403   5.054   5.710   0.175 -0.4000  2.1204  1.8693
 3813TIP3    H211404   4.966   5.740   0.055  1.7699 -1.4381 -0.8161
 3814TIP3   OH211405   0.561   4.966   4.271  0.2554  0.3580  0.0014
 3814TIP3    H111406   0.580   4.941   4.362  2.1711 -0.6655 -0.6073
 3814TIP3    H211407   0.559   4.883   4.224 -1.8519  0.7826 -0.7549
 3815TIP3   OH211408   4.788   2.932   4.161  0.1570 -0.2024 -0.4552
 3815TIP3    H111409   4.771   2.961   4.250  1.0333  0.4972 -0.5045
 3815TIP3    H211410   4.818   3.010   4.115  0.0398 -0.6272 -1.2787
 3816TIP3   OH211411   0.447   5.418   5.755 -0.1583 -0.1012 -0.4849
 3816TIP3    H111412   0.460   5.325   5.774 -1.2581 -0.3409 -0.8783
 3816TIP3    H211413   0.478   5.463   5.834  1.9166 -0.6809 -0.9070
 3817TIP3   OH211414   5.657   3.829   3.594 -0.0873  0.4346 -0.2444
 3817TIP3    H111415   5.725   3.766   3.571 -0.2159 -0.2500  1.1355
 3817TIP3    H211416   5.658   3.831   3.689 -1.2825  1.2135 -0.2310
 3818TIP3   OH211417   1.423   1.677   2.591 -0.3972  0.0093 -0.3530
 3818TIP3    H111418   1.397   1.704   2.680  0.2279  0.9474 -0.4377
 3818TIP3    H211419   1.485   1.605   2.605 -1.4088 -0.8347 -0.0891
 3819TIP3   OH211420   0.180   3.545   0.231  0.2366  0.0274 -0.5164
 3819TIP3    H111421   0.262   3.510   0.266 -0.0553 -1.1514 -0.9587
 3819TIP3    H211422   0.180   3.636   0.258  1.1677 -0.2302  0.4452
 3820TIP3   OH211423   5.725   1.092   1.361 -0.4225  0.2546  1.2854
 3820TIP3    H111424   5.728   1.130   1.449  1.2891  0.4809  1.1563
 3820TIP3    H211425   5.797   1.134   1.315 -1.8629  0.8417 -0.5423
 3821TIP3   OH211426   3.409   2.142   0.996  0.0051 -0.1277  0.5133
 3821TIP3    H111427   3.342   2.198   1.036 -0.0810  1.1453 -1.3223
 3821TIP3    H211428   3.455   2.199   0.934  1.5069 -1.4927  0.2951
 3822TIP3   OH211429   4.464   2.084   1.562 -0.8078 -0.2730  0.6367
 3822TIP3    H111430   4.534   2.045   1.614 -0.4483 -0.9424 -0.3420
 3822TIP3    H211431   4.444   2.019   1.495 -0.0904  1.2274 -1.1251
 3823TIP3   OH211432   1.657   5.588   4.747 -0.0785 -0.0016  0.6370
 3823TIP3    H111433   1.671   5.496   4.770 -2.2935 -0.1743  1.5332
 3823TIP3    H211434   1.680   5.636   4.827 -1.1120  0.0033  0.9423
 3824TIP3   OH211435   0.385   3.228   5.161 -0.0751  0.2678  0.2756
 3824TIP3    H111436   0.445   3.296   5.193 -0.4558  0.5791  0.3374
 3824TIP3    H211437   0.409   3.150   5.211  2.2631 -0.4378 -1.7436
 3825TIP3   OH211438   5.805   3.429   4.479  0.3757 -0.2924 -0.3221
 3825TIP3    H111439   5.790   3.474   4.396  1.6788  0.9315  0.0605
 3825TIP3    H211440   5.884   3.376   4.465  0.3962 -0.3590  0.0239
 3826TIP3   OH211441   6.325   1.714   2.296  0.9246  0.1917  0.5081
 3826TIP3    H111442   6.367   1.720   2.209  1.4551  0.3152  0.7665
 3826TIP3    H211443   6.265   1.640   2.288  0.6746  0.4487 -0.0864
 3827TIP3   OH211444   4.647   0.625   3.049  0.2115 -0.4607 -0.6831
 3827TIP3    H111445   4.624   0.713   3.018  0.0749  0.1322  0.9900
 3827TIP3    H211446   4.570   0.572   3.029 -0.5488  0.3009  0.1284
 3828TIP3   OH211447   6.392   1.800   0.746 -0.3462  0.2506  0.0085
 3828TIP3    H111448   6.438   1.847   0.816  2.5183 -2.0931 -0.0867
 3828TIP3    H211449   6.393   1.709   0.775 -2.0420 -0.3384 -1.6368
 3829TIP3   OH211450   4.022   1.122   3.045  0.5432  0.3194  0.7225
 3829TIP3    H111451   3.991   1.047   2.994  0.8332  2.2308 -2.5620
 3829TIP3    H211452   4.117   1.108   3.052  0.6955  0.6866 -0.4847
 3830TIP3   OH211453   6.782   2.579   5.545 -0.0160  0.2637 -0.1755
 3830TIP3    H111454   6.805   2.671   5.560 -0.8348  0.5050 -0.3717
 3830TIP3    H211455   6.808   2.534   5.625 -0.5904  0.8453  0.3437
 3831TIP3   OH211456   7.063   0.761   0.935  1.1592 -0.2500 -0.0573
 3831TIP3    H111457   6.970   0.749   0.957  0.7648 -0.5327 -1.7255
 3831TIP3    H211458   7.081   0.852   0.956  0.0160  0.2945 -1.2522
 3832TIP3   OH211459   1.278   2.427   2.330  0.1431  0.2280  0.3278
 3832TIP3    H111460   1.260   2.342   2.290 -0.1114  0.0674  0.7804
 3832TIP3    H211461   1.276   2.411   2.425  1.7477  0.3833  0.4281
 3833TIP3   OH211462   7.186   3.439   4.080  1.1031 -0.2681  0.2678
 3833TIP3    H111463   7.160   3.353   4.047 -1.1173  0.4693 -0.0592
 3833TIP3    H211464   7.245   3.420   4.153  0.7616 -2.0589  0.1242
 3834TIP3   OH211465   1.587   6.322   1.565 -0.0333 -0.3296  0.6440
 3834TIP3    H111466   1.521   6.295   1.501 -0.2595  3.1272 -0.7574
 3834TIP3    H211467   1.661   6.262   1.549 -0.5832 -0.4432 -1.9535
 3835TIP3   OH211468   5.856   3.108   0.887 -0.2372 -0.3968 -0.2888
 3835TIP3    H111469   5.935   3.141   0.928  0.9473 -0.3060 -2.4817
 3835TIP3    H211470   5.864   3.013   0.891  0.4273 -0.3899 -1.2668
 3836TIP3   OH211471   3.817   0.232   3.789 -0.2710  0.3746 -0.2336
 3836TIP3    H111472   3.774   0.198   3.867 -1.3157  2.4229  0.1681
 3836TIP3    H211473   3.782   0.180   3.717 -0.7657 -0.2825  0.4730
 3837TIP3   OH211474   4.693   4.935   2.909  0.0200  0.2142  0.2882
 3837TIP3    H111475   4.722   4.923   2.819 -0.4369 -1.9168  0.3615
 3837TIP3    H211476   4.745   5.008   2.942 -2.1826  3.3903 -2.6537
 3838TIP3   OH211477   0.616   5.464   5.362  0.2689 -0.4429  0.1221
 3838TIP3    H111478   0.658   5.403   5.302 -0.9078 -0.1391 -1.0491
 3838TIP3    H211479   0.688   5.500   5.414  1.2221 -1.2552 -0.5985
 3839TIP3   OH211480   1.065   5.854   1.993  0.2356 -0.4681 -0.4337
 3839TIP3    H111481   1.104   5.768   2.005  0.9552 -0.1933 -0.7485
 3839TIP3    H211482   1.102   5.908   2.063 -1.7287 -0.8881  1.0054
 3840TIP3   OH211483   6.773   0.956   4.984 -0.0406  0.1870 -0.1347
 3840TIP3    H111484   6.758   0.988   5.073  0.0054  0.5226 -0.2447
 3840TIP3    H211485   6.706   0.999   4.932  1.2749  1.7277 -0.6380
 3841TIP3   OH211486   1.693   3.991   1.678  0.1230 -0.1504  0.2355
 3841TIP3    H111487   1.600   3.971   1.690 -0.4714  2.4324  0.6327
 3841TIP3    H211488   1.697   4.034   1.593  0.7710  0.5574  0.6094
 3842TIP3   OH211489   4.635   2.309   2.882 -0.6361 -0.3931  0.9188
 3842TIP3    H111490   4.656   2.273   2.795 -2.1691  1.0919 -0.1170
 3842TIP3    H211491   4.544   2.335   2.875 -0.2029  1.7037  2.2969
 3843TIP3   OH211492   1.415   1.109   1.587 -0.5321  0.1043  0.0846
 3843TIP3    H111493   1.402   1.037   1.525  0.3088 -0.3880  0.4603
 3843TIP3    H211494   1.431   1.066   1.670  0.0083  0.7295  0.3114
 3844TIP3   OH211495   1.442   5.497   3.963  0.1248 -0.3127 -0.1575
 3844TIP3    H111496   1.491   5.447   3.897 -0.9784  0.4187 -1.5821
 3844TIP3    H211497   1.361   5.522   3.918 -0.7536  0.0417  1.5602
 3845TIP3   OH211498   2.482   4.687   1.255 -0.0842 -0.0802  0.0520
 3845TIP3    H111499   2.402   4.738   1.239  0.0963 -0.6297 -3.3750
 3845TIP3    H211500   2.553   4.744   1.223  0.5964 -0.7459  0.3417
 3846TIP3   OH211501   2.745   4.131   2.857  0.3341  1.0580  0.1139
 3846TIP3    H111502   2.806   4.089   2.796  0.2389  1.6249 -0.3753
 3846TIP3    H211503   2.676   4.065   2.870  1.1509  0.3167  0.8628
 3847TIP3   OH211504   1.547   2.559   3.103 -0.3690  0.0125  0.1611
 3847TIP3    H111505   1.602   2.596   3.171 -0.3176 -0.3648  0.3276
 3847TIP3    H211506   1.507   2.482   3.143 -0.7636  0.0985 -0.0618
 3848TIP3   OH211507   4.458   6.767   4.918  0.2339 -0.2751 -0.0051
 3848TIP3    H111508   4.469   6.769   5.014  0.5102  1.8849 -0.0298
 3848TIP3    H211509   4.367   6.741   4.905  0.6072 -2.1413  0.7631
 3849TIP3   OH211510   1.070   0.268   2.126  0.1550 -0.1981 -0.0080
 3849TIP3    H111511   1.133   0.340   2.130  0.7549 -0.7627  0.9151
 3849TIP3    H211512   1.099   0.206   2.192 -0.7325 -0.9990 -0.3392
 3850TIP3   OH211513   0.126   3.139   5.578 -0.3855 -0.5662 -0.4537
 3850TIP3    H111514   0.031   3.143   5.590 -0.4082  1.2686 -0.9336
 3850TIP3    H211515   0.157   3.227   5.598  1.1656 -0.9783 -0.8498
 3851TIP3   OH211516   1.294   1.775   4.999 -0.1906 -0.4437 -0.6438
 3851TIP3    H111517   1.217   1.719   5.008 -0.3981  0.0010  0.5739
 3851TIP3    H211518   1.264   1.851   4.950 -1.3245  1.0311  2.0811
 3852TIP3   OH211519   5.911   0.980   1.720 -1.1321 -0.2806  1.0044
 3852TIP3    H111520   5.975   0.993   1.789 -1.4754  0.5530  1.1792
 3852TIP3    H211521   5.884   1.068   1.695  0.2051 -0.4448 -1.3543
 3853TIP3   OH211522   5.087   5.193   3.105  0.3208 -0.2782  0.5769
 3853TIP3    H111523   5.133   5.152   3.178  0.3210 -1.1928  0.0799
 3853TIP3    H211524   5.157   5.228   3.049  0.4639 -1.6996 -0.1972
 3854TIP3   OH211525   6.784   2.775   4.302  0.6641 -0.1278 -0.4566
 3854TIP3    H111526   6.804   2.683   4.281  0.6579  0.0833 -1.4539
 3854TIP3    H211527   6.751   2.811   4.220 -0.4331  0.4766  0.2287
 3855TIP3   OH211528   3.066   1.863   4.090 -0.2107  0.1912 -0.1121
 3855TIP3    H111529   3.161   1.858   4.101 -0.1269  1.1208 -0.3305
 3855TIP3    H211530   3.048   1.957   4.081 -0.9978 -0.0582 -1.3402
 3856TIP3   OH211531   5.560   4.431   4.999  0.0223  0.1695  0.0424
 3856TIP3    H111532   5.547   4.522   4.972 -0.1581  0.2416  0.3688
 3856TIP3    H211533   5.533   4.379   4.923  0.7868  0.4030 -0.3982
 3857TIP3   OH211534   2.619   0.487   5.760  0.0812 -0.6454 -0.1379
 3857TIP3    H111535   2.642   0.397   5.734 -0.1241 -0.8562  0.3971
 3857TIP3    H211536   2.695   0.516   5.811  0.1211 -0.5372 -0.2604
 3858TIP3   OH211537   4.869   0.482   4.746 -0.0211 -0.1494 -0.0160
 3858TIP3    H111538   4.861   0.576   4.731  0.4389 -0.2195 -0.7667
 3858TIP3    H211539   4.898   0.474   4.837  1.2073  0.4943 -0.3354
 3859TIP3   OH211540   3.103   6.283   4.436 -0.4377  0.3060 -0.0401
 3859TIP3    H111541   3.126   6.366   4.478 -0.7572 -0.9097  2.7337
 3859TIP3    H211542   3.186   6.239   4.420 -0.3268  0.7104 -0.6412
 3860TIP3   OH211543   1.224   2.435   3.611 -0.1083  0.1280 -0.0807
 3860TIP3    H111544   1.201   2.356   3.561 -0.1136 -1.5452  2.4001
 3860TIP3    H211545   1.304   2.467   3.569  0.8234 -2.1679 -0.2155
 3861TIP3   OH211546   1.916   4.105   3.677  0.7686  0.1140  0.1368
 3861TIP3    H111547   1.961   4.042   3.733  0.5771 -0.7660 -0.6835
 3861TIP3    H211548   1.939   4.079   3.588 -0.4915  0.3142 -0.2636
 3862TIP3   OH211549   6.507   2.991   3.608 -0.0154 -0.1611 -0.1713
 3862TIP3    H111550   6.590   2.960   3.646 -1.1748 -1.4434  1.4845
 3862TIP3    H211551   6.461   2.911   3.583 -0.8960  0.5216 -0.8051
 3863TIP3   OH211552   0.475   3.538   4.067 -0.5462 -0.3404 -0.2571
 3863TIP3    H111553   0.470   3.608   4.132  0.1404 -1.3406  0.9038
 3863TIP3    H211554   0.407   3.476   4.094 -0.1579 -0.8300 -0.4035
 3864TIP3   OH211555   3.341   2.786   0.030 -0.0066  0.0919 -0.0307
 3864TIP3    H111556   3.374   2.762  -0.057  0.3091 -1.2075  0.4156
 3864TIP3    H211557   3.380   2.871   0.048  0.8062 -0.1209 -0.7040
 3865TIP3   OH211558   7.139   5.655   2.264  0.5025  0.0745  0.8342
 3865TIP3    H111559   7.231   5.673   2.241  0.3511  1.2356  1.0488
 3865TIP3    H211560   7.100   5.742   2.274 -0.5386 -0.4102  1.0975
 3866TIP3   OH211561   6.819   6.320   0.197  0.4691 -0.0045  0.4896
 3866TIP3    H111562   6.861   6.234   0.191 -1.3831 -0.8779 -0.7177
 3866TIP3    H211563   6.763   6.314   0.275  1.8921  0.8929  1.6449
 3867TIP3   OH211564   1.088   1.703   4.654 -0.3586  0.0956  0.2787
 3867TIP3    H111565   1.100   1.775   4.716  1.8584  0.2155 -0.2081
 3867TIP3    H211566   1.095   1.743   4.568  2.8226 -0.8647 -0.0234
 3868TIP3   OH211567   0.530   2.653   0.367  0.3289  0.7715 -0.3823
 3868TIP3    H111568   0.586   2.629   0.294 -1.5669 -0.7535 -1.4413
 3868TIP3    H211569   0.587   2.649   0.444  1.9197  0.4831 -1.5442
 3869TIP3   OH211570   3.859   0.719   3.398 -0.5927 -0.3853 -0.0202
 3869TIP3    H111571   3.875   0.693   3.489  0.7789 -0.7901 -0.3585
 3869TIP3    H211572   3.938   0.766   3.372 -0.0535 -2.0592 -1.6377
 3870TIP3   OH211573   4.833   2.778   2.235 -0.3097 -0.0064  0.1026
 3870TIP3    H111574   4.794   2.703   2.281  2.5164 -0.0666  2.6968
 3870TIP3    H211575   4.859   2.838   2.304  0.1892  2.0627 -1.7520
 3871TIP3   OH211576   7.127   3.308   3.575  0.0232 -0.5505  0.2048
 3871TIP3    H111577   7.201   3.334   3.519 -0.9456  0.7969 -0.5159
 3871TIP3    H211578   7.107   3.387   3.625 -2.0479 -0.2929 -0.9183
 3872TIP3   OH211579   3.420   3.438   2.288 -0.2380  0.1406 -0.0848
 3872TIP3    H111580   3.515   3.440   2.301 -0.3524 -2.4346  2.2851
 3872TIP3    H211581   3.409   3.428   2.194  1.8728  0.2411 -0.3938
 3873TIP3   OH211582   4.774   2.463   4.050  0.0300 -0.2808 -0.3305
 3873TIP3    H111583   4.806   2.529   3.989 -3.1462  0.9780 -0.8210
 3873TIP3    H211584   4.769   2.508   4.134  0.4785 -0.7878 -0.0174
 3874TIP3   OH211585   6.478   6.645   3.939  0.1331 -0.0821  0.0200
 3874TIP3    H111586   6.443   6.576   3.995  2.2042 -0.0054  1.4905
 3874TIP3    H211587   6.509   6.712   4.000  1.3058  0.5756 -1.2532
 3875TIP3   OH211588   5.952   3.473   0.752  0.2351  0.8265  0.2963
 3875TIP3    H111589   5.913   3.501   0.669 -0.7772  1.3421  0.9289
 3875TIP3    H211590   5.880   3.432   0.800  0.2998  2.2964  1.7209
 3876TIP3   OH211591   1.088   6.666   4.147  0.3160 -0.0464  0.0955
 3876TIP3    H111592   1.148   6.598   4.117  0.1357  0.6961 -2.1191
 3876TIP3    H211593   1.144   6.743   4.159  0.2042 -0.0395  0.5706
 3877TIP3   OH211594   0.574   1.015   4.452  0.2536 -0.5420  0.4863
 3877TIP3    H111595   0.612   0.973   4.375 -1.3391 -1.0215 -0.0871
 3877TIP3    H211596   0.495   1.058   4.420 -0.0324 -0.0991  1.7148
 3878TIP3   OH211597   3.213   0.418   4.805  0.0936  0.2912 -0.2442
 3878TIP3    H111598   3.179   0.340   4.850 -1.3964  0.6389 -0.7139
 3878TIP3    H211599   3.212   0.395   4.712  2.9352 -0.3305 -0.2251
 3879TIP3   OH211600   6.908   1.690   0.444 -0.1186 -0.1710 -0.0431
 3879TIP3    H111601   6.972   1.759   0.430  0.4200 -0.5594  0.4392
 3879TIP3    H211602   6.824   1.730   0.423  0.3281  0.2042 -1.1629
 3880TIP3   OH211603   2.109   3.087   5.081  0.0332  0.0907 -0.1407
 3880TIP3    H111604   2.137   3.139   5.006  0.4877  1.0449  0.6809
 3880TIP3    H211605   2.016   3.069   5.063  0.3841 -0.6043 -1.4348
 3881TIP3   OH211606   5.616   6.338   2.989 -0.3756 -0.1435 -0.1432
 3881TIP3    H111607   5.700   6.293   2.983 -0.2072  0.0279  0.7544
 3881TIP3    H211608   5.580   6.334   2.900 -0.0649 -1.4549 -0.2259
 3882TIP3   OH211609   0.079   0.014   2.893 -0.2737  0.1579 -0.4670
 3882TIP3    H111610   0.072   0.108   2.873 -0.8355 -0.0772 -1.4445
 3882TIP3    H211611   0.084   0.010   2.988 -0.5125  1.1671 -0.3988
 3883TIP3   OH211612   3.431   4.220   1.615  0.2336  0.1438 -0.1294
 3883TIP3    H111613   3.398   4.131   1.630  0.8014 -0.3140 -1.4721
 3883TIP3    H211614   3.353   4.271   1.592  0.1129 -0.3816 -0.9211
 3884TIP3   OH211615   6.528   4.058   0.189  0.2872  0.0115 -0.0673
 3884TIP3    H111616   6.452   4.094   0.144 -0.6229 -0.9140  0.7099
 3884TIP3    H211617   6.545   4.120   0.260  0.4885  0.3974 -0.4413
 3885TIP3   OH211618   4.424   5.391   4.602 -0.0724 -0.5337 -0.3307
 3885TIP3    H111619   4.507   5.382   4.555  0.0555 -0.0505 -0.2081
 3885TIP3    H211620   4.363   5.426   4.537  0.2515  0.6780 -0.0065
 3886TIP3   OH211621   2.792   2.169   0.361  0.5256 -0.0473 -0.1431
 3886TIP3    H111622   2.871   2.219   0.338  0.2686  0.0215 -0.8961
 3886TIP3    H211623   2.734   2.234   0.401  1.5743 -0.4671  2.2490
 3887TIP3   OH211624   6.063   2.529   4.575  0.7045 -0.0150 -0.4035
 3887TIP3    H111625   6.158   2.514   4.574  0.6266 -1.1129  2.0375
 3887TIP3    H211626   6.030   2.471   4.507  1.6784 -0.6889 -0.3316
 3888TIP3   OH211627   3.649   2.296   3.144  0.2092 -0.1817  0.2015
 3888TIP3    H111628   3.736   2.292   3.105  0.2241 -1.2523  0.3185
 3888TIP3    H211629   3.612   2.379   3.113  1.4605  0.5271  0.5675
 3889TIP3   OH211630   5.562   3.910   4.748 -0.2499 -0.0067 -0.4732
 3889TIP3    H111631   5.527   3.857   4.819  0.8326 -0.1158 -0.0080
 3889TIP3    H211632   5.579   3.848   4.678 -1.0859  0.0668 -0.7580
 3890TIP3   OH211633   2.831   0.181   4.833 -0.5313 -0.0141  0.1520
 3890TIP3    H111634   2.847   0.249   4.899 -1.7661  0.2629  0.1959
 3890TIP3    H211635   2.738   0.159   4.844 -0.5623 -0.5058 -0.9899
 3891TIP3   OH211636   6.435   0.513   5.782  0.5272 -0.0397  0.3763
 3891TIP3    H111637   6.487   0.470   5.714 -0.3502  0.7082 -0.8193
 3891TIP3    H211638   6.494   0.519   5.857  2.1845  0.7987 -0.9184
 3892TIP3   OH211639   1.174   5.846   1.282 -0.2847  0.3712  0.2112
 3892TIP3    H111640   1.148   5.761   1.247  0.4596  0.6868 -1.1501
 3892TIP3    H211641   1.152   5.909   1.213  1.7939  0.9253 -0.0111
 3893TIP3   OH211642   4.550   4.553   1.331 -0.4376  0.2506 -0.3319
 3893TIP3    H111643   4.510   4.478   1.374  1.7599 -0.5678  0.4167
 3893TIP3    H211644   4.592   4.517   1.253  1.4958  0.4241  0.5563
 3894TIP3   OH211645   3.396   6.134   0.006  0.4510  0.1243 -0.2083
 3894TIP3    H111646   3.356   6.048   0.021  0.2481  0.4072  0.9881
 3894TIP3    H211647   3.413   6.168   0.094  0.9611  1.1128 -0.6730
 3895TIP3   OH211648   7.165   4.790   4.000  0.0683 -0.4505  0.0030
 3895TIP3    H111649   7.166   4.780   3.905  0.3854 -0.0316 -0.0379
 3895TIP3    H211650   7.245   4.838   4.020 -0.4692  0.2975  0.3824
 3896TIP3   OH211651   5.959   1.861   3.351  0.2714 -0.0142  0.1857
 3896TIP3    H111652   5.963   1.843   3.257 -2.1656 -2.0254  0.3666
 3896TIP3    H211653   5.884   1.921   3.361  0.2810 -0.1087  0.8776
 3897TIP3   OH211654   2.046   3.558   0.632  0.5158  0.6531 -0.3667
 3897TIP3    H111655   1.989   3.495   0.588  0.1067 -1.4047  2.8091
 3897TIP3    H211656   2.129   3.553   0.584  0.0967 -1.3875 -0.9509
 3898TIP3   OH211657   1.489   2.193   3.746  1.4393 -0.1286  0.3539
 3898TIP3    H111658   1.410   2.141   3.731  1.6077 -0.3588  0.2438
 3898TIP3    H211659   1.517   2.170   3.835  1.6307 -0.3953  0.2302
 3899TIP3   OH211660   4.076   1.675   4.980 -0.1980  0.4512  0.2096
 3899TIP3    H111661   4.146   1.622   4.943  0.9398  1.8139  0.3016
 3899TIP3    H211662   4.031   1.713   4.905 -2.5380 -2.3805  0.0340
 3900TIP3   OH211663   6.649   3.495   5.709 -0.7620 -0.2788  0.1988
 3900TIP3    H111664   6.590   3.420   5.699 -1.9248  0.6518 -0.0377
 3900TIP3    H211665   6.592   3.571   5.710  0.4502  0.6730 -0.2896
 3901TIP3   OH211666   0.950   0.433   4.090  0.0817 -0.4715  0.2267
 3901TIP3    H111667   1.024   0.377   4.070 -0.8710 -2.6317  2.2939
 3901TIP3    H211668   0.971   0.516   4.048  2.5459 -1.7044 -1.2017
 3902TIP3   OH211669   5.517   0.412   0.523 -0.0276 -0.2053 -0.4034
 3902TIP3    H111670   5.477   0.340   0.572  0.2156  0.5020  0.8849
 3902TIP3    H211671   5.472   0.491   0.555  1.6435  0.4996  0.3226
 3903TIP3   OH211672   3.625   0.866   5.323 -0.1029  0.4854  0.2775
 3903TIP3    H111673   3.581   0.782   5.307 -1.5550  0.8340  2.1450
 3903TIP3    H211674   3.715   0.842   5.344  0.3265 -0.3435 -2.1745
 3904TIP3   OH211675   4.512   4.243   3.974 -0.2206  0.1474 -0.0085
 3904TIP3    H111676   4.441   4.278   4.028  0.2104 -0.1259  0.7702
 3904TIP3    H211677   4.546   4.318   3.926 -2.2524 -0.0415 -1.8677
 3905TIP3   OH211678   2.996   4.212   3.209  0.0480  0.2524  0.0469
 3905TIP3    H111679   2.942   4.154   3.156  0.1554  0.1926  0.0025
 3905TIP3    H211680   2.960   4.300   3.193 -0.0960  0.2022  0.0933
 3906TIP3   OH211681   6.164   1.379   1.944  0.2626  0.1973 -0.5646
 3906TIP3    H111682   6.226   1.305   1.947 -0.2784 -0.2582 -0.2261
 3906TIP3    H211683   6.078   1.337   1.945 -0.0572  0.8149 -1.4243
 3907TIP3   OH211684   0.587   0.667   4.509 -0.2068  0.1047  0.7531
 3907TIP3    H111685   0.494   0.655   4.489 -0.3412  0.9675  0.8230
 3907TIP3    H211686   0.605   0.602   4.577 -0.2683 -1.3999 -0.6262
 3908TIP3   OH211687   3.464   2.501   5.562 -0.2880  0.5321  0.0281
 3908TIP3    H111688   3.542   2.523   5.613  0.4527 -2.5921  0.4690
 3908TIP3    H211689   3.393   2.546   5.606  0.8051  0.6238  1.8031
 3909TIP3   OH211690   5.550   0.545   0.940  0.2529  0.2216 -0.1257
 3909TIP3    H111691   5.606   0.467   0.942  0.7010  0.3318 -3.4399
 3909TIP3    H211692   5.602   0.611   0.895 -1.3514  1.4032 -0.3490
 3910TIP3   OH211693   2.867   0.094   3.327  0.3139  0.2762 -0.3623
 3910TIP3    H111694   2.938   0.155   3.344  0.3610 -0.3956  2.3937
 3910TIP3    H211695   2.854   0.049   3.410 -3.4183  0.4642 -0.6527
 3911TIP3   OH211696   3.404   4.653   2.998 -0.2866 -0.3192 -0.0149
 3911TIP3    H111697   3.416   4.745   3.018  0.1753 -0.3229 -0.2466
 3911TIP3    H211698   3.353   4.652   2.917 -0.3063 -0.2647 -0.0024
 3912TIP3   OH211699   4.262   5.336   4.351 -0.0638 -0.1470  0.6856
 3912TIP3    H111700   4.191   5.272   4.353 -0.3165  0.1216  0.3583
 3912TIP3    H211701   4.231   5.409   4.404  0.7919 -0.8663  2.2479
 3913TIP3   OH211702   4.544   0.143   2.617  0.3550 -0.0842  0.9419
 3913TIP3    H111703   4.620   0.184   2.577 -0.1013  0.8239  0.9660
 3913TIP3    H211704   4.580   0.081   2.680  1.0700 -0.5651  0.0732
 3914TIP3   OH211705   6.005   1.350   5.654 -0.0066 -0.3846 -0.5793
 3914TIP3    H111706   6.064   1.299   5.709 -0.4519  0.3688  0.6171
 3914TIP3    H211707   5.971   1.418   5.711  0.2067  0.9928 -2.0300
 3915TIP3   OH211708   4.968   6.211   0.383  0.2118  0.1283 -0.0861
 3915TIP3    H111709   5.037   6.260   0.338  1.1781 -0.5314  0.6276
 3915TIP3    H211710   4.959   6.130   0.332 -0.5528  0.5224 -0.5902
 3916TIP3   OH211711   3.512   3.895   5.050  0.3050  0.1490 -0.4491
 3916TIP3    H111712   3.496   3.808   5.013  1.8141 -0.4462  0.1903
 3916TIP3    H211713   3.463   3.895   5.133  0.3050 -0.0985 -0.4472
 3917TIP3   OH211714   1.917   1.569   1.374 -0.2094  0.0216 -0.4420
 3917TIP3    H111715   1.870   1.486   1.384  0.2164 -0.1949 -0.1818
 3917TIP3    H211716   2.008   1.544   1.359 -0.3072  0.4236 -1.7854
 3918TIP3   OH211717   6.872   0.407   3.866 -0.0556 -0.8565  0.2506
 3918TIP3    H111718   6.786   0.428   3.829  0.1343 -1.0208 -0.3018
 3918TIP3    H211719   6.868   0.313   3.884  0.0558 -0.8899  0.0990
 3919TIP3   OH211720   2.124   4.348   2.547  0.2077 -0.3512  0.1998
 3919TIP3    H111721   2.108   4.264   2.589 -2.8914  0.3439  0.6334
 3919TIP3    H211722   2.082   4.412   2.604 -0.9502  1.0539 -2.0673
 3920TIP3   OH211723   0.547   0.198   4.709 -0.6174  0.2599 -0.3311
 3920TIP3    H111724   0.586   0.282   4.733  0.5370 -0.8214  1.9506
 3920TIP3    H211725   0.454   0.208   4.729 -0.5018  1.0268 -0.1455
 3921TIP3   OH211726   4.172   5.572   0.891 -0.0278  0.1615  0.2407
 3921TIP3    H111727   4.251   5.520   0.903  0.1026 -0.6970 -3.1715
 3921TIP3    H211728   4.204   5.655   0.855 -0.5129  1.2842  2.2428
 3922TIP3   OH211729   1.841   6.178   2.480  0.0389  0.2029 -0.1123
 3922TIP3    H111730   1.887   6.239   2.422 -0.8251  0.3080 -0.7053
 3922TIP3    H211731   1.909   6.115   2.506  0.8665  1.2229  0.2572
 3923TIP3   OH211732   1.211   4.797   5.079 -0.2420  0.4542  0.3812
 3923TIP3    H111733   1.141   4.838   5.130 -1.2811 -0.2872 -0.4144
 3923TIP3    H211734   1.278   4.775   5.144 -0.7289  1.1926  1.1532
 3924TIP3   OH211735   2.864   0.083   0.087 -0.5787  0.3172 -0.1742
 3924TIP3    H111736   2.893   0.047   0.170  0.2422  0.9869 -0.1567
 3924TIP3    H211737   2.898   0.022   0.021 -0.7189  0.1092 -0.0565
 3925TIP3   OH211738   4.065   2.776   1.267  1.0440  0.4449  0.7606
 3925TIP3    H111739   4.095   2.860   1.231 -1.6603  0.7634 -1.0357
 3925TIP3    H211740   3.980   2.796   1.305 -0.0373 -1.6015 -0.4237
 3926TIP3   OH211741   4.798   4.402   3.135  0.1650  0.0722 -0.6272
 3926TIP3    H111742   4.763   4.328   3.085 -0.1589  0.0704 -0.4011
 3926TIP3    H211743   4.775   4.479   3.082  0.3222  0.0291 -0.7604
 3927TIP3   OH211744   0.181   2.461   2.911  0.2790  0.0618 -0.3844
 3927TIP3    H111745   0.142   2.536   2.956 -0.0390 -0.7532  0.7360
 3927TIP3    H211746   0.115   2.433   2.848 -0.2596 -0.2624  0.3199
 3928TIP3   OH211747   2.749   4.162   0.087  0.1737 -0.7573 -0.6256
 3928TIP3    H111748   2.679   4.182   0.024  0.4871 -1.9724 -1.3840
 3928TIP3    H211749   2.743   4.068   0.100  0.1919 -0.5578  1.1133
 3929TIP3   OH211750   0.957   0.812   1.245 -0.1907 -0.0372  0.3552
 3929TIP3    H111751   0.891   0.744   1.254 -1.4564  0.6059 -2.7839
 3929TIP3    H211752   1.029   0.770   1.199  0.5031 -0.0657  1.4378
 3930TIP3   OH211753   3.236   3.813   3.719 -0.3691 -0.0344 -0.5253
 3930TIP3    H111754   3.160   3.767   3.755 -0.8598  0.7980 -0.4623
 3930TIP3    H211755   3.303   3.746   3.711 -0.5382 -0.4467  1.0879
 3931TIP3   OH211756   4.109   0.476   1.677  0.2332 -0.4189 -0.1890
 3931TIP3    H111757   4.149   0.511   1.756  0.5791  0.9150 -0.9402
 3931TIP3    H211758   4.151   0.522   1.605 -0.4506 -1.2296 -1.1471
 3932TIP3   OH211759   6.643   3.617   4.794  0.2501 -0.0481  0.5871
 3932TIP3    H111760   6.577   3.589   4.857  0.9283  0.2613  1.4461
 3932TIP3    H211761   6.725   3.583   4.829  0.7117  0.6351  0.1823
 3933TIP3   OH211762   1.085   6.597   0.053 -1.1227  0.3066  0.3332
 3933TIP3    H111763   1.064   6.558   0.138 -2.5782  2.0462  0.8443
 3933TIP3    H211764   1.014   6.568  -0.005 -0.5192 -0.3024 -0.1032
 3934TIP3   OH211765   5.142   2.020   4.946  0.1483  0.5158 -0.2522
 3934TIP3    H111766   5.199   1.990   4.875 -3.3717 -2.4247 -2.1993
 3934TIP3    H211767   5.177   1.977   5.024  0.8850 -0.8377 -1.2712
 3935TIP3   OH211768   4.161   3.222   2.160  0.2090  0.1713  0.0756
 3935TIP3    H111769   4.156   3.246   2.067 -1.5980  1.3388  0.4245
 3935TIP3    H211770   4.159   3.306   2.206 -0.2420 -0.4424  1.2106
 3936TIP3   OH211771   1.862   4.022   1.911  0.2874 -0.0141 -0.0480
 3936TIP3    H111772   1.812   3.982   1.983 -0.5758 -0.0971 -0.6817
 3936TIP3    H211773   1.832   3.976   1.833  1.7095 -0.3836 -0.3988
 3937TIP3   OH211774   7.042   4.473   3.030  0.0508  0.6694  0.2024
 3937TIP3    H111775   7.132   4.445   3.045  0.2140  0.9114 -0.2849
 3937TIP3    H211776   6.989   4.395   3.043  0.2658  0.6466  1.0525
 3938TIP3   OH211777   6.579   0.370   3.006 -0.2739 -0.1267  0.2232
 3938TIP3    H111778   6.652   0.407   2.957 -0.0838  3.2668  2.7311
 3938TIP3    H211779   6.501   0.413   2.971 -0.7054 -1.1565 -0.1315
 3939TIP3   OH211780   1.793   6.309   4.953 -0.4690 -0.1145 -0.3980
 3939TIP3    H111781   1.760   6.328   5.041 -1.2450 -0.2788 -0.6465
 3939TIP3    H211782   1.800   6.395   4.911  2.3444  0.2787  0.6153
 3940TIP3   OH211783   3.403   0.887   4.199 -0.2996  0.3836 -0.5411
 3940TIP3    H111784   3.317   0.896   4.157  0.6469  0.3221 -2.6044
 3940TIP3    H211785   3.404   0.956   4.266 -2.3326 -0.2876  0.2547
 3941TIP3   OH211786   5.562   5.211   5.653 -0.2763  0.1743 -0.0497
 3941TIP3    H111787   5.612   5.162   5.588  1.5336  1.0266  0.6246
 3941TIP3    H211788   5.625   5.274   5.689 -1.6384  0.7552  1.4335
 3942TIP3   OH211789   4.220   3.733   3.092  0.4080  0.2325 -0.5742
 3942TIP3    H111790   4.262   3.816   3.112  0.6593  0.2413 -1.1215
 3942TIP3    H211791   4.283   3.688   3.035  0.3778 -0.4264 -0.0993
 3943TIP3   OH211792   2.842   4.412   3.779 -0.3243  0.1799  0.2711
 3943TIP3    H111793   2.883   4.327   3.795  1.2885  0.4822 -1.7943
 3943TIP3    H211794   2.844   4.456   3.864 -0.6033 -1.5844  1.2390
 3944TIP3   OH211795   4.317   4.132   1.618  0.2806 -0.1440  0.2818
 3944TIP3    H111796   4.291   4.098   1.532  0.0460  1.2904 -0.2526
 3944TIP3    H211797   4.234   4.148   1.663  0.3730  0.1082  0.3630
 3945TIP3   OH211798   2.520   6.720   4.059 -0.2641 -0.1626 -0.2434
 3945TIP3    H111799   2.483   6.793   4.009 -0.5768  0.2434  0.5591
 3945TIP3    H211800   2.578   6.762   4.122 -0.8706 -0.5591  0.5902
 3946TIP3   OH211801   6.830   6.339   3.089  0.3623 -0.2560 -0.1769
 3946TIP3    H111802   6.794   6.335   3.000  1.3150  0.8012 -0.6258
 3946TIP3    H211803   6.859   6.249   3.107  1.9103 -0.0999 -1.6980
 3947TIP3   OH211804   1.747   6.283   2.842 -0.2149  0.4501 -0.0213
 3947TIP3    H111805   1.700   6.321   2.917  0.4863  1.0932  0.1020
 3947TIP3    H211806   1.838   6.279   2.871  0.5446  3.0720 -1.6989
 3948TIP3   OH211807   0.426   0.639   4.878  0.3766  0.4616  0.4317
 3948TIP3    H111808   0.371   0.624   4.800  0.6627  0.7806  0.1692
 3948TIP3    H211809   0.393   0.720   4.915  2.1905  1.9921 -1.0719
 3949TIP3   OH211810   0.062   0.961   5.045  0.0194 -0.3005  0.3343
 3949TIP3    H111811  -0.031   0.962   5.025 -0.6028  0.1035  2.8913
 3949TIP3    H211812   0.102   0.915   4.972 -2.2235 -0.7568 -0.6720
 3950TIP3   OH211813   6.179   4.341   0.931 -0.5934  0.4566  0.0138
 3950TIP3    H111814   6.241   4.378   0.994 -0.8952  1.5772 -0.3284
 3950TIP3    H211815   6.198   4.247   0.932  0.4815  0.6586  0.5917
 3951TIP3   OH211816   1.424   3.286   3.979  0.1164  0.1945 -0.0529
 3951TIP3    H111817   1.498   3.292   4.039 -1.3551  2.9232  1.6891
 3951TIP3    H211818   1.360   3.233   4.026 -0.3639  0.8458  0.0427
 3952TIP3   OH211819   5.753   5.001   2.551 -0.6639  0.1619  0.2747
 3952TIP3    H111820   5.667   5.030   2.581 -0.7099 -0.5064  0.8076
 3952TIP3    H211821   5.810   5.013   2.628 -0.3768  0.1795  0.0616
 3953TIP3   OH211822   7.073   6.674   4.340 -0.2488  0.1372 -0.3749
 3953TIP3    H111823   7.129   6.596   4.341  0.5668  0.6993  1.0066
 3953TIP3    H211824   7.082   6.709   4.252  1.1833 -0.0829 -0.3435
 3954TIP3   OH211825   1.975   1.694   0.683 -0.1524  0.0440  0.4937
 3954TIP3    H111826   2.028   1.617   0.663  0.3436  0.2932  0.8283
 3954TIP3    H211827   1.896   1.684   0.630  0.9428  0.4920 -1.2966
 3955TIP3   OH211828   0.469   6.610   4.501 -0.2461  0.5048 -0.0406
 3955TIP3    H111829   0.422   6.536   4.463  1.6774 -0.6936 -0.2572
 3955TIP3    H211830   0.443   6.611   4.593  0.2971 -0.9994  0.1596
 3956TIP3   OH211831   2.643   0.705   3.054  0.5180 -0.4109 -0.2104
 3956TIP3    H111832   2.681   0.770   2.996  0.9956  0.4111  0.9839
 3956TIP3    H211833   2.676   0.621   3.022  0.6702  0.0160 -1.1814
 3957TIP3   OH211834   5.897   2.783   3.809  0.1372  0.0015  0.0142
 3957TIP3    H111835   5.934   2.694   3.810  2.7583  1.0237  0.5188
 3957TIP3    H211836   5.932   2.822   3.728  0.1995  1.0379  0.5302
 3958TIP3   OH211837   5.731   5.187   2.328 -0.3521  0.0950  0.0301
 3958TIP3    H111838   5.771   5.158   2.410  1.8156 -0.0561 -1.0115
 3958TIP3    H211839   5.703   5.106   2.285 -0.7413  0.1110  0.2517
 3959TIP3   OH211840   2.597   6.057   4.010 -0.3786 -0.3448  0.4934
 3959TIP3    H111841   2.654   6.108   4.068  0.8954  0.1012 -1.0949
 3959TIP3    H211842   2.528   6.023   4.068 -0.1552  1.5257  1.9459
 3960TIP3   OH211843   4.849   2.016   3.558  0.0250  0.1794 -0.0976
 3960TIP3    H111844   4.769   2.001   3.609  0.4050 -0.6510  0.2722
 3960TIP3    H211845   4.853   2.111   3.547 -1.8984  0.1487 -1.5758
 3961TIP3   OH211846   0.173   0.161   1.952 -0.2609  0.6669  0.2872
 3961TIP3    H111847   0.138   0.245   1.983  0.0341  0.1715  2.0864
 3961TIP3    H211848   0.268   0.168   1.969 -0.3101 -0.2226  1.0027
 3962TIP3   OH211849   1.726   5.803   4.171 -0.7587 -0.1089  0.6218
 3962TIP3    H111850   1.776   5.769   4.097 -1.9069 -1.3419  0.3684
 3962TIP3    H211851   1.781   5.872   4.207  1.5866 -1.9982  0.9400
 3963TIP3   OH211852   1.808   3.734   5.112  1.0263 -0.6099  0.0125
 3963TIP3    H111853   1.756   3.689   5.045  1.3529  2.6422 -2.6957
 3963TIP3    H211854   1.897   3.701   5.098  0.8667 -0.9587 -0.2079
 3964TIP3   OH211855   2.434   4.496   0.095  0.1279 -0.2912  0.0124
 3964TIP3    H111856   2.486   4.469   0.171 -0.7397 -2.7291 -0.1893
 3964TIP3    H211857   2.494   4.551   0.044  0.9116  0.9293  2.1139
 3965TIP3   OH211858   5.020   0.523   1.043 -0.0478 -0.0494 -0.0402
 3965TIP3    H111859   5.044   0.518   1.135 -2.4157 -0.6059  0.6159
 3965TIP3    H211860   5.029   0.433   1.011 -0.1979 -0.0516 -0.0767
 3966TIP3   OH211861   3.576   0.881   4.001  0.2279  0.0373  0.3090
 3966TIP3    H111862   3.530   0.868   4.084  1.0294 -0.1455  0.7340
 3966TIP3    H211863   3.565   0.798   3.955 -0.4000  0.2110  0.1290
 3967TIP3   OH211864   5.482   6.183   3.171 -0.2146  0.0863 -0.0283
 3967TIP3    H111865   5.395   6.200   3.134 -0.1760  2.6848  0.9063
 3967TIP3    H211866   5.540   6.242   3.123  1.1411 -1.7708 -0.7949
 3968TIP3   OH211867   2.233   6.760   1.167  0.0111 -0.2831  0.0064
 3968TIP3    H111868   2.301   6.710   1.211 -0.4737 -0.5893  0.4165
 3968TIP3    H211869   2.201   6.702   1.098  0.2372 -0.0970 -0.2580
 3969TIP3   OH211870   6.570   6.762   1.369 -0.5940  0.6439  0.4860
 3969TIP3    H111871   6.582   6.853   1.339 -0.8884  0.7181  0.5859
 3969TIP3    H211872   6.654   6.738   1.408 -0.6999  1.0875  1.0119
 3970TIP3   OH211873   4.910   2.777   2.815  0.2535  0.5446  0.1979
 3970TIP3    H111874   4.885   2.864   2.847  2.3101  0.8844  1.0649
 3970TIP3    H211875   4.935   2.791   2.724 -1.2749  0.4593 -0.2533
 3971TIP3   OH211876   1.424   4.691  -0.017 -0.0639  0.2241  0.3152
 3971TIP3    H111877   1.341   4.699   0.030 -0.4810 -1.6626 -0.0335
 3971TIP3    H211878   1.478   4.636   0.038  0.4446  0.2838 -0.1190
 3972TIP3   OH211879   2.873   1.867   4.929  0.1099  0.3493  0.6754
 3972TIP3    H111880   2.896   1.831   4.844  1.4164 -0.5315  1.3653
 3972TIP3    H211881   2.860   1.960   4.913  0.3718  0.2011 -0.4746
 3973TIP3   OH211882   6.136   4.894   0.276  0.4422 -0.5999 -0.0330
 3973TIP3    H111883   6.090   4.839   0.339 -1.8437  1.4914  0.2565
 3973TIP3    H211884   6.102   4.867   0.190  1.8187 -1.8401 -0.2320
 3974TIP3   OH211885   1.312   5.882   4.704  0.2347  0.0363 -0.3068
 3974TIP3    H111886   1.401   5.903   4.734 -0.1143 -0.1789  0.9010
 3974TIP3    H211887   1.298   5.941   4.630  0.7125  1.3540  0.6052
 3975TIP3   OH211888   3.664   0.921   4.667 -0.3395  0.1390 -0.0009
 3975TIP3    H111889   3.703   1.008   4.659  0.7257 -0.2765  0.4574
 3975TIP3    H211890   3.738   0.863   4.686 -0.9959 -0.9139 -0.5455
 3976TIP3   OH211891   3.096   0.065   1.776 -0.2306  0.3545  0.2563
 3976TIP3    H111892   3.026   0.114   1.733  1.0839  1.5064 -0.6657
 3976TIP3    H211893   3.169   0.126   1.779  0.7623 -0.8324  1.1475
 3977TIP3   OH211894   3.596   0.584   0.714  0.3325 -0.3983 -0.4069
 3977TIP3    H111895   3.505   0.561   0.696  0.0719 -0.0252  0.3877
 3977TIP3    H211896   3.647   0.531   0.652 -0.4315 -0.3739 -1.0784
 3978TIP3   OH211897   7.083   1.025   3.604 -0.9057 -0.4514 -0.1817
 3978TIP3    H111898   7.091   1.115   3.571 -0.2381 -1.0023 -1.6071
 3978TIP3    H211899   7.155   1.016   3.666 -0.6206 -0.1782 -0.4674
 3979TIP3   OH211900   4.448   2.580   0.801  0.3845 -0.0453  0.2073
 3979TIP3    H111901   4.401   2.512   0.850 -2.3541 -0.5107 -2.7037
 3979TIP3    H211902   4.392   2.657   0.810  1.6344  0.8410  0.5780
 3980TIP3   OH211903   4.146   4.361   0.169 -0.4418  0.0834 -0.0684
 3980TIP3    H111904   4.176   4.274   0.193 -0.0352  0.2245 -0.0615
 3980TIP3    H211905   4.076   4.381   0.232 -1.2204 -0.6374 -0.6864
 3981TIP3   OH211906   6.163   2.368   1.035  0.9119  0.1424  0.8944
 3981TIP3    H111907   6.070   2.354   1.048  1.0386  0.2069  1.9955
 3981TIP3    H211908   6.203   2.281   1.044  0.9924  0.1651  0.7650
 3982TIP3   OH211909   1.823   4.735   0.480  0.3603 -0.6576 -0.7785
 3982TIP3    H111910   1.732   4.708   0.471  0.4026 -0.9683 -0.3155
 3982TIP3    H211911   1.830   4.770   0.569  0.2107  1.3202 -1.4862
 3983TIP3   OH211912   4.830   2.863   4.660  0.2148 -0.0520  0.1030
 3983TIP3    H111913   4.834   2.936   4.722  0.3236 -0.4814  0.6053
 3983TIP3    H211914   4.911   2.814   4.674 -0.9202 -1.6754  1.5364
 3984TIP3   OH211915   2.090   5.506   5.547 -0.2365  0.0233 -0.6253
 3984TIP3    H111916   2.121   5.440   5.609 -1.0107  0.2217 -0.0173
 3984TIP3    H211917   2.164   5.567   5.538 -0.5477  0.6964  1.0909
 3985TIP3   OH211918   2.585   5.890   4.515 -0.7142  0.1826  0.6055
 3985TIP3    H111919   2.607   5.854   4.429 -0.0541 -0.8155  1.1724
 3985TIP3    H211920   2.563   5.981   4.498 -2.2165 -0.3988 -0.8576
 3986TIP3   OH211921   1.816   6.188   1.485 -0.6169 -0.5461 -0.4400
 3986TIP3    H111922   1.853   6.101   1.469 -1.1132 -1.0363  0.9252
 3986TIP3    H211923   1.829   6.235   1.403  0.0003 -1.7864 -1.0804
 3987TIP3   OH211924   1.656   5.009   1.590 -0.7575  0.2263  0.3943
 3987TIP3    H111925   1.578   4.955   1.607  0.5298 -1.4309  1.3074
 3987TIP3    H211926   1.689   5.032   1.677 -0.3760  1.1677  0.0138
 3988TIP3   OH211927   0.068   4.348   1.706  0.2950 -0.2020  0.1648
 3988TIP3    H111928  -0.007   4.401   1.679  1.8000  1.9679 -0.0128
 3988TIP3    H211929   0.060   4.343   1.802  0.5444  1.0844  0.2765
 3989TIP3   OH211930   6.492   3.267   5.695 -0.5485  0.7715 -0.0494
 3989TIP3    H111931   6.503   3.199   5.628 -1.7057  0.9537 -0.4349
 3989TIP3    H211932   6.471   3.218   5.775  0.0748  0.6012  0.0170
 3990TIP3   OH211933   2.619   0.287   1.087  0.0445  0.2264 -0.5786
 3990TIP3    H111934   2.537   0.334   1.069 -0.9491  0.4703  3.5786
 3990TIP3    H211935   2.685   0.355   1.093 -1.0836  1.2130  3.7595
 3991TIP3   OH211936   0.458   4.951   5.209 -0.6553 -0.2092 -0.1370
 3991TIP3    H111937   0.374   4.906   5.199 -0.0605 -1.0681 -1.6925
 3991TIP3    H211938   0.517   4.904   5.150  0.5948  1.1866 -0.0502
 3992TIP3   OH211939   0.462   1.421   4.310 -0.1084 -0.3538  0.1181
 3992TIP3    H111940   0.433   1.449   4.397 -1.5354 -0.7558 -0.2020
 3992TIP3    H211941   0.460   1.500   4.257 -2.4167 -0.6588 -0.3390
 3993TIP3   OH211942   5.489   3.471   5.479  0.1240  0.1345  0.4597
 3993TIP3    H111943   5.507   3.500   5.390 -1.2494 -1.3478 -0.3609
 3993TIP3    H211944   5.476   3.551   5.529  3.4247  1.1148 -0.0307
 3994TIP3   OH211945   3.336   1.971   2.604  0.2134  0.2260  0.1631
 3994TIP3    H111946   3.266   1.994   2.665  1.1522 -0.8863  1.7362
 3994TIP3    H211947   3.408   1.941   2.660  1.1069 -0.8794 -1.4942
 3995TIP3   OH211948   7.087   0.283   3.367  0.4047 -0.2907 -0.2954
 3995TIP3    H111949   7.174   0.286   3.329 -0.4040 -0.1907 -2.2136
 3995TIP3    H211950   7.034   0.340   3.312 -0.8325 -0.1586  0.9771
 3996TIP3   OH211951   4.106   4.560   0.663 -0.1587 -0.4375  0.0257
 3996TIP3    H111952   4.045   4.580   0.734  0.5460 -0.2052  0.5688
 3996TIP3    H211953   4.107   4.465   0.658  0.0125 -0.4635  0.5247
 3997TIP3   OH211954   2.386   3.674   4.360 -0.1161 -0.1925  0.0433
 3997TIP3    H111955   2.325   3.746   4.379 -0.2737 -0.2606 -0.1933
 3997TIP3    H211956   2.436   3.663   4.440  0.7106  0.9529 -0.2986
 3998TIP3   OH211957   3.906   0.392   4.035 -0.1637 -0.1614 -0.0422
 3998TIP3    H111958   3.881   0.328   4.102  2.9779 -0.7732  0.7143
 3998TIP3    H211959   3.960   0.343   3.973  2.2028  1.6050  0.4715
 3999TIP3   OH211960   6.827   5.903   3.038 -0.4221 -0.3387  0.2538
 3999TIP3    H111961   6.831   5.926   2.945 -0.3713  0.0983  0.3595
 3999TIP3    H211962   6.757   5.839   3.045 -0.8889  0.1436  0.0188
 4000TIP3   OH211963   0.628   1.846   4.051  0.4524  0.7116  0.0237
 4000TIP3    H111964   0.646   1.809   3.964 -0.7262 -0.3981  0.2047
 4000TIP3    H211965   0.551   1.901   4.038 -0.0087  0.1841  0.4188
 4001TIP3   OH211966   3.485   3.178   2.841 -0.0216 -0.2558  0.6960
 4001TIP3    H111967   3.486   3.108   2.776 -2.2083  1.5414 -1.4487
 4001TIP3    H211968   3.432   3.142   2.913 -1.4981 -0.7031 -0.5596
 4002TIP3   OH211969   0.272   1.217   2.556 -0.4324 -0.1232  0.4645
 4002TIP3    H111970   0.240   1.298   2.516 -2.2637 -0.7706  0.5548
 4002TIP3    H211971   0.348   1.245   2.607 -2.0233  1.8767  1.9151
 4003TIP3   OH211972   4.928   1.070   5.831 -0.5371 -0.1244  0.4417
 4003TIP3    H111973   4.899   1.149   5.786  1.3895 -0.0293 -0.7472
 4003TIP3    H211974   5.021   1.085   5.847 -0.7025 -1.0672  2.5921
 4004TIP3   OH211975   6.305   1.636   0.499  0.2307  0.1870  0.4790
 4004TIP3    H111976   6.315   1.720   0.453 -1.4337  0.8197  1.1765
 4004TIP3    H211977   6.246   1.585   0.444  0.6517 -0.2542  0.4266
 4005TIP3   OH211978   0.760   5.688   4.006 -0.1349  0.1557  0.6164
 4005TIP3    H111979   0.668   5.704   4.026 -0.4316 -0.1762 -0.4148
 4005TIP3    H211980   0.804   5.691   4.091 -1.2028 -0.4456  1.2078
 4006TIP3   OH211981   1.702   4.460   3.484  0.5276  0.3198  0.4416
 4006TIP3    H111982   1.755   4.416   3.416 -1.7676 -1.0702 -0.5788
 4006TIP3    H211983   1.615   4.422   3.474 -0.2370  1.0963  3.3272
 4007TIP3   OH211984   1.095   2.831   1.636 -0.0191  0.3862 -0.1875
 4007TIP3    H111985   1.185   2.800   1.630 -0.6686 -1.3997 -2.0159
 4007TIP3    H211986   1.063   2.830   1.545 -2.0750  0.3073  0.4684
 4008TIP3   OH211987   5.756   4.751   3.202  0.1390 -0.6870  0.5390
 4008TIP3    H111988   5.844   4.763   3.168  0.5641  1.4052  2.1731
 4008TIP3    H211989   5.757   4.792   3.288 -2.9189  1.3484 -0.1970
 4009TIP3   OH211990   6.892   4.427   4.006 -0.2103 -0.2485  0.3107
 4009TIP3    H111991   6.816   4.376   4.032 -1.2656  0.7336 -0.7231
 4009TIP3    H211992   6.961   4.362   3.992 -1.2960 -1.3177 -0.2478
 4010TIP3   OH211993   3.111   6.231   3.057  0.1306  0.1483  0.5770
 4010TIP3    H111994   3.181   6.171   3.034  0.1079  0.0047  0.8823
 4010TIP3    H211995   3.061   6.241   2.976 -0.5034 -1.0991  0.7896
 4011TIP3   OH211996   4.151   4.680   1.483 -0.1561  0.3725 -0.2451
 4011TIP3    H111997   4.147   4.703   1.576  1.7606  1.2239 -0.3257
 4011TIP3    H211998   4.178   4.588   1.482 -2.1255 -0.2686  0.0082
 4012TIP3   OH211999   5.097   2.755   3.806 -0.0932  0.0195 -0.5560
 4012TIP3    H112000   5.142   2.828   3.849  1.2391 -1.1066  0.0785
 4012TIP3    H212001   5.029   2.729   3.869 -0.3659  0.5016 -0.6461
 4013TIP3   OH212002   5.779   3.892   0.949  0.1460  0.3212 -0.5876
 4013TIP3    H112003   5.747   3.957   0.887  2.0714  1.9642  0.0509
 4013TIP3    H212004   5.819   3.824   0.895 -1.6937 -0.3070 -1.2455
 4014TIP3   OH212005   3.901   1.197   0.467  0.5045 -0.0139  0.1022
 4014TIP3    H112006   3.996   1.189   0.468  0.4829 -0.4889 -0.8804
 4014TIP3    H212007   3.884   1.272   0.410  0.2736 -0.1963 -0.0715
 4015TIP3   OH212008   0.312   2.560   0.488  0.1169  0.2019 -0.3886
 4015TIP3    H112009   0.386   2.598   0.440 -1.0391  0.0670 -2.3889
 4015TIP3    H212010   0.241   2.623   0.477 -0.2933  0.0169  0.9574
 4016TIP3   OH212011   0.274   5.891   3.690  0.0982  0.1500 -0.1660
 4016TIP3    H112012   0.291   5.960   3.626  1.3474 -0.4584 -0.5210
 4016TIP3    H212013   0.353   5.837   3.689 -0.7734 -1.1793  0.2558
 4017TIP3   OH212014   6.220   3.588   2.515 -0.4440  0.3496 -0.7407
 4017TIP3    H112015   6.242   3.659   2.454 -0.4618  0.2161 -0.9045
 4017TIP3    H212016   6.304   3.547   2.535 -0.5821 -0.4657 -1.7453
 4018TIP3   OH212017   4.278   3.233   2.928 -0.2769  0.7946  0.0726
 4018TIP3    H112018   4.339   3.192   2.989 -1.0400 -0.6908 -0.1241
 4018TIP3    H212019   4.323   3.231   2.843 -0.3599  0.2413  0.0411
 4019TIP3   OH212020   4.396   2.984   0.186 -0.3825  0.1342 -0.6600
 4019TIP3    H112021   4.393   2.918   0.255  1.4349  1.4239  0.7529
 4019TIP3    H212022   4.343   3.057   0.220 -0.0825  0.4943 -0.9510
 4020TIP3   OH212023   5.994   2.379   2.011  0.4715  0.1763 -0.7696
 4020TIP3    H112024   5.979   2.418   1.925  1.6126 -0.0553 -1.0947
 4020TIP3    H212025   5.918   2.324   2.027 -0.1614  0.9029 -1.2366
 4021TIP3   OH212026   6.489   5.068   2.068  0.7675  0.2639  0.2947
 4021TIP3    H112027   6.414   5.106   2.114 -0.0906 -1.6221  0.5159
 4021TIP3    H212028   6.459   5.060   1.977  0.3969 -1.1326  0.5135
 4022TIP3   OH212029   2.317   2.424   0.298 -0.0974  0.4572 -0.3966
 4022TIP3    H112030   2.371   2.488   0.251 -1.1485  1.0167 -0.8848
 4022TIP3    H212031   2.337   2.439   0.390 -1.3530  2.5335 -0.3861
 4023TIP3   OH212032   2.455   5.886   4.148  0.0714  0.4990 -0.2369
 4023TIP3    H112033   2.449   5.802   4.102 -0.6021  0.3165  0.1688
 4023TIP3    H212034   2.540   5.884   4.191 -0.3186 -0.3832  0.5301
 4024TIP3   OH212035   3.212   2.224   2.313 -0.4563 -0.2042  0.7224
 4024TIP3    H112036   3.231   2.309   2.273  1.4780 -0.9233 -0.0047
 4024TIP3    H212037   3.185   2.245   2.402 -0.2673  1.1782  0.4705
 4025TIP3   OH212038   6.185   6.112   1.925  0.0066 -0.0614  0.2143
 4025TIP3    H112039   6.158   6.025   1.897 -0.1424 -0.2832  1.0350
 4025TIP3    H212040   6.110   6.146   1.974  0.4127  0.1712  0.6763
 4026TIP3   OH212041   0.138   6.666   4.955  0.0556 -0.7504  0.0811
 4026TIP3    H112042   0.054   6.659   4.912 -0.8417 -0.1678  1.6365
 4026TIP3    H212043   0.123   6.632   5.043  1.6865 -1.4883  0.1207
 4027TIP3   OH212044   6.207   4.992   0.701  0.3228  0.1669 -0.3100
 4027TIP3    H112045   6.119   4.977   0.667  0.7590 -2.7460 -0.4420
 4027TIP3    H212046   6.194   5.018   0.792 -0.6892 -0.0796 -0.3754
 4028TIP3   OH212047   4.181   4.477   3.883 -0.2614  0.4437  0.4923
 4028TIP3    H112048   4.232   4.426   3.946 -0.4140  1.2292  1.2622
 4028TIP3    H212049   4.208   4.567   3.896 -0.6155  0.6709 -0.2714
 4029TIP3   OH212050   5.882   4.332   0.967  0.3488  0.3601  0.1563
 4029TIP3    H112051   5.978   4.337   0.965  0.3152  2.3480 -2.2350
 4029TIP3    H212052   5.861   4.259   0.910  0.4529  0.4636 -0.0175
 4030TIP3   OH212053   6.428   4.490   3.120  0.2507 -0.2554 -0.2814
 4030TIP3    H112054   6.421   4.531   3.206  0.1785  0.7543 -0.7582
 4030TIP3    H212055   6.348   4.438   3.112 -0.7493  1.2681 -0.5613
 4031TIP3   OH212056   5.102   5.554   1.560 -0.1424 -0.3094 -0.5192
 4031TIP3    H112057   5.070   5.599   1.482 -0.7649  0.6083  0.2328
 4031TIP3    H212058   5.055   5.470   1.561  0.5908 -0.7547 -1.6256
 4032TIP3   OH212059   6.223   0.247   3.778 -0.0832  0.1098 -0.5501
 4032TIP3    H112060   6.217   0.320   3.840 -0.9934  1.2574 -1.9446
 4032TIP3    H212061   6.200   0.170   3.830 -0.5868  1.0075  0.6011
 4033TIP3   OH212062   4.694   5.417   2.417 -0.4791  0.0650  0.4055
 4033TIP3    H112063   4.620   5.427   2.357  0.6510 -0.4918 -1.1362
 4033TIP3    H212064   4.755   5.486   2.392 -0.1944  0.1252  1.2504
 4034TIP3   OH212065   7.063   0.263   0.032 -0.0584 -0.0145  0.5858
 4034TIP3    H112066   7.064   0.188   0.091  0.1143 -0.6972 -0.2652
 4034TIP3    H212067   6.994   0.320   0.067  0.8295  0.1548  2.1037
 4035TIP3   OH212068   2.734   6.416   4.482  0.2100  0.1186  0.5020
 4035TIP3    H112069   2.810   6.413   4.424  0.6706  0.3416  1.0848
 4035TIP3    H212070   2.667   6.463   4.431  0.5385  0.1369  0.0798
 4036TIP3   OH212071   2.784   4.318   4.291  0.3729  0.4551  0.0637
 4036TIP3    H112072   2.849   4.277   4.234 -0.4441 -0.4143 -0.2778
 4036TIP3    H212073   2.780   4.262   4.368 -1.2403 -0.5728 -0.6973
 4037TIP3   OH212074   5.062   5.443   3.977 -0.1600  0.4714  0.6007
 4037TIP3    H112075   5.134   5.500   4.004  0.3787  0.8460 -1.4867
 4037TIP3    H212076   5.043   5.468   3.887 -0.5658 -1.9957 -0.0765
 4038TIP3   OH212077   3.452   0.527   1.688 -0.9529  0.1902 -0.4124
 4038TIP3    H112078   3.392   0.475   1.742 -2.2363  1.4518 -0.5584
 4038TIP3    H212079   3.443   0.616   1.722 -1.2993  0.9062 -2.2482
 4039TIP3   OH212080   3.707   6.657   5.330 -0.2723  0.6408 -0.1671
 4039TIP3    H112081   3.722   6.567   5.302  1.5392  0.8493  0.0703
 4039TIP3    H212082   3.626   6.652   5.382 -1.4599 -0.4261 -2.0143
 4040TIP3   OH212083   2.620   2.185   2.644 -0.0398  0.5530 -0.1068
 4040TIP3    H112084   2.713   2.168   2.628 -0.3279 -1.6802  0.2540
 4040TIP3    H212085   2.575   2.113   2.601 -1.5282  0.9354  0.7478
 4041TIP3   OH212086   2.667   4.309   5.044 -0.4539 -0.8847  0.3446
 4041TIP3    H112087   2.716   4.260   5.110  0.7574 -0.3362 -0.1250
 4041TIP3    H212088   2.713   4.291   4.962 -1.0394 -0.3404 -0.1082
 4042TIP3   OH212089   2.105   0.074   2.418 -0.7184 -0.5273 -0.0061
 4042TIP3    H112090   2.152   0.139   2.366 -0.2146 -0.9242 -0.0551
 4042TIP3    H212091   2.032   0.123   2.457 -1.3628 -0.3179 -1.4130
 4043TIP3   OH212092   6.561   0.171   0.712 -0.4984 -0.4181 -0.7383
 4043TIP3    H112093   6.493   0.123   0.759 -0.1968 -0.3923 -0.2651
 4043TIP3    H212094   6.514   0.218   0.644 -1.0742  0.2789  0.1112
 4044TIP3   OH212095   5.163   0.867   4.065  0.0403  0.6230  0.0736
 4044TIP3    H112096   5.067   0.873   4.063  0.1268  3.3750  0.0141
 4044TIP3    H212097   5.191   0.954   4.092  2.5065 -0.7505  2.3643
 4045TIP3   OH212098   1.388   3.703   2.673  0.9556 -0.0751 -0.1527
 4045TIP3    H112099   1.393   3.607   2.666  0.3053 -0.1452  0.2502
 4045TIP3    H212100   1.479   3.730   2.688  1.3497 -0.5063 -1.5441
 4046TIP3   OH212101   1.338   4.289   5.240 -0.0527  0.2491 -0.6482
 4046TIP3    H112102   1.370   4.372   5.277 -0.2088  0.0510 -0.0442
 4046TIP3    H212103   1.372   4.288   5.151 -0.0469  0.9647 -0.6656
 4047TIP3   OH212104   6.696   0.964   4.383  0.1718  0.0633 -0.3498
 4047TIP3    H112105   6.756   1.021   4.430 -1.0761  1.8147 -0.7825
 4047TIP3    H212106   6.744   0.936   4.305  2.0666 -2.4454  1.5589
 4048TIP3   OH212107   0.325   2.006   5.344 -0.3643  1.1413 -0.2903
 4048TIP3    H112108   0.385   1.956   5.289 -0.8059 -0.6243  0.7455
 4048TIP3    H212109   0.376   2.030   5.421 -0.5450  0.9935 -0.1214
 4049TIP3   OH212110   7.063   0.351   1.692 -0.5582 -0.2469  0.0194
 4049TIP3    H112111   7.043   0.417   1.626  1.2872  1.6766  1.2756
 4049TIP3    H212112   7.068   0.399   1.774  1.4544 -1.8263  0.8961
 4050TIP3   OH212113   6.733   4.519   4.412  0.1581 -0.2747 -0.9728
 4050TIP3    H112114   6.690   4.439   4.442  1.4437 -0.6431 -0.0200
 4050TIP3    H212115   6.743   4.573   4.490  1.6387 -0.3280 -1.0944
 4051TIP3   OH212116   1.534   1.067   4.094 -0.3573  0.1418  0.1912
 4051TIP3    H112117   1.477   1.133   4.053  0.2896 -0.5007 -1.8902
 4051TIP3    H212118   1.475   0.998   4.123 -0.9816  1.3110  1.8057
 4052TIP3   OH212119   4.817   3.520   3.543 -0.1991 -0.3018  0.1458
 4052TIP3    H112120   4.727   3.490   3.545 -0.3131  0.0546  1.4588
 4052TIP3    H212121   4.864   3.459   3.599 -0.0134  0.6284  1.0389
 4053TIP3   OH212122   2.920   5.069   1.148  0.0726  0.1218 -0.0290
 4053TIP3    H112123   2.932   5.144   1.091 -1.2535 -1.1656 -2.1682
 4053TIP3    H212124   3.007   5.031   1.158  0.2438 -0.1072 -1.9986
 4054TIP3   OH212125   5.656   3.834   2.884  0.3464 -0.2465 -0.1348
 4054TIP3    H112126   5.689   3.810   2.971  1.0073  0.3729 -0.2105
 4054TIP3    H212127   5.735   3.852   2.833 -0.0688  0.0814 -0.6623
 4055TIP3   OH212128   0.297   4.526   3.069  0.9931 -0.0033  0.3495
 4055TIP3    H112129   0.347   4.598   3.107  1.4587  0.9143 -1.8636
 4055TIP3    H212130   0.363   4.468   3.030  0.4779  0.9737 -2.1806
 4056TIP3   OH212131   3.275   6.156   3.553 -0.0784  0.4861  0.2869
 4056TIP3    H112132   3.234   6.074   3.581  0.3190  0.5342  1.0408
 4056TIP3    H212133   3.202   6.211   3.525 -0.4422  0.2329  0.7218
 4057TIP3   OH212134   2.504   2.412   0.790 -0.3025 -0.1188 -0.1342
 4057TIP3    H112135   2.580   2.413   0.849  0.5639 -2.2083 -1.1175
 4057TIP3    H212136   2.430   2.430   0.848  0.9718  3.9814  0.5696
 4058TIP3   OH212137   5.152   1.256   4.701  0.4470  0.3590  0.1828
 4058TIP3    H112138   5.115   1.242   4.614  1.0571  0.4973 -0.0993
 4058TIP3    H212139   5.133   1.175   4.748 -0.3567  0.4864  0.0999
 4059TIP3   OH212140   0.807   1.869   3.231 -0.1661  0.4591 -0.6510
 4059TIP3    H112141   0.769   1.820   3.304  1.0854  1.5614  0.8181
 4059TIP3    H212142   0.762   1.954   3.234 -0.5794  0.2870 -1.6154
 4060TIP3   OH212143   1.090   5.705   1.018  0.1797  0.3536  0.4022
 4060TIP3    H112144   1.024   5.646   1.054  1.5194 -0.9789  0.7804
 4060TIP3    H212145   1.094   5.683   0.925  1.7164 -1.2895  0.7964
 4061TIP3   OH212146   3.018   4.103   5.688  0.1544 -0.3465 -0.4101
 4061TIP3    H112147   3.008   4.065   5.600 -0.7734 -2.7121  0.6309
 4061TIP3    H212148   2.930   4.134   5.711 -0.1983 -1.9913  0.5977
 4062TIP3   OH212149   2.186   6.255   2.789  0.0949  0.0804 -0.0990
 4062TIP3    H112150   2.163   6.177   2.739  0.0765  0.2675 -0.3886
 4062TIP3    H212151   2.277   6.273   2.764  0.2807 -0.1620  0.3844
 4063TIP3   OH212152   3.634   0.123   4.019  0.0673 -0.2593  0.8421
 4063TIP3    H112153   3.599   0.212   4.015  1.0866  0.1421  0.6763
 4063TIP3    H212154   3.696   0.124   4.092  0.1582 -0.8019  0.7785
 4064TIP3   OH212155   6.058   4.827   4.498 -0.3165 -0.1602 -0.1412
 4064TIP3    H112156   6.065   4.908   4.548 -0.0925 -0.8062  0.8862
 4064TIP3    H212157   5.989   4.777   4.542 -0.7668 -0.3512 -1.0349
 4065TIP3   OH212158   2.040   2.183   5.319  0.0870 -0.6104 -0.4453
 4065TIP3    H112159   2.003   2.134   5.393 -2.2758 -0.1274 -1.2489
 4065TIP3    H212160   2.096   2.120   5.274 -2.3474 -2.4675 -1.0718
 4066TIP3   OH212161   0.247   3.846   1.447  0.7318  0.0665 -0.3066
 4066TIP3    H112162   0.170   3.829   1.394  1.3270 -2.4777 -0.4677
 4066TIP3    H212163   0.254   3.942   1.449 -2.9222  0.4614  0.5199
 4067TIP3   OH212164   5.179   3.385   2.917 -0.0493  0.2696 -0.1423
 4067TIP3    H112165   5.215   3.312   2.967 -0.3989  0.6745  0.7416
 4067TIP3    H212166   5.214   3.375   2.829  1.6593  0.2563  0.5097
 4068TIP3   OH212167   0.186   4.715   5.797  0.6086 -0.0111 -1.0520
 4068TIP3    H112168   0.270   4.757   5.814 -0.4407  1.6331  0.4455
 4068TIP3    H212169   0.183   4.642   5.858 -0.8180  2.6073  2.3483
 4069TIP3   OH212170   1.821   2.040   0.217  0.3075 -0.2082  0.0034
 4069TIP3    H112171   1.744   2.092   0.194  0.2054 -0.3548  0.0089
 4069TIP3    H212172   1.844   1.995   0.136  0.3421 -0.2236  0.0215
 4070TIP3   OH212173   3.525   6.707   5.534 -0.2183  0.6885 -0.7581
 4070TIP3    H112174   3.440   6.749   5.542  0.1004  1.1223  0.5676
 4070TIP3    H212175   3.559   6.703   5.623  0.6432 -0.5568 -1.0997
 4071TIP3   OH212176   0.798   0.047   3.598  1.0497  0.2180  0.7769
 4071TIP3    H112177   0.817  -0.030   3.544  0.8426  0.0856  0.8926
 4071TIP3    H212178   0.831   0.120   3.547  0.4535  0.1367  0.2637
 4072TIP3   OH212179   6.132   4.081   0.863 -0.4204  0.0507  0.3097
 4072TIP3    H112180   6.151   4.007   0.806  1.0117  0.0145  0.8022
 4072TIP3    H212181   6.056   4.124   0.822 -0.4472 -0.9148 -0.6947
 4073TIP3   OH212182   5.850   0.805   1.255  0.1247  0.0509  0.4523
 4073TIP3    H112183   5.769   0.809   1.307 -1.3306 -0.4880 -1.6409
 4073TIP3    H212184   5.833   0.738   1.189  1.7611  0.8823 -0.8992
 4074TIP3   OH212185   3.148   2.215   1.439 -0.5302  0.2958  0.3401
 4074TIP3    H112186   3.168   2.306   1.459 -1.5246  0.3491  1.2090
 4074TIP3    H212187   3.164   2.168   1.522 -1.9227  0.0246  0.4793
 4075TIP3   OH212188   5.408   3.930   5.858 -0.3956  0.3012  0.8859
 4075TIP3    H112189   5.313   3.925   5.854 -0.3577 -2.8396  1.3830
 4075TIP3    H212190   5.436   3.933   5.767 -0.9187  2.4669  0.7396
 4076TIP3   OH212191   3.756   5.456   2.241  0.2883 -0.0989  0.6347
 4076TIP3    H112192   3.718   5.509   2.170 -2.3070 -2.0893  0.3820
 4076TIP3    H212193   3.720   5.493   2.321 -1.9720 -1.6080  0.4282
 4077TIP3   OH212194   0.307   6.157   4.593  0.3027 -0.3430 -0.4135
 4077TIP3    H112195   0.235   6.212   4.561 -0.7158 -1.4492 -0.1283
 4077TIP3    H212196   0.312   6.177   4.686  1.3304  0.7605 -0.6858
 4078TIP3   OH212197   3.735   4.153   3.983 -0.2712  0.1567 -0.3493
 4078TIP3    H112198   3.715   4.242   3.952 -0.0777 -0.7813 -3.5188
 4078TIP3    H212199   3.792   4.167   4.059  2.0943  2.8296 -2.3812
 4079TIP3   OH212200   3.490   3.220   1.374 -0.5322  0.3442  0.1720
 4079TIP3    H112201   3.568   3.212   1.430 -0.9448  0.3319  0.7564
 4079TIP3    H212202   3.520   3.268   1.298 -0.1323  1.0497  0.7609
 4080TIP3   OH212203   3.798   2.469   3.700  0.6972  0.1353 -0.1429
 4080TIP3    H112204   3.765   2.430   3.781  0.1595  0.6252 -0.1164
 4080TIP3    H212205   3.729   2.452   3.635  0.5300  0.8812 -0.1716
 4081TIP3   OH212206   4.826   3.299   4.480  0.0125 -0.0257  0.1896
 4081TIP3    H112207   4.801   3.391   4.486  1.6004  0.4053  0.7794
 4081TIP3    H212208   4.767   3.254   4.541 -0.7910  0.5836 -0.1209
 4082TIP3   OH212209   5.143   1.016   0.266  0.2527 -0.1063  0.5901
 4082TIP3    H112210   5.211   1.035   0.201 -1.5686  2.6084 -0.7102
 4082TIP3    H212211   5.191   0.980   0.341  3.1398  1.5968 -0.2855
 4083TIP3   OH212212   6.346   4.839   3.592  0.4266  0.3994  0.1138
 4083TIP3    H112213   6.406   4.836   3.667 -1.3471  2.6480  1.7222
 4083TIP3    H212214   6.299   4.756   3.596  0.3254  0.5065  1.5479
 4084TIP3   OH212215   1.942   1.804   2.226  0.2107  0.1071 -0.0998
 4084TIP3    H112216   1.855   1.763   2.225 -0.2912  1.1532 -0.5936
 4084TIP3    H212217   1.991   1.757   2.159 -0.1615 -0.0927 -0.2375
 4085TIP3   OH212218   1.346   0.517   0.709  0.5853  0.7339 -0.0435
 4085TIP3    H112219   1.287   0.522   0.784  0.8326 -1.4740  0.3780
 4085TIP3    H212220   1.289   0.508   0.633  0.3347 -0.0454  0.2256
 4086TIP3   OH212221   1.386   0.160   5.068  0.2372  0.4100  0.1837
 4086TIP3    H112222   1.339   0.154   4.985  0.5495  2.1112 -0.1492
 4086TIP3    H212223   1.444   0.084   5.068  1.0867  0.9872 -1.7292
 4087TIP3   OH212224   1.125   2.396   5.153 -0.6040 -0.2203  0.3859
 4087TIP3    H112225   1.111   2.477   5.103 -0.0142  0.2052  0.8910
 4087TIP3    H212226   1.052   2.394   5.215 -1.6477 -1.0271 -0.8016
 4088TIP3   OH212227   3.716   0.194   2.870 -0.7121  0.4066 -0.6215
 4088TIP3    H112228   3.669   0.224   2.793 -1.3329 -1.6242 -1.0936
 4088TIP3    H212229   3.678   0.108   2.889  1.6522 -0.5804 -0.0149
 4089TIP3   OH212230   5.573   2.927   2.772  0.2927 -0.8989  0.0326
 4089TIP3    H112231   5.592   2.986   2.844 -2.6816  1.0381 -0.5988
 4089TIP3    H212232   5.495   2.963   2.730  0.8711 -2.8674 -3.1555
 4090TIP3   OH212233   0.192   3.067   1.349  0.2600 -0.2395  0.5491
 4090TIP3    H112234   0.161   3.130   1.414 -1.0706  0.1498 -0.4297
 4090TIP3    H212235   0.197   3.118   1.267  0.0978 -1.1680 -0.0481
 4091TIP3   OH212236   2.002   4.476   5.107 -0.1239 -0.5640  0.2431
 4091TIP3    H112237   1.943   4.547   5.129  2.9736  1.9825  1.1410
 4091TIP3    H212238   2.050   4.458   5.188  1.9529 -0.7808 -0.9569
 4092TIP3   OH212239   1.828   1.817   1.246  0.0026 -0.2011  0.2525
 4092TIP3    H112240   1.761   1.786   1.185  0.3810  0.0982 -0.3279
 4092TIP3    H212241   1.869   1.738   1.279 -0.0671 -0.3644 -0.0436
 4093TIP3   OH212242   4.732   1.981   4.677  0.0585 -0.3206  0.2038
 4093TIP3    H112243   4.786   2.015   4.605 -0.8732 -0.9497 -0.8299
 4093TIP3    H212244   4.792   1.928   4.729  0.7935  0.2843 -0.0096
 4094TIP3   OH212245   6.534   0.820   4.532 -0.2916  0.3434 -0.4980
 4094TIP3    H112246   6.534   0.739   4.480  1.5106 -0.3843  0.5330
 4094TIP3    H212247   6.593   0.878   4.483 -0.9367  0.7575 -0.7998
 4095TIP3   OH212248   4.535   2.601   3.400  0.0618  0.1111 -0.6762
 4095TIP3    H112249   4.481   2.525   3.422 -0.7281  1.0296  0.7332
 4095TIP3    H212250   4.489   2.642   3.327 -0.1642 -0.1205 -0.6673
 4096TIP3   OH212251   2.516   3.084   1.920  0.0267 -0.8783 -0.4143
 4096TIP3    H112252   2.555   3.122   1.998 -1.9205  2.7343 -1.0186
 4096TIP3    H212253   2.431   3.051   1.949 -0.2695 -0.4595 -0.7977
 4097TIP3   OH212254   2.274   0.223   5.661 -0.3057 -0.3557 -0.4257
 4097TIP3    H112255   2.319   0.178   5.589  0.5265 -1.0243  0.4836
 4097TIP3    H212256   2.339   0.283   5.696 -0.7527  0.0666 -0.3097
 4098TIP3   OH212257   2.349   6.669   2.552 -0.3036 -0.3647  0.4666
 4098TIP3    H112258   2.424   6.609   2.559 -1.5590 -2.0621  0.0835
 4098TIP3    H212259   2.381   6.751   2.589  1.1186 -1.6070  2.1951
 4099TIP3   OH212260   1.358   4.579   1.996  0.2494  0.7108  0.1751
 4099TIP3    H112261   1.266   4.591   2.019  0.5916 -0.5243  2.5146
 4099TIP3    H212262   1.405   4.602   2.076  1.8118 -0.9738 -0.2035
 4100TIP3   OH212263   1.725   4.100   1.416  0.0562 -0.7506 -0.2623
 4100TIP3    H112264   1.660   4.171   1.416 -0.7418 -1.4705 -0.2330
 4100TIP3    H212265   1.683   4.029   1.367  1.4823 -0.6524 -1.7198
 4101TIP3   OH212266   2.662   3.116   4.701  0.2987  0.1001 -0.1086
 4101TIP3    H112267   2.747   3.158   4.691  0.5257 -0.6364 -1.6006
 4101TIP3    H212268   2.665   3.075   4.787  1.4103  0.1931 -0.0867
 4102TIP3   OH212269   6.472   2.534   5.004  0.5991 -0.3314  0.4058
 4102TIP3    H112270   6.444   2.464   4.945  2.3739 -0.3492 -0.4705
 4102TIP3    H212271   6.412   2.607   4.985  0.1835 -0.8509 -0.3221
 4103TIP3   OH212272   4.878   4.789   4.067  0.2174 -0.2018 -0.2771
 4103TIP3    H112273   4.905   4.857   4.129  1.1391 -1.8501  1.1964
 4103TIP3    H212274   4.958   4.767   4.020  1.0244 -3.0793  2.1166
 4104TIP3   OH212275   0.439   1.706   3.527 -0.3394 -0.2308  0.2165
 4104TIP3    H112276   0.527   1.739   3.546 -0.3543  0.3425 -0.6773
 4104TIP3    H212277   0.438   1.691   3.433 -0.8596 -1.2916  0.3731
 4105TIP3   OH212278   5.953   5.943   0.682 -0.2808 -0.2012 -0.0994
 4105TIP3    H112279   6.038   5.987   0.690 -0.1182 -0.5855  0.3346
 4105TIP3    H212280   5.918   5.974   0.599  0.0747  0.3254 -0.0584
 4106TIP3   OH212281   7.157   0.879  -0.016  0.5796  0.1962  0.0953
 4106TIP3    H112282   7.178   0.796   0.027 -0.8077 -0.6192 -0.7286
 4106TIP3    H212283   7.175   0.946   0.051 -0.7023 -0.9543  1.6840
 4107TIP3   OH212284   3.269   1.921   0.933 -0.3877 -0.0092  0.2211
 4107TIP3    H112285   3.325   1.995   0.956  1.6388 -1.4280  0.0762
 4107TIP3    H212286   3.180   1.953   0.948  0.3041  2.9297 -1.1870
 4108TIP3   OH212287   1.582   0.999   0.592 -0.2199 -0.4193 -0.0490
 4108TIP3    H112288   1.622   1.029   0.673 -1.0189  1.7078 -0.3698
 4108TIP3    H212289   1.592   1.073   0.531 -0.4193 -1.6220 -1.6090
 4109TIP3   OH212290   7.047   6.137   2.320 -0.1650 -0.0782  0.1731
 4109TIP3    H112291   7.087   6.174   2.399 -0.7335  0.3048  0.2904
 4109TIP3    H212292   6.975   6.197   2.300  1.6510  1.5121 -2.2664
 4110TIP3   OH212293   6.076   1.186   1.633  0.4316 -0.1297  0.8874
 4110TIP3    H112294   5.992   1.228   1.653  0.3836  1.1403 -1.4927
 4110TIP3    H212295   6.056   1.126   1.562  1.1610 -1.6156  1.8991
 4111TIP3   OH212296   4.419   1.725   2.953  0.2908 -0.1308  0.7771
 4111TIP3    H112297   4.505   1.687   2.937  1.0026  1.9549 -0.9217
 4111TIP3    H212298   4.366   1.698   2.877  0.1111  0.2892  0.7442
 4112TIP3   OH212299   1.585   6.257   5.516  0.4690 -0.2931 -0.1731
 4112TIP3    H112300   1.664   6.297   5.551 -0.2690  0.3684  0.8228
 4112TIP3    H212301   1.575   6.176   5.567  0.2896 -0.1639  0.0007
 4113TIP3   OH212302   6.377   1.001   0.752 -0.3303  0.2903 -0.2260
 4113TIP3    H112303   6.435   0.926   0.747  0.0173  0.4454  1.1879
 4113TIP3    H212304   6.392   1.048   0.670 -0.4663 -1.0832 -1.0763
 4114TIP3   OH212305   2.621   0.062   2.337  0.1865 -0.0867  0.3603
 4114TIP3    H112306   2.649   0.122   2.268  0.2514 -1.1909 -0.5962
 4114TIP3    H212307   2.525   0.065   2.333  0.1922 -0.6967 -0.2666
 4115TIP3   OH212308   0.381   6.377   5.864  0.0607  0.3114  0.2929
 4115TIP3    H112309   0.322   6.335   5.802  1.6251 -1.5450 -0.0351
 4115TIP3    H212310   0.399   6.463   5.826 -1.1894  0.2900 -0.3754
 4116TIP3   OH212311   2.280   3.541   5.395  0.0257 -0.4966  0.1981
 4116TIP3    H112312   2.245   3.535   5.306 -0.3253  0.7169  0.2402
 4116TIP3    H212313   2.202   3.543   5.451  0.2451 -2.5483  0.6614
 4117TIP3   OH212314   1.583   0.799   5.151 -0.1842 -0.2663 -0.4477
 4117TIP3    H112315   1.561   0.793   5.244  0.7961 -0.2312 -0.2110
 4117TIP3    H212316   1.502   0.774   5.106 -0.4846 -0.8673  0.4137
 4118TIP3   OH212317   7.178   2.791   1.197  0.2933 -0.3159  0.1609
 4118TIP3    H112318   7.226   2.728   1.250  1.7171  2.4631  2.4695
 4118TIP3    H212319   7.097   2.808   1.246  0.5696  0.6135  0.3201
 4119TIP3   OH212320   4.475   1.063   3.485  0.2594 -0.6623  0.0657
 4119TIP3    H112321   4.516   1.146   3.459 -0.9541 -0.3912 -1.1006
 4119TIP3    H212322   4.473   1.066   3.581 -0.1276  0.8463  0.0347
 4120TIP3   OH212323   2.853   0.402   5.469 -0.2574  0.6295 -0.4600
 4120TIP3    H112324   2.769   0.360   5.489 -0.3247  1.1735  0.5047
 4120TIP3    H212325   2.901   0.397   5.552  0.9396 -0.2820 -1.1938
 4121TIP3   OH212326   4.555   1.188   0.887 -0.7954 -0.6706 -0.5789
 4121TIP3    H112327   4.526   1.158   0.801 -0.0666 -1.0602 -0.6988
 4121TIP3    H212328   4.623   1.125   0.912 -1.7393 -1.2090  0.7581
 4122TIP3   OH212329   5.639   1.783   0.978  0.2844 -0.0387 -0.4490
 4122TIP3    H112330   5.716   1.783   0.920  1.0399 -1.7623  0.4887
 4122TIP3    H212331   5.614   1.691   0.984 -1.0964  0.3620  0.2838
 4123TIP3   OH212332   1.722   5.641   5.104 -0.1922  0.2582 -0.1466
 4123TIP3    H112333   1.743   5.640   5.197 -0.2717 -0.3128 -0.1317
 4123TIP3    H212334   1.626   5.631   5.101 -0.0531 -1.2380 -0.3193
 4124TIP3   OH212335   0.765   0.862   4.612 -0.2642 -0.3857  0.2025
 4124TIP3    H112336   0.757   0.777   4.569  1.5316  0.8114 -2.7778
 4124TIP3    H212337   0.690   0.912   4.579 -0.4144 -0.3077  0.6608
 4125TIP3   OH212338   0.133   4.141   4.425  0.1728 -0.3261  0.6753
 4125TIP3    H112339   0.121   4.207   4.493  0.2072  3.0438 -2.2955
 4125TIP3    H212340   0.211   4.092   4.452 -0.6849 -0.1647  3.7069
 4126TIP3   OH212341   1.462   5.224   2.570 -0.6225  0.4045  0.2499
 4126TIP3    H112342   1.433   5.230   2.479 -1.6980  1.0233  0.6094
 4126TIP3    H212343   1.458   5.130   2.590 -1.2372  0.3546 -0.0815
 4127TIP3   OH212344   3.766   0.668   2.460  0.0973  0.2611  0.5035
 4127TIP3    H112345   3.699   0.644   2.524 -0.9383  1.2134 -0.1678
 4127TIP3    H212346   3.840   0.699   2.512  0.2016 -1.2128  1.2764
 4128TIP3   OH212347   6.547   1.094   0.947  0.9505 -0.1056  0.5033
 4128TIP3    H112348   6.484   1.059   0.883  1.0817 -0.3796  0.5219
 4128TIP3    H212349   6.549   1.188   0.930  1.2416 -0.2203 -0.1306
 4129TIP3   OH212350   2.700   1.444   3.416 -0.0776  0.0539  0.1832
 4129TIP3    H112351   2.641   1.482   3.351  0.5729 -0.4194 -0.7078
 4129TIP3    H212352   2.782   1.432   3.370 -0.0546 -1.7776  0.6284
 4130TIP3   OH212353   4.819   3.518   0.502 -0.2754  0.1112  0.1091
 4130TIP3    H112354   4.891   3.459   0.480  0.2389  0.4540  0.8052
 4130TIP3    H212355   4.842   3.601   0.460 -0.7959 -0.0693 -0.5381
 4131TIP3   OH212356   4.002   6.630   3.161  0.3803  0.5740 -0.0537
 4131TIP3    H112357   3.995   6.634   3.256 -1.4416  1.0271 -0.1655
 4131TIP3    H212358   4.037   6.716   3.136  2.3725 -0.0867  0.2576
 4132TIP3   OH212359   4.218   2.447   0.064 -0.0731 -0.1178 -0.3672
 4132TIP3    H112360   4.277   2.415   0.134 -0.5423  0.0834  0.1282
 4132TIP3    H212361   4.174   2.523   0.103 -0.4020 -0.0567 -0.8580
 4133TIP3   OH212362   1.086   4.994   5.304 -0.1397  0.7293  0.4158
 4133TIP3    H112363   1.086   4.899   5.298  0.9804  0.7328  0.1376
 4133TIP3    H212364   1.086   5.024   5.212 -0.3581  0.9914  0.5005
 4134TIP3   OH212365   3.739   6.708   0.257 -0.4027  0.4308 -0.1289
 4134TIP3    H112366   3.829   6.691   0.228 -0.4209  0.6233 -0.2975
 4134TIP3    H212367   3.749   6.754   0.341 -0.3554 -1.2627  0.8325
 4135TIP3   OH212368   4.754   4.073   2.015  0.5078 -0.7093 -0.5941
 4135TIP3    H112369   4.743   4.035   1.928 -2.4126 -3.1205  0.6770
 4135TIP3    H212370   4.822   4.020   2.056 -2.2971 -3.7495  0.5347
 4136TIP3   OH212371   0.664   5.275   5.154  0.4300  0.2068  0.1591
 4136TIP3    H112372   0.624   5.261   5.068  2.0708  1.0465 -0.7843
 4136TIP3    H212373   0.691   5.188   5.182  1.3129  0.1142 -0.9227
 4137TIP3   OH212374   4.026   6.186   0.910  0.1819  0.0612  0.3934
 4137TIP3    H112375   4.043   6.271   0.869  0.0335 -1.4012 -2.9447
 4137TIP3    H212376   4.113   6.148   0.924  0.1974  0.1511  0.5481
 4138TIP3   OH212377   5.846   1.280   1.951 -0.1912 -0.0843  0.1108
 4138TIP3    H112378   5.814   1.192   1.971 -0.3723 -0.1261 -0.3493
 4138TIP3    H212379   5.797   1.306   1.873 -0.8894  0.8414  0.8327
 4139TIP3   OH212380   0.227   4.806   3.751  0.3166  0.3621  0.2864
 4139TIP3    H112381   0.198   4.897   3.749 -0.2996  0.2015  1.2653
 4139TIP3    H212382   0.233   4.785   3.844 -3.0539 -1.6524  0.2311
 4140TIP3   OH212383   4.218   2.611   1.581  0.1099  1.0263  0.3399
 4140TIP3    H112384   4.280   2.539   1.572  0.6121  1.5120 -0.1494
 4140TIP3    H212385   4.270   2.690   1.565 -0.6897  1.4210 -0.4001
 4141TIP3   OH212386   6.507   2.615   1.131  0.7276 -0.3247  0.4387
 4141TIP3    H112387   6.418   2.642   1.150  0.5146 -0.9707  0.3925
 4141TIP3    H212388   6.507   2.520   1.143  1.3196 -0.3779  0.1026
 4142TIP3   OH212389   3.468   1.349   4.142  0.2149  0.0139 -0.1937
 4142TIP3    H112390   3.455   1.424   4.084 -1.7784 -0.8208 -0.9173
 4142TIP3    H212391   3.546   1.371   4.193  1.3552  1.3033 -2.3435
 4143TIP3   OH212392   6.633   3.248   5.274  0.1416 -0.0698  0.2993
 4143TIP3    H112393   6.640   3.331   5.226  0.7178 -0.5876 -0.5523
 4143TIP3    H212394   6.546   3.250   5.313  0.2732  1.0817  0.5702
 4144TIP3   OH212395   5.583   0.113   4.545 -0.3836 -0.4149  0.1031
 4144TIP3    H112396   5.595   0.028   4.586 -1.2977 -1.4341 -1.6447
 4144TIP3    H212397   5.671   0.152   4.544 -0.0238 -1.1340  1.2517
 4145TIP3   OH212398   7.043   1.092   2.394 -0.6180 -0.5122 -0.5611
 4145TIP3    H112399   7.085   1.167   2.437  1.8898 -0.4520 -2.8288
 4145TIP3    H212400   6.951   1.117   2.388 -0.5270  0.7655  1.9063
 4146TIP3   OH212401  -0.009   3.901   4.386  0.5193  0.0168  0.2640
 4146TIP3    H112402  -0.011   3.868   4.476  0.2783 -0.4298  0.0965
 4146TIP3    H212403   0.038   3.984   4.392  0.9612 -0.2633  0.7228
 4147TIP3   OH212404   5.263   1.813   1.208 -0.0486 -0.4167 -0.1847
 4147TIP3    H112405   5.304   1.735   1.245  3.4610  2.2311  2.2701
 4147TIP3    H212406   5.184   1.826   1.261 -0.6257 -2.1536 -0.5679
 4148TIP3   OH212407   0.584   3.242   2.818 -0.6447  0.0386  0.2118
 4148TIP3    H112408   0.492   3.239   2.842 -1.2966  1.7633 -1.8586
 4148TIP3    H212409   0.587   3.210   2.728  0.9786 -1.0821  0.6104
 4149TIP3   OH212410   4.276   3.356   4.426  0.2204 -0.3395 -0.1906
 4149TIP3    H112411   4.287   3.271   4.384  0.8870 -0.8856  1.0540
 4149TIP3    H212412   4.244   3.413   4.356 -1.2361 -1.8371 -0.8163
 4150TIP3   OH212413   1.461   0.229   2.984 -0.1950 -0.1602  0.5801
 4150TIP3    H112414   1.366   0.230   2.971 -0.1154  1.0443 -0.0297
 4150TIP3    H212415   1.482   0.317   3.016  0.7002 -0.4674  0.8710
 4151TIP3   OH212416   6.234   1.948   1.204 -0.0881 -0.1773 -0.4547
 4151TIP3    H112417   6.143   1.958   1.176 -0.4224 -2.1813 -0.2777
 4151TIP3    H212418   6.245   1.853   1.214  1.8455  0.0685  0.1333
 4152TIP3   OH212419   4.623   3.746   1.811  0.0619  0.4152  0.2354
 4152TIP3    H112420   4.693   3.804   1.779  0.1476 -0.2297 -0.7870
 4152TIP3    H212421   4.549   3.804   1.826  0.3605  0.8923 -0.1021
 4153TIP3   OH212422   1.367   2.895   2.618  0.0504 -0.3084 -0.7722
 4153TIP3    H112423   1.316   2.935   2.689 -0.2900  1.1351 -1.7692
 4153TIP3    H212424   1.335   2.805   2.614  0.4430 -0.5873  1.2093
 4154TIP3   OH212425   1.872   6.797   4.458 -0.7075 -0.1471  0.2565
 4154TIP3    H112426   1.808   6.850   4.505 -1.9925 -0.9673 -0.4982
 4154TIP3    H212427   1.825   6.716   4.437  0.6667 -0.8840 -0.0947
 4155TIP3   OH212428   0.414   5.283   0.476 -0.1671 -0.0979  0.5847
 4155TIP3    H112429   0.397   5.276   0.570 -2.8038 -2.6551  0.0813
 4155TIP3    H212430   0.465   5.205   0.455 -0.6463 -0.1990 -0.2542
 4156TIP3   OH212431   5.516   4.378   1.992 -0.4793  0.5129 -0.0296
 4156TIP3    H112432   5.434   4.330   2.000  0.2657 -0.8325 -0.1760
 4156TIP3    H212433   5.558   4.370   2.078  1.2623 -2.2312 -0.9937
 4157TIP3   OH212434   2.917   4.776   3.347  0.4134  0.4712  0.3287
 4157TIP3    H112435   2.899   4.808   3.259 -0.9176  1.1133  0.8059
 4157TIP3    H212436   3.012   4.775   3.354  0.5769 -0.7947 -1.5253
 4158TIP3   OH212437   5.803   0.683   4.425 -0.6292 -0.3618 -0.3381
 4158TIP3    H112438   5.898   0.687   4.414 -0.6527 -0.1242 -0.4584
 4158TIP3    H212439   5.768   0.707   4.339 -0.8301  1.9374  0.3374
 4159TIP3   OH212440   4.424   6.684   1.166 -0.2424 -0.2171  0.4989
 4159TIP3    H112441   4.349   6.717   1.215  0.6382  2.4464  0.2276
 4159TIP3    H212442   4.432   6.742   1.091  0.8421 -1.7572 -0.6567
 4160TIP3   OH212443   4.024   0.873   0.070 -0.1247 -0.4063 -0.0407
 4160TIP3    H112444   3.985   0.812   0.007  1.3010 -2.8028  1.2405
 4160TIP3    H212445   4.118   0.868   0.053  0.1390  0.1943  1.1615
 4161TIP3   OH212446   5.823   1.800   5.525  0.1543 -0.1527 -0.0415
 4161TIP3    H112447   5.911   1.803   5.487 -0.0568  0.3130 -0.4927
 4161TIP3    H212448   5.794   1.710   5.513  1.0695 -0.6552  1.2540
 4162TIP3   OH212449   2.961   4.486   3.468 -0.0100  0.9325  0.0161
 4162TIP3    H112450   3.050   4.478   3.501  0.1964 -2.3074 -0.9485
 4162TIP3    H212451   2.971   4.521   3.379  0.6633 -1.7024 -1.0417
 4163TIP3   OH212452   5.429   2.945   5.492  0.3027 -0.2556 -0.8078
 4163TIP3    H112453   5.474   3.009   5.438  0.6811  0.6924  0.5716
 4163TIP3    H212454   5.432   2.982   5.581 -1.1157 -1.2922 -0.2873
 4164TIP3   OH212455   3.690   6.650   0.832 -0.5597 -0.4089  0.4643
 4164TIP3    H112456   3.767   6.608   0.795 -0.6030  0.1232 -0.2553
 4164TIP3    H212457   3.669   6.721   0.771 -0.7119  0.4185  1.4450
 4165TIP3   OH212458   3.120   2.582   0.151  0.2789  0.0844  0.1890
 4165TIP3    H112459   3.191   2.521   0.170  0.6649 -0.0802 -1.6176
 4165TIP3    H212460   3.148   2.628   0.072 -0.7664  1.4117  0.5434
 4166TIP3   OH212461   2.608   0.804   0.793 -0.3649  0.4605 -0.6603
 4166TIP3    H112462   2.626   0.897   0.779 -1.3329  0.9357  1.0367
 4166TIP3    H212463   2.688   0.770   0.832  0.0107  0.5432 -1.3319
 4167TIP3   OH212464   1.304   0.937   0.552 -0.2093 -0.7397  0.0771
 4167TIP3    H112465   1.325   0.900   0.466 -1.5103  1.8580 -1.4833
 4167TIP3    H212466   1.388   0.969   0.585  0.2043 -1.1625 -0.5391
 4168TIP3   OH212467   2.692   2.106   3.769  0.1129  0.0951 -0.3645
 4168TIP3    H112468   2.761   2.055   3.727  0.5667 -0.0418  0.5125
 4168TIP3    H212469   2.647   2.043   3.825 -0.1232  0.3905 -0.2212
 4169TIP3   OH212470   0.533   4.579   4.420 -0.2164  0.3041  0.7382
 4169TIP3    H112471   0.475   4.641   4.465 -0.8084 -1.1080  2.0068
 4169TIP3    H212472   0.478   4.503   4.404  0.5337  0.0208 -0.6834
 4170TIP3   OH212473   2.152   6.014   0.546 -0.1222  0.9605  0.2960
 4170TIP3    H112474   2.183   6.102   0.564  0.7071  0.6386  0.4927
 4170TIP3    H212475   2.230   5.966   0.518 -0.8250  0.6800 -1.3437
 4171TIP3   OH212476   1.048   5.421   3.368  0.6483 -0.4653  0.3850
 4171TIP3    H112477   1.112   5.384   3.308  0.2365 -0.0111 -0.3461
 4171TIP3    H212478   0.967   5.374   3.349  0.3000  0.3011 -0.0402
 4172TIP3   OH212479   2.957   2.002   0.680 -0.3103  0.2389  0.4511
 4172TIP3    H112480   2.995   1.998   0.768 -2.5044  1.4028  1.5297
 4172TIP3    H212481   2.930   2.093   0.670  0.0502  0.1566 -1.5257
 4173TIP3   OH212482   4.220   6.052   0.719 -0.3884 -0.1958  0.5749
 4173TIP3    H112483   4.263   6.084   0.639 -3.5850 -0.5101 -1.4545
 4173TIP3    H212484   4.227   5.957   0.713 -3.2612 -0.4037 -1.1096
 4174TIP3   OH212485   3.822   1.696   1.872  0.1332  0.0312  0.2236
 4174TIP3    H112486   3.853   1.713   1.783 -0.0772 -0.5184  0.0436
 4174TIP3    H212487   3.857   1.769   1.924 -1.5656  1.5670 -0.6990
 4175TIP3   OH212488   2.365   5.051   0.848 -0.2192  0.0714  0.0770
 4175TIP3    H112489   2.398   5.053   0.759  1.5976  0.1568  0.7058
 4175TIP3    H212490   2.343   5.142   0.868  0.1582  0.1843 -0.0183
 4176TIP3   OH212491   2.095   0.965   0.209  0.1636  0.3963  0.0559
 4176TIP3    H112492   2.097   1.013   0.126  0.6134 -0.8351 -0.6798
 4176TIP3    H212493   2.022   1.003   0.257  1.2949  2.7158  0.0949
 4177TIP3   OH212494   2.156   6.132   2.538 -0.3710  0.1347 -0.4255
 4177TIP3    H112495   2.186   6.046   2.568 -1.3215  0.8943  3.1595
 4177TIP3    H212496   2.232   6.170   2.494  0.7416 -1.7151 -0.2031
 4178TIP3   OH212497   4.597   6.094   5.703 -0.0591 -0.5805  0.0779
 4178TIP3    H112498   4.513   6.051   5.716 -0.4984  0.4998  1.0071
 4178TIP3    H212499   4.620   6.128   5.790  0.6118  0.4165 -0.4705
 4179TIP3   OH212500   5.461   6.201   4.595  0.0262 -0.3479  0.5536
 4179TIP3    H112501   5.471   6.296   4.604  2.1534 -0.3117 -1.2248
 4179TIP3    H212502   5.509   6.164   4.669  0.0684 -0.0084  0.6939
 4180TIP3   OH212503   4.511   1.935   5.697  0.8041 -0.0316 -0.1152
 4180TIP3    H112504   4.475   1.869   5.639  2.6959  0.3851 -1.8860
 4180TIP3    H212505   4.531   2.009   5.639  0.8965  1.2129  1.4286
 4181TIP3   OH212506   0.275   4.401   0.322 -0.0456 -0.5632 -0.2654
 4181TIP3    H112507   0.262   4.492   0.296 -0.3750 -1.1250 -2.1973
 4181TIP3    H212508   0.370   4.390   0.326  0.1584 -1.0082 -3.6393
 4182TIP3   OH212509   4.523   4.963   2.191 -0.1544  0.7042  1.0252
 4182TIP3    H112510   4.495   5.020   2.264 -0.1199  2.0484  0.0263
 4182TIP3    H212511   4.476   4.997   2.115 -0.2090 -0.6980  0.4075
 4183TIP3   OH212512   2.925   5.510   4.533 -0.2805 -0.2710  0.0274
 4183TIP3    H112513   2.942   5.604   4.525  0.8792 -0.4700  0.0482
 4183TIP3    H212514   2.981   5.482   4.606  0.0527 -1.1420 -0.5526
 4184TIP3   OH212515   1.394   1.029   1.203  0.1282  0.2022  0.1858
 4184TIP3    H112516   1.335   1.094   1.163  0.5387  0.0544 -0.7001
 4184TIP3    H212517   1.362   1.019   1.293 -1.7479 -0.5116 -0.4945
 4185TIP3   OH212518   1.541   6.537   1.703 -0.3289 -0.3062  0.2766
 4185TIP3    H112519   1.550   6.456   1.653 -2.6635 -1.0125  0.8689
 4185TIP3    H212520   1.474   6.587   1.657  1.5821  1.6849 -0.4863
 4186TIP3   OH212521   5.122   0.137   0.720  0.3724  0.3215  0.2582
 4186TIP3    H112522   5.163   0.125   0.634  0.5720  1.5032  0.1727
 4186TIP3    H212523   5.115   0.048   0.756 -1.9115 -0.5502 -1.9721
 4187TIP3   OH212524   0.582   4.253   3.181  0.4466  0.2254  0.1864
 4187TIP3    H112525   0.594   4.235   3.275  0.6067  1.1694  0.3526
 4187TIP3    H212526   0.631   4.334   3.166 -0.8893  0.9541 -0.3768
 4188TIP3   OH212527   2.659   4.385   1.614  0.7398  0.2759  0.5220
 4188TIP3    H112528   2.700   4.300   1.600  1.1095  0.7301 -1.3856
 4188TIP3    H212529   2.607   4.399   1.535  0.8728  1.9308  0.7098
 4189TIP3   OH212530   5.435   4.710   3.825 -0.1414  0.3707 -0.4210
 4189TIP3    H112531   5.381   4.786   3.802  1.1749  1.6935  0.6639
 4189TIP3    H212532   5.442   4.712   3.920  1.4464  0.0047 -0.4900
 4190TIP3   OH212533   2.578   1.768   2.686 -0.0865  0.7217  0.5155
 4190TIP3    H112534   2.552   1.701   2.750 -1.7553 -1.3665 -2.1467
 4190TIP3    H212535   2.504   1.828   2.683 -1.2504 -0.6844 -1.2274
 4191TIP3   OH212536   4.136   1.056   3.649 -0.0833  0.1060 -0.0078
 4191TIP3    H112537   4.135   1.129   3.587 -0.3425 -0.3150 -0.5006
 4191TIP3    H212538   4.131   0.978   3.594  1.9243 -0.3611  0.3982
 4192TIP3   OH212539   4.405   6.645   3.539 -0.3436 -0.2045 -0.2553
 4192TIP3    H112540   4.392   6.693   3.621  3.3037  2.4834 -0.9943
 4192TIP3    H212541   4.405   6.713   3.471 -2.7235 -2.2701 -2.5607
 4193TIP3   OH212542   1.872   1.562   2.040 -0.4662 -0.3099 -0.0505
 4193TIP3    H112543   1.893   1.492   1.978  1.3026 -0.4385  0.6193
 4193TIP3    H212544   1.873   1.642   1.988  1.3955 -0.3680 -0.1662
 4194TIP3   OH212545   4.496   3.792   0.885 -0.7934 -0.1431  0.4049
 4194TIP3    H112546   4.533   3.790   0.974  0.2497  1.4172  0.0539
 4194TIP3    H212547   4.573   3.799   0.828 -1.5497  1.8706 -0.4353
 4195TIP3   OH212548   4.132   6.231   4.910  1.0486 -0.4367  0.0488
 4195TIP3    H112549   4.060   6.293   4.903  0.7909 -0.8873 -1.7823
 4195TIP3    H212550   4.123   6.193   4.997 -1.6875 -1.3832 -0.5741
 4196TIP3   OH212551   5.383   4.405   3.224  0.2697  0.4872  0.4140
 4196TIP3    H112552   5.451   4.464   3.257 -0.8312  2.8035 -1.1351
 4196TIP3    H212553   5.407   4.389   3.133 -0.7232  0.5562  0.1218
 4197TIP3   OH212554   4.996   2.800   0.811  0.1252 -0.5510  0.1731
 4197TIP3    H112555   5.045   2.731   0.854  0.9979  1.3840  2.5502
 4197TIP3    H212556   4.905   2.771   0.815  0.6691 -2.6377 -1.1876
 4198TIP3   OH212557   6.515   6.376   1.326  0.6219  0.2124 -0.1640
 4198TIP3    H112558   6.470   6.410   1.404  0.7875 -1.4090  0.6724
 4198TIP3    H212559   6.542   6.288   1.350  1.0251 -0.1892 -1.9439
 4199TIP3   OH212560   3.685   3.359   2.385  0.3100  0.0662 -0.1923
 4199TIP3    H112561   3.694   3.293   2.454 -0.5832 -0.1087 -0.2399
 4199TIP3    H212562   3.659   3.310   2.307 -1.2318  0.5602 -0.0150
 4200TIP3   OH212563   3.299   5.592   0.963  0.3585  0.1954  0.3678
 4200TIP3    H112564   3.209   5.576   0.992  0.3212  0.5388  0.4495
 4200TIP3    H212565   3.306   5.546   0.880  0.4946 -0.8679  0.9564
 4201TIP3   OH212566   4.661   3.225   3.602  0.0189  0.1770 -0.4960
 4201TIP3    H112567   4.657   3.138   3.562  0.1779 -0.4198  0.7529
 4201TIP3    H212568   4.753   3.236   3.626  0.3300  1.3600 -2.0263
 4202TIP3   OH212569   5.144   0.374   4.691  0.0958 -0.4885  0.3011
 4202TIP3    H112570   5.165   0.381   4.598  0.2120  0.4514  0.3918
 4202TIP3    H212571   5.064   0.425   4.702  1.4343  1.5407  1.1446
 4203TIP3   OH212572   3.736   0.873   1.682  0.5302 -0.2529  0.2457
 4203TIP3    H112573   3.742   0.792   1.631  0.3825  0.1478 -0.4184
 4203TIP3    H212574   3.824   0.910   1.679  0.7942 -0.7515  1.1853
 4204TIP3   OH212575   5.842   6.190   5.683 -0.6412 -0.1668 -0.6415
 4204TIP3    H112576   5.851   6.255   5.614  0.1682  0.0278 -0.3691
 4204TIP3    H212577   5.872   6.108   5.643  2.1102  0.3593  0.0771
 4205TIP3   OH212578   1.897   5.878   2.515 -0.0902 -0.8377 -0.3124
 4205TIP3    H112579   1.963   5.894   2.448  0.5490 -0.8938  0.3028
 4205TIP3    H212580   1.921   5.793   2.553  0.2540 -0.2451  0.8096
 4206TIP3   OH212581   0.324   4.767   0.799 -0.0433  0.0902  0.6064
 4206TIP3    H112582   0.245   4.714   0.795 -0.4008  0.6864 -1.6332
 4206TIP3    H212583   0.293   4.855   0.819  0.1651  0.1562  0.6425
 4207TIP3   OH212584   4.164   0.567   2.348  0.1879  0.2622  0.0661
 4207TIP3    H112585   4.253   0.590   2.321 -0.1641 -0.1646 -1.5737
 4207TIP3    H212586   4.107   0.619   2.292 -0.5803 -1.4614 -0.8471
 4208TIP3   OH212587   4.107   3.223   0.971 -0.2655 -0.2310  0.2586
 4208TIP3    H112588   4.045   3.287   1.005  1.7989  3.1394 -1.7529
 4208TIP3    H212589   4.193   3.261   0.990  1.0993 -2.2429 -1.3881
 4209TIP3   OH212590   7.104   4.284   0.624 -0.7328 -0.1009  0.3845
 4209TIP3    H112591   7.193   4.306   0.596 -0.3668  0.6630  2.0308
 4209TIP3    H212592   7.081   4.206   0.572  1.4867 -1.2764  1.0365
 4210TIP3   OH212593   2.106   4.484   2.832  0.6405  0.3421 -0.7534
 4210TIP3    H112594   2.107   4.471   2.927 -0.4540 -1.4874 -0.9438
 4210TIP3    H212595   2.195   4.465   2.805  0.2065 -2.7373 -0.4215
 4211TIP3   OH212596   5.817   1.786   2.818  0.3730 -0.1094  0.3177
 4211TIP3    H112597   5.732   1.818   2.851 -0.2954 -1.0318 -0.4542
 4211TIP3    H212598   5.871   1.865   2.812 -0.0805  0.3500  1.8210
 4212TIP3   OH212599   3.633   4.725   0.304  0.1824  0.1251 -0.2196
 4212TIP3    H112600   3.591   4.694   0.224  0.7269  0.2223 -0.5417
 4212TIP3    H212601   3.565   4.778   0.347 -0.7712 -1.4631  0.3432
 4213TIP3   OH212602   5.779   1.071   5.099  0.4678  0.1160  0.4328
 4213TIP3    H112603   5.829   1.009   5.153 -1.2807 -0.9186  0.9611
 4213TIP3    H212604   5.807   1.053   5.009 -1.7417 -3.3549  0.2380
 4214TIP3   OH212605   4.223   4.064   0.259  0.2253 -0.8463  0.6017
 4214TIP3    H112606   4.265   4.050   0.173  1.1931 -0.1696  0.9519
 4214TIP3    H212607   4.151   4.000   0.261  0.1650 -0.8486 -0.7254
 4215TIP3   OH212608   4.560   0.835   1.127 -0.4486  0.2283 -0.2003
 4215TIP3    H112609   4.620   0.893   1.174 -1.6138 -0.6906  2.5973
 4215TIP3    H212610   4.618   0.771   1.084  0.6537  0.4942  0.8354
 4216TIP3   OH212611   4.943   3.929   5.696  0.9868 -0.3780 -0.5804
 4216TIP3    H112612   4.855   3.964   5.685  0.3333 -1.1709  1.7295
 4216TIP3    H212613   4.938   3.841   5.659  0.5787 -0.7230  0.2929
 4217TIP3   OH212614   0.703   4.421   0.114 -0.2599  0.3317 -0.1946
 4217TIP3    H112615   0.733   4.511   0.127 -0.6422  0.5606 -0.8487
 4217TIP3    H212616   0.765   4.368   0.164  0.3464  0.9078 -0.3119
 4218TIP3   OH212617   7.137   2.001   2.284 -0.7123  0.9443 -1.1375
 4218TIP3    H112618   7.197   1.929   2.301  0.4385  1.7711 -1.6123
 4218TIP3    H212619   7.173   2.075   2.332 -1.9157  1.2098 -0.6012
 4219TIP3   OH212620   6.178   5.764   5.821 -0.2311  0.4798  0.8085
 4219TIP3    H112621   6.228   5.812   5.888 -1.7690  0.4359  2.0356
 4219TIP3    H212622   6.088   5.794   5.832 -0.8147 -0.8658 -0.0685
 4220TIP3   OH212623   5.780   2.318   5.649 -0.3935 -0.0352  0.6041
 4220TIP3    H112624   5.858   2.268   5.673  0.0408 -0.4800 -1.5685
 4220TIP3    H212625   5.758   2.367   5.728  1.1484 -1.0953  1.7492
 4221TIP3   OH212626   3.598   0.828   4.981  0.1405 -0.7703  0.1564
 4221TIP3    H112627   3.655   0.752   4.967  0.8137 -0.4612  1.1170
 4221TIP3    H212628   3.512   0.799   4.951  0.2882 -2.0802  0.9389
 4222TIP3   OH212629   1.247   5.589   3.443  0.1467  0.1906 -0.1259
 4222TIP3    H112630   1.266   5.619   3.354 -1.8033  0.2366 -0.5738
 4222TIP3    H212631   1.177   5.524   3.432  0.5796 -0.5611  1.3014
 4223TIP3   OH212632   2.947   4.276   0.234  1.0238 -0.4234  0.1809
 4223TIP3    H112633   2.869   4.271   0.179  1.1254  0.2248 -0.0388
 4223TIP3    H212634   3.011   4.220   0.191 -0.0025 -2.8209  1.5781
 4224TIP3   OH212635   6.753   4.926   3.835 -0.0168 -0.1647  0.0982
 4224TIP3    H112636   6.785   4.846   3.877  1.3451 -0.7837 -1.9442
 4224TIP3    H212637   6.816   4.993   3.860  1.7152 -0.8639 -1.9882
 4225TIP3   OH212638   3.876   0.094   1.772 -0.3325 -0.7142 -0.7528
 4225TIP3    H112639   3.842   0.138   1.850 -0.1607  1.0963 -1.6467
 4225TIP3    H212640   3.970   0.088   1.788 -0.4191 -1.2086 -0.4164
 4226TIP3   OH212641   6.550   5.914   1.958  0.0899 -0.0857 -0.5085
 4226TIP3    H112642   6.621   5.873   2.007  0.0171 -0.6095 -0.8353
 4226TIP3    H212643   6.566   6.008   1.967 -0.3545 -0.1476  1.1324
 4227TIP3   OH212644   4.135   3.515   4.254 -0.1597 -0.3672 -0.0872
 4227TIP3    H112645   4.067   3.552   4.198  1.4509  0.8513 -1.3041
 4227TIP3    H212646   4.167   3.589   4.305 -0.5469 -1.1694  1.3976
 4228TIP3   OH212647   2.268   4.324   5.248  0.3098  0.1365  0.1872
 4228TIP3    H112648   2.342   4.292   5.300 -0.7108 -1.6181  0.6419
 4228TIP3    H212649   2.195   4.328   5.310 -0.3396  0.3370 -0.5770
 4229TIP3   OH212650   3.314   3.917   5.260 -0.0786 -0.0985  0.3078
 4229TIP3    H112651   3.320   3.859   5.336 -0.9810  0.1660  0.5962
 4229TIP3    H212652   3.260   3.868   5.198  1.6971 -0.8664 -0.7109
 4230TIP3   OH212653   5.949   0.359   1.169 -0.0996  0.4872 -0.1382
 4230TIP3    H112654   5.860   0.324   1.170 -1.0745  2.7610  1.4313
 4230TIP3    H212655   6.003   0.290   1.209 -0.9213 -1.3040 -1.9719
 4231TIP3   OH212656   3.826   1.290   1.038 -0.0294  0.2224  0.3796
 4231TIP3    H112657   3.784   1.208   1.062 -0.6899  0.8206  1.3292
 4231TIP3    H212658   3.857   1.276   0.948 -0.6663 -0.8440  0.3137
 4232TIP3   OH212659   0.150   6.443   4.671  0.1786 -0.2894 -0.7315
 4232TIP3    H112660   0.080   6.507   4.662 -1.4419 -1.8078  0.3710
 4232TIP3    H212661   0.224   6.492   4.706 -1.0526  0.9584  0.2421
 4233TIP3   OH212662   0.261   0.828   2.208  0.0507 -0.1429 -0.0592
 4233TIP3    H112663   0.242   0.921   2.225 -0.0797 -0.3723  1.1931
 4233TIP3    H212664   0.202   0.804   2.137  0.6079  0.9090 -0.9086
 4234TIP3   OH212665   1.425   6.112   5.707  0.0669  0.2294 -0.3464
 4234TIP3    H112666   1.490   6.044   5.686  0.1238  0.4187 -0.7939
 4234TIP3    H212667   1.474   6.177   5.757 -0.1828 -0.4629  0.8161
 4235TIP3   OH212668   3.376   0.237   1.324 -0.0183  0.2207 -0.3992
 4235TIP3    H112669   3.400   0.318   1.369  2.7356 -0.0991 -1.0778
 4235TIP3    H212670   3.308   0.262   1.262 -1.4142  1.3458  1.4820
 4236TIP3   OH212671   6.003   0.368   5.774  0.3654 -0.0635 -0.2289
 4236TIP3    H112672   5.944   0.346   5.702 -1.4707  0.0774  1.1741
 4236TIP3    H212673   6.024   0.284   5.815 -0.7374  0.0680  0.6533
 4237TIP3   OH212674   3.781   1.042   3.258 -0.1855 -0.2284  0.2617
 4237TIP3    H112675   3.713   1.084   3.310 -0.1208 -1.1710  1.1508
 4237TIP3    H212676   3.759   1.063   3.168 -0.9783  0.4588  0.6008
 4238TIP3   OH212677   2.094   6.661   4.309 -0.4892 -0.1658  0.1942
 4238TIP3    H112678   2.073   6.646   4.401  1.2882 -0.1779  0.6428
 4238TIP3    H212679   2.013   6.693   4.270 -1.1985  0.1153  1.8238
 4239TIP3   OH212680   3.888   3.706   5.397  0.1620  0.3621  0.2841
 4239TIP3    H112681   3.899   3.617   5.363  0.8829 -0.0248  1.4730
 4239TIP3    H212682   3.861   3.758   5.321  0.6035 -0.6934 -0.6108
 4240TIP3   OH212683   5.145   5.129   2.827 -0.2326  0.3372 -0.3103
 4240TIP3    H112684   5.235   5.158   2.843  0.3709 -1.2662 -0.6145
 4240TIP3    H212685   5.140   5.042   2.866 -2.1444  0.9898  1.0508
 4241TIP3   OH212686   3.375   1.608   0.152 -0.3369  0.9474 -0.0078
 4241TIP3    H112687   3.416   1.693   0.136 -1.0525  1.5050  1.0160
 4241TIP3    H212688   3.443   1.557   0.196 -0.3480  1.4617  0.6096
 4242TIP3   OH212689   5.837   5.100   0.951  0.1264  0.3322  0.3013
 4242TIP3    H112690   5.839   5.141   1.037  0.0710 -2.6569  1.8608
 4242TIP3    H212691   5.745   5.101   0.926  0.2557  2.0503 -0.2358
 4243TIP3   OH212692   3.202   0.208   5.866 -0.0296 -0.1535 -0.0847
 4243TIP3    H112693   3.280   0.161   5.895  0.6646  0.0404 -1.5183
 4243TIP3    H212694   3.234   0.295   5.841 -0.9165  0.3386  0.4481
 4244TIP3   OH212695   3.713   6.591   3.915  0.0511 -0.2771  0.2469
 4244TIP3    H112696   3.774   6.518   3.902 -3.2172 -3.2353  0.1798
 4244TIP3    H212697   3.658   6.590   3.837 -1.0058  1.4146  0.9115
 4245TIP3   OH212698   6.852   5.815   5.800 -0.5958 -0.2000 -0.4177
 4245TIP3    H112699   6.764   5.835   5.832 -1.7682 -3.7974 -0.9578
 4245TIP3    H212700   6.885   5.748   5.860  1.4622  0.4632 -0.7287
 4246TIP3   OH212701   7.207   4.502   2.140  0.6192  0.3485 -0.4642
 4246TIP3    H112702   7.168   4.569   2.197  1.9183  0.1769  0.6943
 4246TIP3    H212703   7.141   4.485   2.074  0.7682  3.9058 -1.7560
 4247TIP3   OH212704   1.194   3.485   2.913 -0.3992 -0.2431 -0.5722
 4247TIP3    H112705   1.254   3.535   2.969 -2.9627  0.6248  1.6407
 4247TIP3    H212706   1.166   3.411   2.967 -0.7405 -1.0458 -1.8105
 4248TIP3   OH212707   1.518   1.265   2.571  0.2666 -0.4747  0.1865
 4248TIP3    H112708   1.479   1.228   2.650 -3.0599  1.4803 -0.3892
 4248TIP3    H212709   1.575   1.336   2.602 -4.2859  3.2569  1.0034
 4249TIP3   OH212710   6.357   3.277   2.218 -0.0640 -0.5316 -0.1701
 4249TIP3    H112711   6.374   3.213   2.287  0.3442 -1.4311 -1.0784
 4249TIP3    H212712   6.271   3.313   2.240  0.2237 -0.5211  1.0051
 4250TIP3   OH212713   5.398   5.621   1.178  0.4834  0.2539  0.0043
 4250TIP3    H112714   5.426   5.686   1.114 -0.5498  0.9900  0.2697
 4250TIP3    H212715   5.389   5.670   1.260  1.1773 -0.5448  0.5702
 4251TIP3   OH212716   1.586   4.018   5.341 -0.2542  0.2360  0.0116
 4251TIP3    H112717   1.608   4.083   5.408 -1.2324  0.5539  0.0432
 4251TIP3    H212718   1.574   4.069   5.261 -1.8142  0.2355  0.2061
 4252TIP3   OH212719   6.543   3.493   3.212 -0.0694 -0.0139 -0.0510
 4252TIP3    H112720   6.577   3.407   3.189  0.8652  0.5007 -0.6960
 4252TIP3    H212721   6.448   3.485   3.203 -0.2321 -1.6559  2.3450
 4253TIP3   OH212722   0.263   0.133   0.961  0.4695 -0.1449 -0.3330
 4253TIP3    H112723   0.189   0.096   1.010 -0.4044  0.7108 -0.9855
 4253TIP3    H212724   0.304   0.194   1.022 -1.0046  1.4050 -0.8149
 4254TIP3   OH212725   3.857   1.454   5.495 -0.2287  0.3457  0.1334
 4254TIP3    H112726   3.899   1.388   5.550 -0.8239  0.1352  0.3372
 4254TIP3    H212727   3.811   1.511   5.557  1.1410  1.6083  0.0652
 4255TIP3   OH212728   0.915   4.176   5.501  0.3277  0.2655  0.4724
 4255TIP3    H112729   1.008   4.158   5.488 -0.1297 -1.4457 -0.9170
 4255TIP3    H212730   0.889   4.223   5.421  0.2077  1.7661  1.3627
 4256TIP3   OH212731   4.066   1.699   3.433  0.1357 -0.1393 -0.4801
 4256TIP3    H112732   4.131   1.651   3.381  1.0802  0.8645 -0.2733
 4256TIP3    H212733   3.994   1.715   3.372  0.5277 -0.3891 -1.0231
 4257TIP3   OH212734   3.377   2.363   0.507  0.0399 -0.5115 -0.0686
 4257TIP3    H112735   3.467   2.332   0.514  1.1656  1.5124 -3.2800
 4257TIP3    H212736   3.334   2.301   0.448 -0.4018 -0.9279  0.6805
 4258TIP3   OH212737   4.386   6.656   0.759  0.1856 -0.4846 -0.3525
 4258TIP3    H112738   4.359   6.565   0.765  0.1700 -0.5775 -1.5702
 4258TIP3    H212739   4.382   6.688   0.849 -3.9092 -0.5041 -0.3425
 4259TIP3   OH212740   6.982   1.437   4.976  0.0757  0.3720  0.4503
 4259TIP3    H112741   6.908   1.389   4.940 -0.2232  0.3713  1.0668
 4259TIP3    H212742   7.025   1.474   4.899  0.1884 -0.6887 -0.0164
 4260TIP3   OH212743   0.397   5.317   3.381  0.3633 -0.1880 -0.6256
 4260TIP3    H112744   0.309   5.280   3.386  0.6558 -0.8048  0.1672
 4260TIP3    H212745   0.456   5.241   3.383  0.9746  0.2755  1.2092
 4261TIP3   OH212746   2.985   4.390   5.399  0.2604 -0.2676 -0.2818
 4261TIP3    H112747   3.022   4.375   5.312 -0.2880 -1.0941 -0.3769
 4261TIP3    H212748   3.009   4.481   5.419  2.6142 -0.8364 -0.1945
 4262TIP3   OH212749   7.081   4.216   0.879  0.1267  0.2291  0.9816
 4262TIP3    H112750   7.089   4.234   0.785  0.7485  0.7573  1.1261
 4262TIP3    H212751   6.990   4.237   0.900 -0.2119 -0.5654  0.3660
 4263TIP3   OH212752   2.071   5.460   4.165 -0.1701  0.0492  0.1995
 4263TIP3    H112753   2.114   5.498   4.242 -0.0742 -2.0542  1.2526
 4263TIP3    H212754   2.143   5.439   4.105 -0.2773  2.1188 -0.7398
 4264TIP3   OH212755   3.198   5.650   3.685  0.1415 -0.4014  0.1036
 4264TIP3    H112756   3.174   5.625   3.596 -0.2948  0.9678 -0.1757
 4264TIP3    H212757   3.282   5.607   3.700 -0.4465 -1.8003 -0.4376
 4265TIP3   OH212758   5.110   1.371   5.245 -0.8501  0.0268 -0.4836
 4265TIP3    H112759   5.022   1.336   5.258 -0.3940 -1.5386 -1.3734
 4265TIP3    H212760   5.165   1.323   5.308 -0.4406  0.1359 -0.7521
 4266TIP3   OH212761   6.191   6.136   5.232  0.4345  0.1819  0.8930
 4266TIP3    H112762   6.166   6.100   5.147  2.2928  0.3716  0.2123
 4266TIP3    H212763   6.135   6.213   5.243  1.2107  1.0675 -0.9331
 4267TIP3   OH212764   5.258   0.170   1.331 -0.2479  0.3594 -0.4533
 4267TIP3    H112765   5.231   0.090   1.375  0.6078  1.1788  1.6715
 4267TIP3    H212766   5.296   0.225   1.400  0.7819  1.9045 -2.1391
 4268TIP3   OH212767   6.613   6.148   5.256  0.2729 -0.2014  0.1801
 4268TIP3    H112768   6.555   6.185   5.323  1.0102 -0.3517  0.9157
 4268TIP3    H212769   6.583   6.058   5.245 -1.2070  0.4139 -1.2514
 4269TIP3   OH212770   3.977   2.216   0.353  0.6458  0.1346 -0.1084
 4269TIP3    H112771   3.918   2.207   0.278  1.6337  0.5387 -0.9439
 4269TIP3    H212772   4.051   2.159   0.333  0.0245 -1.3381  1.4981
 4270TIP3   OH212773   0.378   1.109   3.582  0.4114  0.3352 -0.2310
 4270TIP3    H112774   0.372   1.184   3.641 -0.7624 -0.2383  0.4312
 4270TIP3    H212775   0.468   1.078   3.590  0.3607  0.4706  1.0330
 4271TIP3   OH212776   6.559   2.924   2.326 -0.3075 -0.2723 -0.6305
 4271TIP3    H112777   6.492   2.989   2.347 -0.6811 -0.6387 -0.6813
 4271TIP3    H212778   6.565   2.870   2.404 -0.1615 -0.3228 -0.6754
 4272TIP3   OH212779   5.905   4.002   0.523 -0.8204 -0.4550  0.2223
 4272TIP3    H112780   5.829   4.011   0.466 -0.4302  1.6932 -0.0712
 4272TIP3    H212781   5.979   4.027   0.467 -0.3018  0.5650  1.3128
 4273TIP3   OH212782   4.328   2.567   0.524 -0.1160  0.0291  0.1339
 4273TIP3    H112783   4.387   2.497   0.553 -0.5069 -0.4467 -0.2032
 4273TIP3    H212784   4.274   2.586   0.600 -1.5126 -1.6032 -0.4009
 4274TIP3   OH212785   2.586   3.333   1.448  0.0595 -0.0000  0.0816
 4274TIP3    H112786   2.626   3.341   1.362 -0.2926 -2.0702 -0.3504
 4274TIP3    H212787   2.640   3.387   1.506  0.2236  1.5267 -1.4385
 4275TIP3   OH212788   1.928   2.990   2.323  0.0185 -0.8586 -0.2250
 4275TIP3    H112789   1.956   2.959   2.409  0.6775 -0.3654 -0.2483
 4275TIP3    H212790   1.908   2.911   2.274  0.6924 -1.1963  0.0365
 4276TIP3   OH212791   1.501   2.721   3.815 -0.5744  0.2742 -0.1098
 4276TIP3    H112792   1.495   2.627   3.795  1.2210 -0.2571  1.5236
 4276TIP3    H212793   1.592   2.744   3.795 -0.8722  1.5759 -0.0658
 4277TIP3   OH212794   1.931   6.133   4.822 -0.1871  0.2840 -0.1453
 4277TIP3    H112795   1.892   6.200   4.877  0.6138  0.4147  0.2697
 4277TIP3    H212796   1.862   6.066   4.814 -0.8212  0.9237 -0.1907
 4278TIP3   OH212797   5.391   3.701   3.180 -0.4641 -0.0402  0.4488
 4278TIP3    H112798   5.426   3.613   3.171  1.0041  0.2887  2.2406
 4278TIP3    H212799   5.468   3.756   3.197 -1.6026  1.0112  2.7937
 4279TIP3   OH212800   4.570   0.482   4.088  0.2184 -0.0646 -0.0138
 4279TIP3    H112801   4.583   0.408   4.147  0.2636 -0.2568 -0.2634
 4279TIP3    H212802   4.490   0.524   4.120  1.4686  1.2182  1.6211
 4280TIP3   OH212803   0.137   3.280   3.413  0.0774 -0.1641  0.0962
 4280TIP3    H112804   0.158   3.357   3.466 -0.0479 -0.1210  0.0852
 4280TIP3    H212805   0.221   3.248   3.382  0.0445  0.9353 -1.2430
 4281TIP3   OH212806   2.894   5.603   2.030 -0.4707  0.1533 -0.1938
 4281TIP3    H112807   2.870   5.615   2.122  0.0211  1.8475 -0.2549
 4281TIP3    H212808   2.987   5.580   2.033 -0.6964 -0.8114 -0.2372
 4282TIP3   OH212809   3.019   2.426   0.468  0.0317 -0.0222 -0.4231
 4282TIP3    H112810   2.943   2.485   0.466 -0.3721 -0.5217 -0.0428
 4282TIP3    H212811   3.075   2.462   0.537 -0.8139 -0.7928  0.7000
 4283TIP3   OH212812   5.398   3.101   2.319  0.1768  0.0511  0.7195
 4283TIP3    H112813   5.355   3.158   2.256  2.4798  0.7132 -0.3813
 4283TIP3    H212814   5.327   3.059   2.366 -1.6901 -0.6449 -2.4424
 4284TIP3   OH212815   3.882   1.347   2.414  0.3745 -0.0362 -0.6024
 4284TIP3    H112816   3.971   1.375   2.435  0.3415  0.6611 -1.3528
 4284TIP3    H212817   3.872   1.366   2.321 -0.6393  0.1107 -0.4748
 4285TIP3   OH212818   6.075   1.825   2.398  0.3831  0.1112 -0.1025
 4285TIP3    H112819   6.066   1.905   2.347  0.3950 -0.1049 -0.4499
 4285TIP3    H212820   6.167   1.801   2.390  1.4308  2.2038  3.2832
 4286TIP3   OH212821   3.361   2.598   4.064 -0.1245  0.0591 -0.1687
 4286TIP3    H112822   3.327   2.535   4.128 -0.6714  0.6977  0.1853
 4286TIP3    H212823   3.395   2.545   3.993 -1.4786 -0.6169 -0.3313
 4287TIP3   OH212824   0.165   3.111   5.874  0.1968  0.3389 -0.1731
 4287TIP3    H112825   0.239   3.168   5.854  0.1945  0.2319 -0.4913
 4287TIP3    H212826   0.160   3.051   5.800  0.1869 -0.0658  0.1513
 4288TIP3   OH212827   0.507   4.035   2.731 -0.0726  0.2528  0.1033
 4288TIP3    H112828   0.522   4.125   2.702 -0.9278  0.5005  0.4228
 4288TIP3    H212829   0.510   4.040   2.827  1.6888 -0.3814  0.1263
 4289TIP3   OH212830   1.309   3.233   1.070  0.5096  0.1543 -0.4148
 4289TIP3    H112831   1.305   3.145   1.106 -1.9237  0.3074 -0.1496
 4289TIP3    H212832   1.351   3.285   1.138  1.7397 -0.7126 -0.4746
 4290TIP3   OH212833   0.035   4.384   1.313  0.3226  0.3255  0.0595
 4290TIP3    H112834   0.071   4.302   1.347 -0.5969 -0.4289 -0.7497
 4290TIP3    H212835  -0.021   4.417   1.382  0.7889  0.3464  0.4340
 4291TIP3   OH212836   2.431   5.795   2.269  0.8071 -0.0272 -0.2579
 4291TIP3    H112837   2.357   5.801   2.329  2.4700  0.6469  1.8694
 4291TIP3    H212838   2.440   5.701   2.251 -1.0304 -0.0535 -1.2672
 4292TIP3   OH212839   0.765   0.785   1.497 -0.1714 -0.3229 -0.5368
 4292TIP3    H112840   0.686   0.738   1.473 -0.3401  0.2203 -1.0937
 4292TIP3    H212841   0.833   0.718   1.500 -0.3812 -0.5997 -1.4180
 4293TIP3   OH212842   3.588   3.866   3.187 -0.2970  0.1282  0.1417
 4293TIP3    H112843   3.501   3.906   3.187 -0.4084  0.0617  2.8741
 4293TIP3    H212844   3.586   3.802   3.258  2.0280  0.2651  0.4173
 4294TIP3   OH212845   4.320   5.843   3.043 -0.7553 -0.3077 -0.3917
 4294TIP3    H112846   4.355   5.818   3.128  3.0091  0.1579 -1.6054
 4294TIP3    H212847   4.314   5.938   3.047 -2.0244 -0.3831 -0.1975
 4295TIP3   OH212848   1.931   1.784   5.217 -0.5890  0.0281 -0.3151
 4295TIP3    H112849   1.861   1.783   5.152  0.2844  1.7359 -1.3483
 4295TIP3    H212850   1.999   1.727   5.181 -0.1984  0.7972 -0.8170
 4296TIP3   OH212851   0.437   0.543   5.295 -0.3142  0.0168  0.4793
 4296TIP3    H112852   0.447   0.501   5.380  0.2738 -0.9862 -0.0682
 4296TIP3    H212853   0.475   0.481   5.233  1.3314  1.6970 -0.2817
 4297TIP3   OH212854   5.279   0.984   1.372  0.3939 -0.1066  0.2399
 4297TIP3    H112855   5.258   1.077   1.377 -0.6081 -0.2764 -0.4575
 4297TIP3    H212856   5.227   0.943   1.441 -1.7259 -0.5297 -1.4992
 4298TIP3   OH212857   4.106   4.788   0.992 -0.0549  0.5389  0.0077
 4298TIP3    H112858   4.103   4.734   1.071 -0.5668 -1.1708 -1.1439
 4298TIP3    H212859   4.198   4.813   0.984  0.3947 -1.0337  0.0068
 4299TIP3   OH212860   0.980   4.743   0.857 -0.0681  0.1631 -0.0980
 4299TIP3    H112861   1.051   4.788   0.903 -0.9816  0.3731  1.1505
 4299TIP3    H212862   1.009   4.652   0.850  0.5066  0.3355 -0.0127
 4300TIP3   OH212863   6.802   4.766   3.104 -0.2789 -0.9433  0.0067
 4300TIP3    H112864   6.790   4.848   3.056  0.1646 -1.2903 -0.7162
 4300TIP3    H212865   6.758   4.781   3.187 -2.3270 -0.8188 -1.0186
 4301TIP3   OH212866   6.884   5.761   4.476  0.3040  0.1490 -0.2697
 4301TIP3    H112867   6.859   5.808   4.397  0.5436  1.3545  0.3561
 4301TIP3    H212868   6.805   5.760   4.529  0.1368 -0.6789 -0.5156
 4302TIP3   OH212869   0.963   5.940   4.597  0.7208 -0.0298  0.1193
 4302TIP3    H112870   0.934   6.015   4.650 -1.8474 -1.5204  1.0146
 4302TIP3    H212871   1.039   5.972   4.549  0.5746  2.7000  1.5271
 4303TIP3   OH212872   4.737   3.413   1.120 -0.4341  0.3748  0.2755
 4303TIP3    H112873   4.818   3.445   1.081  0.7458  0.2662  2.4874
 4303TIP3    H212874   4.669   3.436   1.057  1.1725  1.4511 -1.1357
 4304TIP3   OH212875   4.492   4.827   3.221 -0.4307 -0.4765  0.4775
 4304TIP3    H112876   4.551   4.807   3.149 -0.9066  1.2030 -0.4062
 4304TIP3    H212877   4.423   4.760   3.214  0.5959 -1.5925  0.6759
 4305TIP3   OH212878   4.252   0.199   4.997 -0.2896 -0.7628  0.7017
 4305TIP3    H112879   4.308   0.266   4.957  0.3488 -1.6945 -0.0219
 4305TIP3    H212880   4.215   0.151   4.923 -0.0580 -1.7502  1.2101
 4306TIP3   OH212881   1.786   0.714   2.339  0.0371 -0.1662 -0.0144
 4306TIP3    H112882   1.810   0.802   2.370  0.3715 -0.2347 -0.0715
 4306TIP3    H212883   1.692   0.718   2.326  0.1783  0.4809 -0.9463
 4307TIP3   OH212884   2.282   2.495   2.225  0.0131  0.2304  0.4130
 4307TIP3    H112885   2.315   2.496   2.315  0.6708 -1.8708  0.2617
 4307TIP3    H212886   2.254   2.585   2.208  0.3507  0.7878  2.5321
 4308TIP3   OH212887   5.486   1.799   4.977 -0.2301  0.0042  0.3709
 4308TIP3    H112888   5.502   1.724   4.920  0.3656  1.6934 -1.8028
 4308TIP3    H212889   5.504   1.875   4.923 -0.1588  1.7502  2.6800
 4309TIP3   OH212890   3.700   1.137   3.003 -0.3553 -0.1077 -0.2260
 4309TIP3    H112891   3.761   1.181   2.945 -0.6208 -1.3693 -1.4963
 4309TIP3    H212892   3.639   1.091   2.945 -0.7055 -1.3041  1.0320
 4310TIP3   OH212893   3.619   5.202   2.250 -0.0450 -0.3880 -0.2837
 4310TIP3    H112894   3.639   5.282   2.201 -0.9218 -0.7901 -1.3511
 4310TIP3    H212895   3.669   5.210   2.331  1.8282  0.0918 -1.4309
 4311TIP3   OH212896   0.946   2.832   2.124  0.0599 -0.3637  0.1994
 4311TIP3    H112897   0.995   2.753   2.144 -0.9850 -0.7210  1.4913
 4311TIP3    H212898   0.860   2.818   2.163 -1.1923  0.1315 -2.1699
 4312TIP3   OH212899   3.914   1.961   1.555  0.1656 -0.6323  0.1224
 4312TIP3    H112900   3.990   1.980   1.500  0.4891 -2.8132 -0.2854
 4312TIP3    H212901   3.839   1.992   1.505  0.6764  0.3201 -0.0727
 4313TIP3   OH212902   4.323   4.378   4.111  0.4928 -0.1609 -0.4668
 4313TIP3    H112903   4.278   4.330   4.181  0.3443 -0.2546 -0.6246
 4313TIP3    H212904   4.347   4.462   4.151  0.7705 -0.3715 -0.1840
 4314TIP3   OH212905   2.973   1.414   5.076 -0.0508  0.0107  0.4099
 4314TIP3    H112906   2.982   1.320   5.089  2.1389 -0.0262 -0.9433
 4314TIP3    H212907   2.882   1.426   5.047  0.2291 -1.9856 -1.5687
 4315TIP3   OH212908   2.524   2.428   1.928  0.3882  0.1028 -0.1508
 4315TIP3    H112909   2.525   2.514   1.969 -0.3496  0.2255 -0.3702
 4315TIP3    H212910   2.443   2.387   1.959 -0.8610  0.6814 -2.4168
 4316TIP3   OH212911   4.335   2.653   2.894  0.3518 -0.1298  1.0954
 4316TIP3    H112912   4.284   2.734   2.889  0.4155 -0.1582 -1.0436
 4316TIP3    H212913   4.418   2.680   2.932  1.4197  1.4806 -2.0071
 4317TIP3   OH212914   5.511   0.963   1.209  0.2215 -0.4182 -0.0902
 4317TIP3    H112915   5.446   0.957   1.279 -0.4584 -1.4409 -0.7866
 4317TIP3    H212916   5.589   1.000   1.252 -0.0901 -1.2687  1.2612
 4318TIP3   OH212917   5.682   1.307   4.984  0.0897 -0.0789  0.0409
 4318TIP3    H112918   5.739   1.384   4.989  0.5787 -0.4679  0.6212
 4318TIP3    H212919   5.728   1.240   5.033  0.6032 -1.3647 -2.1058
 4319TIP3   OH212920   2.438   4.842   0.218  0.3757  0.2114 -0.4792
 4319TIP3    H112921   2.418   4.929   0.184  1.5925  0.7932  0.2114
 4319TIP3    H212922   2.534   4.839   0.220  0.3446 -0.6129  0.8185
 4320TIP3   OH212923   6.685   6.728   0.819  0.3004 -0.1899 -0.2545
 4320TIP3    H112924   6.664   6.812   0.781 -1.9513 -0.3423  0.5009
 4320TIP3    H212925   6.633   6.665   0.769 -0.3237 -0.7401  1.0259
 4321TIP3   OH212926   2.843   2.337   5.715 -0.0921 -0.6309 -0.1308
 4321TIP3    H112927   2.864   2.334   5.622  1.4172 -1.5039  0.1923
 4321TIP3    H212928   2.784   2.411   5.725 -0.3516 -0.5945 -1.7959
 4322TIP3   OH212929   4.688   5.620   3.476  0.4628 -0.5337  0.0980
 4322TIP3    H112930   4.776   5.651   3.457  0.8281 -1.2706  0.5303
 4322TIP3    H212931   4.701   5.546   3.537 -0.3562 -1.4648 -0.8119
 4323TIP3   OH212932   5.355   6.330   4.921 -0.1148  0.1930 -0.3618
 4323TIP3    H112933   5.366   6.410   4.973 -1.8936 -0.2798  0.8132
 4323TIP3    H212934   5.274   6.344   4.871  1.2445  0.3953 -2.6583
 4324TIP3   OH212935   2.857   2.892   0.581 -0.4596  0.2805 -0.0925
 4324TIP3    H112936   2.838   2.897   0.488 -0.5893  0.7846 -0.0406
 4324TIP3    H212937   2.799   2.956   0.621 -0.6500 -0.1776  0.3733
 4325TIP3   OH212938   5.246   3.314   5.768 -0.0220  0.3799  0.0452
 4325TIP3    H112939   5.153   3.338   5.760 -0.4380 -1.2029 -0.3031
 4325TIP3    H212940   5.276   3.305   5.678  0.5405  1.1270  0.1586
 4326TIP3   OH212941   4.171   0.847   5.511  0.4002  0.0548  0.9490
 4326TIP3    H112942   4.191   0.937   5.539  0.1504  0.2971  0.3651
 4326TIP3    H212943   4.120   0.810   5.583 -1.9166  1.3019  0.0739
 4327TIP3   OH212944   7.023   6.054   1.117 -0.4341  0.1606 -0.1317
 4327TIP3    H112945   6.965   6.068   1.192  0.6395  1.7580  0.4432
 4327TIP3    H212946   7.096   6.113   1.132 -0.3443  0.7763 -2.6277
 4328TIP3   OH212947   4.838   6.562   4.091 -0.0653  0.1865 -0.3261
 4328TIP3    H112948   4.924   6.539   4.058  0.3124 -1.7030  1.7348
 4328TIP3    H212949   4.793   6.478   4.105 -0.6786  0.8452  2.4317
 4329TIP3   OH212950   5.387   6.638   5.546  0.1915  0.0894 -0.3069
 4329TIP3    H112951   5.343   6.606   5.625 -0.5845 -0.2251 -0.8561
 4329TIP3    H212952   5.433   6.717   5.574 -0.1741  0.0426  0.4337
 4330TIP3   OH212953   5.342   4.549   3.622 -0.5407 -0.3143 -0.4678
 4330TIP3    H112954   5.367   4.589   3.706  0.8524 -1.3904 -0.3413
 4330TIP3    H212955   5.346   4.621   3.559 -2.8679  0.8150  0.5537
 4331TIP3   OH212956   3.751   2.620   5.069 -0.2692 -0.1823  0.5453
 4331TIP3    H112957   3.779   2.546   5.122  1.8715 -0.0349 -0.2864
 4331TIP3    H212958   3.720   2.581   4.987  0.7241 -0.2022  0.1633
 4332TIP3   OH212959   6.618   4.196   3.322  0.2802  0.1600 -0.2474
 4332TIP3    H112960   6.657   4.145   3.251 -0.5145 -0.2242 -0.4243
 4332TIP3    H212961   6.524   4.193   3.305  0.0740  0.0573  0.8188
 4333TIP3   OH212962   2.790   3.000   5.299 -0.3306  0.3647  0.0149
 4333TIP3    H112963   2.704   2.960   5.290  0.2109 -1.2428  1.4529
 4333TIP3    H212964   2.846   2.954   5.236  0.3763 -1.5485  1.9156
 4334TIP3   OH212965   4.327   2.099   5.423  0.6473 -0.5471 -0.0898
 4334TIP3    H112966   4.299   2.025   5.476 -2.2703  0.3874 -0.1658
 4334TIP3    H212967   4.418   2.114   5.449 -0.0326 -1.3847  3.1713
 4335TIP3   OH212968   1.124   5.285   4.690 -0.2243 -0.1483 -0.6886
 4335TIP3    H112969   1.090   5.196   4.696 -0.4999  0.0287  0.8824
 4335TIP3    H212970   1.058   5.332   4.639 -0.9326 -0.4685 -0.0974
 4336TIP3   OH212971   1.065   6.204   1.675  0.5350  0.2433  0.4488
 4336TIP3    H112972   1.129   6.147   1.718 -0.2034 -1.1727 -0.2630
 4336TIP3    H212973   1.078   6.191   1.582 -3.3415 -3.3299  0.1091
 4337TIP3   OH212974   5.108   0.027   2.186 -0.2334 -0.3334  0.2339
 4337TIP3    H112975   5.165   0.103   2.170 -0.4485 -0.0502  0.8093
 4337TIP3    H212976   5.169  -0.045   2.201 -0.0269 -0.3013 -0.3978
 4338TIP3   OH212977   2.421   0.643   3.297 -0.3574  0.2690  0.2542
 4338TIP3    H112978   2.446   0.711   3.235 -0.0614 -0.1074 -0.0444
 4338TIP3    H212979   2.382   0.574   3.243 -1.5057  0.5916  0.6467
 4339TIP3   OH212980   6.205   6.146   0.031 -0.4623  0.0787 -0.3613
 4339TIP3    H112981   6.195   6.051   0.029 -3.0758  0.3112 -1.3800
 4339TIP3    H212982   6.237   6.168  -0.057  4.5864 -0.0859  1.1003
 4340TIP3   OH212983   3.115   6.166   5.249  0.4467 -0.2488 -0.4214
 4340TIP3    H112984   3.108   6.261   5.240  1.8282 -0.3186 -3.4604
 4340TIP3    H212985   3.094   6.131   5.162  0.1227 -2.7334  0.5533
 4341TIP3   OH212986   0.111   5.951   3.189 -0.1707 -0.3335  0.1757
 4341TIP3    H112987   0.125   6.033   3.237 -0.5689 -0.4829  0.5597
 4341TIP3    H212988   0.195   5.934   3.146 -0.5774  1.1381 -1.2751
 4342TIP3   OH212989   6.198   0.076   1.042 -0.1518  0.5102  0.1940
 4342TIP3    H112990   6.241  -0.007   1.024  2.1639  1.7042 -0.1775
 4342TIP3    H212991   6.131   0.055   1.107  0.5217 -1.5923  0.2796
 4343TIP3   OH212992   1.043   2.777   3.514  0.0018 -0.0343  0.2669
 4343TIP3    H112993   1.019   2.850   3.570  0.0412  0.6095 -0.5436
 4343TIP3    H212994   1.139   2.776   3.515  0.0093  0.1466  0.0127
 4344TIP3   OH212995   2.449   6.774   0.086 -0.0892  0.4049  0.1776
 4344TIP3    H112996   2.501   6.697   0.107 -0.4640  0.2951  0.7214
 4344TIP3    H212997   2.465   6.789  -0.007  1.2690  0.6508  0.4322
 4345TIP3   OH212998   5.870   4.845   5.006  0.4081  0.4363  0.0722
 4345TIP3    H112999   5.897   4.770   5.059 -2.8342 -1.0301 -0.1195
 4345TIP3    H213000   5.817   4.899   5.065 -0.3691  0.5898 -0.7268
 4346TIP3   OH213001   7.070   5.361   3.961  0.2125 -0.1219  0.4456
 4346TIP3    H113002   7.046   5.427   3.897 -0.2574 -0.9213 -0.2256
 4346TIP3    H213003   7.165   5.372   3.973  0.1023  0.8113  0.5258
 4347TIP3   OH213004   1.948   0.644   2.903 -0.6520  0.5867 -0.1738
 4347TIP3    H113005   1.910   0.583   2.966 -2.7091  1.7926 -0.1623
 4347TIP3    H213006   1.897   0.629   2.823 -1.0836  2.1473 -0.2147
 4348TIP3   OH213007   4.806   2.550   1.343 -0.3995 -0.7651 -0.3261
 4348TIP3    H113008   4.848   2.496   1.277 -2.0892 -1.8894 -0.5656
 4348TIP3    H213009   4.761   2.487   1.400 -1.7456  0.3383 -0.1097
 4349TIP3   OH213010   3.417   6.240   1.730 -0.5468 -0.2199 -0.4411
 4349TIP3    H113011   3.478   6.166   1.729  1.4743  1.3273  0.6924
 4349TIP3    H213012   3.341   6.208   1.779 -0.7302 -2.2071 -1.8943
 4350TIP3   OH213013   4.858   2.280   3.494  0.1277  0.1848 -0.1577
 4350TIP3    H113014   4.764   2.263   3.491 -0.0124  1.0108 -1.0859
 4350TIP3    H213015   4.866   2.362   3.542  0.6106 -1.1363  2.1857
 4351TIP3   OH213016   5.535   1.741   0.065  0.3169 -0.5231 -0.0171
 4351TIP3    H113017   5.610   1.714   0.012  0.6082 -0.2613  0.2572
 4351TIP3    H213018   5.469   1.768   0.001  1.2721  1.4464 -0.2546
 4352TIP3   OH213019   1.937   4.744   3.383  0.2273  0.2559  0.1392
 4352TIP3    H113020   1.971   4.692   3.456 -1.2132 -0.0891  0.5969
 4352TIP3    H213021   1.894   4.819   3.425 -1.8948 -0.7003 -0.2402
 4353TIP3   OH213022   2.757   6.307   5.525  0.1646 -0.0632  0.3096
 4353TIP3    H113023   2.804   6.388   5.544 -0.4799  0.3407  0.2036
 4353TIP3    H213024   2.667   6.324   5.553 -0.0462 -0.6336  0.0043
 4354TIP3   OH213025   6.595   4.047   2.350 -0.5258  0.4554  0.1234
 4354TIP3    H113026   6.681   4.046   2.308  0.1344 -2.3223  1.3260
 4354TIP3    H213027   6.537   4.007   2.285 -0.7738  1.5850 -0.3714
 4355TIP3   OH213028   2.664   2.580   5.654  0.1325  0.1207 -1.2688
 4355TIP3    H113029   2.690   2.671   5.643 -0.1900  0.2127 -1.2720
 4355TIP3    H213030   2.589   2.583   5.712  0.5178 -0.1977 -0.7417
 4356TIP3   OH213031   3.851   1.180   2.743  0.2870 -0.6290 -0.3249
 4356TIP3    H113032   3.940   1.209   2.722  0.3947 -1.1118 -0.5366
 4356TIP3    H213033   3.794   1.239   2.693  0.5146 -1.0312 -1.0643
 4357TIP3   OH213034   1.379   3.497   5.058  0.8201 -0.1423 -0.8165
 4357TIP3    H113035   1.447   3.453   5.007  0.3423  0.7834 -2.2976
 4357TIP3    H213036   1.395   3.468   5.148  2.4315 -0.8788 -1.2950
 4358TIP3   OH213037   6.743   2.927   1.645  0.2803 -0.1616  0.2412
 4358TIP3    H113038   6.766   2.903   1.734 -0.6999  0.0254  0.5606
 4358TIP3    H213039   6.774   2.854   1.591 -0.4846 -1.0218  0.9175
 4359TIP3   OH213040   5.283   5.288   4.602 -0.0177  0.0196  0.3841
 4359TIP3    H113041   5.326   5.370   4.627  0.2254  0.8334 -2.3914
 4359TIP3    H213042   5.203   5.316   4.557  0.8640 -1.0959 -2.0899
 4360TIP3   OH213043   1.421   6.070   1.475  0.4818 -0.2920  0.2657
 4360TIP3    H113044   1.448   6.110   1.392  2.0524  1.0472  1.3506
 4360TIP3    H213045   1.329   6.094   1.483  0.6943  0.8751 -0.4014
 4361TIP3   OH213046   0.643   3.216   2.255  0.1368 -0.5745 -0.0226
 4361TIP3    H113047   0.602   3.131   2.268 -1.2933  0.3156  1.7614
 4361TIP3    H213048   0.713   3.199   2.191 -3.1966 -2.1089 -3.7347
 4362TIP3   OH213049   5.505   3.722   2.107  0.1020  0.3709 -0.2541
 4362TIP3    H113050   5.429   3.711   2.049 -0.7588  0.5486  0.8075
 4362TIP3    H213051   5.572   3.665   2.069 -0.3110  0.7516 -1.6202
 4363TIP3   OH213052   6.685   3.702   3.353  0.1415 -0.6843 -0.2527
 4363TIP3    H113053   6.608   3.758   3.344  1.0166  0.4982 -0.4856
 4363TIP3    H213054   6.660   3.621   3.309 -0.5135  0.1527 -1.4702
 4364TIP3   OH213055   2.790   3.681   1.891  0.5377 -0.2745  0.4242
 4364TIP3    H113056   2.863   3.681   1.953  1.1561 -0.4215 -0.2902
 4364TIP3    H213057   2.777   3.774   1.871  1.3135 -0.3154 -0.3359
 4365TIP3   OH213058   1.670   1.912   4.618 -0.2520  0.2827  0.0754
 4365TIP3    H113059   1.614   1.872   4.685  0.7014 -0.1234  0.6460
 4365TIP3    H213060   1.756   1.871   4.630 -0.5997 -1.7786 -3.0346
 4366TIP3   OH213061   3.787   4.911   1.107 -0.2601  0.3855  0.0018
 4366TIP3    H113062   3.883   4.909   1.101 -0.2233 -0.6034  0.5524
 4366TIP3    H213063   3.757   4.902   1.017  0.1998 -2.3189  0.0388
 4367TIP3   OH213064   0.130   0.067   4.425  0.3973  0.1136  0.4751
 4367TIP3    H113065   0.105   0.082   4.333 -0.3129  0.9647  0.7801
 4367TIP3    H213066   0.137  -0.028   4.433  0.5298  0.0313 -0.4798
 4368TIP3   OH213067   0.163   4.690   1.064 -0.0202 -0.2574 -0.4583
 4368TIP3    H113068   0.144   4.662   0.975 -0.8939  0.5303 -0.5369
 4368TIP3    H213069   0.083   4.734   1.093  0.7702  0.7950  0.1891
 4369TIP3   OH213070   4.260   6.176   1.591  0.0906 -0.4798  0.0524
 4369TIP3    H113071   4.166   6.162   1.602 -0.3514  2.5080  1.0504
 4369TIP3    H213072   4.299   6.091   1.609 -2.4459 -2.2210 -1.8769
 4370TIP3   OH213073   2.567   2.955   1.647 -0.0373  0.1124  0.3041
 4370TIP3    H113074   2.653   2.979   1.611 -0.8037  0.9959 -1.0024
 4370TIP3    H213075   2.575   2.972   1.741  1.1775  0.2748  0.1869
 4371TIP3   OH213076   4.671   5.563   0.724  0.0585  0.5257  0.2469
 4371TIP3    H113077   4.678   5.473   0.757  3.6988  1.6572  3.2042
 4371TIP3    H213078   4.607   5.604   0.782 -0.7790  0.1505 -0.3961
 4372TIP3   OH213079   0.706   0.405   2.382 -0.7135 -0.2214 -0.2501
 4372TIP3    H113080   0.615   0.418   2.408 -0.7804 -0.1914 -0.5009
 4372TIP3    H213081   0.702   0.346   2.306 -0.4769 -0.8676  0.2249
 4373TIP3   OH213082   4.419   0.779   4.533 -0.8122  0.4571 -0.4438
 4373TIP3    H113083   4.465   0.748   4.454  1.4365 -0.3606  1.0830
 4373TIP3    H213084   4.478   0.845   4.569 -1.1310 -0.1675  1.2831
 4374TIP3   OH213085   6.923   1.965   0.170 -0.6339 -0.4358  0.4924
 4374TIP3    H113086   6.938   2.059   0.180 -1.8861  0.1987 -2.3535
 4374TIP3    H213087   6.867   1.941   0.243 -0.4756  1.0846  1.1477
 4375TIP3   OH213088   1.524   3.475   2.334 -0.0031 -0.1735 -0.0620
 4375TIP3    H113089   1.450   3.533   2.347  0.4084  0.2622  0.3964
 4375TIP3    H213090   1.601   3.531   2.344  0.3950 -0.7114 -0.0314
 4376TIP3   OH213091   0.203   1.536   3.174  0.1348  0.2173  0.3800
 4376TIP3    H113092   0.197   1.446   3.206 -0.6556  0.4909  1.0312
 4376TIP3    H213093   0.212   1.527   3.079 -2.6553 -0.5131  0.1121
 4377TIP3   OH213094   1.894   5.046   0.617 -0.5132 -0.5141 -0.4834
 4377TIP3    H113095   1.840   4.973   0.646  0.0676 -0.0212  2.1539
 4377TIP3    H213096   1.980   5.008   0.601 -0.5217 -0.6070 -0.3098
 4378TIP3   OH213097   0.418   6.077   5.520  0.2792 -0.3611 -0.8671
 4378TIP3    H113098   0.477   6.112   5.587 -1.2095  2.0861 -0.7249
 4378TIP3    H213099   0.473   6.068   5.442  1.3966 -0.6466 -0.0723
 4379TIP3   OH213100   1.087   4.236   4.306  0.8618  0.3799  0.3758
 4379TIP3    H113101   1.147   4.254   4.233  1.5761  2.4328  1.3986
 4379TIP3    H213102   1.127   4.163   4.353  2.3297  1.3757  0.7357
 4380TIP3   OH213103   1.601   4.269   4.185 -0.0371  0.4731  0.3397
 4380TIP3    H113104   1.540   4.272   4.259  0.2314  0.8878  0.5477
 4380TIP3    H213105   1.647   4.185   4.195 -0.0810  0.4770  0.5775
 4381TIP3   OH213106   3.212   5.222   4.828  0.1557 -0.4119 -0.3769
 4381TIP3    H113107   3.256   5.165   4.765 -0.0889 -2.1675  0.9597
 4381TIP3    H213108   3.175   5.293   4.774  0.9433 -1.2036 -2.0392
 4382TIP3   OH213109   6.919   0.692   4.886  0.3696 -0.1724 -0.4210
 4382TIP3    H113110   6.880   0.683   4.799  0.6228  0.5117 -0.6125
 4382TIP3    H213111   6.876   0.768   4.924 -0.3876 -0.9992  0.4166
 4383TIP3   OH213112   4.433   6.512   0.356  0.3274 -0.1154  0.0553
 4383TIP3    H113113   4.486   6.532   0.279  0.7898  1.4143  0.7290
 4383TIP3    H213114   4.485   6.448   0.405  0.2542 -0.7252 -0.6597
 4384TIP3   OH213115   3.957   1.432   4.486 -0.0517  0.5082  0.2009
 4384TIP3    H113116   3.897   1.473   4.548 -0.1907  0.7245 -0.0736
 4384TIP3    H213117   3.981   1.349   4.527 -2.3350 -0.6799 -0.6532
 4385TIP3   OH213118   0.599   5.283   1.892 -0.3922  0.1649  0.0997
 4385TIP3    H113119   0.688   5.249   1.884 -0.3267  0.3122  0.2089
 4385TIP3    H213120   0.593   5.353   1.827 -0.5144 -0.0224 -0.0952
 4386TIP3   OH213121   1.398   2.767   5.808  0.1551  0.0319 -0.1538
 4386TIP3    H113122   1.444   2.775   5.891  0.8866  1.0699 -0.6371
 4386TIP3    H213123   1.379   2.857   5.782  0.0956 -0.2632 -1.1868
 4387TIP3   OH213124   2.711   6.015   3.018  0.3108 -0.2408 -0.0982
 4387TIP3    H113125   2.796   6.012   2.975  0.2722 -2.5420 -0.1333
 4387TIP3    H213126   2.709   5.938   3.074 -1.2561  0.4754  0.9220
 4388TIP3   OH213127   4.783   0.351   5.326 -0.0246  0.2706  0.0634
 4388TIP3    H113128   4.711   0.350   5.388 -0.8618  1.1455 -0.8709
 4388TIP3    H213129   4.860   0.375   5.378 -0.6104  0.4730  0.8426
 4389TIP3   OH213130   1.694   5.174   4.314  0.8955 -0.2820 -0.6141
 4389TIP3    H113131   1.678   5.216   4.399 -1.8247  0.7923 -1.5554
 4389TIP3    H213132   1.661   5.085   4.325 -1.2154  0.3810 -0.9646
 4390TIP3   OH213133   5.134   3.994   3.703  0.0100  0.6340 -0.1664
 4390TIP3    H113134   5.222   4.004   3.667  0.0902  0.4721 -0.0161
 4390TIP3    H213135   5.148   3.980   3.797 -0.1864  0.8497 -0.1024
 4391TIP3   OH213136   1.751   2.709   0.078 -0.0065 -0.5288  0.4143
 4391TIP3    H113137   1.723   2.789   0.122  0.1280 -0.2330 -0.0282
 4391TIP3    H213138   1.794   2.657   0.146  0.6495  0.1397  0.5234
 4392TIP3   OH213139   3.339   5.536   0.122  0.6789 -0.3056 -0.2339
 4392TIP3    H113140   3.386   5.478   0.181  1.4990  2.5468  2.1615
 4392TIP3    H213141   3.405   5.567   0.061  0.3265 -1.4868 -1.2562
 4393TIP3   OH213142   2.117   4.727   0.898  0.1598  0.4403 -0.1366
 4393TIP3    H113143   2.115   4.726   0.802  0.9792  0.7517 -0.1607
 4393TIP3    H213144   2.042   4.674   0.924  0.7015 -0.7554 -0.9499
 4394TIP3   OH213145   4.056   1.077   2.319 -0.1581  0.3796 -0.1819
 4394TIP3    H113146   4.022   1.133   2.388 -0.0153 -0.9768  1.0200
 4394TIP3    H213147   3.979   1.036   2.281 -0.2270  1.0338 -0.7650
 4395TIP3   OH213148   1.852   5.698   3.924  0.0842  0.2119 -0.4179
 4395TIP3    H113149   1.805   5.751   3.861 -3.4057 -2.5194 -0.3764
 4395TIP3    H213150   1.891   5.627   3.872 -0.7679 -0.7125  0.1753
 4396TIP3   OH213151   0.257   4.887   4.048  0.5216 -0.5736  0.2543
 4396TIP3    H113152   0.259   4.939   4.129  0.5161  1.6752 -1.0907
 4396TIP3    H213153   0.344   4.898   4.011 -0.1752  0.4586 -1.1851
 4397TIP3   OH213154   1.091   6.425   4.604  0.4138  0.4133 -0.6108
 4397TIP3    H113155   1.059   6.440   4.693  2.7857 -0.4099  0.4497
 4397TIP3    H213156   1.011   6.409   4.553 -0.9470 -0.7623  1.6816
 4398TIP3   OH213157   1.908   1.798   4.621  0.1199  0.5683 -0.1024
 4398TIP3    H113158   1.961   1.877   4.612 -0.9760  1.4172  0.5394
 4398TIP3    H213159   1.947   1.751   4.695 -0.4037  1.5343  0.8205
 4399TIP3   OH213160   0.555   6.150   0.389 -0.3709  0.1047 -0.5453
 4399TIP3    H113161   0.499   6.153   0.466  0.8219 -1.4594  0.4397
 4399TIP3    H213162   0.620   6.219   0.404 -1.1071  0.9177 -0.9819
 4400TIP3   OH213163   7.106   6.137   0.456  0.5429  0.4647  0.7804
 4400TIP3    H113164   7.071   6.226   0.462 -0.0414  0.1352  2.9345
 4400TIP3    H213165   7.045   6.092   0.396 -0.6936  0.8432  1.7062
 4401TIP3   OH213166   6.343   3.949   4.227  0.7446  0.5478 -0.3770
 4401TIP3    H113167   6.282   3.983   4.293 -0.2908 -3.5281  1.0232
 4401TIP3    H213168   6.420   3.922   4.277  2.7314  3.0985 -1.8029
 4402TIP3   OH213169   1.950   3.994   5.239  0.3825 -0.7145  0.3177
 4402TIP3    H113170   1.902   3.926   5.193  0.0324  0.4847 -1.1836
 4402TIP3    H213171   2.034   4.001   5.193  0.2941  0.0621  0.2577
 4403TIP3   OH213172   0.941   6.144   2.105 -0.3974 -0.1634  0.2481
 4403TIP3    H113173   0.925   6.156   2.198  1.8497 -1.0581  0.8000
 4403TIP3    H213174   1.024   6.187   2.088 -1.8950  2.1598 -1.9454
 4404TIP3   OH213175   3.324   6.402   5.669  0.3898 -0.1869  0.1088
 4404TIP3    H113176   3.410   6.370   5.643  0.0716  0.2494 -1.6201
 4404TIP3    H213177   3.282   6.327   5.712  1.0677 -0.8791 -0.4126
 4405TIP3   OH213178   1.227   2.660   4.440 -0.0652  0.3742  0.0119
 4405TIP3    H113179   1.321   2.671   4.457 -0.0767  1.5935 -0.6086
 4405TIP3    H213180   1.220   2.654   4.345 -0.8855  3.9896 -0.3078
 4406TIP3   OH213181   0.663   2.386   5.400  0.0749 -0.3529 -0.1947
 4406TIP3    H113182   0.642   2.445   5.327  1.9899 -0.0357 -0.5464
 4406TIP3    H213183   0.592   2.323   5.400 -0.7021  0.4557 -1.4542
 4407TIP3   OH213184   6.700   0.088   4.681  0.1243  0.0617  0.3249
 4407TIP3    H113185   6.693   0.137   4.763  3.4901  0.4577  0.4986
 4407TIP3    H213186   6.665   0.001   4.702  0.1925  0.3979  1.9463
 4408TIP3   OH213187   0.648   2.664   4.712 -0.9541  0.0223 -0.1889
 4408TIP3    H113188   0.613   2.652   4.624 -1.4013 -2.9104  0.2782
 4408TIP3    H213189   0.610   2.592   4.763  2.3039 -0.7333  1.4384
 4409TIP3   OH213190   1.251   2.837   3.771  0.1157 -0.2689 -0.0015
 4409TIP3    H113191   1.336   2.816   3.810 -0.3761 -0.7571  0.8506
 4409TIP3    H213192   1.259   2.807   3.680  0.8887 -0.2118  0.0383
 4410TIP3   OH213193   0.886   4.650   2.453 -0.1346  0.3271  0.1940
 4410TIP3    H113194   0.797   4.658   2.487 -1.2150  2.0941 -2.6875
 4410TIP3    H213195   0.925   4.578   2.503 -2.9711 -0.1517  1.9160
 4411TIP3   OH213196   2.406   5.760   4.700 -0.3022 -0.6863 -0.0021
 4411TIP3    H113197   2.462   5.697   4.744  1.2105  0.3353 -0.3949
 4411TIP3    H213198   2.449   5.778   4.617 -0.9058  0.5244 -0.0825
 4412TIP3   OH213199   6.228   2.634   1.167  0.0034  0.0178 -0.3805
 4412TIP3    H113200   6.189   2.560   1.121 -2.1526  1.1767 -0.5239
 4412TIP3    H213201   6.195   2.628   1.256  0.2136  0.5328 -0.2610
 4413TIP3   OH213202   0.020   1.811   3.557 -0.0875 -0.8578 -0.1300
 4413TIP3    H113203   0.052   1.764   3.480 -1.3465 -0.7241 -0.7546
 4413TIP3    H213204  -0.028   1.745   3.607 -0.2056 -0.6891 -0.0196
 4414TIP3   OH213205   1.994   4.713   2.942  0.7475  0.4191  0.6690
 4414TIP3    H113206   2.087   4.725   2.964  1.2548 -2.0796  0.1165
 4414TIP3    H213207   1.992   4.638   2.883 -1.7726 -0.6722  1.9656
 4415TIP3   OH213208   6.418   0.712   0.280  0.3598 -0.1851 -0.8917
 4415TIP3    H113209   6.456   0.727   0.367  1.0254  0.8704 -1.3343
 4415TIP3    H213210   6.370   0.630   0.288 -1.0327  0.7502  0.9483
 4416TIP3   OH213211   2.118   5.750   0.189  0.3838 -0.3716 -0.5187
 4416TIP3    H113212   2.133   5.840   0.161  0.1636 -0.2803 -0.3482
 4416TIP3    H213213   2.023   5.741   0.191  0.3382  0.0038  1.3572
 4417TIP3   OH213214   1.983   5.076   2.851  0.0101 -0.3157  0.0612
 4417TIP3    H113215   1.986   5.022   2.929  0.8765 -1.3000 -0.6332
 4417TIP3    H213216   2.023   5.023   2.782 -2.1036 -0.0965 -1.4431
 4418TIP3   OH213217   1.150   5.977   4.434 -0.6315 -0.8507 -0.4531
 4418TIP3    H113218   1.135   5.989   4.340  0.7921  0.8791 -0.5154
 4418TIP3    H213219   1.230   5.923   4.438 -0.5844 -0.7662 -0.2421
 4419TIP3   OH213220   0.540   0.865   4.229  0.9545  0.2811  0.3998
 4419TIP3    H113221   0.556   0.782   4.184  1.9922  0.5740  0.2003
 4419TIP3    H213222   0.445   0.871   4.235  0.8343 -0.3848 -0.6024
 4420TIP3   OH213223   3.876   5.310   3.246 -0.1380 -0.6741  0.0602
 4420TIP3    H113224   3.890   5.365   3.169 -0.3076  0.6777  0.9621
 4420TIP3    H213225   3.892   5.369   3.320 -1.7262 -1.4547  1.0723
 4421TIP3   OH213226   6.996   3.528   0.656  0.0754  0.0454  0.1772
 4421TIP3    H113227   7.013   3.514   0.563  0.2380  1.2102  0.0260
 4421TIP3    H213228   6.963   3.617   0.662 -0.8514 -0.3437  1.1305
 4422TIP3   OH213229   6.193   6.488   4.286 -0.3296  0.1792 -1.1265
 4422TIP3    H113230   6.277   6.505   4.328 -1.6950  1.5775  1.2459
 4422TIP3    H213231   6.140   6.566   4.305 -2.2449 -0.7316 -2.3858
 4423TIP3   OH213232   1.381   6.297   0.867  0.2196  0.4252  0.3411
 4423TIP3    H113233   1.316   6.360   0.900 -0.4073 -0.5412  1.0326
 4423TIP3    H213234   1.456   6.307   0.926  0.4535  1.0960 -0.0632
 4424TIP3   OH213235   4.172   5.272   0.995  0.2273 -0.1777  0.6892
 4424TIP3    H113236   4.088   5.317   0.998  1.2680  1.8560  0.8539
 4424TIP3    H213237   4.150   5.183   0.968 -2.0259  0.1327  1.2869
 4425TIP3   OH213238   1.492   2.177   2.853 -0.6585  0.5756 -0.4016
 4425TIP3    H113239   1.555   2.187   2.782  0.0987 -1.5007 -0.0856
 4425TIP3    H213240   1.485   2.265   2.892  2.8323  0.7345  0.1822
 4426TIP3   OH213241   3.775   6.366   1.745  0.0854  0.4894  0.6725
 4426TIP3    H113242   3.816   6.279   1.752  1.4566  0.7450 -2.5812
 4426TIP3    H213243   3.816   6.417   1.815  0.0260 -1.1571  1.9842
 4427TIP3   OH213244   4.376   4.260   5.523 -0.6237  0.1315  0.4463
 4427TIP3    H113245   4.341   4.170   5.524 -0.3089 -0.0264 -0.6116
 4427TIP3    H213246   4.458   4.255   5.572 -1.1382  0.0790  1.3060
 4428TIP3   OH213247   2.563   3.927   2.911 -0.1192  0.5007 -0.5069
 4428TIP3    H113248   2.504   3.853   2.893  0.8112  0.1020 -2.1292
 4428TIP3    H213249   2.564   3.934   3.006  0.0508 -1.8476 -0.2739
 4429TIP3   OH213250   5.702   6.678   3.389 -0.2615 -0.2965  0.2834
 4429TIP3    H113251   5.736   6.655   3.303 -0.3921  0.4060  0.0352
 4429TIP3    H213252   5.619   6.632   3.396  0.5160 -1.6887  0.7239
 4430TIP3   OH213253   4.003   0.991   5.176  0.1906 -0.3455 -0.3129
 4430TIP3    H113254   3.982   0.941   5.254  1.3995 -1.3554 -0.5989
 4430TIP3    H213255   3.923   1.040   5.156  0.2593  1.0309  2.3196
 4431TIP3   OH213256   4.749   2.798   5.880 -0.3464 -0.2639 -0.1230
 4431TIP3    H113257   4.682   2.764   5.821 -0.8027  3.5792 -2.1358
 4431TIP3    H213258   4.709   2.873   5.922  2.1642  1.2604 -0.2263
 4432TIP3   OH213259   3.735   2.637   1.279  1.0815 -0.0282  0.0754
 4432TIP3    H113260   3.652   2.681   1.261  2.1936  3.5701  2.6566
 4432TIP3    H213261   3.782   2.640   1.195 -0.1751  0.7592 -0.6362
 4433TIP3   OH213262   6.151   4.023   3.119  0.4178 -0.1002  0.1084
 4433TIP3    H113263   6.070   4.043   3.166 -0.0930 -1.2602 -0.2393
 4433TIP3    H213264   6.131   3.944   3.070  0.9454  1.0061 -2.0211
 4434TIP3   OH213265   5.651   6.447   0.759 -0.9436  0.2682  0.4494
 4434TIP3    H113266   5.697   6.379   0.710  0.6198  1.1224  0.6537
 4434TIP3    H213267   5.621   6.509   0.692  0.7350  1.1660  0.4846
 4435TIP3   OH213268   1.996   2.764   3.604 -0.0721 -0.8459  0.4858
 4435TIP3    H113269   2.045   2.764   3.521  0.6403 -0.1684  0.8927
 4435TIP3    H213270   1.989   2.671   3.628 -0.3007 -1.0473 -0.3368
 4436TIP3   OH213271   0.846   5.478   5.090 -0.0635  0.3757  0.2087
 4436TIP3    H113272   0.788   5.414   5.131  0.1446  0.6675  0.9954
 4436TIP3    H213273   0.790   5.524   5.028 -0.1263 -0.7859 -0.6188
 4437TIP3   OH213274   6.625   3.070   0.386 -0.2442  0.2581 -0.1436
 4437TIP3    H113275   6.560   3.132   0.420  0.1004  0.5422  0.0128
 4437TIP3    H213276   6.576   2.989   0.372 -0.4050  0.1409  0.9933
 4438TIP3   OH213277   1.761   6.141   0.294 -0.1169 -0.3520 -0.6195
 4438TIP3    H113278   1.679   6.134   0.247 -0.6952  2.0480 -0.0962
 4438TIP3    H213279   1.816   6.198   0.240  0.3520 -0.0980  0.0931
 4439TIP3   OH213280   2.275   0.576   3.725  0.2034  0.0390 -0.3257
 4439TIP3    H113281   2.268   0.639   3.654  0.2651 -1.3888 -1.6676
 4439TIP3    H213282   2.215   0.506   3.700  0.9289 -0.9229  0.5512
 4440TIP3   OH213283   6.210   4.843   2.566  0.6317  0.1868  0.1540
 4440TIP3    H113284   6.152   4.919   2.561  0.0176 -0.3517 -2.1498
 4440TIP3    H213285   6.297   4.880   2.576  0.3813  1.2577 -1.2478
 4441TIP3   OH213286   5.688   4.248   5.177 -0.2199  0.0212  0.1997
 4441TIP3    H113287   5.638   4.296   5.111 -1.4356  0.4389  1.3987
 4441TIP3    H213288   5.739   4.185   5.126 -2.1834 -0.6360 -1.0649
 4442TIP3   OH213289   7.079   1.935   0.827  0.5995  0.0663  0.3677
 4442TIP3    H113290   7.060   1.853   0.781 -1.0701 -1.5753  3.5876
 4442TIP3    H213291   7.168   1.923   0.861  0.2113 -0.6831  1.1831
 4443TIP3   OH213292   4.530   0.631   0.241  0.0797 -0.3441  0.5981
 4443TIP3    H113293   4.465   0.665   0.303 -0.1348 -1.9190  1.2791
 4443TIP3    H213294   4.572   0.559   0.288  2.3859  0.6710  0.1841
 4444TIP3   OH213295   3.334   3.626   4.490  0.2066  0.3851  0.3702
 4444TIP3    H113296   3.388   3.697   4.455 -0.4511  0.9399  0.4499
 4444TIP3    H213297   3.274   3.603   4.419  0.1999  0.1390  0.4545
 4445TIP3   OH213298   2.553   1.168   5.411  0.1169 -0.1535 -0.0417
 4445TIP3    H113299   2.545   1.234   5.479 -0.0789 -1.4835  1.2683
 4445TIP3    H213300   2.490   1.100   5.435  1.2031 -1.4268 -0.6376
 4446TIP3   OH213301   4.958   6.347   3.580 -0.5734 -0.3861 -0.2800
 4446TIP3    H113302   5.013   6.283   3.625 -1.3252 -0.7453  0.1638
 4446TIP3    H213303   4.916   6.296   3.510 -0.1333 -0.0548 -0.7826
 4447TIP3   OH213304   5.892   1.174   5.482  1.0841  0.3494 -0.0833
 4447TIP3    H113305   5.811   1.157   5.529  0.2515  0.8510 -1.2814
 4447TIP3    H213306   5.947   1.222   5.544  1.4347 -1.9975  1.5716
 4448TIP3   OH213307   2.279   5.291   0.945  0.0774 -0.2252  0.0722
 4448TIP3    H113308   2.192   5.292   0.987  0.1792 -1.2347  0.3239
 4448TIP3    H213309   2.317   5.376   0.969 -0.0905 -0.5357  1.5744
 4449TIP3   OH213310   0.272   2.991   2.312  0.0658 -0.2040 -0.4010
 4449TIP3    H113311   0.213   3.046   2.362 -0.9477 -1.2661 -0.3825
 4449TIP3    H213312   0.235   2.989   2.224  0.9137  0.3108 -0.7841
 4450TIP3   OH213313   6.264   4.607   4.437  0.3839 -0.7426  0.0587
 4450TIP3    H113314   6.334   4.588   4.500 -1.4117 -1.5443  1.9222
 4450TIP3    H213315   6.207   4.669   4.482 -0.6552 -0.8785 -1.0183
 4451TIP3   OH213316   2.469   6.111   5.589  0.2760  0.0998  0.3619
 4451TIP3    H113317   2.412   6.119   5.513  2.7206  0.4275 -1.5178
 4451TIP3    H213318   2.477   6.200   5.623  0.3882  0.2008  0.0730
 4452TIP3   OH213319   3.620   4.519   2.158  0.5558 -0.0227 -0.2307
 4452TIP3    H113320   3.599   4.612   2.165  0.0928 -0.2452  1.9827
 4452TIP3    H213321   3.701   4.508   2.207  0.1286 -0.9233  0.3034
 4453TIP3   OH213322   3.074   2.977   0.113  0.3282  0.4911 -0.2201
 4453TIP3    H113323   3.068   2.930   0.030 -0.7743 -1.8470  1.0822
 4453TIP3    H213324   3.030   3.061   0.097 -0.1161 -0.0276 -1.9103
 4454TIP3   OH213325   4.971   6.190   1.750  0.5366  0.6432  0.4945
 4454TIP3    H113326   4.899   6.253   1.759  0.8805  1.3626 -1.3939
 4454TIP3    H213327   5.042   6.227   1.802  0.3857  1.2727  0.2614
 4455TIP3   OH213328   0.544   0.105   2.937  0.2057 -0.0151 -0.3524
 4455TIP3    H113329   0.595   0.037   2.981  0.0880 -1.1883 -1.9155
 4455TIP3    H213330   0.466   0.058   2.905 -1.4586  1.5336  1.1872
 4456TIP3   OH213331   4.902   5.218   3.324  0.0202  0.7590  0.1932
 4456TIP3    H113332   4.947   5.224   3.239  1.1485 -2.8940  0.3758
 4456TIP3    H213333   4.810   5.235   3.303  0.1154 -0.9682 -2.0138
 4457TIP3   OH213334   3.252   3.651   3.067  0.2777  0.2214  0.3052
 4457TIP3    H113335   3.223   3.577   3.014 -0.5129 -0.5152  1.7158
 4457TIP3    H213336   3.320   3.693   3.014 -0.7069 -0.2629 -1.4355
 4458TIP3   OH213337   2.891   2.245   0.948 -0.2475 -0.5129 -0.5956
 4458TIP3    H113338   2.924   2.329   0.979 -0.5188 -0.6396  0.0621
 4458TIP3    H213339   2.849   2.264   0.865 -0.1638 -0.0264 -0.5264
 4459TIP3   OH213340   4.341   4.210   2.555  0.4525 -0.4485 -0.0178
 4459TIP3    H113341   4.407   4.167   2.609  1.3752 -1.6400 -1.9956
 4459TIP3    H213342   4.347   4.167   2.470 -0.7452  1.5366 -1.1940
 4460TIP3   OH213343   5.375   1.378   4.966 -0.0095 -0.2137 -0.1044
 4460TIP3    H113344   5.454   1.333   4.997 -0.5678 -1.8333 -0.8905
 4460TIP3    H213345   5.335   1.316   4.905 -1.7285  0.6952  0.0416
 4461TIP3   OH213346   2.097   0.065   2.836 -0.2927 -0.7837 -0.4731
 4461TIP3    H113347   2.107  -0.015   2.784  1.1062 -0.1264 -1.2751
 4461TIP3    H213348   2.110   0.136   2.773 -2.0868  0.1150  0.1036
 4462TIP3   OH213349   3.542   0.520   0.372  0.2602  0.1128 -0.4928
 4462TIP3    H113350   3.548   0.424   0.373 -0.4493  0.0676  0.1375
 4462TIP3    H213351   3.479   0.540   0.304 -1.3238  0.0046  0.8899
 4463TIP3   OH213352   3.279   1.345   4.946  1.0560  0.0556 -0.1317
 4463TIP3    H113353   3.343   1.353   5.017  0.4090 -0.1939  0.4918
 4463TIP3    H213354   3.207   1.294   4.984 -0.2925  1.7705 -0.2542
 4464TIP3   OH213355   2.936   2.138   2.897  0.0336 -0.3227  0.5453
 4464TIP3    H113356   2.932   2.176   2.810  2.1987 -1.5822 -0.1697
 4464TIP3    H213357   2.952   2.212   2.956 -0.9506  0.4689 -0.1475
 4465TIP3   OH213358   7.081   1.200   4.754 -0.7024  0.1225 -0.5474
 4465TIP3    H113359   7.171   1.196   4.722 -0.7118 -0.3118 -0.5269
 4465TIP3    H213360   7.053   1.290   4.738 -0.2264  0.2866 -0.4464
 4466TIP3   OH213361   1.944   5.292   2.231  0.0859 -0.0165 -0.3547
 4466TIP3    H113362   1.868   5.292   2.288 -0.3801  2.4130 -0.8630
 4466TIP3    H213363   2.005   5.230   2.272 -1.4896 -0.7703  0.9484
 4467TIP3   OH213364   3.612   4.279   0.861  0.3275 -0.3305 -0.2276
 4467TIP3    H113365   3.568   4.314   0.783 -2.4821  0.6266  1.6688
 4467TIP3    H213366   3.705   4.275   0.835 -0.3893  0.3856 -3.4282
 4468TIP3   OH213367   6.794   3.301   2.906  0.2521  0.3637 -0.4907
 4468TIP3    H113368   6.798   3.281   2.813  2.3462  0.3674 -0.4487
 4468TIP3    H213369   6.803   3.396   2.911  1.2898  0.2600 -0.2523
 4469TIP3   OH213370   2.148   0.309   0.891 -0.1120  0.2754 -0.6583
 4469TIP3    H113371   2.164   0.217   0.911  2.7305  0.6441 -0.7597
 4469TIP3    H213372   2.086   0.308   0.817 -0.1831 -1.5357 -0.6070
 4470TIP3   OH213373   6.344   5.888   0.481  0.4385  0.6293 -0.8862
 4470TIP3    H113374   6.280   5.918   0.545 -0.2978  1.2087 -1.8551
 4470TIP3    H213375   6.427   5.885   0.528 -0.1216  0.8238  0.1358
 4471TIP3   OH213376   4.247   4.978   4.911  0.3581  0.1915 -0.2770
 4471TIP3    H113377   4.276   4.976   5.002 -2.3490 -0.2582  0.6751
 4471TIP3    H213378   4.249   5.070   4.886  2.7701  0.1597 -0.4209
 4472TIP3   OH213379   6.495   5.282   3.418  0.3980 -0.0207 -0.1787
 4472TIP3    H113380   6.498   5.266   3.512 -0.5364  0.6822 -0.0214
 4472TIP3    H213381   6.534   5.203   3.379  1.1171 -0.1660  0.7984
 4473TIP3   OH213382   3.455   6.080   5.625  0.4602  0.4056 -0.6189
 4473TIP3    H113383   3.441   6.024   5.549  0.2661 -0.3057 -0.0642
 4473TIP3    H213384   3.520   6.034   5.678  0.8438  1.0585 -0.5034
 4474TIP3   OH213385   5.073   5.820   3.577 -0.0272  0.2755 -0.4104
 4474TIP3    H113386   5.005   5.840   3.642  0.5964 -0.0621  0.3610
 4474TIP3    H213387   5.152   5.806   3.628 -0.2127 -3.5083 -0.8752
 4475TIP3   OH213388   2.847   3.399   2.171  0.3409 -0.2813  0.5579
 4475TIP3    H113389   2.771   3.357   2.132  1.2001 -1.5166  0.1578
 4475TIP3    H213390   2.844   3.374   2.264  1.0778 -1.6367  0.2413
 4476TIP3   OH213391   3.479   1.615   4.059 -0.5635 -0.1556 -1.0213
 4476TIP3    H113392   3.470   1.594   3.966  0.0495 -0.3468 -1.0477
 4476TIP3    H213393   3.574   1.613   4.075 -0.7191 -1.7575 -0.0315
 4477TIP3   OH213394   3.078   6.496   0.505 -0.2578 -0.1636  0.2018
 4477TIP3    H113395   3.004   6.466   0.452 -0.3936 -0.0766  0.3427
 4477TIP3    H213396   3.155   6.478   0.451 -0.4494  0.6857 -0.3825
 4478TIP3   OH213397   4.320   4.798   0.142 -0.3440 -0.5017  0.0800
 4478TIP3    H113398   4.280   4.818   0.226 -0.8449 -0.4934 -0.1542
 4478TIP3    H213399   4.318   4.880   0.094  2.1621  0.1274  0.9179
 4479TIP3   OH213400   0.074   6.661   1.834  0.5627 -0.2830  0.6424
 4479TIP3    H113401   0.025   6.673   1.915 -0.8416  0.2583 -0.2613
 4479TIP3    H213402   0.160   6.700   1.852  0.4543 -0.6364  2.0240
 4480TIP3   OH213403   3.802   3.840   2.412  0.3030  0.3946 -0.4010
 4480TIP3    H113404   3.706   3.840   2.413  0.2558 -0.8873  1.6384
 4480TIP3    H213405   3.825   3.851   2.320 -1.7922  0.7311 -0.9432
 4481TIP3   OH213406   4.088   5.673   5.237 -0.1726  0.4009  0.2813
 4481TIP3    H113407   4.112   5.744   5.297  1.9354  0.1187 -0.1346
 4481TIP3    H213408   4.161   5.611   5.243 -1.1651 -0.9178 -0.6232
 4482TIP3   OH213409   2.548   2.371   5.134  0.1371 -0.0584 -0.1375
 4482TIP3    H113410   2.463   2.414   5.129  0.5964  1.2314  2.0326
 4482TIP3    H213411   2.573   2.376   5.226  2.0743 -1.4048 -0.5148
 4483TIP3   OH213412   6.453   2.278   4.422 -0.7399 -0.0636 -0.2436
 4483TIP3    H113413   6.463   2.188   4.390 -2.0365 -0.2686 -0.1083
 4483TIP3    H213414   6.508   2.330   4.363  1.2254 -1.0970  0.5670
 4484TIP3   OH213415   0.181   4.662   2.306 -0.4351  0.1957 -0.0329
 4484TIP3    H113416   0.180   4.569   2.288 -2.7839 -0.0376  0.9573
 4484TIP3    H213417   0.090   4.691   2.293  0.3432  2.4968 -0.9955
 4485TIP3   OH213418   6.849   6.666   4.489 -0.0336  0.3660  0.1285
 4485TIP3    H113419   6.875   6.711   4.569 -0.9461 -0.6672  1.0516
 4485TIP3    H213420   6.923   6.676   4.430  0.3271  1.8710  0.7918
 4486TIP3   OH213421   0.093   2.312   4.423 -0.5959 -0.1941 -0.0060
 4486TIP3    H113422   0.131   2.382   4.475  0.3705  0.4597 -1.5475
 4486TIP3    H213423   0.001   2.337   4.412 -0.2904  0.7654 -0.4264
 4487TIP3   OH213424   2.018   3.751   2.367 -0.0497 -0.3249 -0.2556
 4487TIP3    H113425   2.000   3.841   2.393 -3.6350 -1.0745  0.4071
 4487TIP3    H213426   2.044   3.756   2.275 -0.2671  1.3641 -0.2410
 4488TIP3   OH213427   2.032   3.264   1.695  0.6270 -0.3297 -0.3058
 4488TIP3    H113428   2.057   3.212   1.619  1.1488  0.3218 -0.5904
 4488TIP3    H213429   2.091   3.339   1.693 -1.2457  1.2278 -0.9455
 4489TIP3   OH213430   6.002   6.726   5.457 -0.7503 -0.4127  0.4172
 4489TIP3    H113431   6.066   6.773   5.511 -0.5744  0.9022 -0.8849
 4489TIP3    H213432   6.056   6.672   5.399 -0.7536  0.8628 -0.8332
 4490TIP3   OH213433   6.860   2.483   3.392 -0.3006 -0.3517 -0.1052
 4490TIP3    H113434   6.862   2.501   3.298 -0.8565 -1.6583 -0.3907
 4490TIP3    H213435   6.810   2.556   3.429  1.2885  1.0337 -0.5862
 4491TIP3   OH213436   1.632   5.534   2.302 -0.2604 -0.4209 -0.1065
 4491TIP3    H113437   1.622   5.447   2.264  0.6143 -1.2398  1.4095
 4491TIP3    H213438   1.552   5.547   2.353 -0.3546 -0.3877 -0.2653
 4492TIP3   OH213439   2.767   1.710   2.992  0.5746 -0.5452  0.1200
 4492TIP3    H113440   2.679   1.746   2.980  0.1940 -1.9496 -1.7740
 4492TIP3    H213441   2.754   1.616   3.004  1.6708 -0.4203  3.0087
 4493TIP3   OH213442   6.784   0.076   4.202  0.1317 -0.3638 -0.0342
 4493TIP3    H113443   6.788   0.009   4.270  0.3067  2.2666  2.7596
 4493TIP3    H213444   6.697   0.064   4.162 -0.2202 -1.6116  1.0299
 4494TIP3   OH213445   6.710   4.995   3.559  0.0811 -0.2415 -0.0384
 4494TIP3    H113446   6.622   5.034   3.565 -0.9427 -2.4583  0.4845
 4494TIP3    H213447   6.733   4.976   3.650  0.1879 -1.5307 -0.3247
 4495TIP3   OH213448   6.906   6.270   3.633  0.4303 -0.1235 -0.0718
 4495TIP3    H113449   6.954   6.187   3.632  1.0815  0.1852  1.5190
 4495TIP3    H213450   6.972   6.335   3.656 -0.2573  0.7116 -0.4130
 4496TIP3   OH213451   5.641   2.783   0.350 -0.6812  0.2231 -0.9163
 4496TIP3    H113452   5.682   2.711   0.302 -1.6493 -1.6584  0.9338
 4496TIP3    H213453   5.715   2.834   0.385  0.0560 -0.9594 -0.7005
 4497TIP3   OH213454   6.532   0.739   5.480  0.0532 -0.3565  0.3204
 4497TIP3    H113455   6.467   0.810   5.478 -1.0342 -1.2791  1.4556
 4497TIP3    H213456   6.489   0.665   5.438  0.9175 -0.5681 -0.2142
 4498TIP3   OH213457   4.798   6.609   2.751 -0.2301  0.3724  0.2547
 4498TIP3    H113458   4.826   6.675   2.813 -1.0217 -0.0382  1.0639
 4498TIP3    H213459   4.714   6.640   2.717 -0.6051 -0.1882  0.6349
 4499TIP3   OH213460   5.090   6.472   5.634 -0.9355  0.5621 -1.0646
 4499TIP3    H113461   5.130   6.537   5.692 -0.5341  0.0627 -0.7677
 4499TIP3    H213462   5.107   6.388   5.677  0.0753  0.1056 -2.2965
 4500TIP3   OH213463   0.929   4.668   2.186  0.2102  0.7913  0.1512
 4500TIP3    H113464   1.012   4.714   2.184  0.7257 -0.1208 -0.2891
 4500TIP3    H213465   0.918   4.640   2.277  1.0340 -0.1979 -0.0362
 4501TIP3   OH213466   2.939   3.776   4.953 -0.1799  0.6403  0.0306
 4501TIP3    H113467   2.921   3.739   5.040 -1.4690  0.3677 -0.3243
 4501TIP3    H213468   3.023   3.820   4.963 -0.7096  1.3776  1.6631
 4502TIP3   OH213469   0.833   2.746   1.836  0.1374  0.7051 -0.1251
 4502TIP3    H113470   0.889   2.764   1.761 -0.2296  0.8681 -0.3616
 4502TIP3    H213471   0.864   2.805   1.904  1.3387 -0.3653  0.2897
 4503TIP3   OH213472   0.915   3.650   1.211  0.1575  0.5206 -0.3228
 4503TIP3    H113473   0.850   3.580   1.200 -0.9588  1.4466  0.1996
 4503TIP3    H213474   0.990   3.606   1.251 -0.0997 -0.5868 -1.0028
 4504TIP3   OH213475   0.272   0.076   0.154  0.6093  0.1809  0.0087
 4504TIP3    H113476   0.300  -0.014   0.136  2.7335  0.5109  1.3640
 4504TIP3    H213477   0.212   0.068   0.228  0.6872 -0.1264  0.0409
 4505TIP3   OH213478   6.070   5.836   4.641 -0.0014 -0.7052  0.2809
 4505TIP3    H113479   6.042   5.922   4.672 -0.5083 -0.8670  0.2701
 4505TIP3    H213480   6.120   5.800   4.715 -0.4736 -0.7331  0.5894
 4506TIP3   OH213481   3.841   2.723   2.568 -0.3483 -0.2738  0.4339
 4506TIP3    H113482   3.886   2.740   2.485 -0.5924 -0.7712  0.1958
 4506TIP3    H213483   3.825   2.810   2.605 -1.3347  0.0184 -0.6324
 4507TIP3   OH213484   5.411   3.357   1.117  0.5579 -0.0023 -0.6026
 4507TIP3    H113485   5.503   3.358   1.141  0.6902 -0.3651 -1.0777
 4507TIP3    H213486   5.375   3.280   1.162  0.0750  1.1188  1.0235
 4508TIP3   OH213487   5.292   3.066   3.305 -0.3260 -0.0402  0.1543
 4508TIP3    H113488   5.297   3.155   3.338  1.5812  0.0470 -0.2612
 4508TIP3    H213489   5.335   3.013   3.372  0.0176 -0.4126 -0.3519
 4509TIP3   OH213490   7.101   5.295   5.250 -0.4422 -0.7650 -0.1524
 4509TIP3    H113491   7.060   5.366   5.300  0.2296 -1.5768  1.6202
 4509TIP3    H213492   7.195   5.307   5.263 -0.3269 -2.0656  0.3164
 4510TIP3   OH213493   4.572   6.442   4.967 -0.2149 -0.2273  0.0012
 4510TIP3    H113494   4.589   6.362   5.017 -0.0551  0.4171  1.0147
 4510TIP3    H213495   4.477   6.455   4.975 -0.1858 -0.1112  0.1473
 4511TIP3   OH213496   4.440   1.214   2.565  0.4965  0.3903 -0.2506
 4511TIP3    H113497   4.458   1.120   2.572  2.4608  0.7655  0.2507
 4511TIP3    H213498   4.377   1.220   2.493 -2.2281 -1.5434  1.7574
 4512TIP3   OH213499   6.837   1.368   3.015 -0.3982 -0.0432  0.0206
 4512TIP3    H113500   6.925   1.336   3.038 -1.0484 -3.0676 -1.2466
 4512TIP3    H213501   6.850   1.462   2.997  1.7911  0.5222  3.4489
 4513TIP3   OH213502   0.544   4.300   0.616  0.1135 -0.1769  0.3671
 4513TIP3    H113503   0.524   4.334   0.529 -2.0699 -0.8998  0.5330
 4513TIP3    H213504   0.570   4.209   0.601 -0.3323 -0.3225  0.4708
 4514TIP3   OH213505   2.250   2.608   4.399  0.5760 -0.2031  0.5232
 4514TIP3    H113506   2.340   2.578   4.393  0.2891 -1.0459  0.3357
 4514TIP3    H213507   2.198   2.536   4.364 -0.0369  1.1111 -1.4599
 4515TIP3   OH213508   3.850   1.675   5.201 -0.4294 -0.6462 -0.4776
 4515TIP3    H113509   3.892   1.622   5.270  0.5203 -1.0878 -1.3689
 4515TIP3    H213510   3.919   1.692   5.138 -0.9489  0.9328 -0.6677
 4516TIP3   OH213511   1.215   2.592   0.920 -0.1248 -0.3165  0.4973
 4516TIP3    H113512   1.146   2.613   0.982  0.7548  1.3493  0.9665
 4516TIP3    H213513   1.288   2.648   0.945  0.9171 -0.9919 -0.8692
 4517TIP3   OH213514   4.183   2.348   2.617 -0.1713  0.2328  0.0948
 4517TIP3    H113515   4.132   2.421   2.653 -0.2469 -0.5193  1.6176
 4517TIP3    H213516   4.130   2.270   2.638  0.7137 -0.3952  0.0381
 4518TIP3   OH213517   0.803   3.045   0.381 -0.3367 -0.2177  0.3663
 4518TIP3    H113518   0.764   2.977   0.326  1.5481 -1.2913  0.2812
 4518TIP3    H213519   0.894   3.017   0.393 -0.1720  1.0103  2.4024
 4519TIP3   OH213520   2.540   4.429   2.121  0.1988 -0.5947 -0.1253
 4519TIP3    H113521   2.448   4.438   2.146  0.4171 -0.5118  0.6481
 4519TIP3    H213522   2.552   4.494   2.052 -0.2116 -0.3017  0.0739
 4520TIP3   OH213523   6.707   3.553   0.329 -0.2468  0.4951 -0.3508
 4520TIP3    H113524   6.630   3.520   0.283  1.0417 -2.9870 -0.3455
 4520TIP3    H213525   6.721   3.641   0.294 -3.3180  0.6750 -1.3883
 4521TIP3   OH213526   5.076   5.240   4.956  0.4736  0.1488  0.2643
 4521TIP3    H113527   5.145   5.257   5.021 -0.2308  1.8208  0.6344
 4521TIP3    H213528   4.997   5.226   5.009  0.4438 -1.5656 -0.1631
 4522TIP3   OH213529   2.555   3.533   5.756 -0.1315 -0.4795  0.4277
 4522TIP3    H113530   2.616   3.607   5.751 -0.7953  0.2972  2.7249
 4522TIP3    H213531   2.533   3.515   5.664  0.1614  2.0691 -0.2349
 4523TIP3   OH213532   1.419   4.548   5.297  0.1510  0.2633 -0.0184
 4523TIP3    H113533   1.474   4.553   5.219  0.9069 -2.0607  0.3004
 4523TIP3    H213534   1.477   4.569   5.369 -0.2526  1.1926  0.0521
 4524TIP3   OH213535   0.759   3.869   4.348 -0.0256 -0.0053  1.0115
 4524TIP3    H113536   0.802   3.925   4.282  0.2140 -0.7739  0.5012
 4524TIP3    H213537   0.767   3.918   4.430  1.9227 -0.1631  0.9483
 4525TIP3   OH213538   6.901   5.783   1.021 -0.0331 -0.5990 -0.5437
 4525TIP3    H113539   6.981   5.748   0.981  0.8474  0.2193  0.4184
 4525TIP3    H213540   6.925   5.871   1.049 -0.5768 -1.1105  1.7356
 4526TIP3   OH213541   4.079   4.992   1.232 -0.2181  0.0918 -0.3208
 4526TIP3    H113542   4.149   5.029   1.285 -1.2915  0.8126  0.6515
 4526TIP3    H213543   4.081   4.899   1.251  0.5375  0.0852 -0.3944
 4527TIP3   OH213544   2.234   4.612   4.451 -0.1132  0.6159  0.0474
 4527TIP3    H113545   2.206   4.657   4.531 -1.0590  1.5092 -0.7644
 4527TIP3    H213546   2.247   4.682   4.387  2.7731  0.1424 -0.0294
 4528TIP3   OH213547   3.716   5.662   0.499  0.2288  0.7041  0.3962
 4528TIP3    H113548   3.649   5.624   0.557  2.7222 -0.5579  2.6643
 4528TIP3    H213549   3.728   5.751   0.533 -1.4815  1.5936 -1.1801
 4529TIP3   OH213550   5.388   1.392   0.580  0.6279 -0.0239 -0.5156
 4529TIP3    H113551   5.480   1.410   0.563  0.3122  0.4097 -1.9066
 4529TIP3    H213552   5.345   1.477   0.566 -0.2076 -0.6294 -1.7678
 4530TIP3   OH213553   3.635   1.729   1.304  0.1386  0.2393 -0.4363
 4530TIP3    H113554   3.549   1.713   1.343 -0.1838  0.5294 -1.0166
 4530TIP3    H213555   3.648   1.824   1.313  1.3375 -0.0439  1.5475
 4531TIP3   OH213556   1.569   0.525   5.566 -0.4653  0.1939 -0.2113
 4531TIP3    H113557   1.561   0.514   5.661 -2.3280 -2.1192 -0.5175
 4531TIP3    H213558   1.655   0.489   5.545 -0.4116 -0.1434  0.5436
 4532TIP3   OH213559   5.609   4.629   1.836  0.4755 -0.0896 -0.0303
 4532TIP3    H113560   5.570   4.562   1.891  1.2443  0.4262  1.1955
 4532TIP3    H213561   5.603   4.595   1.747  1.2216 -1.9762  0.6003
 4533TIP3   OH213562   3.453   1.344   4.715 -0.3211  0.3040 -0.2055
 4533TIP3    H113563   3.502   1.371   4.793 -1.7659  0.8210  0.5611
 4533TIP3    H213564   3.366   1.322   4.748 -1.2033  1.2767 -1.7702
 4534TIP3   OH213565   0.077   3.865   0.585 -0.1312  0.1050 -0.2493
 4534TIP3    H113566   0.066   3.818   0.667 -0.7947 -1.5835 -1.2503
 4534TIP3    H213567  -0.005   3.914   0.574  0.2698  0.9666  0.4375
 4535TIP3   OH213568   5.326   5.252   3.717  0.7805 -0.2264  0.1566
 4535TIP3    H113569   5.242   5.236   3.761  0.1436  1.3081 -0.4407
 4535TIP3    H213570   5.379   5.296   3.783  1.0298 -0.9304  0.4380
 4536TIP3   OH213571   7.198   5.442   0.783 -0.1521  0.1593  0.0318
 4536TIP3    H113572   7.198   5.470   0.875  0.1587  0.0882  0.0567
 4536TIP3    H213573   7.135   5.370   0.780  1.2584 -1.1585  0.6144
 4537TIP3   OH213574   5.183   0.904   1.857  0.2185  0.0391  0.1432
 4537TIP3    H113575   5.184   0.957   1.778 -0.8695 -0.5131 -0.2636
 4537TIP3    H213576   5.236   0.954   1.920 -0.7488  1.6168 -0.2226
 4538TIP3   OH213577   0.735   1.711   2.600  0.0693 -0.0790 -0.1947
 4538TIP3    H113578   0.647   1.730   2.632 -0.0583 -0.6777 -0.1827
 4538TIP3    H213579   0.785   1.790   2.619 -0.4874  0.2954 -0.2782
 4539TIP3   OH213580   3.151   5.665   1.688  0.4411 -0.3005  0.8440
 4539TIP3    H113581   3.208   5.739   1.710 -0.2712  0.4244  0.3420
 4539TIP3    H213582   3.120   5.632   1.772  1.8079 -0.8879  1.1330
 4540TIP3   OH213583   2.240   4.819   3.257 -0.4041 -0.2403  0.3221
 4540TIP3    H113584   2.149   4.844   3.241 -0.2038  0.7095  0.6271
 4540TIP3    H213585   2.254   4.837   3.350  0.8706  2.2178 -0.2787
 4541TIP3   OH213586   4.896   6.190   4.943  0.2324 -0.1065  0.4411
 4541TIP3    H113587   4.894   6.097   4.919 -0.0043  0.0242 -0.0635
 4541TIP3    H213588   4.839   6.232   4.878 -1.8515  0.0387  2.2394
 4542TIP3   OH213589   4.454   1.633   5.858 -0.4153 -0.3937 -0.7412
 4542TIP3    H113590   4.429   1.721   5.887  0.7627 -0.4732  0.6328
 4542TIP3    H213591   4.372   1.584   5.857 -0.8269  0.2480  0.2309
 4543TIP3   OH213592   1.680   5.555   1.467 -0.0263 -0.0480  0.5708
 4543TIP3    H113593   1.605   5.496   1.456 -1.3598  1.5080  0.8294
 4543TIP3    H213594   1.642   5.635   1.505  1.7390  0.8980  0.4658
 4544TIP3   OH213595   6.502   6.703   0.065  0.4392  0.5796  0.7141
 4544TIP3    H113596   6.589   6.663   0.060  1.4862  2.8014  0.2407
 4544TIP3    H213597   6.506   6.779   0.007 -1.4782  1.3745  1.5231
 4545TIP3   OH213598   4.392   2.660   5.012 -0.3657 -0.0884  0.5741
 4545TIP3    H113599   4.349   2.670   4.927  0.6536 -1.8029 -0.2013
 4545TIP3    H213600   4.466   2.721   5.009 -0.0763 -0.4632  0.0418
 4546TIP3   OH213601   4.174   1.202   5.109  0.7209 -0.3385 -0.4522
 4546TIP3    H113602   4.108   1.135   5.127  0.6772 -0.3771 -0.7416
 4546TIP3    H213603   4.125   1.284   5.110  0.5187 -0.4283 -1.3778
 4547TIP3   OH213604   3.446   2.079   3.118 -0.1640 -0.2861 -0.0374
 4547TIP3    H113605   3.526   2.127   3.138 -0.7067  1.3165 -1.4639
 4547TIP3    H213606   3.472   2.016   3.051 -0.0125 -0.0488 -0.2029
 4548TIP3   OH213607   6.914   3.256   5.645 -0.0249 -0.2605  0.5411
 4548TIP3    H113608   6.872   3.214   5.570 -1.3326 -0.8665  1.5575
 4548TIP3    H213609   6.959   3.332   5.609 -2.0377  0.4368 -0.6535
 4549TIP3   OH213610   4.298   1.736   4.062 -0.0724 -0.1970 -0.7658
 4549TIP3    H113611   4.215   1.723   4.015  0.7706 -0.5382 -2.2350
 4549TIP3    H213612   4.293   1.677   4.137 -1.1487 -0.2110 -0.8335
 4550TIP3   OH213613   3.639   6.046   1.782 -0.4030  1.1920 -0.2928
 4550TIP3    H113614   3.703   5.975   1.792 -1.8995 -0.1463  0.0848
 4550TIP3    H213615   3.660   6.107   1.852  1.2934  1.4807 -0.9945
 4551TIP3   OH213616   5.251   1.289   2.692  0.5929 -0.0835  0.5263
 4551TIP3    H113617   5.198   1.337   2.756 -2.4009 -1.5151 -0.7227
 4551TIP3    H213618   5.248   1.198   2.722 -0.0390 -0.6227 -1.1004
 4552TIP3   OH213619   0.077   5.748   2.940  0.1095 -0.6173 -0.0980
 4552TIP3    H113620   0.086   5.818   3.005 -0.7687  1.0827 -1.7061
 4552TIP3    H213621   0.156   5.696   2.949  0.9035  0.7229  1.0320
 4553TIP3   OH213622   4.461   1.963   4.701  0.1120  0.4104  0.1200
 4553TIP3    H113623   4.555   1.977   4.694  0.3853 -0.9722  0.6716
 4553TIP3    H213624   4.426   2.048   4.730  1.2686  0.7333  0.6111
 4554TIP3   OH213625   1.746   6.087   0.609 -0.3993  0.4204 -0.0349
 4554TIP3    H113626   1.741   6.097   0.513 -0.5574 -0.0115 -0.0746
 4554TIP3    H213627   1.655   6.084   0.637 -0.3683 -0.7470 -0.0162
 4555TIP3   OH213628   6.390   1.137   2.355 -0.7844  0.0750  0.2330
 4555TIP3    H113629   6.328   1.161   2.285 -0.1705 -0.5463 -0.5460
 4555TIP3    H213630   6.336   1.095   2.421 -1.2636 -0.0559 -0.2316
 4556TIP3   OH213631   0.060   3.566   0.708  0.1525 -0.5970 -0.1205
 4556TIP3    H113632  -0.020   3.586   0.757  1.0191 -1.5909  1.7677
 4556TIP3    H213633   0.029   3.516   0.632 -1.1341  0.2061 -0.1531
 4557TIP3   OH213634   0.726   6.377   3.630  0.1453 -0.0951 -0.3511
 4557TIP3    H113635   0.796   6.316   3.609 -1.5932 -1.7036 -1.8189
 4557TIP3    H213636   0.664   6.369   3.558 -1.1031  2.0095  0.3768
 4558TIP3   OH213637   4.301   5.499   5.266  0.8636  0.1382  0.9358
 4558TIP3    H113638   4.328   5.416   5.226  1.5280  0.3522  0.9199
 4558TIP3    H213639   4.341   5.497   5.353  1.1785  0.5945  0.8040
 4559TIP3   OH213640   1.258   3.654   3.558  0.0070  0.2603 -0.4418
 4559TIP3    H113641   1.275   3.702   3.477 -2.4087 -0.7553 -1.6563
 4559TIP3    H213642   1.308   3.573   3.549 -0.5972 -0.0489 -1.1824
 4560TIP3   OH213643   5.970   3.189   0.326 -0.1400 -0.4974 -0.0426
 4560TIP3    H113644   6.032   3.131   0.281  0.7932 -0.0723  0.6602
 4560TIP3    H213645   5.957   3.148   0.412  0.9731  0.5937  0.6815
 4561TIP3   OH213646   3.042   0.550   1.126  0.5270  0.3129  0.3991
 4561TIP3    H113647   3.136   0.563   1.140  0.2545 -0.1228  3.2129
 4561TIP3    H213648   3.014   0.628   1.078  1.9783  1.4247  1.2898
 4562TIP3   OH213649   1.796   3.872   0.593 -0.4091 -0.3854 -0.3377
 4562TIP3    H113650   1.747   3.811   0.539 -0.5658  0.1561 -0.8229
 4562TIP3    H213651   1.734   3.900   0.661 -0.6335 -0.0551 -0.6746
 4563TIP3   OH213652   3.108   4.075   3.498  0.3173 -0.2564  0.0221
 4563TIP3    H113653   3.169   4.143   3.525 -0.1763 -0.2349  1.1404
 4563TIP3    H213654   3.153   3.993   3.517  0.3288 -0.2362  0.0841
 4564TIP3   OH213655   7.019   2.836   3.436 -0.2930 -0.3947 -0.4243
 4564TIP3    H113656   7.071   2.905   3.478 -0.1887 -0.5593 -0.2831
 4564TIP3    H213657   6.928   2.859   3.458 -0.1657 -1.4602  1.4376
 4565TIP3   OH213658   0.399   0.452   0.955  0.4778  0.3415 -0.1157
 4565TIP3    H113659   0.429   0.374   0.908  0.2845 -0.5180  1.1277
 4565TIP3    H213660   0.304   0.455   0.938  0.1400 -0.8244  1.3519
 4566TIP3   OH213661   1.056   1.906   5.781 -0.1399 -0.4893  1.0945
 4566TIP3    H113662   1.144   1.879   5.754 -0.1883 -0.2991  0.7408
 4566TIP3    H213663   1.004   1.826   5.777 -0.5512 -0.1656 -1.0225
 4567TIP3   OH213664   1.391   6.580   0.840 -0.4935  0.3501  0.4867
 4567TIP3    H113665   1.448   6.514   0.799  0.8345  2.0103 -0.4988
 4567TIP3    H213666   1.309   6.533   0.857  0.9492 -2.0058  1.4738
 4568TIP3   OH213667   2.757   2.649   0.073 -0.2863 -0.2647 -0.4854
 4568TIP3    H113668   2.832   2.607   0.029  0.1999  0.3746 -0.2885
 4568TIP3    H213669   2.758   2.739   0.040  0.0008  0.1873  0.7039
 4569TIP3   OH213670   3.203   2.622   0.791 -0.5170 -0.3072  0.6231
 4569TIP3    H113671   3.149   2.673   0.731 -1.8531 -2.7447 -0.4059
 4569TIP3    H213672   3.288   2.615   0.747 -1.3508 -1.6900 -0.8912
 4570TIP3   OH213673   5.284   3.275   5.511  0.3702 -0.1002  0.3400
 4570TIP3    H113674   5.235   3.225   5.444 -1.1798  2.6747 -0.7695
 4570TIP3    H213675   5.348   3.325   5.461  0.9857  0.0616  1.2725
 4571TIP3   OH213676   3.482   2.740   1.193 -0.0216  0.0360 -0.1071
 4571TIP3    H113677   3.457   2.788   1.114  2.9122  1.7530 -0.1732
 4571TIP3    H213678   3.443   2.653   1.182 -1.6399  0.9240 -2.2891
 4572TIP3   OH213679   3.380   6.661   2.291  0.1383 -0.2309 -0.6757
 4572TIP3    H113680   3.438   6.728   2.256  1.3797 -0.0027  1.6561
 4572TIP3    H213681   3.292   6.699   2.284  0.8013  1.6416  0.5488
 4573TIP3   OH213682   3.296   4.140   4.865 -0.2273  0.1103  0.4271
 4573TIP3    H113683   3.301   4.115   4.773  0.0813 -1.5955  0.8713
 4573TIP3    H213684   3.386   4.164   4.888 -0.5878  2.1081 -0.0928
 4574TIP3   OH213685   4.346   2.354   1.587  0.2281 -0.1009 -0.0549
 4574TIP3    H113686   4.419   2.292   1.589  1.0699  0.8827  0.2314
 4574TIP3    H213687   4.294   2.331   1.663  1.2134  0.3296  0.7705
 4575TIP3   OH213688   0.685   2.853   2.169 -0.0534 -0.0757 -0.0603
 4575TIP3    H113689   0.644   2.904   2.238  0.8848 -0.6257  0.9274
 4575TIP3    H213690   0.630   2.775   2.160 -1.7501  1.2300 -1.8844
 4576TIP3   OH213691   0.755   1.088   0.221 -0.0580  0.0894 -0.0973
 4576TIP3    H113692   0.769   1.177   0.252  1.5698 -0.3153  0.4254
 4576TIP3    H213693   0.679   1.094   0.163  0.5168  1.9541 -0.7110
 4577TIP3   OH213694   0.092   2.673   4.994 -0.4672 -0.0979 -0.5670
 4577TIP3    H113695   0.084   2.583   4.964  4.8860 -1.2930  0.6501
 4577TIP3    H213696   0.058   2.672   5.084 -1.1358 -0.6442 -0.8178
 4578TIP3   OH213697   6.773   4.386   0.928 -0.2883 -0.5579  0.0393
 4578TIP3    H113698   6.798   4.463   0.877 -0.6510 -1.2627 -1.2590
 4578TIP3    H213699   6.699   4.416   0.981  0.2833  0.2721  0.3897
 4579TIP3   OH213700   3.148   2.339   5.426  0.6268  0.0666  0.3556
 4579TIP3    H113701   3.053   2.347   5.418  0.6667 -0.0376 -0.2673
 4579TIP3    H213702   3.183   2.408   5.371  0.9206 -0.8887 -0.7012
 4580TIP3   OH213703   0.680   1.790   0.982  0.2906 -0.3266 -0.0337
 4580TIP3    H113704   0.741   1.788   1.056  2.0472  2.1102 -1.2653
 4580TIP3    H213705   0.600   1.829   1.018  1.4409  1.7313  0.4530
 4581TIP3   OH213706   3.374   0.028   3.086 -0.9381 -0.1390 -0.4153
 4581TIP3    H113707   3.313  -0.025   3.137 -1.5095 -0.2751 -1.2237
 4581TIP3    H213708   3.432   0.068   3.152 -0.0956 -2.2214  0.1890
 4582TIP3   OH213709   4.002   6.263   2.694  0.3219  0.4975 -0.4346
 4582TIP3    H113710   4.063   6.337   2.688 -2.4208  2.9385 -0.5789
 4582TIP3    H213711   3.979   6.244   2.603  0.5888 -0.2040 -0.3649
 4583TIP3   OH213712   5.668   5.593   0.399  0.2641 -0.0999 -0.1425
 4583TIP3    H113713   5.662   5.645   0.480 -1.8541 -0.8222  0.2263
 4583TIP3    H213714   5.630   5.649   0.332 -1.3774 -0.8334  0.1213
 4584TIP3   OH213715   5.414   2.118   0.535 -0.8458 -0.2829  0.2483
 4584TIP3    H113716   5.439   2.195   0.485  1.9708 -0.0571  1.8003
 4584TIP3    H213717   5.467   2.047   0.499 -2.7175 -1.3612 -0.5396
 4585TIP3   OH213718   1.575   6.802   0.894 -0.5159 -0.2593  0.0176
 4585TIP3    H113719   1.579   6.770   0.985  1.0362 -0.2223 -0.0122
 4585TIP3    H213720   1.497   6.760   0.858 -0.8913 -0.6547  1.2260
 4586TIP3   OH213721   6.168   4.262   2.766  0.3895 -0.9199  0.4115
 4586TIP3    H113722   6.183   4.213   2.685  0.1884 -0.7233  0.2541
 4586TIP3    H213723   6.089   4.313   2.748 -0.5414 -2.0044  1.2428
 4587TIP3   OH213724   5.069   0.750   1.342 -0.6761  0.0674 -0.4306
 4587TIP3    H113725   5.144   0.784   1.293 -1.1420  0.4312 -0.9029
 4587TIP3    H213726   5.047   0.668   1.298 -0.8695  0.2145 -0.6107
 4588TIP3   OH213727   0.442   6.466   3.721  0.0359 -0.1920  0.3626
 4588TIP3    H113728   0.461   6.506   3.806 -0.5639 -0.9551  0.8649
 4588TIP3    H213729   0.528   6.451   3.682  0.2930  1.6851  0.0925
 4589TIP3   OH213730   0.532   1.286   5.414 -0.0929 -0.1939  0.2553
 4589TIP3    H113731   0.460   1.231   5.446  0.4745 -0.6601  0.7518
 4589TIP3    H213732   0.575   1.233   5.347  0.2923 -0.2461  0.5434
 4590TIP3   OH213733   0.516   5.042   3.682 -0.0029 -0.7048  0.0211
 4590TIP3    H113734   0.488   4.956   3.649  1.5241 -1.1470 -0.2265
 4590TIP3    H213735   0.608   5.029   3.707  0.8010  1.2596 -1.6112
 4591TIP3   OH213736   0.060   6.234   4.828  0.4568  0.2060  1.1223
 4591TIP3    H113737   0.148   6.214   4.858  1.3103 -0.1083 -1.3785
 4591TIP3    H213738   0.071   6.306   4.766 -0.7709 -0.9463 -0.5360
 4592TIP3   OH213739   4.638   6.241   1.400  0.3704  0.4503 -0.0381
 4592TIP3    H113740   4.596   6.269   1.481  0.4591  0.0554  0.1454
 4592TIP3    H213741   4.621   6.312   1.338  0.4534  0.8355  0.3760
 4593TIP3   OH213742   3.641   3.010   3.173 -0.0767  0.2198 -0.2684
 4593TIP3    H113743   3.718   3.065   3.190  0.3332  0.4100 -2.4032
 4593TIP3    H213744   3.566   3.068   3.182 -0.0039  0.0629  1.7136
 4594TIP3   OH213745   2.673   5.079   5.568  0.0782  0.3800 -0.1868
 4594TIP3    H113746   2.665   5.011   5.635 -1.6807  0.0876 -0.6536
 4594TIP3    H213747   2.760   5.116   5.583  0.9908 -1.7702  0.2527
 4595TIP3   OH213748   0.132   4.909   2.508  0.1719 -0.4283  0.4975
 4595TIP3    H113749   0.209   4.917   2.451  0.9082 -1.1689  1.3476
 4595TIP3    H213750   0.111   4.816   2.506 -0.6912 -0.2420  0.3245
 4596TIP3   OH213751   6.362   1.951   0.522 -0.3785  0.2960 -0.2531
 4596TIP3    H113752   6.372   1.874   0.577 -2.4022  0.6060  0.6328
 4596TIP3    H213753   6.357   2.024   0.584 -1.1587  0.8297 -0.9334
 4597TIP3   OH213754   3.289   1.379   3.319  0.5405 -0.2192  0.2491
 4597TIP3    H113755   3.290   1.376   3.223  0.4179 -0.2773  0.2499
 4597TIP3    H213756   3.275   1.288   3.345  1.0543 -0.2812  0.3291
 4598TIP3   OH213757   1.723   0.524   3.906  0.3578  0.4677  0.0652
 4598TIP3    H113758   1.777   0.472   3.846 -0.8404  0.4810 -1.0613
 4598TIP3    H213759   1.767   0.516   3.990  0.8068 -1.4683 -0.3102
 4599TIP3   OH213760   1.084   5.996   1.068  0.2292 -0.3553 -0.9446
 4599TIP3    H113761   1.055   5.907   1.049 -1.1604 -0.0922 -0.1687
 4599TIP3    H213762   1.118   6.028   0.984  1.2309 -1.7574 -1.1230
 4600TIP3   OH213763   1.809   1.065   4.169  0.0896  0.1972  0.1532
 4600TIP3    H113764   1.835   1.092   4.258  0.5924 -1.0182  0.3909
 4600TIP3    H213765   1.715   1.049   4.176  0.5582 -2.6265  1.2449
 4601TIP3   OH213766   3.205   3.256   2.377  0.0245  0.1578 -0.1972
 4601TIP3    H113767   3.155   3.256   2.458  1.0404  1.2534  0.4564
 4601TIP3    H213768   3.258   3.336   2.381  2.3715 -1.2814 -0.5063
 4602TIP3   OH213769   7.153   5.906   0.605  0.1759  0.0058 -0.3061
 4602TIP3    H113770   7.118   5.979   0.553 -1.7899  2.0736  3.4967
 4602TIP3    H213771   7.110   5.829   0.570 -0.5854  1.1782 -2.1136
 4603TIP3   OH213772   7.088   0.973   4.138  0.3588 -0.7216 -0.2529
 4603TIP3    H113773   7.135   1.042   4.185 -1.2516 -1.3000  2.4316
 4603TIP3    H213774   7.058   1.015   4.057  2.6116  0.5640 -0.4873
 4604TIP3   OH213775   5.973   0.244   2.755  0.4887  0.5541  0.0393
 4604TIP3    H113776   5.920   0.165   2.770  1.2470  0.2550  1.2482
 4604TIP3    H213777   6.038   0.243   2.824  0.6916  2.1148 -0.0889
 4605TIP3   OH213778   1.367   6.473   5.464 -0.5339  0.2174  0.2488
 4605TIP3    H113779   1.359   6.474   5.369 -0.6566 -0.0064  0.2558
 4605TIP3    H213780   1.419   6.395   5.483 -0.3015  0.3957  0.3521
 4606TIP3   OH213781   4.586   1.640   5.442  0.0508  0.2656  0.6550
 4606TIP3    H113782   4.493   1.662   5.447  0.5082  2.3055  0.8742
 4606TIP3    H213783   4.608   1.647   5.350 -0.4508 -2.4194  0.2504
 4607TIP3   OH213784   4.255   2.594   2.457 -0.2142  0.0679 -0.3104
 4607TIP3    H113785   4.219   2.625   2.540 -0.0720  0.6734 -0.4675
 4607TIP3    H213786   4.240   2.499   2.458  0.0224  0.0318  0.5144
 4608TIP3   OH213787   4.051   6.706   0.238  0.2352  0.2455  0.2987
 4608TIP3    H113788   4.057   6.621   0.196  0.9922  0.1495  0.5808
 4608TIP3    H213789   4.140   6.722   0.272 -0.4468  0.0742  2.2976
 4609TIP3   OH213790   2.879   3.703   1.593 -0.3362 -0.3079  0.3300
 4609TIP3    H113791   2.967   3.724   1.625 -0.4222  0.5449  0.0452
 4609TIP3    H213792   2.832   3.671   1.669  0.4146 -1.4163  0.3466
 4610TIP3   OH213793   0.303   2.343   1.620 -0.4064 -0.0425  0.6504
 4610TIP3    H113794   0.323   2.437   1.621 -0.1422  0.0166 -1.9214
 4610TIP3    H213795   0.369   2.304   1.677  0.8250  1.1398  0.1027
 4611TIP3   OH213796   6.284   2.429   0.269  0.2136  0.4713 -0.0189
 4611TIP3    H113797   6.311   2.338   0.276  0.3193  0.4772 -0.3094
 4611TIP3    H213798   6.309   2.454   0.180 -1.2784  0.3192 -0.4941
 4612TIP3   OH213799   5.734   1.906   1.225  0.2807  0.3000  0.6133
 4612TIP3    H113800   5.689   1.859   1.155  1.1458  0.3250  0.0205
 4612TIP3    H213801   5.667   1.962   1.264  0.0374  1.0848 -0.9031
 4613TIP3   OH213802   1.544   6.710   3.808  0.5848  0.2849 -0.2496
 4613TIP3    H113803   1.497   6.630   3.784 -0.0805  0.7079 -0.3902
 4613TIP3    H213804   1.526   6.720   3.902 -0.4422  0.9647 -0.4939
 4614TIP3   OH213805   5.851   2.714   1.503  0.5787  0.4142  0.7655
 4614TIP3    H113806   5.826   2.805   1.487  0.7157  0.6023  1.5612
 4614TIP3    H213807   5.811   2.694   1.588  1.3524  0.0365  1.0437
 4615TIP3   OH213808   4.169   1.300   0.455 -0.1718  0.0172 -0.0493
 4615TIP3    H113809   4.146   1.393   0.459 -2.1885 -0.3994 -0.7399
 4615TIP3    H213810   4.241   1.296   0.393 -0.5153  1.0570 -0.5430
 4616TIP3   OH213811   2.982   3.278   0.458  0.1425  0.3567 -0.4805
 4616TIP3    H113812   3.052   3.270   0.393  1.6775 -0.5228  1.1828
 4616TIP3    H213813   2.909   3.227   0.422  1.2892 -0.9062 -1.0916
 4617TIP3   OH213814   6.039   0.292   3.554  0.1106 -0.0804 -0.0832
 4617TIP3    H113815   6.126   0.278   3.518  0.9509 -0.2455  1.8989
 4617TIP3    H213816   6.049   0.366   3.613 -0.9845 -0.3943  0.5166
 4618TIP3   OH213817   2.219   5.076   3.098 -0.0217  0.4341 -0.1123
 4618TIP3    H113818   2.143   5.018   3.098 -0.0036  0.4057  0.6381
 4618TIP3    H213819   2.205   5.135   3.023  0.8621 -1.6888 -2.0699
 4619TIP3   OH213820   1.046   4.547   4.326 -0.8015 -0.1057 -0.3859
 4619TIP3    H113821   0.969   4.510   4.282 -0.3193  0.2407 -1.5534
 4619TIP3    H213822   1.116   4.485   4.306 -0.8693 -0.7079  1.1273
 4620TIP3   OH213823   1.760   6.287   3.326 -0.2147  0.8189  0.3931
 4620TIP3    H113824   1.817   6.285   3.402  1.4329  2.2673 -0.7112
 4620TIP3    H213825   1.800   6.227   3.264 -1.7153 -0.5919  0.7306
 4621TIP3   OH213826   0.832   0.041   2.594 -0.0997 -0.3465  0.6230
 4621TIP3    H113827   0.862  -0.031   2.649 -0.6212  0.1135  1.5437
 4621TIP3    H213828   0.743   0.060   2.626 -0.0884  0.4903  0.1943
 4622TIP3   OH213829   5.017   1.670   5.025  0.4636  0.0116 -0.0872
 4622TIP3    H113830   5.008   1.601   4.960  0.7248  0.3317 -0.4737
 4622TIP3    H213831   5.099   1.649   5.071  0.2260 -0.2708  0.2083
 4623TIP3   OH213832   6.367   1.689   2.001 -0.4466 -0.1804 -0.5110
 4623TIP3    H113833   6.445   1.741   1.983 -1.7696  2.5493  0.9340
 4623TIP3    H213834   6.397   1.598   2.001  2.3107  0.6511 -1.7760
 4624TIP3   OH213835   0.094   5.576   3.552 -0.2741 -0.3013 -0.0142
 4624TIP3    H113836   0.011   5.538   3.583  0.2839 -0.5941  1.2240
 4624TIP3    H213837   0.083   5.670   3.565  0.2641 -0.4694  2.0464
 4625TIP3   OH213838   3.588   5.128   2.901 -0.0935  0.3178  0.5947
 4625TIP3    H113839   3.551   5.181   2.830  0.7843 -1.1808 -1.0685
 4625TIP3    H213840   3.531   5.051   2.905  1.2277 -0.7366 -0.1552
 4626TIP3   OH213841   4.661   1.397   1.425  0.4520  0.1480  0.0420
 4626TIP3    H113842   4.731   1.367   1.367 -0.7004 -2.3248 -0.1920
 4626TIP3    H213843   4.675   1.350   1.507 -0.0622  0.8194  0.5360
 4627TIP3   OH213844   3.972   2.222   1.921 -0.3586 -0.9103 -0.7276
 4627TIP3    H113845   3.895   2.278   1.909 -0.9648 -1.5747 -0.0647
 4627TIP3    H213846   4.018   2.260   1.995 -0.3143 -0.7992 -0.8121
 4628TIP3   OH213847   6.002   3.539   5.012  0.1373 -0.0200 -0.2985
 4628TIP3    H113848   5.956   3.614   4.974 -0.0856  0.1334  0.2692
 4628TIP3    H213849   6.037   3.492   4.936 -1.7191 -0.6392 -0.8226
 4629TIP3   OH213850   1.356   6.633   0.429 -0.1297 -0.2010  0.3188
 4629TIP3    H113851   1.365   6.685   0.349 -1.5554  0.5962  0.6498
 4629TIP3    H213852   1.264   6.643   0.454  0.0327 -1.3217  1.4703
 4630TIP3   OH213853   1.114   0.664   4.359 -0.1402 -0.1102  0.1374
 4630TIP3    H113854   1.021   0.645   4.367 -0.3773  1.3917  1.4958
 4630TIP3    H213855   1.120   0.732   4.292  0.2042 -1.4537 -1.2496
 4631TIP3   OH213856   0.858   4.150   1.241 -0.1864 -0.3391 -0.3989
 4631TIP3    H113857   0.824   4.177   1.327 -0.5962  1.1917 -0.9944
 4631TIP3    H213858   0.826   4.061   1.229 -0.1191 -0.5713  1.0405
 4632TIP3   OH213859   0.577   4.133   4.720  0.5828 -0.0922 -0.5290
 4632TIP3    H113860   0.538   4.053   4.685 -1.5547  0.0803  1.2936
 4632TIP3    H213861   0.541   4.203   4.665 -0.9593 -0.0272  0.5289
 4633TIP3   OH213862   6.247   0.174   1.739 -0.1767  0.0093  0.3669
 4633TIP3    H113863   6.273   0.257   1.700  0.2173 -0.1908  0.1986
 4633TIP3    H213864   6.153   0.167   1.720 -0.1371  0.2496  0.0783
 4634TIP3   OH213865   4.531   3.611   3.308  0.0763 -0.4812  0.0175
 4634TIP3    H113866   4.593   3.684   3.306 -0.7632  0.2490  0.1539
 4634TIP3    H213867   4.558   3.558   3.383  0.7311 -0.3467 -0.1189
 4635TIP3   OH213868   5.046   1.513   4.794  0.1597  0.3195  0.3034
 4635TIP3    H113869   4.957   1.503   4.760  0.9027  0.2511 -1.7869
 4635TIP3    H213870   5.092   1.435   4.762  1.5935  1.5965 -0.8772
 4636TIP3   OH213871   6.617   5.758   0.527 -0.3440 -0.0736 -0.1173
 4636TIP3    H113872   6.695   5.721   0.486 -0.3173 -0.2262  0.0690
 4636TIP3    H213873   6.548   5.749   0.462 -0.2984 -0.3009 -0.1316
 4637TIP3   OH213874   3.727   5.910   0.615 -0.2534  0.0891  0.9146
 4637TIP3    H113875   3.797   5.934   0.675  0.4734 -1.6584  0.8447
 4637TIP3    H213876   3.758   5.939   0.529  0.1809 -0.2585  0.9512
 4638TIP3   OH213877   6.298   5.978   2.689 -0.8565  0.1633  0.0935
 4638TIP3    H113878   6.226   5.917   2.672 -1.5721  0.9124  0.3937
 4638TIP3    H213879   6.344   5.941   2.764  0.4007 -1.4700 -1.3866
 4639TIP3   OH213880   6.803   0.715   1.016  0.3104 -0.0772 -0.2610
 4639TIP3    H113881   6.735   0.765   1.062  2.2791  0.4133  2.3167
 4639TIP3    H213882   6.834   0.652   1.081  1.2177 -1.4247 -1.9270
 4640TIP3   OH213883   6.643   6.136   1.205  0.6345 -0.4722 -0.0444
 4640TIP3    H113884   6.556   6.097   1.213  0.3047  0.3889  0.7518
 4640TIP3    H213885   6.648   6.165   1.114  0.0202 -0.3783 -0.0532
 4641TIP3   OH213886   7.083   6.725   1.649 -0.3154 -0.9569 -0.4652
 4641TIP3    H113887   7.163   6.719   1.701 -0.6992 -3.5271 -0.0246
 4641TIP3    H213888   7.016   6.753   1.711 -0.2627 -1.4389 -0.1859
 4642TIP3   OH213889   0.163   1.908   1.605  0.4102 -0.1656 -0.3818
 4642TIP3    H113890   0.096   1.974   1.586 -0.9805 -1.3719  0.1499
 4642TIP3    H213891   0.212   1.944   1.678  0.7796  1.0303 -1.1988
 4643TIP3   OH213892   3.570   6.669   5.798  0.5475  0.5730  0.2312
 4643TIP3    H113893   3.521   6.604   5.848  0.2698 -0.0081 -0.7661
 4643TIP3    H213894   3.656   6.672   5.841  0.3660 -0.0194  0.6570
 4644TIP3   OH213895   6.083   1.156   2.752  0.3659  0.2224 -0.6770
 4644TIP3    H113896   6.034   1.113   2.822 -0.0095 -0.2946 -1.2410
 4644TIP3    H213897   6.028   1.229   2.725  0.2633  0.1086 -0.7798
 4645TIP3   OH213898   0.164   5.939   4.246  0.2076 -0.6023  0.4990
 4645TIP3    H113899   0.142   5.933   4.153  0.4839 -0.3132  0.4130
 4645TIP3    H213900   0.099   5.883   4.290  0.7599 -1.6285  0.0363
 4646TIP3   OH213901   0.729   5.923   4.265  0.4053 -0.7601 -0.7618
 4646TIP3    H113902   0.735   5.885   4.353 -0.8186  0.8408  0.0619
 4646TIP3    H213903   0.642   5.962   4.262  1.4383  1.6884 -1.6338
 4647TIP3   OH213904   1.563   5.274   2.232 -0.1715  0.7483  0.1160
 4647TIP3    H113905   1.599   5.262   2.144 -1.7448 -1.3810 -0.3067
 4647TIP3    H213906   1.628   5.235   2.290 -0.4481 -0.5361 -0.3962
 4648TIP3   OH213907   0.560   6.313   3.424  0.0495  0.2864 -0.4238
 4648TIP3    H113908   0.597   6.289   3.340  0.4620 -0.4566 -0.0422
 4648TIP3    H213909   0.523   6.400   3.411  1.0070  0.6003 -1.0904
 4649TIP3   OH213910   6.877   0.288   4.353 -0.5889  0.4081 -0.2878
 4649TIP3    H113911   6.864   0.214   4.293 -0.5317  0.4530 -0.3548
 4649TIP3    H213912   6.942   0.256   4.415 -2.7965 -0.7540  1.5831
 4650TIP3   OH213913   1.862   0.378   5.211 -0.0920  0.2541 -0.4731
 4650TIP3    H113914   1.933   0.407   5.155  0.3554 -0.2472 -0.1814
 4650TIP3    H213915   1.809   0.320   5.156  0.3943 -0.3044 -0.3605
 4651TIP3   OH213916   2.757   5.473   3.691 -0.3306  0.3632  0.2741
 4651TIP3    H113917   2.717   5.545   3.740 -0.1483 -0.0653  1.0602
 4651TIP3    H213918   2.684   5.415   3.669 -0.0787 -0.9451  2.5851
 4652TIP3   OH213919   6.682   3.929   2.825 -0.3625  0.1940 -0.4298
 4652TIP3    H113920   6.617   3.861   2.809  0.4097 -0.6566 -0.0367
 4652TIP3    H213921   6.649   4.006   2.778 -1.7963 -0.1235  0.0088
 4653TIP3   OH213922   7.094   5.767   3.182  0.1309 -0.2256  0.0323
 4653TIP3    H113923   7.154   5.836   3.209 -0.8002  1.6171 -2.1973
 4653TIP3    H213924   7.026   5.813   3.133 -2.5231 -2.3503  1.4879
 4654TIP3   OH213925   1.038   0.021   0.586 -0.0460  0.3212  0.4279
 4654TIP3    H113926   1.071   0.069   0.511  0.2909 -0.1661  0.2569
 4654TIP3    H213927   1.109  -0.039   0.610 -0.9832 -1.1202 -0.2726
 4655TIP3   OH213928   4.498   0.651   2.610  0.1777 -0.2605  0.0171
 4655TIP3    H113929   4.445   0.685   2.682 -0.0710  0.3791 -0.4585
 4655TIP3    H213930   4.581   0.628   2.650 -0.0464 -0.1410  0.5561
 4656TIP3   OH213931   3.016   0.049   0.322 -0.1339 -0.3895  0.3949
 4656TIP3    H113932   3.017   0.029   0.416  2.4457 -0.3690  0.4344
 4656TIP3    H213933   3.060  -0.026   0.281 -0.3457  0.0629 -0.6895
 4657TIP3   OH213934   5.583   4.326   2.984 -0.1910 -0.1410 -0.0057
 4657TIP3    H113935   5.618   4.242   3.013 -0.6896  0.0856  1.3103
 4657TIP3    H213936   5.584   4.321   2.889 -2.0134 -2.4205  0.0149
 4658TIP3   OH213937   1.615   1.363   3.572 -0.2820 -0.2319  0.3224
 4658TIP3    H113938   1.605   1.397   3.483  0.3041 -1.3827 -0.2097
 4658TIP3    H213939   1.549   1.293   3.579  0.1987 -0.6742  0.5053
 4659TIP3   OH213940   2.234   3.034   2.994  0.4910 -0.3618  0.3669
 4659TIP3    H113941   2.190   3.112   2.961 -0.2459 -0.1236  1.8036
 4659TIP3    H213942   2.304   3.017   2.931 -0.7775  0.0715 -1.2262
 4660TIP3   OH213943   2.977   1.310   2.449  0.4247  0.0957  0.2112
 4660TIP3    H113944   2.942   1.396   2.475 -1.6015 -1.1728  1.9885
 4660TIP3    H213945   2.993   1.318   2.355 -2.3373  1.5768 -0.2285
 4661TIP3   OH213946   2.450   5.516   2.187 -0.6300 -0.2850 -0.6273
 4661TIP3    H113947   2.504   5.537   2.111  1.6164 -0.6752  0.7702
 4661TIP3    H213948   2.372   5.474   2.150  0.4187 -0.5537 -2.7033
 4662TIP3   OH213949   2.569   2.854   5.293 -0.5874  0.1372  0.4443
 4662TIP3    H113950   2.552   2.762   5.313 -0.8865  0.1912  0.4478
 4662TIP3    H213951   2.484   2.889   5.267 -0.5010  0.4442  0.5661
 4663TIP3   OH213952   3.363   4.497   3.218  0.1216 -0.0399 -0.1984
 4663TIP3    H113953   3.378   4.541   3.134  0.8116 -0.6021 -0.3861
 4663TIP3    H213954   3.403   4.556   3.282  1.2779 -0.4977 -0.4763
 4664TIP3   OH213955   6.095   1.929   0.385  0.3821 -0.1600 -0.1390
 4664TIP3    H113956   6.043   1.963   0.458  2.2753 -0.3796  1.4096
 4664TIP3    H213957   6.178   1.903   0.425  0.7432 -2.2723 -2.0231
 4665TIP3   OH213958   1.907   6.015   3.869  0.3197 -0.8465  0.3148
 4665TIP3    H113959   1.825   5.987   3.828  1.0494 -1.6473 -0.6684
 4665TIP3    H213960   1.973   5.956   3.833  1.0936 -1.3001  2.3342
 4666TIP3   OH213961   1.890   6.723   5.608  0.0830  0.6389 -0.0806
 4666TIP3    H113962   1.977   6.697   5.577 -1.1892 -1.0920 -2.5466
 4666TIP3    H213963   1.867   6.657   5.673  0.6151  1.1318  0.6167
 4667TIP3   OH213964   2.752   3.232   2.804 -0.1005  0.0396 -0.3166
 4667TIP3    H113965   2.750   3.137   2.789  0.3432 -0.0582  0.2182
 4667TIP3    H213966   2.767   3.241   2.898 -1.1817  0.6427 -0.1932
 4668TIP3   OH213967   2.876   0.719   1.375  0.1192 -0.0986  0.1004
 4668TIP3    H113968   2.901   0.655   1.308 -1.1027  0.7726 -1.2399
 4668TIP3    H213969   2.791   0.688   1.406  0.2025  0.0779  0.5092
 4669TIP3   OH213970   6.788   5.059   0.589 -0.2414  0.0778 -0.1542
 4669TIP3    H113971   6.701   5.078   0.555  0.2258  3.4181  0.1494
 4669TIP3    H213972   6.845   5.057   0.512 -0.0866  1.7478 -0.1348
 4670TIP3   OH213973   6.577   1.561   1.301 -0.2620 -0.4056  0.3333
 4670TIP3    H113974   6.536   1.584   1.384 -1.3993 -0.0103 -0.3238
 4670TIP3    H213975   6.611   1.644   1.267  0.3840 -0.6000  0.4926
 4671TIP3   OH213976   6.552   1.696   5.037  0.2008 -0.3195  0.6902
 4671TIP3    H113977   6.615   1.765   5.056  0.3237 -0.3951  0.5637
 4671TIP3    H213978   6.516   1.719   4.951  1.6065 -1.3866 -0.2392
 4672TIP3   OH213979   3.489   0.603   5.288 -0.0144 -0.0698 -0.0323
 4672TIP3    H113980   3.488   0.637   5.199 -1.1537 -0.4975 -0.1986
 4672TIP3    H213981   3.406   0.555   5.297  0.3779 -0.5916  1.0373
 4673TIP3   OH213982   2.163   3.503   3.024 -0.4466 -0.2146 -0.8290
 4673TIP3    H113983   2.096   3.568   3.046 -0.0775  0.1192 -0.6731
 4673TIP3    H213984   2.229   3.513   3.092 -0.6511 -1.1551 -0.4721
 4674TIP3   OH213985   4.277   0.997   1.668  0.7383 -0.2219 -0.1059
 4674TIP3    H113986   4.317   1.055   1.602  0.9025  0.3073  0.4489
 4674TIP3    H213987   4.252   1.056   1.739 -1.1894 -0.5041 -0.4863
 4675TIP3   OH213988   2.272   0.528   2.847  0.5749 -0.0622  0.4848
 4675TIP3    H113989   2.308   0.611   2.876 -0.8242  0.9868 -0.6472
 4675TIP3    H213990   2.310   0.513   2.761 -1.2151  0.8245 -0.5158
 4676TIP3   OH213991   0.819   1.977   0.738  0.4292 -0.8715 -0.1631
 4676TIP3    H113992   0.831   2.046   0.673  2.6772 -0.5740  0.4809
 4676TIP3    H213993   0.751   2.011   0.796  0.5876  0.2540 -0.6070
 4677TIP3   OH213994   4.996   1.759   3.615  0.9005  0.3404 -0.2669
 4677TIP3    H113995   5.018   1.742   3.707 -0.7359 -2.0724 -0.2416
 4677TIP3    H213996   4.961   1.848   3.615  0.7078  0.3043  1.5065
 4678TIP3   OH213997   6.378   0.221   4.603 -0.4553  0.1943 -0.0024
 4678TIP3    H113998   6.453   0.163   4.590 -1.3756 -1.0519  0.0944
 4678TIP3    H213999   6.332   0.221   4.519 -0.6549  0.5106  0.1025
 4679TIP3   OH214000   3.643   0.789   0.877 -0.3275 -0.4567 -0.0339
 4679TIP3    H114001   3.596   0.739   0.944 -1.5745  1.1530  0.3647
 4679TIP3    H214002   3.626   0.742   0.795  1.1306 -2.3959  0.6807
 4680TIP3   OH214003   4.930   1.799   4.107  0.5428  0.7799  0.0842
 4680TIP3    H114004   4.889   1.847   4.036  1.4774 -0.1713 -1.1522
 4680TIP3    H214005   5.017   1.839   4.115  1.4853 -0.8989 -1.2383
 4681TIP3   OH214006   5.765   3.292   2.019 -0.0510 -0.6421 -0.0118
 4681TIP3    H114007   5.700   3.283   1.950 -0.1463 -3.1526  0.3204
 4681TIP3    H214008   5.806   3.206   2.026  2.6345  0.5614  0.5003
 4682TIP3   OH214009   2.667   1.327   1.644  0.0495 -0.8497 -0.1587
 4682TIP3    H114010   2.676   1.255   1.706  1.8563 -0.5096  0.0301
 4682TIP3    H214011   2.581   1.365   1.663 -0.9390 -2.9285 -0.2727
 4683TIP3   OH214012   0.076   5.987   2.763  0.4997 -0.0924  0.0231
 4683TIP3    H114013   0.069   5.899   2.799 -2.3486  0.4327  1.0136
 4683TIP3    H214014   0.145   6.029   2.815 -0.3169 -0.7825  1.7459
 4684TIP3   OH214015   4.139   3.121   3.935  0.3194  0.1525  0.0692
 4684TIP3    H114016   4.199   3.053   3.966  1.1320  0.8371  0.0414
 4684TIP3    H214017   4.060   3.073   3.908  1.3698 -0.9261 -1.2463
 4685TIP3   OH214018   2.752   1.111   4.112 -0.2936  0.1164  0.2464
 4685TIP3    H114019   2.794   1.096   4.027 -0.5871  0.4060  0.0469
 4685TIP3    H214020   2.822   1.098   4.176 -0.1492 -0.4376 -0.0177
 4686TIP3   OH214021   3.464   2.349   0.824 -0.3640  0.1593  0.5805
 4686TIP3    H114022   3.467   2.440   0.852 -1.3970  0.0932  0.9528
 4686TIP3    H214023   3.415   2.350   0.742 -0.3931 -0.0520  0.5925
 4687TIP3   OH214024   6.102   6.133   4.475  0.8659 -0.0825  0.2675
 4687TIP3    H114025   6.034   6.132   4.542 -0.0131 -2.1943 -0.5613
 4687TIP3    H214026   6.059   6.098   4.397  1.3481  3.8973 -2.0379
 4688TIP3   OH214027   5.613   5.884   2.980 -0.8996  0.6462 -0.2700
 4688TIP3    H114028   5.518   5.879   2.970 -0.7620 -2.0842 -1.0749
 4688TIP3    H214029   5.644   5.913   2.894 -0.9324 -0.8402 -0.8197
 4689TIP3   OH214030   7.117   3.403   0.908  0.3603 -0.3365 -0.2796
 4689TIP3    H114031   7.051   3.448   0.961 -0.5575  0.8227 -2.3165
 4689TIP3    H214032   7.089   3.416   0.818  4.7213  2.5401 -1.5335
 4690TIP3   OH214033   3.041   4.040   1.623  0.4916  0.1046 -0.1534
 4690TIP3    H114034   3.076   4.127   1.601  0.2280  0.0507 -0.8013
 4690TIP3    H214035   3.076   4.022   1.710  2.0780  0.0693 -0.7602
 4691TIP3   OH214036   2.975   2.663   1.885 -0.2370  0.2334  0.0056
 4691TIP3    H114037   2.891   2.702   1.908 -0.0285 -0.1050  1.3886
 4691TIP3    H214038   3.027   2.736   1.851 -0.5603  0.7499  0.6056
 4692TIP3   OH214039   2.627   6.426   2.884 -0.0979  0.0521  0.2658
 4692TIP3    H114040   2.703   6.484   2.878  0.0452  0.0950  1.8940
 4692TIP3    H214041   2.551   6.485   2.884  0.0678  0.3686  2.4719
 4693TIP3   OH214042   1.129   3.018   0.113 -0.5975 -0.1524 -0.6555
 4693TIP3    H114043   1.114   3.080   0.185 -2.4819  0.1591 -1.2739
 4693TIP3    H214044   1.224   3.010   0.108 -0.2354  2.9685 -0.7447
 4694TIP3   OH214045   4.180   1.018   0.384 -0.0717  0.3197  0.0706
 4694TIP3    H114046   4.145   1.101   0.416  0.4628  0.5552  0.0566
 4694TIP3    H214047   4.106   0.958   0.386 -0.0988  0.3619  1.5969
 4695TIP3   OH214048   2.654   0.658   1.621 -0.1516 -0.1285 -0.3501
 4695TIP3    H114049   2.594   0.726   1.590  0.5331  0.5336 -0.2728
 4695TIP3    H214050   2.737   0.705   1.635 -0.0918 -0.6607  1.2253
 4696TIP3   OH214051   1.086   4.837   0.231  0.3118 -0.0744  0.0289
 4696TIP3    H114052   1.077   4.813   0.324  0.7786  0.6753  0.2762
 4696TIP3    H214053   1.118   4.757   0.189  2.7294  0.3275  0.9834
 4697TIP3   OH214054   4.830   0.152   2.684 -0.0383  0.5468  0.1595
 4697TIP3    H114055   4.848   0.236   2.725 -0.5337  0.6098  0.2537
 4697TIP3    H214056   4.892   0.148   2.611  1.6092 -0.0500  1.5224
 4698TIP3   OH214057   2.768   6.489   4.038  0.6632 -0.5195  0.5503
 4698TIP3    H114058   2.788   6.507   4.129  0.6735  2.0450  0.0935
 4698TIP3    H214059   2.824   6.547   3.988 -0.8685 -0.3007 -1.0241
 4699TIP3   OH214060   2.078   2.514   2.583  0.4839 -0.0470  0.3914
 4699TIP3    H114061   2.018   2.526   2.509  2.5452  0.3754 -1.3130
 4699TIP3    H214062   2.053   2.430   2.620 -2.4731  1.0284  1.1034
 4700TIP3   OH214063   1.045   4.766   0.513  0.5011  0.1101 -0.4201
 4700TIP3    H114064   0.982   4.794   0.580 -0.7700 -2.0793 -0.6174
 4700TIP3    H214065   1.045   4.671   0.518  4.2354 -0.0068 -0.1187
 4701TIP3   OH214066   3.643   5.295   3.972  0.1212  0.3946  0.1019
 4701TIP3    H114067   3.600   5.296   3.887  1.7776  2.0676 -0.7824
 4701TIP3    H214068   3.734   5.275   3.953  0.4135  0.2629  1.5512
 4702TIP3   OH214069   1.725   4.679   2.868 -0.3328  0.1826 -0.0725
 4702TIP3    H114070   1.640   4.695   2.909  0.4710  1.5876  1.1357
 4702TIP3    H214071   1.789   4.698   2.937  0.9899 -0.3085 -1.1208
 4703TIP3   OH214072   4.721   5.831   1.111  0.2489 -0.5960  0.2012
 4703TIP3    H114073   4.791   5.873   1.162  0.1488  0.2562 -0.3470
 4703TIP3    H214074   4.672   5.904   1.073 -0.8472 -1.1930  0.4443
 4704TIP3   OH214075   3.776   0.207   2.006 -0.2408  0.3344 -0.7082
 4704TIP3    H114076   3.694   0.235   1.967  1.0820  1.0953 -3.1798
 4704TIP3    H214077   3.800   0.278   2.066 -0.3835  1.1404 -1.5791
 4705TIP3   OH214078   3.779   1.627   1.069 -0.5321  0.2661 -0.1209
 4705TIP3    H114079   3.708   1.648   1.129  0.6619 -0.8109  1.7644
 4705TIP3    H214080   3.810   1.712   1.037 -2.9194  0.7412 -1.3969
 4706TIP3   OH214081   5.035   4.199   1.753 -0.4674 -0.4158 -0.0021
 4706TIP3    H114082   5.059   4.115   1.791  0.6584  0.0402  0.3320
 4706TIP3    H214083   5.019   4.256   1.828 -1.4581 -0.3801 -0.2241
 4707TIP3   OH214084   4.942   5.440   4.238 -0.1678 -0.1708  0.3437
 4707TIP3    H114085   4.983   5.428   4.153 -1.4603 -0.6475 -0.2344
 4707TIP3    H214086   4.880   5.512   4.225 -0.0202  0.0800  1.0063
 4708TIP3   OH214087   5.929   3.494   1.329  0.2490 -0.0752 -0.0899
 4708TIP3    H114088   5.918   3.413   1.279  1.9658  0.1453 -0.8840
 4708TIP3    H214089   6.022   3.516   1.320 -0.2894  2.3426 -0.4651
 4709TIP3   OH214090   3.544   1.779   0.869 -0.4326  0.3150 -0.0613
 4709TIP3    H114091   3.538   1.718   0.795  2.5548 -0.6378  0.3539
 4709TIP3    H214092   3.486   1.741   0.936  0.8958 -1.7990 -0.0279
 4710TIP3   OH214093   6.438   1.738   4.787 -0.1176  0.5049 -0.3372
 4710TIP3    H114094   6.435   1.773   4.698  0.0932  1.5953  0.0703
 4710TIP3    H214095   6.355   1.767   4.826 -0.3255 -0.1945 -0.2514
 4711TIP3   OH214096   3.310   4.185   1.952  0.0177 -0.3741 -0.0980
 4711TIP3    H114097   3.404   4.203   1.961 -0.3567  1.3067  0.7174
 4711TIP3    H214098   3.273   4.266   1.916 -1.3995 -0.2726  1.4594
 4712TIP3   OH214099   4.288   4.138   4.244 -0.6054  0.2941 -0.0017
 4712TIP3    H114100   4.301   4.087   4.163 -0.0520  1.0592 -0.4013
 4712TIP3    H214101   4.243   4.077   4.303  0.3822 -0.7919 -0.3361
 4713TIP3   OH214102   1.024   6.060   3.385 -0.1767  0.5563 -0.0691
 4713TIP3    H114103   1.031   5.969   3.411  0.6293  0.1451 -1.6095
 4713TIP3    H214104   1.103   6.077   3.334 -0.3114  2.1209  0.1893
 4714TIP3   OH214105   3.363   1.937   0.632  0.1617 -0.3439 -0.2915
 4714TIP3    H114106   3.360   1.952   0.727 -0.3836 -1.0790 -0.1906
 4714TIP3    H214107   3.355   1.842   0.622 -1.2569 -0.1524 -1.1343
 4715TIP3   OH214108   1.055   0.998   0.976  0.1889 -0.2920  0.3847
 4715TIP3    H114109   1.048   1.000   0.880  0.3272 -1.0766  0.3494
 4715TIP3    H214110   0.971   0.965   1.006  0.0990  0.0786  0.5464
 4716TIP3   OH214111   0.406   3.903   1.143 -0.4157 -0.2141 -0.0134
 4716TIP3    H114112   0.341   3.843   1.179 -0.5457  0.7492  1.4595
 4716TIP3    H214113   0.483   3.891   1.198 -0.5538  1.1629  0.5219
 4717TIP3   OH214114   6.318   6.507   2.123  0.3057 -0.3638 -0.1781
 4717TIP3    H114115   6.355   6.536   2.206 -0.4305 -0.1112  0.0695
 4717TIP3    H214116   6.331   6.412   2.123  0.4325 -0.3464  0.1647
 4718TIP3   OH214117   1.073   4.596   1.937 -0.2485  0.5825  0.0552
 4718TIP3    H114118   1.030   4.621   2.018  0.4915  1.6864  0.1416
 4718TIP3    H214119   1.036   4.656   1.871  1.5570  2.0109  0.2585
 4719TIP3   OH214120   4.823   5.514   4.842  0.5279 -0.0006  0.0504
 4719TIP3    H114121   4.730   5.503   4.866  0.8545 -1.3947  0.7776
 4719TIP3    H214122   4.852   5.588   4.895 -0.2691  0.7270 -0.5014
 4720TIP3   OH214123   1.917   5.510   2.983  0.3627  0.1245  0.3460
 4720TIP3    H114124   1.852   5.440   2.988  0.0413  0.4672  1.2080
 4720TIP3    H214125   1.937   5.518   2.890 -1.1783  0.3200  0.0133
 4721TIP3   OH214126   2.607   2.553   2.309  0.4118  0.1515  0.0199
 4721TIP3    H114127   2.653   2.554   2.226  0.4394  1.8136  0.0249
 4721TIP3    H214128   2.543   2.482   2.301  0.7476 -0.0179 -1.2274
 4722TIP3   OH214129   2.684   0.465   2.909 -0.0843 -0.3640 -0.6030
 4722TIP3    H114130   2.697   0.544   2.858 -1.2919  0.7065  0.6447
 4722TIP3    H214131   2.647   0.402   2.848 -0.2234  0.4332 -1.3538
 4723TIP3   OH214132   7.221   5.470   4.286  0.0687 -0.0323 -0.0363
 4723TIP3    H114133   7.169   5.543   4.252  0.8016  0.3666 -0.3256
 4723TIP3    H214134   7.157   5.415   4.331 -1.0742 -0.8460 -2.4478
 4724TIP3   OH214135   5.921   3.060   2.085  0.0013 -0.2450  0.5024
 4724TIP3    H114136   6.007   3.097   2.104 -0.7798  1.5985  0.6455
 4724TIP3    H214137   5.919   2.977   2.133  1.1226  0.4151  1.7407
 4725TIP3   OH214138   3.466   3.199   3.244  0.2148  0.2892 -0.1872
 4725TIP3    H114139   3.375   3.194   3.216  1.0520  1.5233 -3.5903
 4725TIP3    H214140   3.466   3.264   3.314 -1.4213  0.8088 -0.6233
 4726TIP3   OH214141   0.352   3.172   4.684  0.7796  0.3345  0.4513
 4726TIP3    H114142   0.272   3.122   4.664  0.7014  1.5019 -2.8128
 4726TIP3    H214143   0.321   3.245   4.738 -0.1924  0.1944  0.1146
 4727TIP3   OH214144   2.034   3.973   5.798  0.6071 -0.0035  0.7652
 4727TIP3    H114145   1.952   3.939   5.763  0.9427  0.7822 -0.9110
 4727TIP3    H214146   2.007   4.028   5.872 -0.4513  0.5947 -0.0206
 4728TIP3   OH214147   3.784   1.393   5.115  0.3837 -0.8910 -0.1002
 4728TIP3    H114148   3.877   1.393   5.137  0.2144  2.2210  1.1282
 4728TIP3    H214149   3.744   1.337   5.181  0.8982  1.7792  2.7269
 4729TIP3   OH214150   6.911   5.384   0.899 -0.0784 -0.2010  0.1125
 4729TIP3    H114151   6.848   5.456   0.904 -0.2669 -0.3046 -0.5858
 4729TIP3    H214152   6.961   5.390   0.980 -0.7204  0.1332  0.4909
 4730TIP3   OH214153   0.628   2.086   0.526 -0.3646  0.7362 -0.5523
 4730TIP3    H114154   0.614   2.163   0.581  2.2556 -0.0901  1.4869
 4730TIP3    H214155   0.679   2.118   0.452  0.0742  1.0889 -0.0986
 4731TIP3   OH214156   4.076   1.314   1.354 -0.1657  0.0544  0.0030
 4731TIP3    H114157   4.170   1.332   1.348  0.5074 -1.6233  2.9848
 4731TIP3    H214158   4.063   1.237   1.298  0.0873  0.6952 -0.9443
 4732TIP3   OH214159   5.645   6.329   3.925  0.3187  0.1499  0.8325
 4732TIP3    H114160   5.639   6.273   4.002 -1.6309  1.5830  1.8336
 4732TIP3    H214161   5.680   6.273   3.856  0.2001 -1.7449  2.2455
 4733TIP3   OH214162   5.430   1.350   1.341 -0.5481  0.3399 -0.0363
 4733TIP3    H114163   5.499   1.409   1.370 -0.9857  0.4823  0.7350
 4733TIP3    H214164   5.388   1.396   1.268  0.7096 -0.1222 -1.0874
 4734TIP3   OH214165   1.721   6.454   4.688 -0.2416 -0.1192  0.1148
 4734TIP3    H114166   1.644   6.416   4.731 -0.8730  1.6874  0.6999
 4734TIP3    H214167   1.771   6.494   4.759  0.5212 -0.0770 -0.4351
 4735TIP3   OH214168   6.162   1.768   4.930  0.3574  0.2333  0.4503
 4735TIP3    H114169   6.092   1.775   4.866 -0.0100  0.4653  0.8710
 4735TIP3    H214170   6.164   1.675   4.953  0.8085  0.0712 -0.2457
 4736TIP3   OH214171   2.916   0.266   2.896  0.3176  0.4672 -0.2056
 4736TIP3    H114172   2.943   0.327   2.827  0.0741  0.3157 -0.4378
 4736TIP3    H214173   2.953   0.182   2.869  0.8858  0.5653  0.2566
 4737TIP3   OH214174   1.834   0.770   3.867  0.4267  0.0721 -0.6837
 4737TIP3    H114175   1.784   0.688   3.868 -1.8781  1.3695 -0.8577
 4737TIP3    H214176   1.872   0.775   3.955 -0.7946 -0.4340 -0.0908
 4738TIP3   OH214177   2.376   3.347   5.881 -0.4039 -0.2762 -0.0441
 4738TIP3    H114178   2.297   3.378   5.835  0.2485  0.4634 -0.6933
 4738TIP3    H214179   2.442   3.414   5.863  1.2157 -2.2333 -1.9215
 4739TIP3   OH214180   3.619   5.161   1.580  0.3934 -0.8458 -0.4626
 4739TIP3    H114181   3.679   5.228   1.548  0.6831 -1.3322 -0.9315
 4739TIP3    H214182   3.607   5.183   1.673  1.8415 -1.1510 -0.1808
 4740TIP3   OH214183   0.127   4.456   2.546  0.1094  0.2061  0.1842
 4740TIP3    H114184   0.171   4.528   2.592 -0.3285  0.1980  0.6298
 4740TIP3    H214185   0.198   4.408   2.503  0.7697 -0.8199  2.2909
 4741TIP3   OH214186   4.554   4.054   4.289  0.4179  0.3064 -0.3790
 4741TIP3    H114187   4.599   4.112   4.228 -0.3845  1.2836 -0.0793
 4741TIP3    H214188   4.461   4.069   4.272  0.1702  0.7802  1.2220
 4742TIP3   OH214189   6.830   4.207   2.234 -0.1176 -0.8885  0.0085
 4742TIP3    H114190   6.895   4.273   2.255 -0.4631 -0.8510  1.0286
 4742TIP3    H214191   6.753   4.256   2.207  0.2114 -0.9295 -1.0504
 4743TIP3   OH214192   6.592   2.173   3.795 -0.8807 -0.4029  0.2985
 4743TIP3    H114193   6.577   2.266   3.778 -3.6950 -0.9408 -0.6842
 4743TIP3    H214194   6.598   2.133   3.709  0.4770 -1.1332  0.7118
 4744TIP3   OH214195   6.508   1.796   3.503  0.8370 -0.4143 -0.5660
 4744TIP3    H114196   6.507   1.702   3.488  0.6340 -0.7068  1.1515
 4744TIP3    H214197   6.417   1.819   3.520  1.0066 -0.0490 -0.1493
 4745TIP3   OH214198   2.032   0.019   1.009  0.2459  0.1354 -0.1322
 4745TIP3    H114199   1.982  -0.006   0.932 -0.1383 -1.4835  0.6011
 4745TIP3    H214200   1.989   0.099   1.040 -1.5809 -0.9081  0.1623
 4746TIP3   OH214201   2.247   0.465   5.475 -0.4809 -0.4041  0.1887
 4746TIP3    H114202   2.179   0.525   5.443 -2.1048 -2.3424 -0.2155
 4746TIP3    H214203   2.308   0.457   5.402 -0.8468 -0.0916 -0.1615
 4747TIP3   OH214204   6.629   1.735   0.596  0.0253 -0.7665  0.0419
 4747TIP3    H114205   6.638   1.644   0.624 -2.4080 -0.8203  0.9060
 4747TIP3    H214206   6.561   1.771   0.653 -0.4897  1.0117 -1.5866
 4748TIP3   OH214207   4.208   2.026   0.303  0.1491  0.0967  0.3284
 4748TIP3    H114208   4.280   2.013   0.242  2.7640 -1.1070  3.4123
 4748TIP3    H214209   4.168   1.940   0.311 -0.0006  0.1858  0.5444
 4749TIP3   OH214210   2.008   4.884   3.778  0.2926 -0.2535  0.1074
 4749TIP3    H114211   2.083   4.881   3.720  0.3534 -0.0497  0.1756
 4749TIP3    H214212   2.045   4.897   3.865  0.2185 -0.8066  0.2268
 4750TIP3   OH214213   1.765   4.721   1.288 -0.6608  0.6057  0.3257
 4750TIP3    H114214   1.720   4.637   1.278 -1.5180  1.0834  0.0853
 4750TIP3    H214215   1.858   4.698   1.290 -0.6290 -0.1107 -2.9834
 4751TIP3   OH214216   4.214   2.970   3.566  0.5780 -0.4938 -0.8627
 4751TIP3    H114217   4.191   2.945   3.655  2.3396 -2.3209 -0.8562
 4751TIP3    H214218   4.262   3.053   3.575 -0.0414 -0.1948 -0.2434
 4752TIP3   OH214219   3.693   3.444   0.830 -0.0008  0.1147  0.1848
 4752TIP3    H114220   3.627   3.473   0.768  0.1337  0.7740  0.3409
 4752TIP3    H214221   3.673   3.352   0.846 -1.5399  0.5854  1.0712
 4753TIP3   OH214222   0.159   0.410   0.818 -0.0517 -0.5338 -0.4460
 4753TIP3    H114223   0.220   0.471   0.777  0.0764 -0.0586  0.4268
 4753TIP3    H214224   0.099   0.386   0.748  0.0986  0.3344 -0.8911
 4754TIP3   OH214225   0.171   6.548   3.725 -0.5802  0.1891  0.2187
 4754TIP3    H114226   0.262   6.519   3.731 -0.6849 -0.3779 -0.7695
 4754TIP3    H214227   0.159   6.570   3.633 -1.2393  0.9759  0.4763
 4755TIP3   OH214228   1.796   2.053   2.542  0.2640  0.1713  0.2404
 4755TIP3    H114229   1.868   2.006   2.500  0.0592 -0.2514  0.3534
 4755TIP3    H214230   1.791   2.137   2.496  1.0088  0.3203  0.4216
 4756TIP3   OH214231   3.777   1.281   4.055 -0.3927 -0.3367 -0.7053
 4756TIP3    H114232   3.800   1.198   4.095 -0.4038 -0.0706 -0.1394
 4756TIP3    H214233   3.693   1.265   4.012 -1.4216 -0.0933  1.1212
 4757TIP3   OH214234   6.320   2.780   5.046  0.2526  0.2337 -0.5323
 4757TIP3    H114235   6.257   2.815   4.983  0.8892 -0.6411 -1.6961
 4757TIP3    H214236   6.351   2.857   5.094  0.2350  1.0318 -1.7431
 4758TIP3   OH214237   4.812   0.707   5.442 -0.5589 -0.2351 -0.0958
 4758TIP3    H114238   4.743   0.647   5.472  1.0250 -1.2788  1.6506
 4758TIP3    H214239   4.864   0.654   5.381  0.8123 -0.6762  1.4091
 4759TIP3   OH214240   3.990   3.131   5.690  0.4436  0.3997  0.2926
 4759TIP3    H114241   4.081   3.161   5.698  0.3830  0.6365  0.1238
 4759TIP3    H214242   3.997   3.040   5.663  0.6373 -0.0589  1.8035
 4760TIP3   OH214243   6.007   0.717   0.909  0.0936  0.1085 -0.0177
 4760TIP3    H114244   6.087   0.733   0.958  0.5213 -1.0956 -0.2969
 4760TIP3    H214245   5.941   0.702   0.977  0.0884  1.0665  0.2123
 4761TIP3   OH214246   4.114   2.588   2.695 -0.4521  0.0955  0.0187
 4761TIP3    H114247   4.182   2.600   2.762 -1.1789  0.9634  0.6203
 4761TIP3    H214248   4.034   2.572   2.744 -1.0074  0.7950 -0.6405
 4762TIP3   OH214249   0.623   2.067   3.299  0.5486 -0.0868  0.3973
 4762TIP3    H114250   0.555   2.045   3.363 -1.4309 -0.3252 -1.6903
 4762TIP3    H214251   0.665   2.145   3.336 -1.5698  0.7224  1.2662
 4763TIP3   OH214252   0.058   3.431   5.699  0.2369 -0.3144 -0.9443
 4763TIP3    H114253  -0.013   3.431   5.635 -0.2252 -1.3688 -0.4477
 4763TIP3    H214254   0.126   3.485   5.659 -0.9359  0.9615 -1.3135
 4764TIP3   OH214255   2.294   0.323   4.044 -0.3939 -0.3319  0.0771
 4764TIP3    H114256   2.293   0.404   4.096 -0.6891 -1.6172  2.2180
 4764TIP3    H214257   2.223   0.334   3.981 -0.9724  0.7484  0.8833
 4765TIP3   OH214258   4.282   0.986   3.331  0.0242 -0.2293  0.1884
 4765TIP3    H114259   4.325   0.986   3.246  0.9580  0.1482  0.6391
 4765TIP3    H214260   4.354   0.991   3.394 -0.6116 -1.4262  1.0331
 4766TIP3   OH214261   2.479   1.704   2.059  0.4518 -0.1040  0.1826
 4766TIP3    H114262   2.506   1.612   2.067  2.9894  0.3981 -1.2710
 4766TIP3    H214263   2.525   1.748   2.131  1.0940  0.3208 -0.4715
 4767TIP3   OH214264  -0.007   1.455   0.049 -0.2175  0.8559  0.3802
 4767TIP3    H114265   0.062   1.421   0.106  0.4443 -0.7676 -1.3001
 4767TIP3    H214266  -0.004   1.550   0.062  1.3264  0.6877  1.4585
 4768TIP3   OH214267   5.321   1.273   2.157 -0.2492  0.0206 -0.0717
 4768TIP3    H114268   5.239   1.227   2.136 -1.5854  1.7302  1.1085
 4768TIP3    H214269   5.324   1.345   2.094  1.7299 -1.4377 -1.7859
 4769TIP3   OH214270   3.851   6.096   1.077  0.0288  0.2608 -0.0836
 4769TIP3    H114271   3.766   6.135   1.058 -0.1975  0.9259  2.0503
 4769TIP3    H214272   3.911   6.138   1.015 -0.8825  1.1444 -0.3984
 4770TIP3   OH214273   0.038   5.178   2.365 -0.1454  0.0724  0.7327
 4770TIP3    H114274   0.092   5.106   2.331  0.4815  0.6511  0.4857
 4770TIP3    H214275   0.056   5.251   2.306 -1.3658  0.2164  0.5237
 4771TIP3   OH214276   6.173   2.993   0.216 -0.6372  0.2995  0.1851
 4771TIP3    H114277   6.086   2.961   0.192 -0.4497 -0.2057  0.1604
 4771TIP3    H214278   6.232   2.924   0.186 -0.3464 -0.0830  1.5883
 4772TIP3   OH214279   5.704   5.523   2.802 -0.1607  0.0119 -0.2063
 4772TIP3    H114280   5.726   5.432   2.824 -0.3806  0.1638  0.6851
 4772TIP3    H214281   5.608   5.526   2.810 -0.3110 -0.0657 -1.7736
 4773TIP3   OH214282   4.907   3.411   2.656  0.0897  0.2328 -0.3473
 4773TIP3    H114283   4.913   3.491   2.708  0.9701 -1.1346  1.7648
 4773TIP3    H214284   4.824   3.420   2.609  0.0079  2.2229  0.0808
 4774TIP3   OH214285   1.129   1.499   4.447 -0.5018 -0.1621  0.2055
 4774TIP3    H114286   1.145   1.522   4.539  0.0216  1.4236 -0.2398
 4774TIP3    H214287   1.208   1.527   4.401 -0.4061 -1.7014 -0.6417
 4775TIP3   OH214288   0.845   3.261   4.621 -0.6005  0.0957  0.0727
 4775TIP3    H114289   0.841   3.349   4.658 -1.3101 -0.4451  1.3426
 4775TIP3    H214290   0.772   3.215   4.662  0.5751 -1.4773  0.4690
 4776TIP3   OH214291   5.252   6.056   3.887  0.1420 -0.2711  0.1972
 4776TIP3    H114292   5.279   6.105   3.965  1.2369 -0.5151 -0.0049
 4776TIP3    H214293   5.295   5.970   3.897 -1.0327 -0.8913  0.1149
 4777TIP3   OH214294   5.921   0.976   4.893 -0.5408 -0.3560 -0.0907
 4777TIP3    H114295   5.920   0.893   4.941  0.1614  0.6304  1.7591
 4777TIP3    H214296   5.944   0.953   4.804  0.0755 -2.1016  0.4862
 4778TIP3   OH214297   2.150   5.894   2.328 -0.1592 -0.5406 -0.2055
 4778TIP3    H114298   2.192   5.965   2.280 -2.7361  1.1918 -0.1041
 4778TIP3    H214299   2.117   5.835   2.260 -0.2511 -0.2621 -0.4051
 4779TIP3   OH214300   2.558   4.527   2.527  0.2132  0.5272 -0.5075
 4779TIP3    H114301   2.491   4.495   2.466  0.5063  0.9391 -1.0587
 4779TIP3    H214302   2.512   4.594   2.579  0.4629  1.6099 -1.6342
 4780TIP3   OH214303   0.822   4.322   2.344 -0.2411  0.0429  0.1666
 4780TIP3    H114304   0.913   4.338   2.369 -0.4812  0.0215  1.0878
 4780TIP3    H214305   0.826   4.241   2.293  0.4064  0.6910 -0.8464
 4781TIP3   OH214306   1.089   4.978   3.520  0.1265 -0.3329  0.2030
 4781TIP3    H114307   1.138   5.043   3.571 -1.4963  0.0002  1.4023
 4781TIP3    H214308   1.157   4.926   3.477  1.5353  0.1447  1.7368
 4782TIP3   OH214309   2.924   2.839   3.664  0.8633 -0.2279  0.2929
 4782TIP3    H114310   2.848   2.886   3.628  1.6275  1.4126  0.7352
 4782TIP3    H214311   2.993   2.905   3.669  3.0899 -2.1272 -2.2028
 4783TIP3   OH214312   2.688   5.506   0.905  0.6462 -0.3129 -0.8020
 4783TIP3    H114313   2.600   5.543   0.907  0.5887 -0.4273 -1.0610
 4783TIP3    H214314   2.735   5.561   0.842  1.1867  0.6611  0.4260
 4784TIP3   OH214315   4.208   2.886   2.870 -0.0160  0.0218  0.4097
 4784TIP3    H114316   4.194   2.922   2.957  0.8105 -0.9001  0.9371
 4784TIP3    H214317   4.154   2.941   2.813 -2.4286 -0.7528  1.7590
 4785TIP3   OH214318   0.079   0.049   3.156  0.3499  0.0046 -0.2170
 4785TIP3    H114319   0.093  -0.004   3.235  0.1615 -0.8583 -0.7539
 4785TIP3    H214320   0.090   0.139   3.186  0.6885 -0.3318  0.7131
 4786TIP3   OH214321   2.746   1.853   1.040 -0.1237  0.8357 -1.0276
 4786TIP3    H114322   2.667   1.875   1.090 -0.2610  1.0734 -1.3460
 4786TIP3    H214323   2.737   1.902   0.959  0.3423  0.8387 -1.0780
 4787TIP3   OH214324   4.183   6.814   4.031  0.3040  0.3518  0.4994
 4787TIP3    H114325   4.232   6.780   3.955  0.0634  1.8719 -0.3792
 4787TIP3    H214326   4.098   6.772   4.024  1.3443 -2.2137  1.9632
 4788TIP3   OH214327   6.989   0.677   4.446 -0.1453 -0.7691  0.1357
 4788TIP3    H114328   6.984   0.596   4.394 -1.2729 -1.3992  1.1613
 4788TIP3    H214329   6.913   0.672   4.505  0.9640  0.0029  1.7013
 4789TIP3   OH214330   3.238   2.313   1.838 -0.2088  0.0439  0.4643
 4789TIP3    H114331   3.325   2.311   1.879 -0.4268 -1.2727  0.8916
 4789TIP3    H214332   3.184   2.363   1.899 -0.1745 -0.6601  1.0827
 4790TIP3   OH214333   4.985   4.265   0.673 -0.5934 -0.0687  0.3230
 4790TIP3    H114334   5.053   4.220   0.623  0.9671  0.2589  2.0271
 4790TIP3    H214335   4.935   4.194   0.714 -1.3364 -0.3144 -0.9752
 4791TIP3   OH214336   0.988   3.276   5.604 -0.1887 -0.2162 -0.0779
 4791TIP3    H114337   1.012   3.368   5.614 -0.5113 -0.1331 -0.0697
 4791TIP3    H214338   0.987   3.241   5.693  1.3753 -0.5997 -0.1762
 4792TIP3   OH214339   4.005   5.101   0.350 -0.1290 -0.8428 -0.2862
 4792TIP3    H114340   3.926   5.153   0.335 -0.5392 -0.8313  1.7462
 4792TIP3    H214341   4.063   5.158   0.400  0.5781 -1.3575 -0.4966
 4793TIP3   OH214342   2.935   3.473   0.783  0.2183 -0.0282 -0.3198
 4793TIP3    H114343   2.973   3.556   0.753  1.0340 -0.1349  0.3907
 4793TIP3    H214344   2.851   3.498   0.822 -0.8273  0.1312 -2.5205
 4794TIP3   OH214345   4.519   4.323   5.051  0.0570 -0.5458  0.9750
 4794TIP3    H114346   4.485   4.341   5.139 -2.2839  0.4948 -0.0682
 4794TIP3    H214347   4.602   4.370   5.047 -2.0694  3.6858  1.0765
 4795TIP3   OH214348   4.618   6.006   2.202 -0.6517 -0.3322 -0.0618
 4795TIP3    H114349   4.546   6.066   2.222 -0.1997 -0.1936  1.2219
 4795TIP3    H214350   4.688   6.031   2.262 -0.9778 -3.1373  1.6777
 4796TIP3   OH214351   6.374   4.026   4.894 -0.0239  0.0867 -0.4040
 4796TIP3    H114352   6.457   4.073   4.896 -0.0567  0.1291  0.2386
 4796TIP3    H214353   6.370   3.981   4.979  0.1449 -1.3033 -1.0988
 4797TIP3   OH214354   5.146   0.116   3.366  0.5731  0.2733 -0.3573
 4797TIP3    H114355   5.087   0.041   3.361  0.0535  0.6415  0.1281
 4797TIP3    H214356   5.097   0.183   3.414  1.3153  0.6522 -0.1037
 4798TIP3   OH214357   3.188   2.950   2.455  0.0161  0.1054  0.4592
 4798TIP3    H114358   3.260   3.008   2.431 -0.8617  0.1939 -2.2857
 4798TIP3    H214359   3.230   2.875   2.497  1.4207  1.3461  1.3700
 4799TIP3   OH214360   2.336   4.791   2.213  0.1171  0.7284 -0.0204
 4799TIP3    H114361   2.331   4.723   2.146  0.6309  0.5931  0.0696
 4799TIP3    H214362   2.303   4.749   2.293 -1.9150  1.3393 -0.5038
 4800TIP3   OH214363   0.669   0.640   3.460 -0.2605 -0.2816 -0.4603
 4800TIP3    H114364   0.634   0.557   3.493 -2.1228  0.2557 -0.9788
 4800TIP3    H214365   0.740   0.661   3.520 -0.9181 -1.3715  0.7609
 4801TIP3   OH214366   6.585   5.526   5.614  0.3926 -0.0485 -0.2697
 4801TIP3    H114367   6.506   5.491   5.655  0.0617 -0.1074 -0.9573
 4801TIP3    H214368   6.586   5.618   5.641  0.1001 -0.0497 -0.2494
 4802TIP3   OH214369   2.527   2.077   1.771 -0.5113  0.3165 -0.2888
 4802TIP3    H114370   2.510   2.152   1.828 -1.2145  0.3130 -0.4859
 4802TIP3    H214371   2.572   2.114   1.695  1.0296  0.2289  0.5435
 4803TIP3   OH214372   1.083   3.043   3.742 -0.3599  0.1289 -0.7601
 4803TIP3    H114373   1.064   3.078   3.829 -2.9732  1.1012 -1.6231
 4803TIP3    H214374   1.151   2.978   3.757  1.7434  2.6041  1.5173
 4804TIP3   OH214375   3.904   5.372   0.078 -0.0315 -0.4157 -1.2935
 4804TIP3    H114376   3.841   5.427   0.125  1.2172  0.2746 -0.3801
 4804TIP3    H214377   3.987   5.385   0.124  0.2642 -3.4131 -0.7355
 4805TIP3   OH214378   1.799   0.949   2.051  0.0820  0.0240  0.3908
 4805TIP3    H114379   1.852   0.872   2.069 -0.3710 -0.7946 -1.5314
 4805TIP3    H214380   1.797   0.955   1.955 -2.3262  0.6883  0.4192
 4806TIP3   OH214381   0.665   6.349   0.140 -0.1805 -0.3355  0.4820
 4806TIP3    H114382   0.702   6.325   0.224  1.2934 -0.7655 -0.2570
 4806TIP3    H214383   0.679   6.273   0.084 -1.4551 -0.1919 -0.0782
 4807TIP3   OH214384   0.299   6.499   2.636  0.5879  0.0929  0.7637
 4807TIP3    H114385   0.382   6.453   2.630  0.2999 -0.5345  1.4407
 4807TIP3    H214386   0.322   6.588   2.661  1.0955  0.1196  0.2247
 4808TIP3   OH214387   1.875   6.147   5.189 -0.1957  0.0330  0.0195
 4808TIP3    H114388   1.878   6.060   5.149  0.8106  0.3972 -0.7106
 4808TIP3    H214389   1.784   6.176   5.176 -0.3584 -0.6172 -0.3370
 4809TIP3   OH214390   4.321   3.381   1.012 -0.0428 -0.0523  0.3389
 4809TIP3    H114391   4.279   3.467   1.004 -2.4764 -1.2016 -0.1585
 4809TIP3    H214392   4.409   3.394   0.976 -0.7820  1.9101 -0.9494
 4810TIP3   OH214393   4.033   3.229   0.063 -0.1818 -0.1612 -0.1127
 4810TIP3    H114394   4.002   3.139   0.058  1.3133 -0.6990 -0.3101
 4810TIP3    H214395   3.999   3.271  -0.016  0.0464 -0.8709 -0.5932
 4811TIP3   OH214396   2.201   5.327   2.537  0.3610  0.1869  0.4355
 4811TIP3    H114397   2.244   5.404   2.573 -0.1909 -0.4951  2.7415
 4811TIP3    H214398   2.256   5.254   2.564  1.8207 -0.2557 -3.1601
 4812TIP3   OH214399   0.320   1.137   5.545 -0.1871  0.2578 -0.3300
 4812TIP3    H114400   0.233   1.098   5.550  0.4847 -1.4641 -1.0625
 4812TIP3    H214401   0.347   1.147   5.637 -0.9636  0.3317 -0.1070
 4813TIP3   OH214402   3.793   5.788   1.377 -0.3282 -0.5691 -0.0248
 4813TIP3    H114403   3.740   5.846   1.322 -2.2540 -1.8389  0.4011
 4813TIP3    H214404   3.740   5.709   1.387  0.5476 -0.9205  2.5529
 4814TIP3   OH214405   4.452   1.298   2.126  0.0639  0.3626 -0.0491
 4814TIP3    H114406   4.416   1.243   2.195  0.7754 -1.1160 -0.8078
 4814TIP3    H214407   4.524   1.247   2.089 -0.0464  1.2591 -1.6261
 4815TIP3   OH214408   0.079   6.190   0.655 -0.1148  0.0228  0.0466
 4815TIP3    H114409   0.030   6.211   0.734 -0.9810 -1.9379  0.0912
 4815TIP3    H214410   0.013   6.159   0.593  0.9299 -1.8593 -0.1907
 4816TIP3   OH214411   2.641   5.995   5.274 -0.3966  0.2402 -0.0022
 4816TIP3    H114412   2.635   6.090   5.283 -0.2007  0.1631  1.1046
 4816TIP3    H214413   2.559   5.970   5.231 -0.5261  0.8917 -0.1522
 4817TIP3   OH214414   2.352   5.727   1.789  0.3560 -0.2533 -0.6532
 4817TIP3    H114415   2.395   5.772   1.862  1.5023 -1.6455 -0.4294
 4817TIP3    H214416   2.391   5.766   1.711 -0.8598  1.2300 -0.5692
 4818TIP3   OH214417   5.179   1.778   1.831 -0.1309 -0.2748  0.1262
 4818TIP3    H114418   5.199   1.688   1.803 -0.2982 -0.3448  0.2357
 4818TIP3    H214419   5.110   1.768   1.896 -1.5453  0.0671 -1.2656
 4819TIP3   OH214420   0.838   6.681   0.468 -0.3913 -0.0519 -0.3407
 4819TIP3    H114421   0.822   6.587   0.457 -3.6260  0.3130  0.0642
 4819TIP3    H214422   0.828   6.696   0.562  2.4746  0.4293 -0.0393
 4820TIP3   OH214423   1.784   2.455   3.017  0.3191 -0.0842 -0.0740
 4820TIP3    H114424   1.854   2.517   3.038  0.1951 -0.1953  0.6983
 4820TIP3    H214425   1.704   2.508   3.017  0.2563 -0.1752  0.2456
 4821TIP3   OH214426   3.822   3.567   4.260  0.6182 -0.4524 -0.0480
 4821TIP3    H114427   3.805   3.573   4.166 -0.7312 -1.9394  0.0587
 4821TIP3    H214428   3.736   3.578   4.301  1.3067  1.0516  1.0977
 4822TIP3   OH214429   4.144   6.407   0.783 -0.0503 -0.3611  0.0769
 4822TIP3    H114430   4.178   6.419   0.872  0.1555 -0.3927  0.0043
 4822TIP3    H214431   4.222   6.388   0.730 -0.3678 -2.5290  0.2753
 4823TIP3   OH214432   4.281   6.748   0.409 -0.1112 -0.2646 -0.1530
 4823TIP3    H114433   4.342   6.679   0.385 -0.3751 -0.3770 -0.5153
 4823TIP3    H214434   4.332   6.808   0.464 -0.0633 -1.0935  0.7259
 4824TIP3   OH214435   4.027   6.456   1.401 -0.1140 -0.6266 -0.6950
 4824TIP3    H114436   3.943   6.431   1.364 -0.5568  0.7597 -0.6804
 4824TIP3    H214437   4.009   6.539   1.447  1.3802  0.0049 -1.2068
 4825TIP3   OH214438   3.859   3.133   3.307  0.1835  0.1483  0.7045
 4825TIP3    H114439   3.904   3.051   3.324 -1.1416 -1.8535 -3.9084
 4825TIP3    H214440   3.928   3.195   3.284  0.9915 -0.9836  0.0097
 4826TIP3   OH214441   3.677   5.551   3.519  0.0684 -0.2604 -0.4914
 4826TIP3    H114442   3.656   5.547   3.426 -2.4208 -0.0919 -0.0110
 4826TIP3    H214443   3.633   5.631   3.549 -0.9988 -1.4170  1.1901
 4827TIP3   OH214444   1.797   6.777   3.865 -0.0946  0.1019  0.0455
 4827TIP3    H114445   1.712   6.738   3.845 -0.2737  1.6822 -2.8860
 4827TIP3    H214446   1.860   6.717   3.827 -0.1724  0.7458 -1.1651
 4828TIP3   OH214447   3.309   0.504   1.413  0.3460 -0.2793  0.0315
 4828TIP3    H114448   3.220   0.534   1.428  0.9556  2.9170 -1.8758
 4828TIP3    H214449   3.356   0.525   1.494 -0.7213 -2.9798  1.4761
 4829TIP3   OH214450   5.732   5.427   1.400  0.1613  0.4143  0.2061
 4829TIP3    H114451   5.757   5.411   1.491  0.1916  0.0860  0.1391
 4829TIP3    H214452   5.782   5.505   1.375  1.1205 -0.2318  0.0727
 4830TIP3   OH214453   3.080   5.759   0.608  0.0298 -0.0266 -0.1492
 4830TIP3    H114454   3.173   5.753   0.626 -0.1961  0.5761  1.3457
 4830TIP3    H214455   3.074   5.757   0.512  1.6156  0.5974 -0.2880
 4831TIP3   OH214456   6.323   0.034   1.948 -0.0572 -0.5725 -0.5900
 4831TIP3    H114457   6.296   0.083   1.871 -0.1971  0.6174  0.1920
 4831TIP3    H214458   6.418   0.048   1.954 -0.2289  0.3517  0.1275
 4832TIP3   OH214459   5.654   0.254   0.934  0.9165 -0.5511  0.2190
 4832TIP3    H114460   5.647   0.163   0.963  0.1389 -0.4861  0.2335
 4832TIP3    H214461   5.649   0.249   0.839  0.2414 -0.4729  0.2449
 4833TIP3   OH214462   0.670   5.939   0.989 -0.2608  0.3772  0.4975
 4833TIP3    H114463   0.614   5.990   1.048 -0.7387 -0.6698  0.9704
 4833TIP3    H214464   0.753   5.987   0.989 -1.1476  1.9734 -0.2587
 4834TIP3   OH214465   3.231   5.796   5.253  0.4183 -0.4313 -0.2815
 4834TIP3    H114466   3.246   5.705   5.228  1.1383 -0.3237 -0.2345
 4834TIP3    H214467   3.157   5.792   5.314  0.8012 -1.0431  0.1479
 4835TIP3   OH214468   1.993   5.995   0.280  0.1134 -0.3604 -0.5003
 4835TIP3    H114469   1.914   6.045   0.298 -0.5639 -0.9898 -1.5897
 4835TIP3    H214470   2.022   5.963   0.366 -0.5522  0.2505 -0.0407
 4836TIP3   OH214471   1.638   4.230   5.526  0.3642  0.7851  0.1390
 4836TIP3    H114472   1.620   4.324   5.532  0.7903  0.9178 -0.5113
 4836TIP3    H214473   1.721   4.219   5.571  0.2449  0.7011  0.3363
 4837TIP3   OH214474   1.218   3.664   3.813  0.0610 -0.1641  0.2571
 4837TIP3    H114475   1.158   3.588   3.817 -0.8023  0.4191 -1.0030
 4837TIP3    H214476   1.249   3.665   3.723 -0.4101  1.3234  0.0924
 4838TIP3   OH214477   1.359   2.073   2.051  0.2286 -0.5233 -0.1045
 4838TIP3    H114478   1.440   2.029   2.076  1.0075  0.4608 -0.8424
 4838TIP3    H214479   1.349   2.053   1.958 -0.0989 -0.1941 -0.1389
 4839TIP3   OH214480   3.193   3.286   0.292 -0.4901 -0.6048 -0.8665
 4839TIP3    H114481   3.267   3.308   0.236  0.3420 -0.3287  0.2911
 4839TIP3    H214482   3.214   3.200   0.328 -0.4125 -0.2652 -0.0626
 4840TIP3   OH214483   6.517   0.467   3.275 -0.0371  0.9636 -0.1272
 4840TIP3    H114484   6.568   0.429   3.204 -0.2784 -1.1064  0.7193
 4840TIP3    H214485   6.575   0.532   3.315  1.2533 -0.0301 -0.3180
 4841TIP3   OH214486   1.810   2.737   2.874 -0.0222 -1.0238 -0.2354
 4841TIP3    H114487   1.890   2.742   2.821  0.4731 -0.3831  0.5602
 4841TIP3    H214488   1.841   2.737   2.964 -0.9813  2.1683  0.2023
 4842TIP3   OH214489   2.590   4.350   5.409 -0.1965  0.1845 -0.0562
 4842TIP3    H114490   2.602   4.431   5.359 -0.5610  0.8610  0.9195
 4842TIP3    H214491   2.678   4.316   5.422  0.0122  0.7419  0.0184
 4843TIP3   OH214492   1.231   6.198   4.666  0.3708 -0.1645 -0.2632
 4843TIP3    H114493   1.195   6.286   4.658  3.2297  1.5010  2.6141
 4843TIP3    H214494   1.288   6.189   4.589  0.5171  0.7947 -0.2899
 4844TIP3   OH214495   3.993   6.078   0.421  0.5939 -0.2434  0.3582
 4844TIP3    H114496   4.087   6.068   0.436  0.7250  1.5348  1.0490
 4844TIP3    H214497   3.965   6.138   0.490 -0.8252  0.1850 -0.5533
 4845TIP3   OH214498   4.447   2.817   3.575 -0.5508  0.3277  0.5901
 4845TIP3    H114499   4.357   2.842   3.552 -0.8902  0.1317  1.6385
 4845TIP3    H214500   4.453   2.724   3.552 -0.7390  0.2520  0.8314
 4846TIP3   OH214501   4.602   5.785   2.405  0.6753 -0.1884  0.3834
 4846TIP3    H114502   4.549   5.796   2.326  1.1379 -0.5363  0.0182
 4846TIP3    H214503   4.685   5.749   2.373  1.3970  0.9891  0.8650
 4847TIP3   OH214504   3.770   3.303   5.681 -0.1360  0.1195  0.3109
 4847TIP3    H114505   3.772   3.349   5.597  0.0485 -1.1544 -0.3950
 4847TIP3    H214506   3.847   3.246   5.679 -0.6405 -0.6024  0.9512
 4848TIP3   OH214507   3.934   4.753   4.302  0.8468  0.0977 -0.1637
 4848TIP3    H114508   3.902   4.675   4.257  0.1484  0.1172  0.2824
 4848TIP3    H214509   3.861   4.815   4.298  1.0996  0.4274  0.2095
 4849TIP3   OH214510   0.264   1.684   3.754 -0.0969 -0.1461 -0.4575
 4849TIP3    H114511   0.195   1.633   3.712 -1.2003  0.2633  0.7732
 4849TIP3    H214512   0.309   1.728   3.682 -1.0960 -0.4687 -1.3032
 4850TIP3   OH214513   2.355   4.234   5.585  0.3449 -0.0295 -0.1950
 4850TIP3    H114514   2.431   4.268   5.538 -0.3722  2.3925  0.2537
 4850TIP3    H214515   2.353   4.284   5.667 -1.5359 -0.2303 -0.0702
 4851TIP3   OH214516   5.529   6.419   3.414 -0.4916 -0.1587 -0.4725
 4851TIP3    H114517   5.460   6.405   3.479  1.0607 -0.4731  1.1772
 4851TIP3    H214518   5.571   6.334   3.405 -0.0237  0.1323 -1.0978
 4852TIP3   OH214519   2.425   4.900   5.014  0.1728  0.0180 -0.1103
 4852TIP3    H114520   2.418   4.810   5.047  1.4861 -0.6921 -1.6404
 4852TIP3    H214521   2.377   4.952   5.078  0.3878 -1.6075  1.4650
 4853TIP3   OH214522   0.643   1.512   5.485  0.0326  0.3924 -0.1621
 4853TIP3    H114523   0.594   1.436   5.454  0.0028  0.2638  0.2025
 4853TIP3    H214524   0.611   1.584   5.431 -0.6715  0.3426  0.1817
 4854TIP3   OH214525   3.238   0.754   5.767 -0.3417 -0.0585  0.4705
 4854TIP3    H114526   3.162   0.813   5.769  0.0217  0.4948 -1.0588
 4854TIP3    H214527   3.225   0.696   5.842 -1.9639  0.4147  0.5906
 4855TIP3   OH214528   3.065   6.297   0.252 -0.1456  0.3919  0.0639
 4855TIP3    H114529   3.111   6.214   0.266  0.7923  0.8699 -0.1217
 4855TIP3    H214530   2.990   6.293   0.312  0.7999  0.1134  1.2646
 4856TIP3   OH214531   6.787   4.602   2.876  0.0095  0.2089 -0.2849
 4856TIP3    H114532   6.807   4.676   2.933  1.5105 -0.0664 -0.4120
 4856TIP3    H214533   6.872   4.564   2.855 -0.6077 -0.4881 -1.6651
 4857TIP3   OH214534   1.482   2.675   2.807 -0.6532 -0.3768  0.3818
 4857TIP3    H114535   1.572   2.649   2.830 -0.4417 -1.9239 -1.8318
 4857TIP3    H214536   1.469   2.758   2.852  1.6219 -0.4712  1.3675
 4858TIP3   OH214537   5.993   4.332   3.836 -0.1269  0.0141 -0.5123
 4858TIP3    H114538   5.908   4.322   3.879 -0.4620  2.5531 -0.4510
 4858TIP3    H214539   6.055   4.292   3.897 -0.9762  0.6369  0.7977
 4859TIP3   OH214540   4.554   4.665   1.016 -0.4265  0.3161 -0.3425
 4859TIP3    H114541   4.575   4.572   1.029 -2.6354  0.0020  1.8723
 4859TIP3    H214542   4.638   4.710   1.028  0.1658 -1.1942  2.1467
 4860TIP3   OH214543   0.644   1.698   5.070 -0.4390  0.0075  0.2348
 4860TIP3    H114544   0.668   1.701   4.977 -1.0876 -0.2716  0.0550
 4860TIP3    H214545   0.640   1.789   5.097  2.8030  0.1203  0.8095
 4861TIP3   OH214546   5.057   6.034   2.357 -0.5883 -0.3068 -0.1505
 4861TIP3    H114547   5.152   6.049   2.360 -0.7651  0.6595  1.5314
 4861TIP3    H214548   5.043   5.954   2.407 -0.9643  1.5715  2.9703
 4862TIP3   OH214549   1.490   1.336   4.014  0.1988 -0.1089 -0.1844
 4862TIP3    H114550   1.575   1.309   3.980  0.2113 -0.1190 -0.1451
 4862TIP3    H214551   1.510   1.403   4.079  0.0534  1.7330 -1.9462
 4863TIP3   OH214552   6.144   3.484   5.249  0.0265  0.0521 -0.0575
 4863TIP3    H114553   6.092   3.490   5.169  1.3778  1.2456 -0.8943
 4863TIP3    H214554   6.081   3.496   5.319 -0.7732  2.1444 -1.0502
 4864TIP3   OH214555   0.431   4.451   0.032 -0.6096 -0.0767  0.2635
 4864TIP3    H114556   0.517   4.422   0.062 -1.0854 -0.7867  0.9802
 4864TIP3    H214557   0.432   4.546   0.044 -0.6030 -0.2747  2.0992
 4865TIP3   OH214558   0.538   3.457   4.686 -0.3802 -0.6073  1.1637
 4865TIP3    H114559   0.532   3.463   4.591  1.5906  2.1133  1.0938
 4865TIP3    H214560   0.447   3.451   4.715 -1.0118 -1.7255 -0.8541
 4866TIP3   OH214561   4.001   1.515   0.127 -0.2359  0.4786 -0.5466
 4866TIP3    H114562   4.078   1.569   0.141  0.6927 -0.6878 -1.0217
 4866TIP3    H214563   4.023   1.459   0.053 -1.2625 -0.3603 -0.2506
 4867TIP3   OH214564   4.871   1.408   2.529  0.1456 -0.0155  0.5526
 4867TIP3    H114565   4.930   1.483   2.530  0.9154 -0.6162  0.7761
 4867TIP3    H214566   4.905   1.352   2.459 -1.0674  0.3386 -0.3541
 4868TIP3   OH214567   2.332   3.666   0.689  0.6433 -0.6322  0.7017
 4868TIP3    H114568   2.355   3.673   0.782  0.4864  0.0817  0.6971
 4868TIP3    H214569   2.415   3.681   0.643  0.6364 -0.5409  0.7190
 4869TIP3   OH214570   6.076   3.003   3.098 -0.2379  0.4171  0.4658
 4869TIP3    H114571   6.088   2.980   3.006 -1.7707  2.3573 -0.2841
 4869TIP3    H214572   6.028   2.929   3.136 -1.6348  0.5873 -0.8929
 4870TIP3   OH214573   1.068   4.215   1.640  0.4268 -0.1009 -0.2983
 4870TIP3    H114574   1.116   4.138   1.612  0.4673 -0.6449  1.1656
 4870TIP3    H214575   1.083   4.280   1.572  1.1056 -1.1041 -1.1187
 4871TIP3   OH214576   1.199   3.994   1.536  0.4368  0.0803 -0.2729
 4871TIP3    H114577   1.245   4.051   1.475  0.0848  0.0635 -0.5583
 4871TIP3    H214578   1.201   3.908   1.495  0.9270 -0.1053  0.1355
 4872TIP3   OH214579   3.331   5.419   2.143  0.0130 -0.5406 -0.0308
 4872TIP3    H114580   3.414   5.467   2.145 -0.6740  0.6917 -0.3353
 4872TIP3    H214581   3.300   5.420   2.233 -1.2472  1.8947 -0.4102
 4873TIP3   OH214582   5.156   6.292   2.572 -0.1390 -0.2683  0.3405
 4873TIP3    H114583   5.127   6.381   2.555 -0.4962 -0.0386  1.9566
 4873TIP3    H214584   5.241   6.303   2.616 -0.3631 -0.6939  0.8940
 4874TIP3   OH214585   0.107   2.434   2.325 -0.2211 -0.0794 -0.0290
 4874TIP3    H114586   0.190   2.481   2.335 -0.3433 -0.0493  0.9572
 4874TIP3    H214587   0.044   2.501   2.300 -0.2988  0.2185  0.9196
 4875TIP3   OH214588   2.246   6.531   5.615 -0.0964 -0.3860 -0.3253
 4875TIP3    H114589   2.252   6.557   5.523 -0.3924  1.2526  0.0838
 4875TIP3    H214590   2.322   6.571   5.657 -1.1896  0.8454  0.5483
 4876TIP3   OH214591   1.223   0.736   1.885 -0.3567  0.4131  0.0008
 4876TIP3    H114592   1.235   0.828   1.907 -0.6871  0.6742 -0.8667
 4876TIP3    H214593   1.128   0.724   1.885 -0.3215  0.1292 -0.1044
 4877TIP3   OH214594   1.111   5.632   0.475 -1.0104 -0.0084 -0.2567
 4877TIP3    H114595   1.137   5.566   0.410 -0.7594  0.2727 -0.4452
 4877TIP3    H214596   1.190   5.684   0.489 -0.5419 -1.1312  1.5709
 4878TIP3   OH214597   4.974   4.257   0.200 -0.3332  0.0389  0.0538
 4878TIP3    H114598   4.890   4.217   0.222  0.5546 -0.6093  2.6031
 4878TIP3    H214599   5.021   4.188   0.153 -0.7820  0.0105 -0.3660
 4879TIP3   OH214600   5.569   5.724   4.177 -0.6800  0.0532  0.1411
 4879TIP3    H114601   5.628   5.792   4.211  0.9186  0.2550 -2.7023
 4879TIP3    H214602   5.627   5.652   4.153 -2.2543 -2.0039  2.1467
 4880TIP3   OH214603   3.623   0.554   4.636  0.6525  0.1136 -0.5931
 4880TIP3    H114604   3.610   0.606   4.556  0.4531 -0.8964 -1.2330
 4880TIP3    H214605   3.634   0.619   4.705 -0.4623  1.0211 -1.2351
 4881TIP3   OH214606   0.918   1.392   1.158 -0.1775  0.0038  0.1260
 4881TIP3    H114607   0.900   1.393   1.252  0.2443 -0.4930  0.2161
 4881TIP3    H214608   0.832   1.378   1.118 -0.1574 -1.4248  0.5150
 4882TIP3   OH214609   1.549   5.832   5.366 -0.0686 -0.3210 -0.1347
 4882TIP3    H114610   1.524   5.870   5.282  0.8071  0.3425 -0.1024
 4882TIP3    H214611   1.484   5.763   5.380 -1.3490  0.7545 -0.4757
 4883TIP3   OH214612   1.609   4.690   3.569  0.2700 -0.3375  0.2901
 4883TIP3    H114613   1.642   4.616   3.519  1.4872 -0.3742  1.1092
 4883TIP3    H214614   1.597   4.657   3.658 -1.4001 -0.1422  0.1751
 4884TIP3   OH214615   3.184   4.734   3.362  1.1376 -0.5686  0.1768
 4884TIP3    H114616   3.244   4.808   3.362 -0.5360  0.9694  2.9433
 4884TIP3    H214617   3.224   4.671   3.422  0.4638  0.0855  1.3445
 4885TIP3   OH214618   6.991   0.837   2.528 -0.5931  0.6444 -0.4879
 4885TIP3    H114619   6.996   0.898   2.454  2.4216  0.6472 -0.4171
 4885TIP3    H214620   7.065   0.861   2.584  0.1550 -2.4370  0.0461
 4886TIP3   OH214621   5.249   2.524   3.922 -0.0395  0.5963  0.0343
 4886TIP3    H114622   5.338   2.492   3.907 -0.2677  0.6114 -1.5250
 4886TIP3    H214623   5.247   2.610   3.880 -0.4420  1.1645  1.1711
 4887TIP3   OH214624   2.818   3.272   1.232  0.3339  0.3930 -0.2107
 4887TIP3    H114625   2.857   3.359   1.229 -0.3123  0.7226  0.5197
 4887TIP3    H214626   2.862   3.228   1.305 -0.5433  0.7234  0.5360
 4888TIP3   OH214627   3.110   6.314   0.898  0.1896 -0.2323 -0.3104
 4888TIP3    H114628   3.156   6.386   0.942  2.0645 -1.8829  0.5844
 4888TIP3    H214629   3.174   6.243   0.895 -1.5007 -1.7940 -1.4042
 4889TIP3   OH214630   1.188   2.177   2.251 -0.2546  0.0084 -0.0583
 4889TIP3    H114631   1.207   2.156   2.160 -0.9308  0.9198 -0.4273
 4889TIP3    H214632   1.213   2.098   2.300  1.6305  0.0662 -0.8186
 4890TIP3   OH214633   4.407   6.081   3.905  0.1469  0.4577  0.0201
 4890TIP3    H114634   4.386   6.062   3.996 -0.2290 -0.3557 -0.2275
 4890TIP3    H214635   4.419   5.996   3.865  3.3758  0.8230 -0.0292
 4891TIP3   OH214636   5.660   1.577   2.370  0.6862  0.0436 -0.5276
 4891TIP3    H114637   5.566   1.564   2.381  0.3611  2.1016 -0.4854
 4891TIP3    H214638   5.679   1.551   2.280  0.1838 -0.8719 -0.3709
 4892TIP3   OH214639   0.139  -0.010   2.207  0.1810 -0.1439 -0.4333
 4892TIP3    H114640   0.108   0.031   2.288  0.6382 -1.7922  0.6265
 4892TIP3    H214641   0.234  -0.013   2.217  0.1488 -1.5759 -0.3976
 4893TIP3   OH214642   6.813   2.206   0.729 -0.1826  0.4050 -0.0520
 4893TIP3    H114643   6.825   2.111   0.740 -1.3936  0.1529 -0.6695
 4893TIP3    H214644   6.747   2.229   0.794 -0.8423  0.5690 -0.7658
 4894TIP3   OH214645   6.576   5.061   3.272  0.0775  0.2859 -0.4422
 4894TIP3    H114646   6.526   4.983   3.246 -0.1533  0.8334 -1.7516
 4894TIP3    H214647   6.665   5.030   3.285  0.9406  0.3112 -4.7730
 4895TIP3   OH214648   6.908   1.618   2.897  0.0505  0.4432  0.1144
 4895TIP3    H114649   6.989   1.594   2.941  1.2335  0.6078 -1.8735
 4895TIP3    H214650   6.900   1.712   2.911 -1.1746  0.0633  2.4181
 4896TIP3   OH214651   5.703   3.700   5.618 -0.2416 -0.0467  0.3820
 4896TIP3    H114652   5.743   3.638   5.679  1.3516  0.0388 -0.5049
 4896TIP3    H214653   5.669   3.644   5.547  0.8313  0.0397 -0.2186
 4897TIP3   OH214654   0.813   0.676   4.301 -0.0565  0.0612 -0.5162
 4897TIP3    H114655   0.797   0.643   4.213 -0.0001  2.0149 -1.3102
 4897TIP3    H214656   0.730   0.717   4.327 -0.2969 -1.0936  0.6476
 4898TIP3   OH214657   6.437   5.904   0.757  0.0359  0.2859  0.7254
 4898TIP3    H114658   6.375   5.903   0.830 -0.1464  1.7462  0.6095
 4898TIP3    H214659   6.499   5.834   0.778 -0.2860  0.3661  2.0395
 4899TIP3   OH214660   5.708   2.361   2.135  0.5842 -0.1533  0.1967
 4899TIP3    H114661   5.620   2.392   2.116  0.8221  1.3581  1.3209
 4899TIP3    H214662   5.697   2.271   2.165 -0.7763  0.5064  1.8005
 4900TIP3   OH214663   3.443   5.722   4.579  0.5371  0.2644  0.4340
 4900TIP3    H114664   3.380   5.775   4.626 -0.5673 -1.2933  0.7993
 4900TIP3    H214665   3.390   5.668   4.519  1.4792 -1.0722  0.7433
 4901TIP3   OH214666   6.157   2.908   1.108 -0.0801  0.5497 -0.0002
 4901TIP3    H114667   6.197   2.823   1.123 -1.4208 -0.5704 -2.2340
 4901TIP3    H214668   6.138   2.942   1.196 -0.0558 -1.7216  0.9358
 4902TIP3   OH214669   6.629   1.980   1.682 -0.1257 -0.2277 -0.1797
 4902TIP3    H114670   6.586   2.004   1.600 -2.5013 -3.0032  0.1205
 4902TIP3    H214671   6.559   1.982   1.747  1.5153  1.0095  1.6725
 4903TIP3   OH214672   7.107   4.941   5.427 -0.1394 -0.6283 -0.2805
 4903TIP3    H114673   7.155   4.933   5.509 -0.1057 -0.7289 -0.3107
 4903TIP3    H214674   7.015   4.935   5.453 -0.2272  1.3184  0.0080
 4904TIP3   OH214675   4.554   1.003   2.076 -0.0960 -0.6596 -0.4059
 4904TIP3    H114676   4.575   0.950   1.999 -1.4976  0.2735 -1.4887
 4904TIP3    H214677   4.489   0.950   2.123 -0.8297 -0.3355 -1.0186
 4905TIP3   OH214678   5.762   0.889   3.797 -0.4428  0.1025  0.7263
 4905TIP3    H114679   5.788   0.822   3.734  1.0192  1.0401  0.2844
 4905TIP3    H214680   5.666   0.892   3.790 -0.3226  0.6510 -2.0048
 4906TIP3   OH214681   6.724   1.315   4.600  0.1983 -0.0580 -0.2982
 4906TIP3    H114682   6.769   1.334   4.683 -0.0439  1.2454 -0.4581
 4906TIP3    H214683   6.746   1.388   4.543  0.7937 -1.2128 -1.5862
 4907TIP3   OH214684   0.693   5.398   2.407  0.0715  0.0868 -0.2129
 4907TIP3    H114685   0.691   5.453   2.485 -1.2380 -2.9141  2.0285
 4907TIP3    H214686   0.775   5.348   2.415  0.4163  0.4434 -1.3191
 4908TIP3   OH214687   3.361   5.062   4.601 -0.4573  0.0838 -0.1081
 4908TIP3    H114688   3.439   5.106   4.636  0.1834 -0.4624 -0.8358
 4908TIP3    H214689   3.392   5.012   4.526 -1.2960 -1.1076  0.3056
 4909TIP3   OH214690   1.212   6.673   1.224 -0.3589 -0.4045  0.0605
 4909TIP3    H114691   1.126   6.643   1.255 -0.8091  0.6973 -0.1024
 4909TIP3    H214692   1.234   6.747   1.280 -1.0452  1.4293 -1.9889
 4910TIP3   OH214693   1.477   2.545   0.102  0.0770  0.3080 -0.5647
 4910TIP3    H114694   1.531   2.584   0.172  1.2998 -0.0055 -1.2970
 4910TIP3    H214695   1.388   2.548   0.136  0.7398 -0.7267  1.4452
 4911TIP3   OH214696   4.324   2.808   1.362  0.2644 -0.1497  0.2525
 4911TIP3    H114697   4.390   2.808   1.293  1.3992 -1.3305  1.2902
 4911TIP3    H214698   4.249   2.762   1.324  1.1001 -1.3340 -0.0018
 4912TIP3   OH214699   4.045   5.874   3.982  0.7793  0.4542 -0.2211
 4912TIP3    H114700   4.071   5.813   4.052  0.2872 -0.2563 -0.6398
 4912TIP3    H214701   4.047   5.820   3.902  1.2758  1.2405 -0.7492
 4913TIP3   OH214702   0.572   6.200   5.704  0.4726  0.2272  0.1620
 4913TIP3    H114703   0.661   6.235   5.711  0.4901  0.0952  0.6288
 4913TIP3    H214704   0.516   6.278   5.696  0.7998  0.2844 -2.5700
 4914TIP3   OH214705   1.469   6.113   0.653  0.2157  0.0646  0.0308
 4914TIP3    H114706   1.408   6.121   0.726 -0.9852  0.2228 -0.9545
 4914TIP3    H214707   1.420   6.064   0.586  2.4130 -3.1825  0.5620
 4915TIP3   OH214708   1.459   5.778   3.902  0.1908 -0.3446 -0.7238
 4915TIP3    H114709   1.500   5.692   3.896 -0.1701 -0.4800 -1.3954
 4915TIP3    H214710   1.403   5.783   3.825 -0.1571  0.3044 -0.4379
 4916TIP3   OH214711   0.362   1.955   4.035  0.0324  0.8731  0.6464
 4916TIP3    H114712   0.300   1.887   4.009  0.7568  0.6150 -0.4665
 4916TIP3    H214713   0.317   2.004   4.104 -1.8907  1.4148 -0.9031
 4917TIP3   OH214714   6.060   5.174   3.332  0.2698  0.3752 -0.0066
 4917TIP3    H114715   6.144   5.128   3.338 -0.4757 -1.0364  0.1900
 4917TIP3    H214716   6.021   5.162   3.418 -0.5646  0.1268 -0.4131
 4918TIP3   OH214717   5.972   1.920   1.109 -0.2169  0.1327 -0.1314
 4918TIP3    H114718   5.934   1.897   1.024  0.3995 -0.4706 -0.2534
 4918TIP3    H214719   5.896   1.932   1.167 -0.6340 -3.6839  0.3423
 4919TIP3   OH214720   2.555   2.797   3.197  0.2547 -0.0196  0.0440
 4919TIP3    H114721   2.583   2.725   3.140  1.5818  1.2915 -1.0422
 4919TIP3    H214722   2.563   2.875   3.142 -3.6675  0.7566  0.2889
 4920TIP3   OH214723   0.439   6.205   3.169 -0.2249 -0.0526  0.3325
 4920TIP3    H114724   0.524   6.208   3.127 -0.3826  2.5753  0.0532
 4920TIP3    H214725   0.434   6.117   3.206  2.5387 -0.3288  0.2597
 4921TIP3   OH214726   6.319   0.272   2.675  0.1192  0.1413 -0.1935
 4921TIP3    H114727   6.267   0.195   2.653 -0.6224  0.6763 -0.3334
 4921TIP3    H214728   6.301   0.335   2.604 -1.0398  1.2782  1.0563
 4922TIP3   OH214729   6.258   2.840   2.577  0.1322  0.5485  0.3078
 4922TIP3    H114730   6.184   2.790   2.613 -0.2960  0.1581 -1.0586
 4922TIP3    H214731   6.335   2.800   2.618 -0.2333 -0.9506 -0.3791
 4923TIP3   OH214732   6.258   2.074   0.014  0.4123  0.5747  0.8719
 4923TIP3    H114733   6.351   2.069  -0.009  0.7598  0.1515  2.2292
 4923TIP3    H214734   6.258   2.076   0.110 -1.0105 -0.1777  0.9138
 4924TIP3   OH214735   4.559   6.211   3.414 -0.4062 -0.1890 -0.3347
 4924TIP3    H114736   4.588   6.266   3.487  0.9528  0.6431 -1.4575
 4924TIP3    H214737   4.564   6.122   3.448 -0.7741  0.2488  0.9039
 4925TIP3   OH214738   0.370   6.400   0.927 -0.5940  0.2452  0.2054
 4925TIP3    H114739   0.402   6.390   1.016 -0.7586 -0.6236  0.1735
 4925TIP3    H214740   0.419   6.336   0.876 -1.0503  0.1892 -0.1801
 4926TIP3   OH214741   3.295   5.642   4.905  0.1187  0.2844  0.1227
 4926TIP3    H114742   3.209   5.682   4.915 -1.2577 -2.5133  0.6007
 4926TIP3    H214743   3.313   5.601   4.990  0.8144 -1.1141 -0.6566
 4927TIP3   OH214744   5.295   4.539   4.298 -0.1385 -0.0673 -0.2781
 4927TIP3    H114745   5.224   4.601   4.317 -0.6989 -1.0601  0.9868
 4927TIP3    H214746   5.373   4.594   4.288 -0.5147  0.8111  1.3991
 4928TIP3   OH214747   3.589   5.454   5.308  0.3777  0.3406  0.2824
 4928TIP3    H114748   3.606   5.402   5.387 -0.0023  0.5189  0.4845
 4928TIP3    H214749   3.644   5.531   5.318  0.8597  0.0306  0.0344
 4929TIP3   OH214750   3.593   0.155   3.582  0.8125  0.7417 -0.5819
 4929TIP3    H114751   3.661   0.087   3.583 -0.3466 -0.5085 -1.6696
 4929TIP3    H214752   3.610   0.204   3.501 -0.1087 -0.1901 -1.3693
 4930TIP3   OH214753   5.884   4.577   1.828 -0.2590 -0.3617 -0.6276
 4930TIP3    H114754   5.810   4.636   1.819  0.5315  0.6057 -0.9578
 4930TIP3    H214755   5.872   4.535   1.913 -0.9469  0.0994 -0.4935
 4931TIP3   OH214756   6.907   5.102   1.914 -0.0143 -0.0861 -0.0838
 4931TIP3    H114757   6.858   5.143   1.986  1.9086 -0.2708  1.4115
 4931TIP3    H214758   6.883   5.154   1.837 -2.5305 -0.1865  0.5307
 4932TIP3   OH214759   3.323   6.679   4.627  0.0445  0.8529 -0.4116
 4932TIP3    H114760   3.402   6.727   4.651  0.6493 -1.4264  2.7070
 4932TIP3    H214761   3.347   6.587   4.633 -2.7177  0.0663  0.2318
 4933TIP3   OH214762   5.531   4.932   0.403 -0.0910  0.0593 -0.5950
 4933TIP3    H114763   5.502   4.848   0.439 -2.9833  1.3017  0.2816
 4933TIP3    H214764   5.558   4.983   0.479 -0.4376  0.6526 -0.8638
 4934TIP3   OH214765   3.682   6.417   0.989 -0.1549  0.2517 -0.4525
 4934TIP3    H114766   3.658   6.499   0.946 -1.8441  0.5358  0.9110
 4934TIP3    H214767   3.703   6.443   1.079 -0.1612 -0.7468 -0.1519
 4935TIP3   OH214768   3.979   2.172   0.610 -0.0215 -0.6635  0.0058
 4935TIP3    H114769   3.896   2.207   0.643  0.0950  0.5219 -0.8742
 4935TIP3    H214770   3.969   2.171   0.515  1.0700 -0.1857 -0.1388
 4936TIP3   OH214771   0.730   6.204   2.977  0.2543  0.2091  0.3097
 4936TIP3    H114772   0.788   6.151   2.922 -0.6477  0.8417 -1.3355
 4936TIP3    H214773   0.665   6.239   2.916 -0.0223  2.0528  1.5672
 4937TIP3   OH214774   1.811   1.695   5.863  0.5388  0.7147 -0.0997
 4937TIP3    H114775   1.724   1.658   5.876  0.6176  1.1347  1.8020
 4937TIP3    H214776   1.795   1.783   5.830  0.2711  0.5605 -0.3942
 4938TIP3   OH214777   5.251   1.306   4.209 -0.2457 -0.2429 -0.0542
 4938TIP3    H114778   5.339   1.269   4.221 -0.2554  0.0962  1.0961
 4938TIP3    H214779   5.267   1.391   4.168  0.0064  0.0908  0.7261
 4939TIP3   OH214780   6.550   1.037   4.829 -0.3554 -0.2574  0.2001
 4939TIP3    H114781   6.468   1.082   4.848 -0.7410 -1.3721  1.2793
 4939TIP3    H214782   6.528   0.977   4.758 -0.4709 -0.5397  0.4736
 4940TIP3   OH214783   4.809   5.950   0.200  0.0239  0.3686 -0.4471
 4940TIP3    H114784   4.777   5.900   0.275  0.4608  2.1841  1.0115
 4940TIP3    H214785   4.895   5.913   0.181  0.2266  0.3791  0.4326
 4941TIP3   OH214786   4.850   3.509   5.340  0.0172  0.4876  0.0052
 4941TIP3    H114787   4.843   3.553   5.425 -0.8745  0.7358 -0.1904
 4941TIP3    H214788   4.812   3.570   5.277  2.3037  1.1012 -0.8897
 4942TIP3   OH214789   0.923   6.697   5.686  0.0904  0.1370  0.1300
 4942TIP3    H114790   1.008   6.671   5.651  0.3531  1.4006 -0.2031
 4942TIP3    H214791   0.928   6.675   5.779  1.5158  1.9290  0.5294
 4943TIP3   OH214792   4.281   1.917   2.282  0.5889  0.5740  0.0005
 4943TIP3    H114793   4.204   1.974   2.283 -1.2689 -1.7743  1.1892
 4943TIP3    H214794   4.278   1.874   2.197 -0.4914 -0.8112  0.7092
 4944TIP3   OH214795   1.817   5.895   5.075 -0.1647 -0.3692  0.6184
 4944TIP3    H114796   1.749   5.860   5.131  0.3230  0.5872  1.8590
 4944TIP3    H214797   1.898   5.854   5.106  0.0963  0.0990  0.5737
 4945TIP3   OH214798   6.728   6.527   0.044 -0.1695 -0.0800  0.3999
 4945TIP3    H114799   6.729   6.504  -0.049 -2.0502  0.7501  0.1490
 4945TIP3    H214800   6.762   6.449   0.088  1.1644 -0.3237 -0.9851
 4946TIP3   OH214801   5.283   6.466   3.598 -0.3620  0.3042 -0.1180
 4946TIP3    H114802   5.332   6.447   3.678  0.2190  1.6592 -0.1228
 4946TIP3    H214803   5.228   6.389   3.584  0.2982 -0.3913  1.0040
 4947TIP3   OH214804   0.148   0.886   5.824  0.0128 -0.8002  0.1712
 4947TIP3    H114805   0.093   0.942   5.879  1.1191  0.2449  0.2552
 4947TIP3    H214806   0.106   0.887   5.738 -0.5848 -0.7461  0.4623
 4948TIP3   OH214807   5.772   5.456   3.286  0.2419 -0.0483  0.1738
 4948TIP3    H114808   5.757   5.550   3.276 -0.9341 -0.0857  1.3265
 4948TIP3    H214809   5.685   5.417   3.278  0.7748 -1.1060 -0.7607
 4949TIP3   OH214810   1.525   3.896   3.440  0.0170  0.0874 -0.4788
 4949TIP3    H114811   1.585   3.825   3.463 -1.4746 -0.7712  0.8725
 4949TIP3    H214812   1.551   3.968   3.497 -0.4460 -0.3995  0.3591
 4950TIP3   OH214813   5.655   2.209   0.977  0.1715  0.0603  0.6646
 4950TIP3    H114814   5.580   2.240   1.027 -0.5938  0.2588 -0.5738
 4950TIP3    H214815   5.624   2.203   0.887  1.5431 -0.1834  0.1763
 4951TIP3   OH214816   4.478   4.474   2.469  0.1373 -0.6355 -0.0737
 4951TIP3    H114817   4.478   4.563   2.434 -2.2020 -1.1811 -1.7541
 4951TIP3    H214818   4.400   4.470   2.523  0.7387 -1.4293  0.7582
 4952TIP3   OH214819   1.134   2.398   4.415  0.2389 -0.2502  0.2701
 4952TIP3    H114820   1.142   2.484   4.456 -1.0277  0.9477 -1.7935
 4952TIP3    H214821   1.216   2.385   4.367 -0.5350  1.0675 -1.5232
 4953TIP3   OH214822   5.448   3.458   3.897 -0.2860 -0.5241  0.2834
 4953TIP3    H114823   5.463   3.486   3.807 -0.5894 -1.0453  0.0715
 4953TIP3    H214824   5.374   3.510   3.927 -0.2931 -0.4756  0.1795
 4954TIP3   OH214825   0.049   6.453   0.309  0.2091 -0.0449  0.8013
 4954TIP3    H114826  -0.006   6.446   0.231  0.3203  2.3174  0.4230
 4954TIP3    H214827  -0.012   6.471   0.381  0.2353 -0.6488  0.9781
 4955TIP3   OH214828   1.806   0.334   1.956  0.3419 -0.0696  0.3231
 4955TIP3    H114829   1.896   0.313   1.930  0.2742 -0.2165  0.2022
 4955TIP3    H214830   1.806   0.429   1.969  0.1322  0.1799 -1.2397
 4956TIP3   OH214831   6.283   2.578   3.318  0.6311  0.3487  0.2286
 4956TIP3    H114832   6.192   2.575   3.347  0.6917  0.0224  0.3890
 4956TIP3    H214833   6.306   2.487   3.300  0.4984  0.5626 -1.1572
 4957TIP3   OH214834   4.085   3.774   5.820  0.0468 -0.1912  0.3375
 4957TIP3    H114835   4.102   3.867   5.805  2.9494 -0.2514  2.4680
 4957TIP3    H214836   4.031   3.772   5.899  0.5432 -0.3221  0.6748
 4958TIP3   OH214837   5.354   2.839   0.412  0.0909  0.0916 -0.4116
 4958TIP3    H114838   5.289   2.845   0.342  0.5286 -0.6066 -0.8959
 4958TIP3    H214839   5.432   2.803   0.370 -0.2410 -2.2761  0.7763
 4959TIP3   OH214840   1.509   1.844   0.260  0.1484  0.2397  0.2566
 4959TIP3    H114841   1.518   1.893   0.341  1.3471  0.2637  0.1212
 4959TIP3    H214842   1.566   1.768   0.271 -2.6398 -1.9480  1.0077
 4960TIP3   OH214843   7.092   2.407   1.425 -0.1797  0.1687 -0.2394
 4960TIP3    H114844   7.182   2.376   1.431  0.3314  1.6793  0.6551
 4960TIP3    H214845   7.069   2.398   1.332 -0.3807 -3.4409  0.0564
 4961TIP3   OH214846   5.716   5.814   1.869 -0.2772  0.4178  0.2762
 4961TIP3    H114847   5.769   5.873   1.816 -0.2334 -1.0300 -1.3783
 4961TIP3    H214848   5.668   5.761   1.806 -0.0211 -1.5902  1.6647
 4962TIP3   OH214849   1.367   2.897   4.136 -0.2850  0.4834 -0.6954
 4962TIP3    H114850   1.314   2.825   4.103 -0.5539  0.0370  0.6683
 4962TIP3    H214851   1.309   2.973   4.133 -1.0109  0.0177  0.7028
 4963TIP3   OH214852   0.061   3.670   4.829 -0.0133 -0.3465 -0.4063
 4963TIP3    H114853   0.028   3.739   4.887 -1.7406 -2.1476  0.8710
 4963TIP3    H214854   0.126   3.624   4.882  0.6344 -0.1275 -1.0089
 4964TIP3   OH214855   3.682   4.857   3.667 -0.6348  0.5367 -0.1571
 4964TIP3    H114856   3.629   4.778   3.670 -0.6026  0.4563 -1.2619
 4964TIP3    H214857   3.762   4.831   3.621 -0.4481  1.1048 -0.1672
 4965TIP3   OH214858   6.922   2.327   2.817  0.1535  0.6156  0.3563
 4965TIP3    H114859   6.959   2.332   2.729  3.5231 -0.5246  1.5721
 4965TIP3    H214860   6.864   2.251   2.815  2.3653 -1.1530 -0.2431
 4966TIP3   OH214861   7.143   0.766   3.299  0.0125 -0.1095  0.0279
 4966TIP3    H114862   7.147   0.827   3.373  0.4281  0.3127 -0.3375
 4966TIP3    H214863   7.217   0.707   3.313  0.5229  0.4104 -0.4231
 4967TIP3   OH214864   0.904   3.330   0.559  0.2545 -0.7087 -0.2267
 4967TIP3    H114865   0.994   3.300   0.549 -0.8324 -3.6633 -2.8977
 4967TIP3    H214866   0.856   3.252   0.589 -1.3993  0.9674  1.8649
 4968TIP3   OH214867   3.945   2.585   5.670 -0.2472 -0.6791 -0.0712
 4968TIP3    H114868   3.947   2.538   5.587 -0.0875  0.5718 -0.7978
 4968TIP3    H214869   4.031   2.571   5.709 -0.3732 -1.3866 -0.0348
 4969TIP3   OH214870   6.046   1.004   3.475 -0.0611  0.2959 -0.4747
 4969TIP3    H114871   6.001   0.933   3.429  0.0719 -0.1074 -0.0019
 4969TIP3    H214872   5.976   1.065   3.500 -0.5483 -0.8711  1.2319
 4970TIP3   OH214873   4.032   0.985   4.209 -0.2485 -0.0721  0.5658
 4970TIP3    H114874   3.959   0.991   4.146  1.4873  1.3390 -1.4476
 4970TIP3    H214875   4.030   1.068   4.256 -0.5415 -0.4530  1.2308
 4971TIP3   OH214876   0.654   0.325   1.359 -0.1696 -0.5164 -0.0178
 4971TIP3    H114877   0.733   0.275   1.341 -2.0787 -3.8323 -0.0727
 4971TIP3    H214878   0.599   0.312   1.281 -1.3585  0.4238  0.6225
 4972TIP3   OH214879   1.457   6.460   3.703  0.0853 -0.5174 -0.1460
 4972TIP3    H114880   1.425   6.399   3.770 -0.1294 -0.5076 -0.2410
 4972TIP3    H214881   1.494   6.404   3.635 -0.9015 -0.5754 -0.6452
 4973TIP3   OH214882   6.225   4.274   0.530 -0.1679  0.4058  0.2754
 4973TIP3    H114883   6.254   4.363   0.513  0.2598  0.3346  0.5999
 4973TIP3    H214884   6.273   4.248   0.609 -0.0418 -0.2211  0.0015
 4974TIP3   OH214885   7.192   1.758   1.447  0.3760  0.5569 -0.7692
 4974TIP3    H114886   7.259   1.818   1.480  0.5883 -0.1153  0.0648
 4974TIP3    H214887   7.118   1.768   1.506  1.0264 -1.1830  0.4161
 4975TIP3   OH214888   6.204   5.514   5.661 -0.3656  0.0369  0.0427
 4975TIP3    H114889   6.289   5.518   5.704 -0.9672 -0.7546  1.3756
 4975TIP3    H214890   6.159   5.595   5.687  0.0142  0.5172 -0.7687
 4976TIP3   OH214891   4.735   4.342   4.235  0.2928  0.2089  0.1244
 4976TIP3    H114892   4.760   4.298   4.153 -1.0001 -1.2511  0.4676
 4976TIP3    H214893   4.731   4.435   4.212 -0.4686 -0.2069 -1.6209
 4977TIP3   OH214894   0.790   1.169   5.054  0.2203  0.4724  0.3928
 4977TIP3    H114895   0.742   1.124   5.123 -0.1749  0.6698  0.2496
 4977TIP3    H214896   0.837   1.239   5.099  2.6127 -1.3681  0.9742
 4978TIP3   OH214897   3.898   2.276   4.323 -0.1834  0.2845 -0.1734
 4978TIP3    H114898   3.951   2.202   4.352 -1.9634 -0.4260  1.5210
 4978TIP3    H214899   3.909   2.278   4.228  1.9088 -0.5248 -0.0013
 4979TIP3   OH214900   4.644   3.854   4.435  0.4932 -0.1409 -0.6337
 4979TIP3    H114901   4.617   3.935   4.393  0.0105 -1.1751 -2.4404
 4979TIP3    H214902   4.728   3.832   4.393 -0.3937 -1.6134 -1.7492
 4980TIP3   OH214903   5.603   3.152   3.385 -0.2070  0.5421  1.0200
 4980TIP3    H114904   5.629   3.119   3.300 -1.7779  1.5904  0.0683
 4980TIP3    H214905   5.665   3.113   3.447 -1.3623 -3.4499 -0.0407
 4981TIP3   OH214906   3.315   0.459   2.107 -0.6631  0.0251 -0.5171
 4981TIP3    H114907   3.330   0.552   2.125  1.3624 -0.4358  0.4707
 4981TIP3    H214908   3.274   0.426   2.186  0.4869 -0.3091 -0.0459
 4982TIP3   OH214909   1.071   2.176   5.725 -0.4608 -0.2422 -0.4683
 4982TIP3    H114910   1.139   2.193   5.660 -0.9248 -0.2556 -0.9609
 4982TIP3    H214911   1.070   2.080   5.733  0.3290 -0.1987  0.3575
 4983TIP3   OH214912   5.756   6.590   5.464 -0.8230 -0.2652 -0.0471
 4983TIP3    H114913   5.839   6.636   5.447 -1.4114  1.8288  2.2099
 4983TIP3    H214914   5.762   6.561   5.555 -2.6498  0.1402  0.2450
 4984TIP3   OH214915   1.205   0.953   5.416 -0.1637 -0.1683 -0.0273
 4984TIP3    H114916   1.256   0.955   5.334 -1.5545  1.5770 -0.9148
 4984TIP3    H214917   1.158   0.870   5.413  2.2882 -1.6895  0.6707
 4985TIP3   OH214918   6.568   6.032   3.955 -0.4444 -0.0893 -0.2144
 4985TIP3    H114919   6.473   6.031   3.946 -0.5368 -0.8528  0.6845
 4985TIP3    H214920   6.601   6.030   3.866 -1.2654  0.9940 -0.5619
 4986TIP3   OH214921   6.589   5.775   3.763  0.3466 -0.1421 -0.1784
 4986TIP3    H114922   6.601   5.868   3.743  0.2209 -0.5887 -2.5384
 4986TIP3    H214923   6.654   5.757   3.832  0.4102  1.6488  0.2853
 4987TIP3   OH214924   2.378   0.050   4.087 -0.2765  0.4980  0.1923
 4987TIP3    H114925   2.328   0.130   4.105 -1.3994 -0.0691 -0.2733
 4987TIP3    H214926   2.469   0.077   4.091 -0.5972  1.5414  1.2817
 4988TIP3   OH214927   1.147   1.094   2.915 -0.1254  0.2660 -0.0516
 4988TIP3    H114928   1.137   1.152   2.991 -1.9747 -0.3229  0.1896
 4988TIP3    H214929   1.224   1.128   2.870 -0.2606  1.9831  0.9110
 4989TIP3   OH214930   2.616   1.481   1.991  0.4253 -0.6518 -0.2939
 4989TIP3    H114931   2.705   1.477   2.026  0.9625  1.0243 -1.3248
 4989TIP3    H214932   2.588   1.390   1.984  1.8624 -1.1834  0.5298
 4990TIP3   OH214933   6.762   1.076   5.244  0.2295 -0.4153  0.4095
 4990TIP3    H114934   6.785   1.164   5.216  0.3244 -1.0602 -1.7043
 4990TIP3    H214935   6.730   1.087   5.334 -1.8960  2.0844 -0.5436
 4991TIP3   OH214936   6.231   1.427   1.409  1.2416 -0.3625 -0.5804
 4991TIP3    H114937   6.137   1.415   1.396  0.4371 -0.1933  3.6113
 4991TIP3    H214938   6.243   1.521   1.415  1.2032 -0.4335  1.0873
 4992TIP3   OH214939   2.120   3.370   5.742  0.4850  0.4592 -0.4907
 4992TIP3    H114940   2.052   3.374   5.810 -0.0654 -0.2768 -0.9873
 4992TIP3    H214941   2.098   3.442   5.682  0.7972  0.9188 -0.0673
 4993TIP3   OH214942   2.555   4.914   2.310  0.6549 -0.2323 -0.2488
 4993TIP3    H114943   2.544   5.009   2.304  0.0006 -0.3762 -1.9469
 4993TIP3    H214944   2.480   4.878   2.263 -1.1843 -1.7524  3.4487
 4994TIP3   OH214945   6.685   0.445   5.609 -0.3626 -0.1192  0.5553
 4994TIP3    H114946   6.763   0.470   5.659  0.2002 -0.9289  0.1160
 4994TIP3    H214947   6.711   0.457   5.517 -0.5941 -0.8085  0.3904
 4995TIP3   OH214948   5.716   2.811   5.694 -0.8384 -0.0321  0.3708
 4995TIP3    H114949   5.719   2.737   5.634 -1.8365  1.6210 -1.8623
 4995TIP3    H214950   5.699   2.772   5.780  0.5534 -2.4819 -0.3837
 4996TIP3   OH214951   1.738   2.619   1.916  0.2392  0.5041 -0.2470
 4996TIP3    H114952   1.746   2.536   1.870  0.5003  1.5228 -2.1141
 4996TIP3    H214953   1.801   2.677   1.874  1.3573  1.2087  2.1747
 4997TIP3   OH214954   6.267   1.935   2.733 -0.0177 -0.4388 -0.2797
 4997TIP3    H114955   6.256   1.938   2.638  1.2203 -2.3430 -0.5212
 4997TIP3    H214956   6.288   2.026   2.757  0.8383 -0.1500 -1.9848
 4998TIP3   OH214957   5.225   6.016   1.897 -0.1779 -0.0303 -0.1038
 4998TIP3    H114958   5.143   6.059   1.922 -0.7867 -1.2306  0.0541
 4998TIP3    H214959   5.198   5.949   1.834  0.7904  0.0886 -0.6637
 4999TIP3   OH214960   2.119   1.043   0.517 -0.0568  0.2422  0.2836
 4999TIP3    H114961   2.031   1.080   0.518  0.1367  0.7379 -0.2416
 4999TIP3    H214962   2.119   0.977   0.586 -0.3679  1.3094  1.3221
 5000TIP3   OH214963   1.417   5.094   1.896 -0.0771  0.4149 -0.0752
 5000TIP3    H114964   1.507   5.064   1.883  0.3531  0.6781  1.8467
 5000TIP3    H214965   1.403   5.085   1.991 -2.5008 -0.7358 -0.4678
 5001TIP3   OH214966   1.204   4.681   3.907 -0.2122 -0.0904  0.3439
 5001TIP3    H114967   1.165   4.751   3.961  0.3345  0.2641  0.2877
 5001TIP3    H214968   1.253   4.627   3.969  1.5289  1.0759  0.0716
 5002TIP3   OH214969   0.370   2.923   2.768 -0.4936  0.0437  0.5336
 5002TIP3    H114970   0.290   2.967   2.797  0.8616  1.9790  1.5853
 5002TIP3    H214971   0.401   2.875   2.845 -0.3240 -0.2062  0.3148
 5003TIP3   OH214972   6.045   4.893   4.802 -0.3059  0.4679 -0.4318
 5003TIP3    H114973   5.987   4.875   4.875  2.3201 -4.9427  0.8538
 5003TIP3    H214974   6.100   4.966   4.832 -2.7844  2.1058  0.4391
 5004TIP3   OH214975   3.344   0.439   5.825 -0.0090 -0.4662  0.7590
 5004TIP3    H114976   3.435   0.419   5.802 -0.1018  0.2785 -0.3308
 5004TIP3    H214977   3.300   0.449   5.741 -1.7717 -3.5194  1.1589
 5005TIP3   OH214978   6.910   0.528   1.186 -0.2745 -0.2204  0.1920
 5005TIP3    H114979   6.851   0.461   1.223 -1.4269 -1.0539 -2.8569
 5005TIP3    H214980   6.983   0.478   1.149 -0.2551  0.3361 -0.5424
 5006TIP3   OH214981   5.702   5.097   5.432 -0.4004 -0.1732  0.4469
 5006TIP3    H114982   5.677   5.014   5.393  1.0643 -0.1331 -0.6718
 5006TIP3    H214983   5.794   5.109   5.407 -0.9253  2.4211 -0.6188
 5007TIP3   OH214984   5.625   2.765   3.947  0.0868  0.4422  0.4759
 5007TIP3    H114985   5.618   2.847   3.995  0.3389  0.7275  0.0304
 5007TIP3    H214986   5.719   2.752   3.934  0.0434  0.1526  0.4305
 5008TIP3   OH214987   3.527   0.756   4.473  0.1803 -0.0499 -0.5922
 5008TIP3    H114988   3.583   0.830   4.498 -0.2731  0.2128 -0.3395
 5008TIP3    H214989   3.439   0.783   4.498 -0.0933 -0.3704 -1.2026
 5009TIP3   OH214990   6.738   5.808   0.242  0.2203  0.0611  0.2225
 5009TIP3    H114991   6.803   5.804   0.172  0.3180 -0.9224  0.3513
 5009TIP3    H214992   6.750   5.726   0.291 -1.2948 -0.2788  0.0815
 5010TIP3   OH214993   0.149   6.614   3.456 -0.5575 -0.4187  0.3012
 5010TIP3    H114994   0.157   6.688   3.395 -1.6525  1.3241  2.1313
 5010TIP3    H214995   0.208   6.548   3.421  2.4839  2.2255 -0.0986
 5011TIP3   OH214996   1.058   1.925   1.556 -0.0908 -0.0270  0.3815
 5011TIP3    H114997   1.058   1.873   1.636 -2.0705 -0.0923  0.3731
 5011TIP3    H214998   1.119   1.997   1.574  1.4545 -1.4232  0.9716
 5012TIP3   OH214999   2.545   5.874   0.276  0.1390  0.4273 -0.4920
 5012TIP3    H115000   2.557   5.780   0.288 -1.1086  0.1103 -1.4331
 5012TIP3    H215001   2.633   5.910   0.275  0.7251 -0.9398 -1.4549
 5013TIP3   OH215002   2.071   0.496   5.078 -0.9054  0.2405  0.8855
 5013TIP3    H115003   2.081   0.552   5.155 -2.0979  0.6798  0.7331
 5013TIP3    H215004   2.109   0.547   5.006 -1.6546  0.7020  0.8152
 5014TIP3   OH215005   0.617   2.895   4.854 -0.5217 -0.2693 -0.2049
 5014TIP3    H115006   0.532   2.894   4.898 -0.5783  0.6459 -0.2712
 5014TIP3    H215007   0.615   2.820   4.796 -2.2240  1.0026 -1.9441
 5015TIP3   OH215008   1.717   4.435   1.811 -0.0741 -0.0363 -0.3953
 5015TIP3    H115009   1.625   4.412   1.827 -0.2872  0.5415 -0.7678
 5015TIP3    H215010   1.713   4.508   1.749  0.5193  2.5509  2.4276
 5016TIP3   OH215011   5.129   0.777   2.482  0.6319  0.0841 -0.5675
 5016TIP3    H115012   5.206   0.814   2.440  0.3472  1.5587  0.1330
 5016TIP3    H215013   5.117   0.691   2.441  1.8297  0.4159 -1.6489
 5017TIP3   OH215014   6.884   0.897   3.170  0.1514 -0.1608 -0.2378
 5017TIP3    H115015   6.927   0.823   3.213 -0.7790 -0.1671  0.7200
 5017TIP3    H215016   6.808   0.917   3.226 -1.2834 -0.3466 -2.0301
 5018TIP3   OH215017   5.232   3.652   0.060  0.6624 -0.2894 -0.1044
 5018TIP3    H115018   5.178   3.674   0.136  0.8859  0.2700 -0.1029
 5018TIP3    H215019   5.239   3.556   0.062 -0.7059 -0.4035 -0.3692
 5019TIP3   OH215020   0.771   5.088   3.800 -0.4416  0.0719 -0.0555
 5019TIP3    H115021   0.774   5.106   3.894 -0.3005 -0.5001  0.0576
 5019TIP3    H215022   0.826   5.011   3.789  0.4736  0.8041 -0.7761
 5020TIP3   OH215023   0.377   2.019   0.410 -0.2267 -0.3769  0.3148
 5020TIP3    H115024   0.334   2.103   0.392  1.5138  0.3096 -0.8506
 5020TIP3    H215025   0.456   2.042   0.458  0.9129 -1.1969 -1.0872
 5021TIP3   OH215026   5.750   0.627   4.038  0.1230  0.0473  0.4743
 5021TIP3    H115027   5.682   0.588   3.984  1.3124  0.4734 -1.4469
 5021TIP3    H215028   5.706   0.649   4.120 -1.6388 -1.1248 -0.0950
 5022TIP3   OH215029   5.342   5.235   5.095 -0.0306  0.1911  0.0118
 5022TIP3    H115030   5.389   5.270   5.019  0.3685 -0.8815 -0.2630
 5022TIP3    H215031   5.390   5.269   5.171  0.5064  0.0188 -0.2476
 5023TIP3   OH215032   0.347   2.860   2.058  0.3223  0.0453  0.5398
 5023TIP3    H115033   0.440   2.842   2.049  0.0451 -0.8388 -0.8049
 5023TIP3    H215034   0.306   2.774   2.069 -0.2811  0.4769  1.8717
 5024TIP3   OH215035   2.835   3.515   0.499  0.0181 -0.1199 -0.6147
 5024TIP3    H115036   2.858   3.444   0.559 -0.0760  0.0529 -0.3724
 5024TIP3    H215037   2.796   3.472   0.423  1.3580 -0.4494 -1.1515
 5025TIP3   OH215038   3.400   3.947   1.851 -0.5070  0.3356  0.3976
 5025TIP3    H115039   3.409   3.956   1.756  1.3267  0.3205  0.5442
 5025TIP3    H215040   3.382   4.036   1.882  0.4676  0.6159  0.1830
 5026TIP3   OH215041   0.413   2.374   5.607 -0.0822  0.1629  0.3592
 5026TIP3    H115042   0.358   2.426   5.666  0.6799  0.6479  0.6483
 5026TIP3    H215043   0.353   2.345   5.538 -0.3021  2.4564 -0.4930
 5027TIP3   OH215044   1.510   4.919   0.495  0.1362 -0.0273 -0.2045
 5027TIP3    H115045   1.560   4.948   0.572  0.3837 -0.7279 -0.0929
 5027TIP3    H215046   1.423   4.954   0.509  0.3167  0.2892  0.1443
 5028TIP3   OH215047   7.038   3.762  -0.034  0.2621 -0.4573  0.1295
 5028TIP3    H115048   7.015   3.816   0.041  0.6772 -0.7231  0.4515
 5028TIP3    H215049   7.082   3.686   0.004  1.5046 -0.0504 -0.4489
 5029TIP3   OH215050   3.378   1.757   2.045  0.4393  0.2420  0.3939
 5029TIP3    H115051   3.451   1.695   2.051  0.2268 -0.0774 -0.2689
 5029TIP3    H215052   3.304   1.711   2.085  0.5628  0.5136  0.9428
 5030TIP3   OH215053   3.367   5.319   2.409  0.0329 -0.1305  0.4658
 5030TIP3    H115054   3.425   5.261   2.359  1.2387 -1.1722  2.9304
 5030TIP3    H215055   3.394   5.307   2.500 -1.9243  1.8483  1.3801
 5031TIP3   OH215056   3.618   3.582   0.588  0.0063 -0.0846 -0.5651
 5031TIP3    H115057   3.611   3.525   0.512 -0.6190  1.5463 -1.7995
 5031TIP3    H215058   3.530   3.587   0.623  0.3988 -1.2741  0.6325
 5032TIP3   OH215059   4.170   6.116   5.179 -1.0932  0.3914  0.3332
 5032TIP3    H115060   4.235   6.182   5.201 -0.3981 -0.1573 -0.0589
 5032TIP3    H215061   4.188   6.043   5.238 -0.1611 -0.4966 -1.0246
 5033TIP3   OH215062   7.171   4.945   4.348 -0.0255  0.2685  0.4099
 5033TIP3    H115063   7.252   4.978   4.309  1.7489 -1.6882  2.1770
 5033TIP3    H215064   7.179   4.967   4.441 -1.5261  0.0033  0.6195
 5034TIP3   OH215065   3.930   4.220   0.041  0.3425 -0.4454  0.2425
 5034TIP3    H115066   3.917   4.211  -0.053 -1.6220  0.2315  0.4171
 5034TIP3    H215067   3.934   4.314   0.057  3.7587 -0.5049  0.5268
 5035TIP3   OH215068   5.448   5.512   2.900  0.4882  0.1898 -0.0930
 5035TIP3    H115069   5.460   5.546   2.989  0.1923  0.7335 -0.2517
 5035TIP3    H215070   5.367   5.554   2.870 -0.2800 -1.2063 -0.0443
 5036TIP3   OH215071   2.832   4.406   2.874  0.0156  0.2051 -0.3054
 5036TIP3    H115072   2.795   4.318   2.885  0.9336 -0.2987 -1.0197
 5036TIP3    H215073   2.857   4.409   2.781 -0.0041  1.2271 -0.2861
 5037TIP3   OH215074   4.574   4.215   3.194  0.0020 -0.0460  0.0837
 5037TIP3    H115075   4.646   4.180   3.141  1.0438  0.1600  1.2959
 5037TIP3    H215076   4.618   4.256   3.269 -1.3501  0.9968  0.3367
 5038TIP3   OH215077   3.829   0.563   5.153 -0.1198  0.0289 -0.4673
 5038TIP3    H115078   3.921   0.568   5.130 -0.3754  1.7629 -1.2950
 5038TIP3    H215079   3.827   0.522   5.239  1.4797  0.6481 -0.1096
 5039TIP3   OH215080   1.146   6.671   1.632 -0.5596  0.2727  0.8180
 5039TIP3    H115081   1.074   6.609   1.640 -0.6047  0.0946 -0.6701
 5039TIP3    H215082   1.104   6.757   1.637 -1.1627  0.1969 -1.6543
 5040TIP3   OH215083   2.023   2.734   4.329  0.3689  0.1614  0.1641
 5040TIP3    H115084   2.105   2.695   4.361 -0.2639 -1.9701 -0.6333
 5040TIP3    H215085   1.971   2.749   4.408  1.0792  0.4864  0.5827
 5041TIP3   OH215086   3.509   3.003   3.479 -0.0861 -0.1216 -0.1967
 5041TIP3    H115087   3.591   2.954   3.475  0.6525  0.9814  0.8716
 5041TIP3    H215088   3.524   3.081   3.425  1.1076  2.1656  3.1498
 5042TIP3   OH215089   4.235   1.693   3.219  0.5243  0.9282  0.0832
 5042TIP3    H115090   4.292   1.631   3.174 -1.9163 -0.4098 -1.4008
 5042TIP3    H215091   4.273   1.779   3.201  1.5998  0.1462 -1.5368
 5043TIP3   OH215092   5.993   4.170   5.534  0.2935  0.1953  0.4392
 5043TIP3    H115093   5.974   4.263   5.530  0.7341  0.2571 -0.6860
 5043TIP3    H215094   6.073   4.163   5.586  0.9556  0.5723 -0.5107
 5044TIP3   OH215095   1.003   2.448   0.374 -0.0364 -0.1167  0.4203
 5044TIP3    H115096   1.015   2.414   0.463 -1.7536 -0.9656  0.3697
 5044TIP3    H215097   0.982   2.541   0.386  1.3348  0.1750  0.7672
 5045TIP3   OH215098   0.771   2.387   2.606  0.2143 -0.1401  0.0141
 5045TIP3    H115099   0.779   2.415   2.514 -1.8292  0.0358 -0.1616
 5045TIP3    H215100   0.769   2.469   2.655 -2.2238  0.0089 -0.1770
 5046TIP3   OH215101   0.385   3.131   1.869  0.5423  0.3443 -0.3311
 5046TIP3    H115102   0.379   3.071   1.944  4.0185 -0.0312 -0.1810
 5046TIP3    H215103   0.331   3.205   1.894 -2.2577 -1.7610  0.3977
 5047TIP3   OH215104   4.890   5.202   1.318 -0.1103  0.2932  0.2563
 5047TIP3    H115105   4.924   5.287   1.290  1.1791  0.0922  1.1028
 5047TIP3    H215106   4.855   5.219   1.405  0.7368 -0.1519  0.6975
 5048TIP3   OH215107   6.306   1.196   4.559 -0.3777 -0.8305  0.7089
 5048TIP3    H115108   6.378   1.189   4.497  0.2187 -0.2384  1.3169
 5048TIP3    H215109   6.289   1.106   4.586  1.2803 -0.8733  1.8163
 5049TIP3   OH215110   3.103   6.313   1.798  0.0921  0.1064  0.2793
 5049TIP3    H115111   3.114   6.218   1.806 -1.7837 -0.0707  1.0668
 5049TIP3    H215112   3.162   6.349   1.864  1.4279 -0.4429 -0.5640
 5050TIP3   OH215113   2.779   4.593   4.323 -0.1715 -0.3818 -0.8866
 5050TIP3    H115114   2.868   4.599   4.358 -1.4624  0.5577  2.5709
 5050TIP3    H215115   2.768   4.500   4.301  0.8741 -1.0053  1.0203
 5051TIP3   OH215116   4.646   0.116   1.465  0.0495 -0.4202  0.2055
 5051TIP3    H115117   4.626   0.030   1.428  0.5541 -0.6211  0.4010
 5051TIP3    H215118   4.628   0.107   1.558 -0.9558  0.0084  0.0663
 5052TIP3   OH215119   4.504   3.219   1.865 -0.5524  0.2813 -0.1515
 5052TIP3    H115120   4.516   3.236   1.959  0.2307  0.2583 -0.2401
 5052TIP3    H215121   4.480   3.303   1.828 -1.5031  0.1565  0.1676
 5053TIP3   OH215122   6.104   5.396   3.615 -0.2360  0.2818  0.0014
 5053TIP3    H115123   6.046   5.467   3.644 -0.8672 -0.2954  0.1575
 5053TIP3    H215124   6.046   5.321   3.601  0.3979 -0.1464 -0.3811
 5054TIP3   OH215125   2.841   5.735   5.741  0.1416  0.6593 -0.3938
 5054TIP3    H115126   2.826   5.681   5.663  1.1310  1.7450 -1.3769
 5054TIP3    H215127   2.760   5.784   5.752 -1.8137 -2.7702  2.0607
 5055TIP3   OH215128   6.833   1.346   5.230 -0.3253  0.3702  0.6862
 5055TIP3    H115129   6.830   1.422   5.173 -0.0846  1.1139  1.6489
 5055TIP3    H215130   6.777   1.368   5.304 -1.1998 -0.8689  0.4319
 5056TIP3   OH215131   3.570   3.608   0.041 -0.3245 -0.0514 -0.0310
 5056TIP3    H115132   3.546   3.646   0.125 -0.1755  1.5552 -0.6802
 5056TIP3    H215133   3.540   3.672  -0.024  0.5060 -0.7523 -1.1480
 5057TIP3   OH215134   6.097   4.615   2.714 -0.2131  0.0007  0.0090
 5057TIP3    H115135   6.035   4.677   2.751 -2.3237 -0.9188 -1.7866
 5057TIP3    H215136   6.129   4.658   2.634 -0.3486 -0.5014 -0.3188
 5058TIP3   OH215137   0.298   6.114   2.878 -0.0351  0.4361 -0.6841
 5058TIP3    H115138   0.366   6.161   2.830 -0.0388  0.4986 -0.6292
 5058TIP3    H215139   0.344   6.041   2.920 -0.0225  0.4117 -0.7408
 5059TIP3   OH215140   1.201   0.485   2.013  0.8041  0.2779  0.5922
 5059TIP3    H115141   1.289   0.458   1.984  1.6694  2.1898  1.2920
 5059TIP3    H215142   1.166   0.535   1.940  0.8245  0.5904  0.7948
 5060TIP3   OH215143   3.938   5.463   3.498  0.4412 -0.0580  0.4589
 5060TIP3    H115144   3.993   5.541   3.488  0.0653  0.0510 -1.0171
 5060TIP3    H215145   3.850   5.497   3.510  0.4841 -0.2501  1.3585
 5061TIP3   OH215146   6.815   3.386   0.983 -0.1881  1.2653  0.0311
 5061TIP3    H115147   6.757   3.423   0.916 -1.0188  1.9165  1.0680
 5061TIP3    H215148   6.776   3.414   1.066  0.2284 -0.3906  0.8189
 5062TIP3   OH215149   0.944   3.892   0.773 -0.3790  0.3183  0.2519
 5062TIP3    H115150   0.966   3.946   0.850  2.7267 -0.7800  0.2414
 5062TIP3    H215151   0.953   3.802   0.804  2.7217 -0.1837 -1.7356
 5063TIP3   OH215152   1.035   1.824   3.953  0.0472 -0.3009  0.3078
 5063TIP3    H115153   1.043   1.728   3.959  1.0703 -0.2639 -0.2295
 5063TIP3    H215154   0.993   1.838   3.868  1.2607 -0.2485 -0.3176
 5064TIP3   OH215155   1.308   2.928   0.796 -0.7315 -0.3378  0.3671
 5064TIP3    H115156   1.341   2.979   0.722  0.3884  0.2471  1.2444
 5064TIP3    H215157   1.371   2.857   0.808 -1.3054 -0.8685  0.3014
 5065TIP3   OH215158   1.172   2.718   0.637 -0.5041  0.3247  0.0493
 5065TIP3    H115159   1.205   2.649   0.695 -1.4124 -0.3194 -0.1695
 5065TIP3    H215160   1.121   2.775   0.695  0.0800  0.7108  0.1939
 5066TIP3   OH215161   6.817   0.906   4.154 -0.0348  0.8036 -0.1737
 5066TIP3    H115162   6.800   0.935   4.064 -3.1930  2.4535  0.7869
 5066TIP3    H215163   6.909   0.928   4.170  0.6427  0.3619 -2.9737
 5067TIP3   OH215164   5.602   6.660   0.594  0.3770 -0.4707  0.1180
 5067TIP3    H115165   5.577   6.682   0.505  0.4302  0.3080  0.2895
 5067TIP3    H215166   5.679   6.714   0.612 -0.0563 -0.0806  0.8729
 5068TIP3   OH215167   1.893   5.651   0.800 -0.0888 -0.5245 -0.3344
 5068TIP3    H115168   1.954   5.591   0.842 -0.6149 -0.4994  0.4981
 5068TIP3    H215169   1.813   5.642   0.851 -0.4975  0.1165 -0.8518
 5069TIP3   OH215170   6.293   0.480   0.284  0.5288 -0.6126  0.4621
 5069TIP3    H115171   6.252   0.493   0.369  1.4489 -1.7706  1.1201
 5069TIP3    H215172   6.226   0.438   0.231  0.2818 -0.8514  0.9594
 5070TIP3   OH215173   4.065   6.302   5.671 -0.1500  0.2516 -0.5965
 5070TIP3    H115174   3.990   6.250   5.702  1.0405 -0.5347  1.0931
 5070TIP3    H215175   4.064   6.380   5.726  0.2386  0.2633 -0.6063
 5071TIP3   OH215176   2.246   5.373   5.747 -0.1908 -0.2420  0.2679
 5071TIP3    H115177   2.326   5.322   5.729 -1.1210 -2.1639  1.2418
 5071TIP3    H215178   2.222   5.350   5.836 -0.5452  2.2031  0.8700
 5072TIP3   OH215179   4.067   2.006   3.043 -0.5143  0.0472 -0.0574
 5072TIP3    H115180   4.091   2.009   3.136 -0.2507  2.1758 -0.1500
 5072TIP3    H215181   4.141   2.046   2.998 -1.3541  0.5708 -1.0102
 5073TIP3   OH215182   5.200   0.531   2.413  0.3970 -0.4019 -0.0997
 5073TIP3    H115183   5.217   0.448   2.370  3.3004 -0.7574  1.4589
 5073TIP3    H215184   5.286   0.575   2.416 -0.6695  1.8152  0.7859
 5074TIP3   OH215185   2.517   1.341   3.857  0.3172 -0.1120  0.3176
 5074TIP3    H115186   2.501   1.355   3.950 -0.3373 -0.6856  0.2951
 5074TIP3    H215187   2.432   1.319   3.820  0.6677 -0.4570 -0.3161
 5075TIP3   OH215188   6.174   4.638   1.816 -0.0892 -0.7316  0.0619
 5075TIP3    H115189   6.082   4.626   1.792 -0.0866  0.3001 -0.5110
 5075TIP3    H215190   6.177   4.722   1.862  0.2732 -1.6425  1.7882
 5076TIP3   OH215191   2.762   1.917   0.514  0.4085 -0.1650 -0.1556
 5076TIP3    H115192   2.796   1.982   0.453 -0.4227  0.8086  0.3919
 5076TIP3    H215193   2.829   1.910   0.582 -0.8298  2.5338  1.4898
 5077TIP3   OH215194   4.880   3.088   4.801  0.2319  0.5276  0.2901
 5077TIP3    H115195   4.934   3.159   4.765  0.5123  0.3253  0.3051
 5077TIP3    H215196   4.916   3.073   4.888 -1.4007  2.0500  1.3071
 5078TIP3   OH215197   0.245   0.253   2.954  0.0166 -0.1586  0.9422
 5078TIP3    H115198   0.287   0.323   3.005 -1.0049  0.7264  0.6078
 5078TIP3    H215199   0.317   0.196   2.929  0.8264  0.5414  1.5940
 5079TIP3   OH215200   0.448   3.537   3.076 -0.0024  0.0617  0.1089
 5079TIP3    H115201   0.519   3.572   3.130 -0.7816  0.9298  0.5985
 5079TIP3    H215202   0.478   3.549   2.986  1.3137 -1.4114  0.2999
 5080TIP3   OH215203   0.320   4.014   2.494  0.4043 -0.4922 -0.8560
 5080TIP3    H115204   0.250   4.050   2.549  0.8960  1.1659 -1.2597
 5080TIP3    H215205   0.392   3.996   2.555  0.1384 -0.8770 -0.6469
 5081TIP3   OH215206   5.932   3.908   5.550 -0.1853 -0.1281 -0.1297
 5081TIP3    H115207   5.845   3.888   5.584  0.1981 -1.3545  0.1501
 5081TIP3    H215208   5.940   4.003   5.560  0.1593 -0.3991  3.9273
 5082TIP3   OH215209   3.826   0.977   5.721  0.3742  0.1354 -0.0589
 5082TIP3    H115210   3.730   0.982   5.727  0.4615  1.1444  0.9648
 5082TIP3    H215211   3.852   0.926   5.798  0.6500 -0.3959 -0.4979
 5083TIP3   OH215212   2.600   2.125   5.667 -0.2367 -0.3010 -0.1245
 5083TIP3    H115213   2.539   2.146   5.738  0.9071  0.4832  0.6616
 5083TIP3    H215214   2.677   2.178   5.685  1.9666 -3.4994  0.7214
 5084TIP3   OH215215   2.976   6.393   2.111  0.0621 -0.0372 -0.1827
 5084TIP3    H115216   3.069   6.372   2.117 -0.1343 -1.1143 -0.6258
 5084TIP3    H215217   2.933   6.308   2.100 -0.9028  0.5121 -0.7972
 5085TIP3   OH215218   6.493   1.103   3.316  0.5555 -0.0943  1.0376
 5085TIP3    H115219   6.553   1.029   3.303 -1.5081 -1.4929 -1.2717
 5085TIP3    H215220   6.422   1.068   3.370  0.0284  0.4769  0.7276
 5086TIP3   OH215221   7.146   3.250   1.588  0.0498  0.3425 -0.1471
 5086TIP3    H115222   7.199   3.298   1.651 -1.0560  1.6696 -0.1561
 5086TIP3    H215223   7.125   3.168   1.631  0.7814  0.4799  0.4850
 5087TIP3   OH215224   5.494   4.662   0.497  0.2136  0.3697  0.3197
 5087TIP3    H115225   5.446   4.601   0.552 -0.1831  1.3535  1.0991
 5087TIP3    H215226   5.446   4.662   0.414 -0.3496  0.3481  0.6431
 5088TIP3   OH215227   6.307   5.620   1.355 -0.6888  0.1417 -0.5681
 5088TIP3    H115228   6.325   5.562   1.282  1.2261  0.2509 -0.2391
 5088TIP3    H215229   6.211   5.629   1.356 -1.1912 -3.5851 -0.1824
 5089TIP3   OH215230   3.154   1.356   0.904  0.1035 -0.1254  0.3678
 5089TIP3    H115231   3.214   1.314   0.842 -0.7113 -0.4592 -0.2085
 5089TIP3    H215232   3.205   1.430   0.938  0.5410  0.1409 -0.7896
 5090TIP3   OH215233   6.290   5.463   4.465  0.5745 -0.2032 -0.6660
 5090TIP3    H115234   6.342   5.516   4.404  0.4480 -0.3136 -0.8708
 5090TIP3    H215235   6.200   5.495   4.454  0.5212 -0.3577 -0.6814
 5091TIP3   OH215236   4.815   1.916   3.082 -0.0385  0.2345  0.4399
 5091TIP3    H115237   4.821   1.854   3.155 -0.3380  2.1050  2.1556
 5091TIP3    H215238   4.838   2.000   3.120 -0.6915  1.3802 -1.5304
 5092TIP3   OH215239   5.285   4.345   5.822 -0.0448  0.0609 -0.4838
 5092TIP3    H115240   5.294   4.436   5.849 -0.1407 -0.4922  1.6153
 5092TIP3    H215241   5.353   4.299   5.872 -0.6186 -1.1526 -0.7801
 5093TIP3   OH215242   1.303   0.885   0.281  0.2698 -0.2020  0.3952
 5093TIP3    H115243   1.235   0.855   0.221 -0.7226  0.3924  1.1986
 5093TIP3    H215244   1.363   0.810   0.287 -1.1422 -1.3445  0.8791
 5094TIP3   OH215245   5.977   1.635   3.501 -0.3752  0.2033  0.1090
 5094TIP3    H115246   5.886   1.607   3.489 -1.2004  0.8423  3.6653
 5094TIP3    H215247   5.979   1.724   3.465 -1.0836  0.0897 -0.2414
 5095TIP3   OH215248   0.647   6.408   4.703 -0.0579 -0.5283 -0.1673
 5095TIP3    H115249   0.598   6.399   4.784  1.4835 -2.4467  0.6384
 5095TIP3    H215250   0.735   6.435   4.731  0.1813 -0.0623 -1.2921
 5096TIP3   OH215251   1.779   0.461   2.422 -0.5133  0.2027 -0.0621
 5096TIP3    H115252   1.785   0.554   2.398 -1.8313  0.8786  1.9379
 5096TIP3    H215253   1.741   0.419   2.345 -1.1762  1.5665 -0.5115
 5097TIP3   OH215254   4.617   3.122   0.890 -0.4255 -0.5285  0.1148
 5097TIP3    H115255   4.531   3.095   0.922 -0.4821  0.8520  1.2435
 5097TIP3    H215256   4.674   3.114   0.967  0.4137 -1.1688 -0.5529
 5098TIP3   OH215257   5.652   0.644   2.055 -0.3646  0.0502  0.0808
 5098TIP3    H115258   5.635   0.682   2.141 -1.2054  0.2185 -0.1468
 5098TIP3    H215259   5.646   0.718   1.995 -0.9683 -0.2616 -0.2504
 5099TIP3   OH215260   0.804   1.835   4.456 -0.3589  0.2547  0.7850
 5099TIP3    H115261   0.765   1.818   4.370  0.3138 -1.1780  0.7263
 5099TIP3    H215262   0.894   1.861   4.437 -0.2741  0.1456  1.0351
 5100TIP3   OH215263   0.296   3.640   0.589  0.1979  0.4042  0.0128
 5100TIP3    H115264   0.318   3.557   0.545  2.2605  0.9268 -0.0378
 5100TIP3    H215265   0.217   3.620   0.638  1.2873 -1.9879  0.9748
 5101TIP3   OH215266   0.119   3.256   5.191 -0.3919 -0.5349  0.3180
 5101TIP3    H115267   0.158   3.341   5.210 -0.0979 -0.3895 -0.8333
 5101TIP3    H215268   0.194   3.201   5.166 -0.7587 -0.6225 -0.6513
 5102TIP3   OH215269   0.076   3.844   3.249 -0.3076  0.0167 -0.7628
 5102TIP3    H115270   0.049   3.861   3.158  1.2896 -1.4436 -1.5785
 5102TIP3    H215271   0.166   3.877   3.253 -1.0577  2.1274  1.0181
 5103TIP3   OH215272   1.306   5.976   3.597  0.1473  0.1885 -0.1626
 5103TIP3    H115273   1.284   5.883   3.611 -0.8014  0.0383 -2.2072
 5103TIP3    H215274   1.232   6.023   3.634  1.0990  0.2374  1.8006
 5104TIP3   OH215275   3.325   2.223   5.671  0.1999 -0.2883  0.3395
 5104TIP3    H115276   3.278   2.273   5.738 -0.2151 -1.1999  0.7432
 5104TIP3    H215277   3.320   2.277   5.593 -0.2966  0.2720  0.7501
 5105TIP3   OH215278   4.604   3.646   2.091 -0.0702 -0.0577 -0.0628
 5105TIP3    H115279   4.666   3.684   2.153  0.1528 -1.5165  0.6251
 5105TIP3    H215280   4.579   3.720   2.035  3.2983  0.3402 -1.2417
 5106TIP3   OH215281   2.471   5.845   2.018  0.1379  0.2840  0.7177
 5106TIP3    H115282   2.440   5.859   2.108 -0.1436 -0.5072  0.7559
 5106TIP3    H215283   2.522   5.764   2.023  2.5260  1.7119  0.7110
 5107TIP3   OH215284   5.288   3.363   0.035 -0.2872  0.1747  0.0286
 5107TIP3    H115285   5.275   3.297   0.104  2.6675  0.0598  0.6080
 5107TIP3    H215286   5.266   3.317  -0.046 -1.6416 -0.3883  0.6785
 5108TIP3   OH215287   3.789   4.341   4.887  0.2080  0.3384  0.6015
 5108TIP3    H115288   3.823   4.252   4.878 -0.5877 -0.1550  2.1143
 5108TIP3    H215289   3.805   4.381   4.802  2.8032 -0.4538  0.6224
 5109TIP3   OH215290   0.252   6.512   5.442 -0.1498  0.3808  0.2920
 5109TIP3    H115291   0.163   6.489   5.416  0.3847 -0.6442 -0.7260
 5109TIP3    H215292   0.276   6.585   5.384  0.4675 -0.8582 -1.0828
 5110TIP3   OH215293   3.571   4.297   4.224 -0.3021  0.0804  0.1589
 5110TIP3    H115294   3.593   4.315   4.132 -2.1197  1.1455 -0.1107
 5110TIP3    H215295   3.604   4.373   4.272  0.3428 -0.3166  0.3550
 5111TIP3   OH215296   1.238   3.369   3.215  0.5121 -0.2965  0.0661
 5111TIP3    H115297   1.215   3.279   3.236 -0.4832  0.5565  3.1953
 5111TIP3    H215298   1.157   3.407   3.179 -0.4500  0.3263  2.6394
 5112TIP3   OH215299   2.619   5.936   2.407 -0.0573 -0.2600  0.1841
 5112TIP3    H115300   2.646   6.015   2.360 -0.6681  0.7293  1.4284
 5112TIP3    H215301   2.549   5.900   2.354  0.1224  0.1241 -0.3233
 5113TIP3   OH215302   4.980   0.575   1.774 -0.4547  0.0625 -0.2953
 5113TIP3    H115303   5.020   0.611   1.853  1.9171  1.1682 -1.8990
 5113TIP3    H215304   4.947   0.651   1.727 -0.8024 -0.4727 -0.9287
 5114TIP3   OH215305   0.725   4.362   1.075  0.2940 -0.1597  0.5607
 5114TIP3    H115306   0.762   4.450   1.076  0.1153 -0.0836  0.4702
 5114TIP3    H215307   0.778   4.313   1.138  0.4935 -0.0291  0.4949
 5115TIP3   OH215308   2.225   0.729   3.505 -0.2029 -0.1182  0.5635
 5115TIP3    H115309   2.171   0.762   3.433  0.9262  0.7179  0.0759
 5115TIP3    H215310   2.301   0.688   3.462  1.1921  1.6215  1.2595
 5116TIP3   OH215311   5.868   1.895   5.770 -0.3370 -0.2110  0.0509
 5116TIP3    H115312   5.883   1.830   5.702 -0.3879 -1.7288  1.4309
 5116TIP3    H215313   5.922   1.866   5.844  0.3307  1.8060  0.4447
 5117TIP3   OH215314   2.718   6.095   1.072  0.3314 -0.3344  1.1832
 5117TIP3    H115315   2.784   6.036   1.109  2.1768 -1.3611 -3.1741
 5117TIP3    H215316   2.761   6.181   1.069 -0.6161  0.2737  3.1377
 5118TIP3   OH215317   3.392   0.391   5.507  0.0958  0.5209 -1.0239
 5118TIP3    H115318   3.395   0.298   5.532 -1.6961  1.2201  2.2609
 5118TIP3    H215319   3.321   0.395   5.442 -1.4566 -0.1225  0.5675
 5119TIP3   OH215320   0.968   6.108   0.306 -0.4218  0.1928 -0.1587
 5119TIP3    H115321   1.053   6.148   0.288 -0.5693  0.5170 -0.1381
 5119TIP3    H215322   0.937   6.152   0.385  1.3902 -2.9490  2.5822
 5120TIP3   OH215323   6.372   6.015   2.958  0.1557  0.5640 -0.0164
 5120TIP3    H115324   6.304   6.080   2.938  0.5834  1.2408  0.6882
 5120TIP3    H215325   6.441   6.065   3.003  0.9092 -0.2017 -0.2926
 5121TIP3   OH215326   0.934   4.057   0.987 -0.2553 -0.4321  0.0325
 5121TIP3    H115327   0.930   4.132   1.046 -2.5682  1.3097 -2.0851
 5121TIP3    H215328   0.869   3.996   1.021  1.7608 -1.6976  1.8667
 5122TIP3   OH215329   1.172   5.622   4.427 -0.1381  0.6690 -0.1787
 5122TIP3    H115330   1.249   5.583   4.384 -0.3828 -0.3252  0.2492
 5122TIP3    H215331   1.204   5.648   4.513 -0.4530 -0.4620  0.2934
 5123TIP3   OH215332   0.075   0.471   1.376  0.1530 -0.4019 -0.8971
 5123TIP3    H115333   0.159   0.431   1.355  0.8358 -0.3646  1.5066
 5123TIP3    H215334   0.049   0.515   1.295  3.7271  1.8440 -1.0330
 5124TIP3   OH215335   5.517   4.935   5.594  0.5088 -0.6172  0.2007
 5124TIP3    H115336   5.481   5.024   5.593  1.2988 -0.2830 -0.4828
 5124TIP3    H215337   5.467   4.889   5.527  0.0738 -0.6906  0.5802
 5125TIP3   OH215338   3.483   6.510   2.479  0.2512 -0.3780 -0.3588
 5125TIP3    H115339   3.426   6.548   2.412 -1.0062 -0.8777  0.3902
 5125TIP3    H215340   3.572   6.521   2.445 -0.3687 -0.8034 -2.1994
 5126TIP3   OH215341   4.249   1.852   5.532 -0.0835 -0.4134 -0.1141
 5126TIP3    H115342   4.200   1.783   5.487 -0.2629 -0.6821  0.4878
 5126TIP3    H215343   4.205   1.861   5.617 -0.9989  1.4789 -0.7336
 5127TIP3   OH215344   3.873   2.247   3.342  0.0046  0.3669 -0.3505
 5127TIP3    H115345   3.798   2.261   3.285  0.1149  3.0250  0.0532
 5127TIP3    H215346   3.834   2.231   3.428 -0.1011 -1.1643 -0.6483
 5128TIP3   OH215347   3.826   3.500   0.060 -0.3256  0.0398 -0.3830
 5128TIP3    H115348   3.841   3.470  -0.029  1.9828  2.1909 -0.8140
 5128TIP3    H215349   3.740   3.542   0.057 -0.1311  0.3975 -1.7190
 5129TIP3   OH215350   0.414   6.320   1.588  0.2327 -0.1962  0.6432
 5129TIP3    H115351   0.330   6.361   1.612  0.0578 -0.3334  0.2690
 5129TIP3    H215352   0.449   6.289   1.672 -0.4534 -0.8170  0.7176
 5130TIP3   OH215353   4.774   2.662   4.287  0.2506  0.1122 -0.0440
 5130TIP3    H115354   4.729   2.658   4.371 -0.8811  0.0501 -0.6364
 5130TIP3    H215355   4.781   2.756   4.268 -0.1716  0.1047 -0.2353
 5131TIP3   OH215356   6.381   2.970   4.409  0.0870  0.3451 -0.3771
 5131TIP3    H115357   6.399   2.978   4.503  0.7803 -3.2355 -0.0612
 5131TIP3    H215358   6.287   2.953   4.404  0.1052  0.2209 -0.3017
 5132TIP3   OH215359   2.405   2.774   5.046  0.4893  0.2428 -0.1734
 5132TIP3    H115360   2.370   2.800   5.132 -0.4961 -2.5469  0.3870
 5132TIP3    H215361   2.328   2.774   4.988  0.6527 -0.3389 -0.3957
 5133TIP3   OH215362   3.983   3.702   4.785 -0.7863  0.1682  0.2992
 5133TIP3    H115363   4.043   3.634   4.815 -1.1256 -0.3749 -0.2499
 5133TIP3    H215364   3.964   3.679   4.694  0.6115  2.0453 -0.5425
 5134TIP3   OH215365   1.769   0.584   2.696 -0.3222 -0.1802  0.7058
 5134TIP3    H115366   1.797   0.521   2.630  1.0870 -0.3433  1.4247
 5134TIP3    H215367   1.673   0.583   2.691 -0.2654 -0.9403 -0.6124
 5135TIP3   OH215368   2.600   2.882   2.881  0.1151 -0.1085  0.4731
 5135TIP3    H115369   2.538   2.950   2.855  0.8648  0.9848  1.4282
 5135TIP3    H215370   2.672   2.890   2.819  0.5716  0.5326  1.0723
 5136TIP3   OH215371   1.154   6.105   5.783 -0.3322 -0.4434  0.2527
 5136TIP3    H115372   1.244   6.133   5.769 -0.4371  0.8308  1.8404
 5136TIP3    H215373   1.112   6.117   5.697  1.1807 -2.0115 -0.7836
 5137TIP3   OH215374   0.476   2.123   1.253 -0.1702 -0.1456 -0.6172
 5137TIP3    H115375   0.385   2.112   1.281  0.3375 -0.1466  1.1591
 5137TIP3    H215376   0.520   2.162   1.329  1.2740  0.0117 -1.5016
 5138TIP3   OH215377   5.204   5.710   2.852  0.1830 -0.1426  0.2211
 5138TIP3    H115378   5.147   5.787   2.850 -0.4107 -0.5589  0.7591
 5138TIP3    H215379   5.159   5.649   2.910  0.3479 -1.1441 -0.6931
 5139TIP3   OH215380   0.762   3.236   0.835  0.0013  0.3184  0.2996
 5139TIP3    H115381   0.703   3.307   0.809  0.5049  1.5817  2.3243
 5139TIP3    H215382   0.722   3.157   0.799 -2.2238  1.2694  0.5059
 5140TIP3   OH215383   0.480   0.539   2.530  0.1372  0.6224 -0.2375
 5140TIP3    H115384   0.475   0.506   2.620  1.0026 -2.3973 -1.1975
 5140TIP3    H215385   0.544   0.610   2.534 -0.7533  1.3753  1.7107
 5141TIP3   OH215386   4.209   6.494   4.373 -0.1346  0.3672 -0.0181
 5141TIP3    H115387   4.263   6.422   4.339 -0.1831  0.1947  0.2757
 5141TIP3    H215388   4.273   6.562   4.395  0.3732 -1.0785  3.6159
 5142TIP3   OH215389   1.749   2.646   4.298 -0.4343 -0.5513  0.2727
 5142TIP3    H115390   1.831   2.692   4.279  0.1755 -1.9472 -0.6326
 5142TIP3    H215391   1.693   2.667   4.224  0.6156 -2.9365 -1.3115
 5143TIP3   OH215392   6.744   2.710   4.710 -0.0849 -0.3134  0.9745
 5143TIP3    H115393   6.803   2.770   4.666 -0.7914 -0.7740 -0.7062
 5143TIP3    H215394   6.681   2.766   4.755  0.1502  0.1860  0.6830
 5144TIP3   OH215395   3.767   5.552   1.628 -0.3273 -0.4637 -0.3718
 5144TIP3    H115396   3.747   5.483   1.565 -1.1251 -0.5662 -0.0186
 5144TIP3    H215397   3.747   5.514   1.713 -1.7243  0.5053 -0.2399
 5145TIP3   OH215398   0.613   2.962   1.235 -0.3366 -0.2494 -0.4854
 5145TIP3    H115399   0.693   2.962   1.182  0.2000 -0.5780  0.3005
 5145TIP3    H215400   0.628   2.894   1.301 -0.2448  1.2965  1.1694
 5146TIP3   OH215401   4.673   0.771   0.034 -0.0264  0.4820 -0.2018
 5146TIP3    H115402   4.650   0.703   0.097  0.3961 -0.5984 -1.1689
 5146TIP3    H215403   4.665   0.853   0.082 -0.5135 -0.2550  1.0071
 5147TIP3   OH215404   5.389   2.725   0.651 -0.8820 -0.2483  0.0679
 5147TIP3    H115405   5.476   2.685   0.637  0.2375  1.9108  0.4147
 5147TIP3    H215406   5.371   2.770   0.569  0.3536  2.7969  1.3090
 5148TIP3   OH215407   6.022   5.672   1.879  0.4691 -0.1533 -0.0192
 5148TIP3    H115408   6.115   5.674   1.902  0.5278 -0.4999 -0.2066
 5148TIP3    H215409   5.992   5.761   1.893  0.7006 -0.1670  0.5718
 5149TIP3   OH215410   5.102   6.372   0.921 -0.1756  0.1441  0.7967
 5149TIP3    H115411   5.039   6.319   0.969 -1.1039  1.1453  0.7421
 5149TIP3    H215412   5.090   6.347   0.829 -0.0854 -0.0679  0.8418
 5150TIP3   OH215413   6.008   4.618   3.789 -0.6207 -0.2967  0.2278
 5150TIP3    H115414   6.002   4.528   3.820  0.1202  0.4287  2.6444
 5150TIP3    H215415   5.931   4.661   3.825  1.0551  0.9356  2.5615
 5151TIP3   OH215416   4.271   5.130   3.468  0.1263  0.5932  0.3894
 5151TIP3    H115417   4.245   5.044   3.435  1.6604  0.3976 -0.4173
 5151TIP3    H215418   4.259   5.189   3.394  0.8347  0.7053  0.3521
 5152TIP3   OH215419   3.630   4.031   1.086 -0.0937 -0.3129  0.1182
 5152TIP3    H115420   3.654   4.021   0.994 -1.3839 -1.0527 -0.1520
 5152TIP3    H215421   3.593   4.120   1.092 -1.0374 -0.6636 -0.3262
 5153TIP3   OH215422   7.060   4.217   4.628 -0.0486 -0.4219 -0.1731
 5153TIP3    H115423   7.148   4.222   4.665 -0.0313 -0.7584 -0.1662
 5153TIP3    H215424   7.071   4.248   4.538 -0.1988  0.9513  0.2632
 5154TIP3   OH215425   1.956   1.066   2.942  0.0606  0.0984  0.2916
 5154TIP3    H115426   1.869   1.077   2.903 -0.2650 -0.3590  0.8655
 5154TIP3    H215427   1.942   1.004   3.014  1.4272 -2.6791 -1.6243
 5155TIP3   OH215428   2.855   0.303   2.395  0.2650 -0.4334 -0.3063
 5155TIP3    H115429   2.804   0.280   2.318  0.4415  0.4925 -0.7105
 5155TIP3    H215430   2.802   0.368   2.440  1.0278  0.4537 -0.6689
 5156TIP3   OH215431   1.754   1.364   5.752 -0.4104  0.0627  0.3631
 5156TIP3    H115432   1.674   1.402   5.791 -1.9717  0.3636 -2.7812
 5156TIP3    H215433   1.802   1.328   5.826 -4.1857 -1.4803  2.3545
 5157TIP3   OH215434   7.143   1.105   0.810  0.2796  0.2559 -0.0280
 5157TIP3    H115435   7.159   1.066   0.896 -0.8186  0.1418  0.1397
 5157TIP3    H215436   7.137   1.199   0.828  1.7255  0.4149 -0.2518
 5158TIP3   OH215437   4.630   0.356   4.888  0.1183 -0.5261 -0.1616
 5158TIP3    H115438   4.535   0.362   4.875  0.1879  0.5385 -0.3219
 5158TIP3    H215439   4.665   0.349   4.800  0.0791 -3.7124 -0.0136
 5159TIP3   OH215440   4.023   1.163   3.332 -0.5893 -0.3958  0.1780
 5159TIP3    H115441   3.929   1.157   3.319 -0.7793 -0.2028  1.3644
 5159TIP3    H215442   4.061   1.127   3.252 -1.6610  0.5264 -0.7778
 5160TIP3   OH215443   6.807   3.803   3.768 -0.3866 -0.1916 -0.7894
 5160TIP3    H115444   6.787   3.717   3.806  0.0996 -0.2745 -0.7231
 5160TIP3    H215445   6.820   3.785   3.675 -0.6991 -0.1228 -0.8484
 5161TIP3   OH215446   2.084   3.737   5.257 -0.0629 -0.3116 -0.6289
 5161TIP3    H115447   2.041   3.652   5.271 -0.3903 -0.1752 -0.7893
 5161TIP3    H215448   2.085   3.778   5.343 -3.0977  1.0095 -1.0730
 5162TIP3   OH215449   4.946   4.364   5.771 -0.2010  0.0831  0.0587
 5162TIP3    H115450   5.001   4.304   5.821 -1.0864 -0.5440  0.3027
 5162TIP3    H215451   5.004   4.437   5.748  0.7760 -0.6539  0.1327
 5163TIP3   OH215452   6.260   5.026   3.423 -0.3665  0.3283 -0.8300
 5163TIP3    H115453   6.297   4.949   3.467  0.8423  0.9646 -0.6857
 5163TIP3    H215454   6.286   5.100   3.479 -1.3426  0.8665 -1.0670
 5164TIP3   OH215455   1.228   5.181   3.998  0.2641  0.2403 -0.3155
 5164TIP3    H115456   1.295   5.182   4.066  1.1396  2.2687 -1.0985
 5164TIP3    H215457   1.163   5.246   4.027  0.3458  0.6930 -1.1116
 5165TIP3   OH215458   1.545   4.843   5.221  0.0639  0.3086 -0.0013
 5165TIP3    H115459   1.557   4.749   5.215 -0.9627  0.1063  0.8398
 5165TIP3    H215460   1.620   4.874   5.271  1.1346  0.1441 -1.4417
 5166TIP3   OH215461   6.426   4.021   3.978 -0.1037  0.4041 -0.0117
 5166TIP3    H115462   6.381   3.988   4.056 -1.1469  0.0581 -0.7430
 5166TIP3    H215463   6.427   3.947   3.918  1.3979  0.4211 -0.0647
 5167TIP3   OH215464   4.717   5.531   5.239 -0.0191  0.1063  0.4631
 5167TIP3    H115465   4.695   5.554   5.148  1.6395 -1.0461 -0.2910
 5167TIP3    H215466   4.706   5.612   5.288  0.2467  1.0729 -1.0197
 5168TIP3   OH215467   2.520   0.484   1.787 -0.1048 -0.5635  0.4666
 5168TIP3    H115468   2.494   0.568   1.824 -1.4313 -0.6683 -0.1708
 5168TIP3    H215469   2.572   0.506   1.711  0.6783 -0.3405  1.0541
 5169TIP3   OH215470   2.685   4.930   4.924 -0.4572 -0.3850  1.1286
 5169TIP3    H115471   2.681   4.907   4.831 -1.4291  1.2534  0.7248
 5169TIP3    H215472   2.596   4.915   4.955 -0.8124  1.5362  1.1347
 5170TIP3   OH215473   0.646   1.798   1.387 -0.3421  0.1623 -0.2180
 5170TIP3    H115474   0.675   1.874   1.338 -0.0108 -0.6649 -1.3469
 5170TIP3    H215475   0.723   1.742   1.392 -0.9987 -0.8214 -0.8282
 5171TIP3   OH215476   1.359   5.262   1.674  0.2557  0.1758  0.3765
 5171TIP3    H115477   1.369   5.202   1.748  1.5618  1.3484  1.2202
 5171TIP3    H215478   1.266   5.259   1.653 -0.3713  0.5216  2.7421
 5172TIP3   OH215479   4.000   0.021   4.760 -0.1789  0.3145 -1.0019
 5172TIP3    H115480   3.911   0.057   4.756 -0.6784 -0.9613 -2.1311
 5172TIP3    H215481   3.987  -0.073   4.773  1.0761  0.3772  1.0989
 5173TIP3   OH215482   3.749   1.899   5.355 -0.3720  0.5100 -0.0581
 5173TIP3    H115483   3.662   1.883   5.390 -0.2537  1.8455  0.9045
 5173TIP3    H215484   3.768   1.821   5.302 -1.6986 -0.2767  0.5766
 5174TIP3   OH215485   5.566   3.133   1.539 -0.7082 -0.1541 -0.1751
 5174TIP3    H115486   5.608   3.120   1.624 -0.6297 -0.1204 -0.2095
 5174TIP3    H215487   5.482   3.088   1.548 -1.5602  1.4866  0.6051
 5175TIP3   OH215488   0.988   4.322   4.946 -0.0986 -0.6360  0.5367
 5175TIP3    H115489   0.971   4.415   4.965 -0.3442 -0.5330 -0.1780
 5175TIP3    H215490   0.933   4.303   4.870 -2.3484 -2.1192  2.3658
 5176TIP3   OH215491   3.337   1.642   2.683  0.3295  0.0373  0.2123
 5176TIP3    H115492   3.315   1.551   2.662 -1.0468  0.4021 -0.0336
 5176TIP3    H215493   3.334   1.688   2.599  0.0508  0.4906  0.4642
 5177TIP3   OH215494   6.249   0.936   3.984 -0.6007 -0.6410 -0.2623
 5177TIP3    H115495   6.183   0.911   4.049 -0.8014 -0.1339 -0.2678
 5177TIP3    H215496   6.219   0.896   3.903 -2.7124  2.2531 -1.0491
 5178TIP3   OH215497   4.651   1.092   2.347 -0.2499  0.5183 -0.4418
 5178TIP3    H115498   4.595   1.092   2.269 -0.4839 -0.9875 -0.2980
 5178TIP3    H215499   4.612   1.027   2.405  1.0191  0.2233  0.1191
 5179TIP3   OH215500   3.411   1.612   4.330  0.0278  0.5929  0.5901
 5179TIP3    H115501   3.499   1.575   4.342  0.4244  1.2318 -0.2057
 5179TIP3    H215502   3.400   1.616   4.235 -1.2004 -0.2221  0.6815
 5180TIP3   OH215503   2.412   6.180   1.446  0.1998  0.4358 -0.2806
 5180TIP3    H115504   2.469   6.253   1.470  0.1226  0.4356 -0.0965
 5180TIP3    H215505   2.433   6.162   1.354  0.9507  0.0250 -0.0388
 5181TIP3   OH215506   2.215   1.745   5.780  0.5202  0.7936 -0.0270
 5181TIP3    H115507   2.289   1.708   5.732  0.1673  0.7827 -0.5696
 5181TIP3    H215508   2.200   1.831   5.739  0.3180  0.8489  0.1603
 5182TIP3   OH215509   0.501   1.798   4.442 -0.4589 -0.2176 -0.5102
 5182TIP3    H115510   0.460   1.729   4.390 -1.1524 -1.3258  1.4130
 5182TIP3    H215511   0.595   1.789   4.424 -0.4184 -2.3954  0.4464
 5183TIP3   OH215512   6.908   6.666   0.220  0.1879 -0.1138  0.7565
 5183TIP3    H115513   6.893   6.652   0.313 -0.5937  0.0491  0.6590
 5183TIP3    H215514   6.827   6.639   0.178  0.6721 -0.5560  0.0794
 5184TIP3   OH215515   0.935   3.563   4.357  0.3557 -0.0235 -0.4266
 5184TIP3    H115516   0.975   3.609   4.430  1.5180 -0.2397 -0.9063
 5184TIP3    H215517   0.843   3.552   4.382  0.2286  1.8668  0.0229
 5185TIP3   OH215518   2.179   5.084   4.563 -0.3784  0.1795  0.0828
 5185TIP3    H115519   2.189   5.003   4.512  0.0138  0.2791 -0.0055
 5185TIP3    H215520   2.263   5.094   4.609  0.0742  1.2111 -0.9127
 5186TIP3   OH215521   5.704   3.106   3.133  1.0245  0.0928 -0.0421
 5186TIP3    H115522   5.660   3.162   3.070 -0.0534  0.8141  1.2932
 5186TIP3    H215523   5.790   3.087   3.093  0.7112  1.2089 -1.3103
 5187TIP3   OH215524   4.933   0.786   1.572  0.6464  0.4144  0.3093
 5187TIP3    H115525   4.965   0.799   1.482 -1.8604  1.4304 -0.5175
 5187TIP3    H215526   4.876   0.861   1.588  0.3888 -0.1805  2.4792
 5188TIP3   OH215527   6.191   6.136   1.069  0.1895  0.0275 -0.2529
 5188TIP3    H115528   6.126   6.177   1.125 -1.6386 -1.6750 -1.0333
 5188TIP3    H215529   6.183   6.183   0.985 -0.0594 -0.2048 -0.3592
 5189TIP3   OH215530   6.608   3.738   0.800 -0.0212 -0.2474  0.3377
 5189TIP3    H115531   6.593   3.729   0.894  0.5463 -1.7483  0.3180
 5189TIP3    H215532   6.546   3.805   0.772 -1.3026 -0.8844  1.5169
 5190TIP3   OH215533   4.001   3.895   0.316 -0.3957 -0.0174  0.4951
 5190TIP3    H115534   3.961   3.844   0.387 -0.2826  0.3401  0.8170
 5190TIP3    H215535   3.934   3.895   0.247 -0.0749 -1.3036  0.1570
 5191TIP3   OH215536   2.867   2.671   3.855  0.1954  0.1854  0.6335
 5191TIP3    H115537   2.827   2.750   3.892  0.4886  0.0938  1.1500
 5191TIP3    H215538   2.909   2.701   3.775  1.3776  0.8140  1.4667
 5192TIP3   OH215539   1.042   1.878   3.354  0.0274 -0.0471 -0.4932
 5192TIP3    H115540   1.114   1.874   3.291 -0.1469 -1.0064 -0.6591
 5192TIP3    H215541   0.963   1.883   3.299 -0.0539  0.6330 -0.3188
 5193TIP3   OH215542   4.791   3.614   5.597  0.0367 -0.2833  0.3918
 5193TIP3    H115543   4.802   3.638   5.689 -0.0657 -1.3092  0.6820
 5193TIP3    H215544   4.697   3.598   5.588 -0.0809  0.6574 -0.1095
 5194TIP3   OH215545   1.093   6.781   2.829  0.7599 -0.3571  0.0300
 5194TIP3    H115546   1.037   6.818   2.897 -0.4884 -0.9140 -0.6709
 5194TIP3    H215547   1.034   6.762   2.756  1.6741 -1.9120 -0.3546
 5195TIP3   OH215548   4.456   3.592   2.508 -0.2463 -0.4184  0.0530
 5195TIP3    H115549   4.424   3.612   2.420  0.6871 -1.6814 -0.6109
 5195TIP3    H215550   4.416   3.507   2.529  0.7222 -0.8565  0.1899
 5196TIP3   OH215551   0.357   5.998   2.278  0.0267 -0.0479  0.1828
 5196TIP3    H115552   0.425   5.996   2.210  0.2078 -1.1587  0.3810
 5196TIP3    H215553   0.378   5.924   2.335 -0.7996  0.1783  0.7903
 5197TIP3   OH215554   1.125   6.131   0.847 -0.5913 -0.1196 -0.2536
 5197TIP3    H115555   1.088   6.113   0.761 -0.0309 -1.4604 -0.2550
 5197TIP3    H215556   1.155   6.222   0.842 -1.4252  0.1229 -1.1437
 5198TIP3   OH215557   1.132   4.497   5.376 -0.6194 -0.2114 -0.1433
 5198TIP3    H115558   1.199   4.529   5.316 -0.5592 -0.2714 -0.1083
 5198TIP3    H215559   1.156   4.407   5.394 -0.2682  0.0018  0.4825
 5199TIP3   OH215560   0.405   6.197   3.775  0.3396  0.4049  0.7177
 5199TIP3    H115561   0.402   6.290   3.753  1.6030  0.8235  2.1252
 5199TIP3    H215562   0.462   6.158   3.708 -1.8679  0.1932 -1.1412
 5200TIP3   OH215563   1.787   5.055   0.948  0.0983  0.2117 -0.1146
 5200TIP3    H115564   1.750   5.012   1.026 -0.3875  1.2256  0.2337
 5200TIP3    H215565   1.878   5.025   0.945  0.2873  0.6069  1.1819
 5201TIP3   OH215566   7.072   0.578   1.523 -0.6761  0.1473  0.0683
 5201TIP3    H115567   7.050   0.656   1.473 -0.0048  1.0966  1.2054
 5201TIP3    H215568   7.162   0.558   1.498 -0.5786  0.2082  0.3680
 5202TIP3   OH215569   1.098   3.302   0.237 -0.3175  0.6464 -0.0304
 5202TIP3    H115570   1.103   3.274   0.329 -1.0129  0.0665 -0.1612
 5202TIP3    H215571   1.186   3.335   0.218 -0.1036  0.5788  0.7845
 5203TIP3   OH215572   1.508   2.739   1.823  0.1580 -0.1277 -0.0552
 5203TIP3    H115573   1.478   2.720   1.734  1.2562  0.9202 -0.6662
 5203TIP3    H215574   1.586   2.685   1.834 -0.2527 -0.6278  0.4666
 5204TIP3   OH215575   2.655   2.947   3.864 -0.2918  0.1164  0.1191
 5204TIP3    H115576   2.560   2.960   3.853 -0.1719  0.1303 -1.0092
 5204TIP3    H215577   2.693   2.977   3.781  0.8559  1.6068  1.1184
 5205TIP3   OH215578   0.650   2.459   1.456  0.3521 -0.7476 -0.3648
 5205TIP3    H115579   0.662   2.488   1.546  0.4981 -0.3382 -0.5178
 5205TIP3    H215580   0.591   2.383   1.464 -0.3775 -0.1537 -0.0087
 5206TIP3   OH215581   4.714  -0.009   4.728  0.3671  0.0962  0.0508
 5206TIP3    H115582   4.704  -0.001   4.823  1.3088 -1.6890  0.3456
 5206TIP3    H215583   4.786   0.050   4.706 -0.5528  1.3331  0.2491
 5207TIP3   OH215584   0.637   1.384   0.993  0.1535 -0.0689 -0.3304
 5207TIP3    H115585   0.646   1.459   0.935  0.7566  1.7896  2.0216
 5207TIP3    H215586   0.685   1.313   0.949  1.2458  1.4638 -1.7062
 5208TIP3   OH215587   0.595   1.350   4.649 -0.7081 -0.3238 -0.2731
 5208TIP3    H115588   0.612   1.349   4.743  0.6659 -0.3874 -0.4984
 5208TIP3    H215589   0.628   1.265   4.618  0.9584  0.5901 -1.1290
 5209TIP3   OH215590   2.769   4.331   0.940  0.1402  0.2331 -0.3817
 5209TIP3    H115591   2.857   4.349   0.907  0.9041 -0.7167  1.0107
 5209TIP3    H215592   2.719   4.308   0.862  1.2246  0.4169 -1.1612
 5210TIP3   OH215593   3.171   0.863   1.204  0.0846  0.1768 -0.2556
 5210TIP3    H115594   3.112   0.908   1.265 -0.3915  0.6005 -1.0113
 5210TIP3    H215595   3.173   0.919   1.126 -1.6532 -1.7081 -1.8013
 5211TIP3   OH215596   1.768   2.573   2.622 -0.0826  0.7266  0.2341
 5211TIP3    H115597   1.771   2.646   2.684 -1.4120  0.2774  0.8736
 5211TIP3    H215598   1.721   2.607   2.546 -1.1475  0.4284  0.7346
 5212TIP3   OH215599   4.716   6.260   5.148 -0.1182  0.1957 -0.1357
 5212TIP3    H115600   4.757   6.329   5.201  2.1374 -0.4670 -0.9103
 5212TIP3    H215601   4.778   6.246   5.076 -2.1105 -0.3708 -1.8111
 5213TIP3   OH215602   2.777   6.359   1.027  0.1772 -0.3922 -0.0909
 5213TIP3    H115603   2.839   6.431   1.044 -0.1361  0.1275 -1.0874
 5213TIP3    H215604   2.703   6.401   0.984  0.1697 -1.3767 -1.0848
 5214TIP3   OH215605   4.072   2.929   0.805 -0.0188  0.2083 -0.1101
 5214TIP3    H115606   4.159   2.895   0.787  0.4750  1.6265 -0.5247
 5214TIP3    H215607   4.071   2.946   0.899 -1.0141 -2.8636  0.5343
 5215TIP3   OH215608   1.648   2.209   2.253  0.2963 -0.1937  0.2475
 5215TIP3    H115609   1.657   2.282   2.193 -2.3515  0.8958  1.0212
 5215TIP3    H215610   1.716   2.223   2.319 -0.2546  1.6899  0.4647
 5216TIP3   OH215611   4.205   5.903   3.609  0.4691 -0.0715 -0.1590
 5216TIP3    H115612   4.182   5.963   3.680 -0.7893 -0.0602 -0.5565
 5216TIP3    H215613   4.230   5.959   3.536  1.5457 -0.0810  0.1809
 5217TIP3   OH215614   4.167   2.472   3.054 -0.2966  0.2330 -0.1976
 5217TIP3    H115615   4.222   2.488   2.977  2.7224 -0.1295  1.7537
 5217TIP3    H215616   4.218   2.413   3.109 -2.8877 -0.5373  1.5616
 5218TIP3   OH215617   2.101   1.572   5.115  0.2310  0.7385 -0.5905
 5218TIP3    H115618   2.144   1.516   5.050 -0.1780 -0.4964  0.1456
 5218TIP3    H215619   2.162   1.576   5.189  0.2757  1.3081 -0.6554
 5219TIP3   OH215620   0.597   1.654   0.769  0.1106 -0.0674  0.4427
 5219TIP3    H115621   0.643   1.704   0.837  0.2188  0.4864 -0.0343
 5219TIP3    H215622   0.630   1.689   0.687 -0.8537  0.0559  0.0933
 5220TIP3   OH215623   2.503   5.581   4.052 -0.7318  0.2546  0.0808
 5220TIP3    H115624   2.433   5.521   4.027 -2.6326  1.3144  2.4929
 5220TIP3    H215625   2.526   5.627   3.972 -2.1207 -0.7975 -0.9582
 5221TIP3   OH215626   6.768   1.449   3.285  0.2269 -0.2464  0.0142
 5221TIP3    H115627   6.761   1.431   3.191  0.5013 -1.7533  0.2673
 5221TIP3    H215628   6.810   1.535   3.289  3.2081 -1.5203 -1.2356
 5222TIP3   OH215629   5.312   0.980   4.597  0.4403  0.1198 -0.1909
 5222TIP3    H115630   5.307   0.890   4.631  0.0006 -0.1784 -1.0158
 5222TIP3    H215631   5.344   1.031   4.671 -0.5937 -0.4863  0.7160
 5223TIP3   OH215632   2.738   3.539   3.807  0.0928  0.0974 -0.0493
 5223TIP3    H115633   2.692   3.523   3.725 -0.5582 -0.2724  0.3731
 5223TIP3    H215634   2.784   3.457   3.826 -0.0678  0.0499  0.1432
 5224TIP3   OH215635   0.021   2.367   3.630 -0.4219  0.4052  0.5871
 5224TIP3    H115636   0.019   2.272   3.618 -0.4256  0.5518 -0.6378
 5224TIP3    H215637   0.102   2.383   3.679  1.5471  0.0550 -2.2844
 5225TIP3   OH215638   3.855   4.119   2.287  0.1413 -0.6613 -0.7308
 5225TIP3    H115639   3.836   4.087   2.375 -1.5064 -0.6024 -1.0389
 5225TIP3    H215640   3.770   4.118   2.242  0.4093  2.0125 -1.4423
 5226TIP3   OH215641   2.653   0.518   0.641  0.0750 -0.3764  0.0247
 5226TIP3    H115642   2.625   0.584   0.578  1.4898 -1.2438 -1.6081
 5226TIP3    H215643   2.714   0.565   0.699  1.5617 -0.3054 -1.4989
 5227TIP3   OH215644   0.917   6.601   1.201 -0.3880  0.1666 -0.2832
 5227TIP3    H115645   0.880   6.669   1.258  2.6587  0.5164  1.5252
 5227TIP3    H215646   0.878   6.520   1.231 -2.1382  0.7915 -0.7377
 5228TIP3   OH215647   6.827   2.606   1.275 -0.0843  0.0358  0.1048
 5228TIP3    H115648   6.862   2.541   1.214  0.7712 -0.7101  1.3306
 5228TIP3    H215649   6.847   2.690   1.234  2.4165 -0.3688  0.2971
 5229TIP3   OH215650   4.986   3.378   0.984  0.0930 -0.0110 -0.2835
 5229TIP3    H115651   4.965   3.307   0.923 -1.0204  0.6701 -0.7243
 5229TIP3    H215652   4.996   3.335   1.069  1.4194 -0.9435 -0.8659
 5230TIP3   OH215653   1.703   3.321   5.657 -0.3623 -0.0608  0.0083
 5230TIP3    H115654   1.694   3.227   5.673 -1.0318  0.1850  1.0799
 5230TIP3    H215655   1.635   3.341   5.593  0.9385 -0.6236 -1.6371
 5231TIP3   OH215656   5.516   3.208   2.572  0.1601 -0.0403 -0.1708
 5231TIP3    H115657   5.459   3.157   2.630  1.1946 -1.5760 -0.4621
 5231TIP3    H215658   5.485   3.188   2.484  0.2979  0.1859 -0.2715
 5232TIP3   OH215659   1.300   4.899   4.382  0.2117 -0.3517 -0.0952
 5232TIP3    H115660   1.329   4.970   4.440  0.2984  0.4022 -1.0313
 5232TIP3    H215661   1.355   4.909   4.304  0.3667 -1.5912 -0.1607
 5233TIP3   OH215662   0.595   1.325   4.075  0.3215  0.1435  0.3348
 5233TIP3    H115663   0.545   1.332   4.156 -0.6189 -2.2490  0.0582
 5233TIP3    H215664   0.542   1.372   4.010  0.2160  0.6229  0.7643
 5234TIP3   OH215665   5.908   1.215   2.463 -0.3829 -0.1688  0.1294
 5234TIP3    H115666   5.908   1.120   2.448 -2.2433 -0.2446  0.3709
 5234TIP3    H215667   5.815   1.239   2.465 -0.0066  1.3585  1.9320
 5235TIP3   OH215668   5.467   5.457   5.552 -0.7638 -0.3331 -0.3650
 5235TIP3    H115669   5.487   5.371   5.590  0.7328 -0.4963 -1.3789
 5235TIP3    H215670   5.429   5.507   5.623  0.4823 -1.1104  0.9122
 5236TIP3   OH215671   1.955   0.459   4.547 -0.0510  0.1483 -0.2990
 5236TIP3    H115672   1.971   0.443   4.454 -0.9889  0.1260 -0.4658
 5236TIP3    H215673   1.918   0.376   4.579  0.3944  0.1105  0.1251
 5237TIP3   OH215674   0.056   3.840   1.104  0.7624  0.0081 -0.0703
 5237TIP3    H115675   0.137   3.789   1.100  0.3521 -0.6332 -0.4146
 5237TIP3    H215676   0.025   3.828   1.194  0.8939  0.0074 -0.0249
 5238TIP3   OH215677   6.249   1.964   5.089  0.0361 -0.6757  0.2346
 5238TIP3    H115678   6.298   2.022   5.030 -1.4933  1.5528  0.9989
 5238TIP3    H215679   6.194   1.912   5.031 -0.5192  0.5707 -0.3913
 5239TIP3   OH215680   2.808   6.676   0.221 -0.2566  0.1030 -0.0164
 5239TIP3    H115681   2.845   6.599   0.178  0.1681 -0.5149  1.3928
 5239TIP3    H215682   2.818   6.747   0.158 -0.2474 -0.9027 -1.1614
 5240TIP3   OH215683   5.026   2.203   2.459 -0.0069 -0.4748 -0.0054
 5240TIP3    H115684   5.038   2.108   2.459 -0.6291 -0.5884 -1.5372
 5240TIP3    H215685   5.114   2.238   2.473  0.3037 -1.2784  0.1230
 5241TIP3   OH215686   6.826   0.026   2.227  0.4711 -0.6274 -0.0642
 5241TIP3    H115687   6.871  -0.027   2.160 -0.2333 -0.9430 -0.3014
 5241TIP3    H215688   6.827   0.115   2.191 -0.4232 -0.8926 -0.7924
 5242TIP3   OH215689   3.649   1.063   0.433  0.1952 -0.6497  0.1163
 5242TIP3    H115690   3.729   1.108   0.457  0.7658 -1.9324  0.7368
 5242TIP3    H215691   3.663   0.973   0.463 -1.9332 -0.6513  1.3072
 5243TIP3   OH215692   0.755   5.551   0.300  0.2259 -0.1119  0.2642
 5243TIP3    H115693   0.722   5.508   0.380  2.1661  2.0405  2.3809
 5243TIP3    H215694   0.691   5.620   0.283 -0.6526 -1.1075 -0.6370
 5244TIP3   OH215695   1.108   6.146   4.906  0.3500 -0.3294  0.2539
 5244TIP3    H115696   1.151   6.148   4.821 -0.4515 -1.3024 -0.1989
 5244TIP3    H215697   1.063   6.230   4.913  1.3957  0.2487  0.2639
 5245TIP3   OH215698   0.710   3.845   5.503  0.4448 -0.4235 -0.3587
 5245TIP3    H115699   0.708   3.750   5.491  0.9599 -0.5229  0.2930
 5245TIP3    H215700   0.802   3.865   5.520  0.0084 -0.1394  1.9655
 5246TIP3   OH215701   1.940   1.590   4.426 -0.1041  0.3117  0.3580
 5246TIP3    H115702   2.030   1.558   4.423  0.2247  1.2852 -0.7922
 5246TIP3    H215703   1.945   1.670   4.479 -0.3774  0.1495  0.6338
 5247TIP3   OH215704   1.882   2.370   3.460 -0.1908  0.0240  0.0618
 5247TIP3    H115705   1.970   2.377   3.497 -0.3901  0.6022  0.4426
 5247TIP3    H215706   1.889   2.303   3.392  0.6886  0.5078 -0.3335
 5248TIP3   OH215707   0.555   5.605   5.593 -0.5625  0.0060 -0.2870
 5248TIP3    H115708   0.536   5.531   5.650  0.7183  0.1042  0.2963
 5248TIP3    H215709   0.477   5.613   5.537 -0.8898 -1.5206 -0.0958
 5249TIP3   OH215710   6.411   1.042   3.070 -0.4697 -0.2001 -0.2007
 5249TIP3    H115711   6.432   1.077   3.156  0.7174 -1.5962  0.1210
 5249TIP3    H215712   6.477   1.078   3.012 -0.1390 -0.7111 -0.1509
 5250TIP3   OH215713   2.562   3.300   2.116  0.8355 -0.2439  0.7199
 5250TIP3    H115714   2.515   3.371   2.160 -0.0888  0.0803 -0.7328
 5250TIP3    H215715   2.599   3.248   2.188 -2.9667 -1.4149  2.0583
 5251TIP3   OH215716   1.892   6.472   4.101 -0.0624 -0.2508  0.9585
 5251TIP3    H115717   1.983   6.449   4.116  0.7824  0.2317 -2.5334
 5251TIP3    H215718   1.843   6.418   4.162  2.4446 -2.2809  1.3587
 5252TIP3   OH215719   5.134   1.786   3.898  0.2815 -0.0526  0.4600
 5252TIP3    H115720   5.136   1.852   3.967 -0.1134 -0.0774  0.4988
 5252TIP3    H215721   5.088   1.712   3.937  1.2719 -0.5953  0.6257
 5253TIP3   OH215722   1.234   0.056   1.218 -0.2277 -0.3373  0.0866
 5253TIP3    H115723   1.233   0.124   1.150 -0.8345 -1.0008 -0.5893
 5253TIP3    H215724   1.226  -0.026   1.169 -2.5732 -0.7385  1.0562
 5254TIP3   OH215725   3.271   2.333   3.098  0.1987 -0.0830  0.5582
 5254TIP3    H115726   3.338   2.266   3.083  0.0879 -0.0333 -0.1820
 5254TIP3    H215727   3.290   2.401   3.034 -0.5998 -0.0956  0.3019
 5255TIP3   OH215728   2.610   6.122   4.372  0.7848  0.5888 -0.3836
 5255TIP3    H115729   2.563   6.205   4.378 -0.0895  0.0876 -0.2724
 5255TIP3    H215730   2.667   6.133   4.296 -0.5708  0.6882 -1.4286
 5256TIP3   OH215731   6.396   5.587   3.851 -0.2873 -1.2181  0.0470
 5256TIP3    H115732   6.471   5.637   3.818 -2.0410  1.9178  0.4667
 5256TIP3    H215733   6.418   5.566   3.941 -0.1654  0.3522  0.4069
 5257TIP3   OH215734   1.210   0.034   4.637 -0.4781 -0.3216 -0.1161
 5257TIP3    H115735   1.220   0.102   4.704  0.1568 -0.6439  0.1254
 5257TIP3    H215736   1.121   0.045   4.604 -0.1623  1.0642 -0.5559
 5258TIP3   OH215737   0.118   5.228   1.228  0.0996 -0.3330  0.2103
 5258TIP3    H115738   0.163   5.262   1.306 -2.1104  3.0070  0.2209
 5258TIP3    H215739   0.080   5.145   1.257 -0.6503  0.7891  2.7531
 5259TIP3   OH215740   4.949   4.955   4.860 -0.0037 -0.2666  0.2348
 5259TIP3    H115741   5.025   4.916   4.905 -0.5317 -0.1550  1.2479
 5259TIP3    H215742   4.934   5.037   4.906 -1.7729 -1.0609  1.1587
 5260TIP3   OH215743  -0.006   6.206   0.922 -0.4382 -0.1045 -0.1782
 5260TIP3    H115744   0.010   6.279   0.982 -0.2017  0.0786 -0.4632
 5260TIP3    H215745   0.029   6.130   0.969 -1.5740 -0.2023  0.5422
 5261TIP3   OH215746   6.347   5.805   4.081  0.0465 -0.2251  0.3607
 5261TIP3    H115747   6.337   5.753   4.161 -0.2359  1.2561  1.3350
 5261TIP3    H215748   6.435   5.842   4.088 -0.7989  1.7770  1.2020
 5262TIP3   OH215749   5.630   1.517   5.753  0.4029 -0.2249 -0.3407
 5262TIP3    H115750   5.714   1.547   5.717  0.7509 -2.1592 -1.2759
 5262TIP3    H215751   5.596   1.592   5.801  1.2742  1.5879 -2.3881
 5263TIP3   OH215752   0.898   2.091   1.918  0.2889  0.1583 -0.1200
 5263TIP3    H115753   0.831   2.098   1.986 -1.1204  1.3330 -1.5654
 5263TIP3    H215754   0.964   2.033   1.956 -2.2447 -2.3674  0.7985
 5264TIP3   OH215755   4.911   0.634   2.203  0.1664  0.1028  0.1653
 5264TIP3    H115756   4.957   0.653   2.121 -0.0757  1.0597  0.2485
 5264TIP3    H215757   4.818   0.635   2.179  0.0837  0.6441  0.5014
 5265TIP3   OH215758   1.993   1.327   0.637 -0.0148 -0.6402 -0.7373
 5265TIP3    H115759   1.910   1.331   0.588 -0.7751 -1.8810  0.3862
 5265TIP3    H215760   2.057   1.364   0.577 -1.0614 -1.2884 -2.3419
 5266TIP3   OH215761   0.473   5.606   2.179  0.3329  0.3925 -0.1401
 5266TIP3    H115762   0.402   5.636   2.236  1.7388  0.7085  1.5299
 5266TIP3    H215763   0.458   5.512   2.169  1.1118 -0.0927  2.4661
 5267TIP3   OH215764   1.959   1.666   0.083  0.3912 -0.0068 -0.0427
 5267TIP3    H115765   1.924   1.740   0.033 -1.4945  0.4681  1.8337
 5267TIP3    H215766   2.015   1.706   0.149 -0.6239 -0.2199  0.9695
 5268TIP3   OH215767   4.465   3.868   2.021 -0.1426  0.2909  0.3754
 5268TIP3    H115768   4.529   3.939   2.027  0.5575 -0.1727 -1.0991
 5268TIP3    H215769   4.381   3.913   2.018  0.2799  1.0737 -0.3223
 5269TIP3   OH215770   3.685   2.269   5.077 -0.2360  0.7895 -0.1648
 5269TIP3    H115771   3.680   2.190   5.023  0.5857  0.9487 -0.4871
 5269TIP3    H215772   3.679   2.341   5.014 -0.7598  0.9897  0.1080
 5270TIP3   OH215773   0.639   5.761   3.467 -0.0476  0.1077 -0.2116
 5270TIP3    H115774   0.677   5.699   3.405  0.6659  1.1046 -0.7925
 5270TIP3    H215775   0.551   5.777   3.434 -0.4647 -1.0411  0.2855
 5271TIP3   OH215776   1.730   4.032   4.291  0.2162 -0.6458 -0.7323
 5271TIP3    H115777   1.719   3.985   4.209 -0.5236 -0.5822 -0.6773
 5271TIP3    H215778   1.770   3.969   4.350  2.2305 -0.2405 -1.5640
 5272TIP3   OH215779   4.235   3.870   0.525 -0.1538  0.7034  0.3908
 5272TIP3    H115780   4.266   3.958   0.506  0.7899  0.5993  1.3942
 5272TIP3    H215781   4.176   3.850   0.452  0.6904  1.6221 -0.5814
 5273TIP3   OH215782   4.991   1.637   4.434  1.2149 -0.1971 -0.1076
 5273TIP3    H115783   4.919   1.677   4.386  0.3088 -0.2376  1.1748
 5273TIP3    H215784   5.021   1.705   4.493 -0.1898 -1.2606  1.9376
 5274TIP3   OH215785   0.157   6.603   3.143  0.3382  0.2130 -0.1426
 5274TIP3    H115786   0.193   6.656   3.072 -0.6414  1.0061 -0.0664
 5274TIP3    H215787   0.151   6.663   3.217  0.0347 -0.2333  0.2004
 5275TIP3   OH215788   5.855   4.077   2.950 -0.0287  0.1034  0.2736
 5275TIP3    H115789   5.870   4.152   2.891 -1.9338 -0.1493 -0.5826
 5275TIP3    H215790   5.887   4.002   2.901 -0.3835  0.0606  0.1038
 5276TIP3   OH215791   3.716   2.028   4.182  0.0442  0.0680 -0.6670
 5276TIP3    H115792   3.622   2.013   4.191 -0.3272  1.8686 -1.1737
 5276TIP3    H215793   3.736   1.999   4.093  0.0375 -0.5710 -0.4655
 5277TIP3   OH215794   3.718   2.708   0.421  0.0744  0.5912 -0.3782
 5277TIP3    H115795   3.632   2.751   0.419  0.3690  1.3710  1.5922
 5277TIP3    H215796   3.699   2.616   0.405 -0.8931  1.0146 -1.8502
 5278TIP3   OH215797   1.702   3.215   2.461  0.3803  0.2351  0.3027
 5278TIP3    H115798   1.788   3.172   2.464 -0.7699 -2.6661 -2.2504
 5278TIP3    H215799   1.656   3.180   2.538  0.2101 -1.4939 -0.5328
 5279TIP3   OH215800   3.187   1.149   1.881  0.0886  0.6182 -0.1298
 5279TIP3    H115801   3.203   1.179   1.792 -0.3431  0.0232 -0.4098
 5279TIP3    H215802   3.199   1.228   1.935  0.7014  0.9041 -0.6665
 5280TIP3   OH215803   0.403   2.681   5.267  0.0709  0.3177  0.2743
 5280TIP3    H115804   0.353   2.759   5.243 -0.7194 -0.0219  0.7940
 5280TIP3    H215805   0.341   2.609   5.257 -0.5430  0.1705  3.8084
 5281TIP3   OH215806   6.608   2.183   5.795 -0.1734  0.6210 -0.0555
 5281TIP3    H115807   6.600   2.117   5.726 -1.3659 -0.5499  1.1529
 5281TIP3    H215808   6.551   2.254   5.767  0.3163  0.7188 -0.8570
 5282TIP3   OH215809   4.272   5.730   0.263  0.3124  0.4444  0.0477
 5282TIP3    H115810   4.190   5.719   0.311 -0.6171  0.7247 -1.4144
 5282TIP3    H215811   4.277   5.653   0.206  0.3963  1.0410 -0.7815
 5283TIP3   OH215812   6.075   0.731   4.389 -0.1469  0.6117 -0.2672
 5283TIP3    H115813   6.157   0.780   4.386  1.1090 -1.4082 -0.9809
 5283TIP3    H215814   6.097   0.650   4.434 -1.9039  0.2400 -0.0004
 5284TIP3   OH215815   3.513   6.511   3.745 -0.1923  0.1927  0.1193
 5284TIP3    H115816   3.569   6.526   3.669 -1.0386  1.3281 -0.3240
 5284TIP3    H215817   3.424   6.511   3.709 -0.5293 -0.8422  0.8973
 5285TIP3   OH215818   2.543   1.166   4.867  0.1229  0.1048 -0.4481
 5285TIP3    H115819   2.448   1.164   4.877  0.2825  0.7472  1.5415
 5285TIP3    H215820   2.574   1.094   4.921  0.8888  1.7072  1.3604
 5286TIP3   OH215821   6.423   0.171   0.260  0.1115 -0.0928 -0.9891
 5286TIP3    H115822   6.390   0.082   0.248  1.2559 -0.3631 -2.5231
 5286TIP3    H215823   6.446   0.176   0.352  0.7830 -1.6785 -1.0330
 5287TIP3   OH215824   0.259   5.892   5.285 -0.0811  0.3158  0.0851
 5287TIP3    H115825   0.249   5.822   5.220 -0.6572  0.2370  0.2555
 5287TIP3    H215826   0.226   5.855   5.366  0.3392  0.5267  0.3571
 5288TIP3   OH215827   4.877   3.106   3.896 -0.2955  0.3443 -0.0589
 5288TIP3    H115828   4.959   3.056   3.904  0.8681  2.2763  0.8134
 5288TIP3    H215829   4.902   3.196   3.918 -2.6936  0.9725  0.3233
 5289TIP3   OH215830   5.168   1.838   1.581 -0.2476 -0.2903 -0.3658
 5289TIP3    H115831   5.175   1.830   1.676 -3.0653 -0.1145 -0.0430
 5289TIP3    H215832   5.197   1.754   1.547 -1.0061 -1.0616  0.8164
 5290TIP3   OH215833   5.846   5.089   4.035  0.1970  0.3346 -0.3297
 5290TIP3    H115834   5.934   5.082   4.072  0.3808  0.0481 -0.8236
 5290TIP3    H215835   5.789   5.050   4.102  0.6155 -0.9196 -0.6870
 5291TIP3   OH215836   1.091   2.955   3.024  0.1052 -0.1497 -0.0081
 5291TIP3    H115837   1.041   2.903   3.087 -1.9865  2.2530  0.4783
 5291TIP3    H215838   1.074   2.912   2.939 -0.2709 -1.1512  0.5549
 5292TIP3   OH215839   1.440   3.299   3.012  0.0752 -0.0425 -0.2509
 5292TIP3    H115840   1.377   3.326   3.078  0.3232  1.6466 -0.6609
 5292TIP3    H215841   1.524   3.299   3.058 -0.0968 -1.6717  0.1306
 5293TIP3   OH215842   0.510   2.289   2.620 -0.3003 -0.2712 -0.0556
 5293TIP3    H115843   0.597   2.260   2.596 -0.3969 -0.5411 -0.0777
 5293TIP3    H215844   0.515   2.306   2.714 -0.4269 -1.0180  0.0894
 5294TIP3   OH215845   3.123   4.769   0.127 -0.8458  0.4916 -0.2412
 5294TIP3    H115846   3.137   4.776   0.032  0.8492  2.0916  0.0847
 5294TIP3    H215847   3.211   4.776   0.165 -1.6230  1.1245  1.5220
 5295TIP3   OH215848   6.062   3.475   4.755  0.3379  0.3770  0.0551
 5295TIP3    H115849   5.973   3.458   4.727  0.5803 -1.0812  0.1111
 5295TIP3    H215850   6.110   3.493   4.674  0.1025  0.6928 -0.0170
 5296TIP3   OH215851   3.482   0.069   4.866 -0.3823  0.0357 -0.2496
 5296TIP3    H115852   3.457   0.105   4.951  0.8198  0.9539 -0.2545
 5296TIP3    H215853   3.445   0.131   4.802  1.3868  1.1474 -0.2685
 5297TIP3   OH215854   6.795   1.522   4.423  0.1208 -0.6821  0.2860
 5297TIP3    H115855   6.883   1.559   4.428 -0.9311  1.8750  1.8888
 5297TIP3    H215856   6.757   1.560   4.344 -0.1291 -0.3908  0.5473
 5298TIP3   OH215857   5.437   4.188   5.307  0.1190 -0.3842 -0.1194
 5298TIP3    H115858   5.404   4.229   5.387 -1.9078 -0.5168 -0.8228
 5298TIP3    H215859   5.530   4.210   5.305  0.0367  0.3160  1.8327
 5299TIP3   OH215860   4.532   2.448   4.654  0.2158 -0.3772  0.0727
 5299TIP3    H115861   4.606   2.408   4.700  2.1806  0.1133 -2.4323
 5299TIP3    H215862   4.523   2.397   4.574 -2.0119 -0.1913  0.1260
 5300TIP3   OH215863   6.238   1.690   3.525 -0.0730  0.1868  0.5142
 5300TIP3    H115864   6.295   1.614   3.510  1.5727  1.1476  1.6382
 5300TIP3    H215865   6.151   1.659   3.501  0.9703 -1.1558 -1.8951
 5301TIP3   OH215866   5.347   6.117   2.324  0.0584  0.2779 -0.0152
 5301TIP3    H115867   5.368   6.061   2.250 -0.4609  0.2016 -0.1078
 5301TIP3    H215868   5.416   6.099   2.388  0.4514  0.2753 -0.4436
 5302TIP3   OH215869   3.714   5.788   1.906 -0.6592  0.1694  0.2853
 5302TIP3    H115870   3.802   5.752   1.910 -0.8634 -0.4866 -0.6799
 5302TIP3    H215871   3.670   5.736   1.838 -2.1746 -0.3687  1.6073
 5303TIP3   OH215872   1.446   1.218   1.963 -0.2689 -0.0932 -0.1105
 5303TIP3    H115873   1.493   1.172   2.032 -1.2602  0.4410  0.9402
 5303TIP3    H215874   1.486   1.305   1.962 -0.1778 -0.1360 -0.3017
 5304TIP3   OH215875   5.767   1.754   0.232  0.0860 -0.0502 -0.0718
 5304TIP3    H115876   5.732   1.816   0.296 -0.3799 -0.8055  0.4162
 5304TIP3    H215877   5.723   1.777   0.150 -0.1984  0.1746  0.1409
 5305TIP3   OH215878   2.912   1.340   1.514  0.0249 -0.3704 -0.1602
 5305TIP3    H115879   2.931   1.389   1.594 -1.0867  0.6219 -0.4714
 5305TIP3    H215880   2.831   1.293   1.534 -0.0810 -0.3740 -0.5890
 5306TIP3   OH215881   6.534   5.175   4.417  0.3140  0.2276 -0.9149
 5306TIP3    H115882   6.529   5.080   4.411  1.5490  0.1007 -0.3411
 5306TIP3    H215883   6.481   5.198   4.493 -1.2148  0.1637 -1.9311
 5307TIP3   OH215884   0.186   0.282   2.687  0.2725 -0.5715  0.0003
 5307TIP3    H115885   0.214   0.300   2.777 -1.6257  1.0458  0.3367
 5307TIP3    H215886   0.245   0.335   2.633 -0.3900  0.7526  0.5216
 5308TIP3   OH215887   2.273   0.246   2.316 -0.3015  0.1301  1.1787
 5308TIP3    H115888   2.319   0.193   2.251  1.4868 -0.0041  2.4771
 5308TIP3    H215889   2.250   0.326   2.269  0.3105 -0.2561  0.1832
 5309TIP3   OH215890   4.034   3.566   1.929 -0.1749 -0.0616 -0.1761
 5309TIP3    H115891   4.125   3.585   1.950 -0.2104  1.0068 -0.9601
 5309TIP3    H215892   4.036   3.477   1.893  0.4034 -0.4272  0.7088
 5310TIP3   OH215893   0.060   3.148   2.080 -0.2204 -0.4680 -0.0780
 5310TIP3    H115894   0.012   3.165   2.162 -0.5316 -0.0356 -0.3455
 5310TIP3    H215895  -0.008   3.147   2.012  0.0180 -0.9973 -0.3120
 5311TIP3   OH215896   2.391   2.249   1.262  0.2101 -0.3848 -0.6979
 5311TIP3    H115897   2.376   2.307   1.187 -0.7039 -0.1653 -0.3608
 5311TIP3    H215898   2.482   2.221   1.252  1.2708  2.4140  0.0161
 5312TIP3   OH215899   6.469   1.582   1.547  0.3278 -0.3469  0.5598
 5312TIP3    H115900   6.400   1.645   1.567  0.0377 -0.0978 -1.0964
 5312TIP3    H215901   6.439   1.501   1.588 -0.7927 -0.1507  0.1819
 5313TIP3   OH215902   1.380   4.168   1.089 -0.2683 -0.0434  0.7424
 5313TIP3    H115903   1.377   4.239   1.025 -0.3949 -1.7546 -1.2417
 5313TIP3    H215904   1.461   4.121   1.069 -0.9350 -1.3413  1.0152
 5314TIP3   OH215905   2.512   0.331   1.497  0.4271 -0.1252  0.2987
 5314TIP3    H115906   2.449   0.373   1.554  0.6724 -0.5462  0.8939
 5314TIP3    H215907   2.489   0.238   1.499 -0.5829  0.0173 -1.5932
 5315TIP3   OH215908   3.514   2.491   3.838 -0.3371  0.2293  0.3034
 5315TIP3    H115909   3.488   2.411   3.883 -0.5498 -0.4517 -0.9761
 5315TIP3    H215910   3.516   2.467   3.745 -2.7307  2.2783 -0.3976
 5316TIP3   OH215911   0.985   4.888   3.765 -0.2986 -0.5490 -0.1600
 5316TIP3    H115912   1.050   4.872   3.833  0.9272 -1.9420 -1.5882
 5316TIP3    H215913   1.035   4.923   3.692 -1.5248  0.5034 -0.5359
 5317TIP3   OH215914   2.396   3.962   0.423  0.4444 -0.0616 -0.3257
 5317TIP3    H115915   2.366   4.034   0.478  0.7227  0.4292 -0.8023
 5317TIP3    H215916   2.349   3.973   0.341  1.2063  0.1483 -0.7405
 5318TIP3   OH215917   6.817   0.816   1.930  0.3430  0.2033 -0.0105
 5318TIP3    H115918   6.723   0.830   1.913  0.8141  0.7770 -2.6235
 5318TIP3    H215919   6.852   0.904   1.940  0.6982  0.0246  0.3028
 5319TIP3   OH215920   1.313   2.077   0.375  0.2635  0.0833 -0.9237
 5319TIP3    H115921   1.261   2.051   0.451  1.5332  3.2776  1.2498
 5319TIP3    H215922   1.254   2.133   0.323  0.1151 -0.2054 -1.0721
 5320TIP3   OH215923   6.976   5.516   4.968  0.4250  0.2487  0.9326
 5320TIP3    H115924   7.045   5.582   4.964  0.9487 -0.3088  0.5200
 5320TIP3    H215925   6.964   5.499   5.061  0.9956  0.1957  0.9977
 5321TIP3   OH215926   2.686   4.602   3.331  0.4401  0.0275  0.0563
 5321TIP3    H115927   2.730   4.521   3.303  0.9322  0.1485  0.4592
 5321TIP3    H215928   2.755   4.668   3.331  0.2232  0.2615  0.5300
 5322TIP3   OH215929   1.510   4.702   5.689  0.2738 -0.1010 -0.0831
 5322TIP3    H115930   1.587   4.699   5.746 -0.1051 -0.0573  0.4467
 5322TIP3    H215931   1.464   4.781   5.716 -1.2741 -1.4051  1.4058
 5323TIP3   OH215932   3.625   5.786   2.265 -0.2235 -0.1613 -0.4873
 5323TIP3    H115933   3.606   5.744   2.182 -0.3044  0.3159 -0.7183
 5323TIP3    H215934   3.617   5.717   2.330 -0.2141 -0.5247 -0.8723
 5324TIP3   OH215935   5.408   5.070   2.446 -0.0252 -0.3790 -0.2869
 5324TIP3    H115936   5.387   5.157   2.412  1.2241 -0.4803 -1.3863
 5324TIP3    H215937   5.323   5.028   2.456 -0.5397  0.2946 -1.5985
 5325TIP3   OH215938   3.459   6.420   4.686  0.6129  1.0997 -0.3029
 5325TIP3    H115939   3.390   6.434   4.750  0.2700  0.5815 -0.5597
 5325TIP3    H215940   3.528   6.373   4.733  0.2481  0.4809 -0.3806
 5326TIP3   OH215941   4.359   4.842   0.571 -0.1693  0.2480  0.5177
 5326TIP3    H115942   4.314   4.845   0.487  0.4877 -0.0305  0.1539
 5326TIP3    H215943   4.452   4.842   0.549  0.0146  0.8718  1.2655
 5327TIP3   OH215944   3.788   5.209   0.524 -0.5955  0.0009 -0.0017
 5327TIP3    H115945   3.698   5.181   0.543 -0.5306  0.4867  1.0878
 5327TIP3    H215946   3.794   5.297   0.562  0.5527 -0.2979  0.5406
 5328TIP3   OH215947   4.758   1.524   4.851  0.4624  0.0874  0.4875
 5328TIP3    H115948   4.698   1.597   4.855  0.1217 -0.1964  0.6219
 5328TIP3    H215949   4.776   1.502   4.943  0.2265 -0.2689  0.4502
 5329TIP3   OH215950   5.338   3.762   0.575 -0.3873 -0.1564  0.3482
 5329TIP3    H115951   5.342   3.747   0.670  0.1845 -0.1189  0.3321
 5329TIP3    H215952   5.427   3.745   0.544 -0.6762 -0.6070 -0.2526
 5330TIP3   OH215953   1.555   5.898   3.071  0.1552 -0.0734 -0.3582
 5330TIP3    H115954   1.489   5.960   3.040 -1.0134 -0.6456  0.8602
 5330TIP3    H215955   1.627   5.905   3.009  0.0925  2.5356 -0.2132
 5331TIP3   OH215956   6.121   6.559   3.888 -0.4424 -0.2500 -0.2954
 5331TIP3    H115957   6.211   6.578   3.859 -0.2409 -0.6884  0.0355
 5331TIP3    H215958   6.107   6.619   3.962 -0.4037 -0.2180 -0.3141
 5332TIP3   OH215959   3.748   6.618   1.848 -0.0922  0.4422 -0.2285
 5332TIP3    H115960   3.812   6.679   1.885 -0.4875 -0.0210  1.2764
 5332TIP3    H215961   3.729   6.653   1.761  3.0439 -0.0264 -1.2241
 5333TIP3   OH215962   1.739   1.808   3.719  0.7193 -0.5482 -0.7006
 5333TIP3    H115963   1.697   1.730   3.756  0.1995  0.5068  1.0932
 5333TIP3    H215964   1.798   1.838   3.789 -0.2792  1.5401 -0.6863
 5334TIP3   OH215965   3.394   2.448   2.298  0.2342  0.0871 -0.8125
 5334TIP3    H115966   3.442   2.382   2.248  1.5190  0.6287 -0.3234
 5334TIP3    H215967   3.408   2.423   2.390  0.1009  0.6218 -0.6473
 5335TIP3   OH215968   0.620   4.024   0.529 -0.2350 -0.0893 -0.5149
 5335TIP3    H115969   0.578   3.947   0.491 -1.2511  0.5393 -0.6904
 5335TIP3    H215970   0.713   4.015   0.506 -0.4141 -1.0443 -0.8862
 5336TIP3   OH215971   2.094   1.801   1.537  0.1599  0.3762 -0.4887
 5336TIP3    H115972   2.107   1.707   1.525 -1.4864  0.0775 -0.2788
 5336TIP3    H215973   2.147   1.823   1.614 -1.0703 -0.8666  0.8082
 5337TIP3   OH215974   3.231   6.565   1.002 -0.3372 -0.0998  0.4356
 5337TIP3    H115975   3.312   6.606   0.973 -1.6113  0.6150 -2.4304
 5337TIP3    H215976   3.162   6.619   0.965 -2.1370 -1.6143  1.4138
 5338TIP3   OH215977   0.645   5.709   5.000 -0.5875  0.2212 -0.0019
 5338TIP3    H115978   0.716   5.769   4.975  0.1751 -0.2468  0.9534
 5338TIP3    H215979   0.601   5.753   5.073 -1.7078  0.7949 -0.9905
 5339TIP3   OH215980   4.768   5.676   4.265 -0.6769 -0.1464 -0.0998
 5339TIP3    H115981   4.772   5.681   4.360 -0.3478  1.1963 -0.1677
 5339TIP3    H215982   4.677   5.696   4.243 -0.5583  0.3941 -0.1062
 5340TIP3   OH215983   6.019   4.203   4.301  0.0189 -0.3785  0.2631
 5340TIP3    H115984   6.080   4.132   4.322 -0.7943 -0.8348  1.1188
 5340TIP3    H215985   6.059   4.281   4.340  0.9393 -0.3325 -0.7189
 5341TIP3   OH215986   1.294   1.345   1.570  0.0193  0.1780 -0.5397
 5341TIP3    H115987   1.331   1.264   1.606  1.8785 -0.0579 -2.7550
 5341TIP3    H215988   1.282   1.326   1.477 -1.6418  1.7443 -0.6958
 5342TIP3   OH215989   6.276   2.228   2.042 -0.2179  0.1465 -0.1441
 5342TIP3    H115990   6.274   2.246   1.948  0.1368  1.5095  0.0940
 5342TIP3    H215991   6.227   2.300   2.082  1.6074  0.8923  0.8900
 5343TIP3   OH215992   5.745   3.116   5.133 -0.1021  0.6788  0.0417
 5343TIP3    H115993   5.757   3.206   5.161  1.3323  0.5211 -0.0103
 5343TIP3    H215994   5.813   3.101   5.067  0.4901 -0.7910  0.9210
 5344TIP3   OH215995   2.689   5.796   4.275 -0.1868  0.6302  0.5488
 5344TIP3    H115996   2.761   5.839   4.320 -0.2105  2.3092 -0.8990
 5344TIP3    H215997   2.726   5.715   4.241  1.4490  2.0439 -1.2563
 5345TIP3   OH215998   5.455   5.080   0.170  0.1136  0.6382 -0.7235
 5345TIP3    H115999   5.494   5.008   0.220 -1.0567  0.1821 -0.4289
 5345TIP3    H216000   5.380   5.040   0.125  0.1334  1.4257 -1.4720
 5346TIP3   OH216001   3.087   6.155   5.514 -0.0503 -0.1800  0.3312
 5346TIP3    H116002   3.170   6.182   5.554  1.0135  0.6005 -2.2094
 5346TIP3    H216003   3.097   6.176   5.421 -2.8476 -0.7271 -0.1862
 5347TIP3   OH216004   4.545   1.307   0.056 -0.3291 -0.1659 -0.5776
 5347TIP3    H116005   4.572   1.398   0.050  0.1686 -0.3858 -1.9779
 5347TIP3    H216006   4.502   1.289  -0.028 -1.1986 -0.9824  0.0232
 5348TIP3   OH216007   6.981   5.077   5.110  0.4306 -0.3769 -0.1968
 5348TIP3    H116008   6.921   5.027   5.165  1.4968 -1.4401  0.0361
 5348TIP3    H216009   7.020   5.141   5.169  0.1040 -0.1851 -0.1827
 5349TIP3   OH216010   1.652   6.629   2.126  0.3995 -0.5131 -0.2784
 5349TIP3    H116011   1.695   6.646   2.210 -2.1801 -0.3272  1.0962
 5349TIP3    H216012   1.599   6.552   2.141  0.3613 -0.8544 -1.9672
 5350TIP3   OH216013   4.266   0.966   2.559  0.6595 -0.1830 -0.3221
 5350TIP3    H116014   4.187   0.963   2.505 -0.2717 -0.7907  1.0518
 5350TIP3    H216015   4.236   0.955   2.648  1.9032  2.9906  0.6547
 5351TIP3   OH216016   4.819   1.389   5.075 -0.3093  0.3840  0.2092
 5351TIP3    H116017   4.743   1.420   5.124  0.8404  0.2846  2.1635
 5351TIP3    H216018   4.870   1.340   5.139  0.5855 -0.9863 -1.4697
 5352TIP3   OH216019   3.757   1.602   5.707 -0.2718 -0.2975 -0.0731
 5352TIP3    H116020   3.664   1.599   5.732 -0.3115  0.9067 -0.0522
 5352TIP3    H216021   3.773   1.693   5.683  1.2725 -0.1660  1.3141
 5353TIP3   OH216022   2.839   3.374   2.459 -0.0426 -0.0585  0.2066
 5353TIP3    H116023   2.895   3.362   2.536  0.0658 -0.4193  0.0723
 5353TIP3    H216024   2.836   3.469   2.447 -0.6741  0.0510  1.1044
 5354TIP3   OH216025   4.212   4.520   5.427  0.2527 -0.2142  0.2222
 5354TIP3    H116026   4.280   4.496   5.365  2.1447 -0.9364  2.4268
 5354TIP3    H216027   4.186   4.437   5.467 -0.9830  0.2233  0.3802
 5355TIP3   OH216028   1.516   1.431   3.325  0.6509  0.1024  0.0115
 5355TIP3    H116029   1.442   1.385   3.286  0.2083 -0.5529  1.5742
 5355TIP3    H216030   1.579   1.439   3.253  0.5822 -2.6041 -0.4450
 5356TIP3   OH216031   4.260   6.615   2.323 -0.0826 -0.2221 -0.2016
 5356TIP3    H116032   4.283   6.693   2.273 -1.3831  0.2247 -0.1391
 5356TIP3    H216033   4.341   6.590   2.368  0.5189  0.6898 -0.7547
 5357TIP3   OH216034   1.945   6.260   0.754  0.0808  0.0219 -0.4860
 5357TIP3    H116035   1.865   6.220   0.722 -0.5824  1.0489 -0.1704
 5357TIP3    H216036   1.919   6.348   0.780  1.0655 -0.0079  0.7193
 5358TIP3   OH216037   3.341   6.647   1.354 -0.1782  0.0158 -0.1614
 5358TIP3    H116038   3.432   6.618   1.358 -1.1536 -3.5962 -0.8044
 5358TIP3    H216039   3.331   6.679   1.265  0.7201  1.8272  0.3215
 5359TIP3   OH216040   5.792   2.767   2.801 -0.2032 -0.0044  0.1251
 5359TIP3    H116041   5.720   2.830   2.797 -0.5137 -0.2325  1.4465
 5359TIP3    H216042   5.770   2.702   2.734 -2.1510 -0.9548  1.5608
 5360TIP3   OH216043   4.073   4.838   0.615  0.4511 -0.4083 -0.2950
 5360TIP3    H116044   4.165   4.853   0.639  0.5707 -1.7664  0.1651
 5360TIP3    H216045   4.062   4.744   0.621 -0.9409 -0.2782 -0.5388
 5361TIP3   OH216046   2.843   3.853   2.669  0.1442  0.0372  0.0579
 5361TIP3    H116047   2.897   3.926   2.641  0.3394  0.3408  1.1670
 5361TIP3    H216048   2.762   3.862   2.619  1.2401 -0.6936 -1.9849
 5362TIP3   OH216049   4.462   4.867   5.632  0.1385  0.2801 -0.0102
 5362TIP3    H116050   4.418   4.852   5.716  0.1840  1.0883  0.1649
 5362TIP3    H216051   4.392   4.856   5.566 -0.1729  0.8787  0.2196
 5363TIP3   OH216052   2.412   5.275   4.105  0.9031 -0.9681 -0.5681
 5363TIP3    H116053   2.385   5.188   4.131  1.8507 -0.3834  2.9111
 5363TIP3    H216054   2.342   5.307   4.048 -1.5242 -2.5225  1.3398
 5364TIP3   OH216055   0.595   2.206   1.515 -0.3813 -1.0458  0.8889
 5364TIP3    H116056   0.685   2.173   1.505 -0.1804 -0.1961 -0.2706
 5364TIP3    H216057   0.547   2.132   1.551  0.5206 -1.9176  0.3531
 5365TIP3   OH216058   6.969   3.778   0.283 -0.1415  0.0611  0.1971
 5365TIP3    H116059   6.989   3.687   0.307  1.1083 -0.3345 -2.0648
 5365TIP3    H216060   7.046   3.828   0.311 -1.1470  0.6407  2.1467
 5366TIP3   OH216061   7.103   3.011   1.415  0.5423 -0.0996  0.2952
 5366TIP3    H116062   7.085   2.986   1.505  2.4904 -0.8949  0.5195
 5366TIP3    H216063   7.189   2.974   1.396  2.3098  3.8126 -0.3793
 5367TIP3   OH216064   4.815   3.673   2.264  0.4853 -0.3700  0.0314
 5367TIP3    H116065   4.891   3.713   2.305  1.2043 -1.5132 -0.1448
 5367TIP3    H216066   4.830   3.578   2.270 -0.1858 -0.6032 -1.3386
 5368TIP3   OH216067   4.954   2.460   0.910 -0.7418 -0.1322 -0.4107
 5368TIP3    H116068   4.880   2.499   0.865 -0.4780 -0.8921 -1.5590
 5368TIP3    H216069   4.992   2.399   0.846  0.2876 -0.4725  0.4798
 5369TIP3   OH216070   6.539   4.183   3.671  0.1454  0.3064 -0.4641
 5369TIP3    H116071   6.471   4.244   3.701  0.0924  0.9370 -1.8002
 5369TIP3    H216072   6.590   4.233   3.607  1.4698 -0.3712  0.0239
 5370TIP3   OH216073   0.698   4.205   1.494 -0.4227  0.4095 -0.2519
 5370TIP3    H116074   0.748   4.276   1.532 -2.1137  2.3706 -1.4817
 5370TIP3    H216075   0.672   4.151   1.568  1.9007  0.3147  0.5843
 5371TIP3   OH216076   0.922   5.178   0.582  0.4180  0.4274  0.2233
 5371TIP3    H116077   0.912   5.086   0.556 -0.6050  0.3379  0.8550
 5371TIP3    H216078   0.951   5.223   0.503 -0.6166 -0.1671 -0.5120
 5372TIP3   OH216079   6.394   4.329   0.721  0.1413 -0.8358 -0.0079
 5372TIP3    H116080   6.311   4.360   0.757  0.6273  0.2228  0.2287
 5372TIP3    H216081   6.458   4.395   0.747  1.2414 -2.0775  0.5695
 5373TIP3   OH216082   0.139   1.140   4.641  0.0008  0.3076  0.4411
 5373TIP3    H116083   0.119   1.114   4.552  1.4273  0.1625  0.1338
 5373TIP3    H216084   0.209   1.081   4.669  1.0286  1.6749  0.8903
 5374TIP3   OH216085   1.269   3.075   1.516  0.1441  0.3769 -0.0260
 5374TIP3    H116086   1.356   3.076   1.476 -0.1603  1.3246 -0.6824
 5374TIP3    H216087   1.270   2.997   1.572  2.6636  2.2297  2.8106
 5375TIP3   OH216088   2.715   2.851   5.559  0.3763 -0.2804  0.4300
 5375TIP3    H116089   2.701   2.917   5.627  0.9366  0.8806 -0.5413
 5375TIP3    H216090   2.669   2.885   5.483 -0.4626 -1.6888  0.2576
 5376TIP3   OH216091   6.503   3.414   1.489 -0.2206 -0.1416  0.3964
 5376TIP3    H116092   6.486   3.390   1.581 -0.6683 -1.5898 -0.0310
 5376TIP3    H216093   6.445   3.357   1.439  1.4461 -0.8024 -0.8723
 5377TIP3   OH216094   2.313   1.744   0.842 -0.3215 -0.4205  0.1035
 5377TIP3    H116095   2.244   1.741   0.908 -0.8377  0.7918 -0.3547
 5377TIP3    H216096   2.343   1.653   0.834  0.5120 -0.4353  2.7779
 5378TIP3   OH216097   4.628   5.082   1.487 -0.1168  0.0916  0.3727
 5378TIP3    H116098   4.653   5.072   1.395 -0.2916  1.0030  0.2117
 5378TIP3    H216099   4.637   4.994   1.524 -1.3456 -0.5852 -0.8303
 5379TIP3   OH216100   2.060   2.161   1.116  0.0363 -0.4979 -0.3526
 5379TIP3    H116101   2.069   2.209   1.198  0.6332 -0.6345 -0.3394
 5379TIP3    H216102   2.147   2.163   1.077 -0.3875  0.1608 -1.3174
 5380TIP3   OH216103   5.591   0.626   2.578  0.1861  0.1465 -0.0586
 5380TIP3    H116104   5.579   0.720   2.588 -0.5195 -0.0012  0.6352
 5380TIP3    H216105   5.531   0.588   2.642 -0.7327 -0.8120 -1.4504
 5381TIP3   OH216106   4.098   5.350   2.426 -0.6110 -0.1237  0.0323
 5381TIP3    H116107   4.176   5.361   2.481 -0.9832  0.9965  0.3755
 5381TIP3    H216108   4.088   5.256   2.417 -0.4823 -0.3519  1.8265
 5382TIP3   OH216109   4.202   4.912   0.362 -0.0248 -0.0857  0.2902
 5382TIP3    H116110   4.157   4.828   0.379 -0.4414  0.1088  0.1691
 5382TIP3    H216111   4.132   4.977   0.367  0.5916  0.4880  2.2877
 5383TIP3   OH216112   1.697   4.930   2.352  0.4190 -0.1340  0.0185
 5383TIP3    H116113   1.725   4.919   2.261  5.1636 -2.1215  1.4018
 5383TIP3    H216114   1.708   5.024   2.369  3.9207 -0.2968 -0.4923
 5384TIP3   OH216115   1.681   0.719   4.237  0.1904 -0.1285 -0.2415
 5384TIP3    H116116   1.767   0.729   4.196  0.0944 -0.5320 -0.5504
 5384TIP3    H216117   1.687   0.770   4.318  0.8903 -0.5645 -0.0054
 5385TIP3   OH216118   7.036   5.980   3.942 -0.2635 -0.1793  0.2036
 5385TIP3    H116119   6.964   5.917   3.955 -2.7609  2.0210 -1.7876
 5385TIP3    H216120   7.030   6.039   4.016 -0.3026 -0.1646  0.1887
 5386TIP3   OH216121   5.320   1.244   1.545  0.6599  0.1059 -0.1249
 5386TIP3    H116122   5.303   1.316   1.605 -0.0212 -0.3690  0.2770
 5386TIP3    H216123   5.358   1.285   1.467 -0.8809  1.0590 -0.4106
 5387TIP3   OH216124   0.559   5.501   0.542  0.1908 -0.7722 -0.2511
 5387TIP3    H116125   0.498   5.450   0.490  0.5135 -1.5083  0.0729
 5387TIP3    H216126   0.515   5.585   0.556 -0.9768 -1.4687  0.4231
 5388TIP3   OH216127   3.391   5.915   3.261  0.2522 -0.4069 -0.7479
 5388TIP3    H116128   3.325   5.975   3.297  0.0196 -0.7609 -0.5745
 5388TIP3    H216129   3.470   5.968   3.251  0.3618 -0.3358  0.4217
 5389TIP3   OH216130   3.608   1.297   0.594 -0.0825 -0.3948  0.2523
 5389TIP3    H116131   3.531   1.281   0.540  1.5999 -1.1388 -2.0998
 5389TIP3    H216132   3.608   1.226   0.659 -1.7282  0.0656  0.8018
 5390TIP3   OH216133   2.149   5.665   5.277  0.4676  0.0058 -0.5467
 5390TIP3    H116134   2.125   5.579   5.241  2.5088 -0.2050 -1.5300
 5390TIP3    H216135   2.204   5.645   5.352 -1.4265  0.4860  1.0448
 5391TIP3   OH216136   4.614   4.640   5.675 -0.5008 -0.0557  0.0682
 5391TIP3    H116137   4.651   4.615   5.591  0.6682  0.8142  0.2953
 5391TIP3    H216138   4.561   4.717   5.657  0.4243  0.6339  0.2456
 5392TIP3   OH216139   6.440   5.882   1.705  0.2545  0.2528 -0.3283
 5392TIP3    H116140   6.495   5.877   1.782 -0.5627 -1.9834  0.1770
 5392TIP3    H216141   6.464   5.806   1.652 -0.8236  0.4354 -1.1307
 5393TIP3   OH216142   3.547   2.141   3.753 -0.8187  0.5242  0.4250
 5393TIP3    H116143   3.464   2.140   3.705  0.2732 -1.3784 -1.5971
 5393TIP3    H216144   3.549   2.058   3.800 -0.2952  0.7988  0.8994
 5394TIP3   OH216145   4.489   2.546   3.680  0.2591  0.9004 -0.1727
 5394TIP3    H116146   4.529   2.531   3.594  0.6552 -0.4248  0.2184
 5394TIP3    H216147   4.401   2.579   3.660 -1.1101 -2.8880 -1.2557
 5395TIP3   OH216148   6.450   3.882   3.324  0.2837 -0.4222  0.2812
 5395TIP3    H116149   6.381   3.820   3.302  1.0780 -0.9548 -0.7895
 5395TIP3    H216150   6.418   3.966   3.290  0.2758 -0.7277 -0.5009
 5396TIP3   OH216151   3.642   2.149   1.845 -0.5523 -0.0128  0.7167
 5396TIP3    H116152   3.554   2.133   1.812 -0.4470 -2.5562  1.5082
 5396TIP3    H216153   3.695   2.079   1.807  0.5739 -0.0774  2.3071
 5397TIP3   OH216154   4.266   5.542   3.129  0.5769 -0.6070 -0.3990
 5397TIP3    H116155   4.254   5.613   3.192  0.6262  0.0381 -1.1115
 5397TIP3    H216156   4.232   5.577   3.047 -0.3655 -1.7769 -0.5310
 5398TIP3   OH216157   5.250   4.717   2.508  0.9727 -0.2367  0.1685
 5398TIP3    H116158   5.301   4.662   2.449 -0.8555 -0.9820 -0.7934
 5398TIP3    H216159   5.190   4.655   2.552  2.9792  0.0666  3.7338
 5399TIP3   OH216160   6.716   3.951   1.180  0.9096  0.5071  0.6843
 5399TIP3    H116161   6.638   3.940   1.126  1.7213  0.0404 -0.4426
 5399TIP3    H216162   6.756   4.032   1.149  1.6350 -0.0101  0.2155
 5400TIP3   OH216163   2.081   3.259   3.548 -0.4332 -0.4257 -0.4547
 5400TIP3    H116164   2.062   3.349   3.522 -0.7973 -0.6856 -1.1003
 5400TIP3    H216165   2.092   3.264   3.643 -1.5261  0.1187 -0.3410
 5401TIP3   OH216166   6.094   0.273   1.399 -0.7618  0.0683 -0.5814
 5401TIP3    H116167   6.074   0.186   1.366 -2.6480 -0.3199  1.3676
 5401TIP3    H216168   6.190   0.277   1.400 -0.6457 -1.7383 -1.2338
 5402TIP3   OH216169   0.928   3.207   2.675  0.3372 -0.2481 -0.1058
 5402TIP3    H116170   0.888   3.293   2.660  0.1439 -0.0979  1.1636
 5402TIP3    H216171   0.919   3.161   2.592 -0.9838  0.3905 -0.3278
 5403TIP3   OH216172   0.138   0.455   2.036  0.0120  0.2500  1.1233
 5403TIP3    H116173   0.128   0.464   2.131 -1.7183  0.5664  0.9449
 5403TIP3    H216174   0.179   0.536   2.008  1.3821 -0.2224  1.6866
 5404TIP3   OH216175   1.660   0.164   0.209 -0.3322 -0.2549  0.3255
 5404TIP3    H116176   1.571   0.201   0.213 -0.4401  0.8259 -4.7534
 5404TIP3    H216177   1.649   0.084   0.158  1.4443 -1.2665  1.4377
 5405TIP3   OH216178   0.724   3.448   1.173 -0.0800  0.7584 -0.1095
 5405TIP3    H116179   0.633   3.462   1.147 -1.0559 -1.5309  1.6904
 5405TIP3    H216180   0.725   3.361   1.214  3.0664  0.4080 -0.6289
 5406TIP3   OH216181   1.582   5.853   3.510 -0.1218 -0.1326 -0.2604
 5406TIP3    H116182   1.643   5.892   3.447  1.1846 -0.5180  0.7144
 5406TIP3    H216183   1.498   5.896   3.492  0.4850  0.6026 -1.4756
 5407TIP3   OH216184   3.964   1.683   1.340 -0.7707 -0.1955 -0.0238
 5407TIP3    H116185   3.910   1.738   1.397  1.3479  0.8959  1.0811
 5407TIP3    H216186   4.027   1.745   1.302  1.1788 -1.7031  0.6140
 5408TIP3   OH216187   5.009   1.921   2.398  0.2059 -0.0178  0.1743
 5408TIP3    H116188   4.955   1.891   2.471 -0.5436 -0.0651 -0.3972
 5408TIP3    H216189   5.035   1.841   2.353  0.4399  0.0313  0.2169
 5409TIP3   OH216190   4.355   2.044   3.754 -0.6706 -1.2280 -0.1427
 5409TIP3    H116191   4.340   1.979   3.685 -0.0962 -0.5770 -0.8917
 5409TIP3    H216192   4.267   2.069   3.782 -0.9133 -1.4170 -0.7159
 5410TIP3   OH216193   5.160   0.489   2.813 -0.6810 -0.4911 -0.2345
 5410TIP3    H116194   5.217   0.412   2.817 -0.5848 -0.4058  0.1116
 5410TIP3    H216195   5.073   0.454   2.794 -0.9035 -0.8357  1.2817
 5411TIP3   OH216196   1.824   2.966   1.401  0.2989  0.5160  0.6623
 5411TIP3    H116197   1.871   2.884   1.415 -1.9390 -1.3615 -1.7801
 5411TIP3    H216198   1.871   3.008   1.328 -0.1572  0.0052  0.0647
 5412TIP3   OH216199   2.044   0.152   5.005  0.0094  0.2753  0.0526
 5412TIP3    H116200   2.011   0.086   4.944  3.1271 -0.8273 -0.6488
 5412TIP3    H216201   2.002   0.130   5.089 -2.1562  0.0342 -1.0237
 5413TIP3   OH216202   3.454   1.670   4.945 -0.0765 -0.0023  0.0870
 5413TIP3    H116203   3.425   1.718   5.023 -0.4440 -1.8456  1.1504
 5413TIP3    H216204   3.377   1.668   4.888 -0.1875  0.3132  0.2255
 5414TIP3   OH216205   5.708   5.502   0.985  0.0764  0.2313 -0.7076
 5414TIP3    H116206   5.792   5.540   0.961  0.3985 -0.5126 -0.7992
 5414TIP3    H216207   5.654   5.576   1.012  0.6728  0.7425 -0.9106
 5415TIP3   OH216208   0.396   5.482   2.746 -0.4230  0.2397 -0.1695
 5415TIP3    H116209   0.413   5.431   2.825  0.1288 -1.2996 -1.2456
 5415TIP3    H216210   0.480   5.487   2.701 -1.0370 -0.1999 -1.4028
 5416TIP3   OH216211   6.700   4.953   1.164  0.4038  0.7860 -0.5922
 5416TIP3    H116212   6.612   4.917   1.158  0.9099 -0.6904  0.3270
 5416TIP3    H216213   6.696   5.015   1.237  0.5418 -0.6587  0.6820
 5417TIP3   OH216214   4.250   3.545   2.224 -0.0783 -0.2144  0.3680
 5417TIP3    H116215   4.197   3.615   2.264  0.0228 -0.2445  0.5555
 5417TIP3    H216216   4.239   3.558   2.130 -1.7333 -1.1953  0.3836
 5418TIP3   OH216217   2.307   6.444   0.216  0.1840 -0.9272 -0.1291
 5418TIP3    H116218   2.393   6.470   0.250 -0.0902 -0.8787  0.5473
 5418TIP3    H216219   2.320   6.433   0.122  1.4657 -3.0750  0.2458
 5419TIP3   OH216220   5.994   6.420   3.723  0.6473 -0.2488  0.3316
 5419TIP3    H116221   6.040   6.462   3.796  0.5044  0.6848 -0.1060
 5419TIP3    H216222   6.020   6.470   3.646  0.0156 -0.6062 -0.1226
 5420TIP3   OH216223   4.942   0.802   0.871  0.7142  0.2565 -0.1062
 5420TIP3    H116224   4.967   0.735   0.934 -1.2964  1.2533  1.8899
 5420TIP3    H216225   4.874   0.760   0.817  1.0163  0.0346 -0.3214
 5421TIP3   OH216226   6.213   4.613   5.777 -0.2679  0.2655 -0.2702
 5421TIP3    H116227   6.123   4.645   5.774 -0.0177  0.9676 -0.5829
 5421TIP3    H216228   6.228   4.589   5.868  0.0627  2.6502  0.3627
 5422TIP3   OH216229   5.098   4.118   3.010 -0.0112  0.0787  0.2602
 5422TIP3    H116230   5.192   4.125   2.991 -0.3030 -1.3030 -2.0153
 5422TIP3    H216231   5.093   4.120   3.106  2.3197  0.2666  0.4408
 5423TIP3   OH216232   6.652   4.764   1.465 -0.9005  0.3963  0.4025
 5423TIP3    H116233   6.565   4.747   1.429 -0.4660 -0.0803 -0.4606
 5423TIP3    H216234   6.667   4.857   1.450 -0.9947  0.3393 -0.0457
 5424TIP3   OH216235   0.851   0.310   4.579 -0.0263  0.4688  0.2185
 5424TIP3    H116236   0.843   0.289   4.486  0.2263  0.1667  0.2624
 5424TIP3    H216237   0.833   0.404   4.584 -0.5755  0.3833 -0.0644
 5425TIP3   OH216238   6.083   3.539   3.062  0.4653 -0.4754  0.1974
 5425TIP3    H116239   6.022   3.472   3.033  1.7680 -0.9101 -1.7485
 5425TIP3    H216240   6.163   3.522   3.012  2.2162  0.0484  2.6460
 5426TIP3   OH216241   3.320   0.135   3.500 -0.2510 -0.1698  0.3410
 5426TIP3    H116242   3.415   0.122   3.503 -0.0847  0.8493 -0.1631
 5426TIP3    H216243   3.285   0.067   3.557  0.6972 -1.3883 -0.4824
 5427TIP3   OH216244   1.467   3.593   0.839  0.2313 -0.7338 -0.0697
 5427TIP3    H116245   1.522   3.596   0.761  0.9200  1.6044  0.4194
 5427TIP3    H216246   1.377   3.601   0.805  0.4507 -0.7177 -0.6570
 5428TIP3   OH216247   6.156   4.894   3.170  0.2024  0.2064  0.0623
 5428TIP3    H116248   6.241   4.854   3.150  0.3453  0.0120  1.0439
 5428TIP3    H216249   6.160   4.915   3.263 -0.5830  0.8059 -0.0276
 5429TIP3   OH216250   3.028   3.025   5.407  0.4777  0.3666 -0.6864
 5429TIP3    H116251   3.054   2.968   5.336 -0.7560  2.6756 -3.1962
 5429TIP3    H216252   2.932   3.020   5.408  0.4284  1.1040  0.1615
 5430TIP3   OH216253   4.286   0.820   3.785  0.6394  0.7965 -0.0290
 5430TIP3    H116254   4.229   0.744   3.796  0.1930  0.9498 -1.1610
 5430TIP3    H216255   4.244   0.889   3.836  0.1452  0.7372 -0.3495
 5431TIP3   OH216256   1.160   1.489   1.767  0.0961  0.1341 -0.7128
 5431TIP3    H116257   1.206   1.446   1.695  0.5089 -1.1852  0.2890
 5431TIP3    H216258   1.102   1.422   1.802  0.7386  0.3762  0.8916
 5432TIP3   OH216259   2.624   4.042   4.308 -0.3472  0.7273  0.3988
 5432TIP3    H116260   2.662   3.958   4.284  0.2254  0.6258  1.5751
 5432TIP3    H216261   2.686   4.080   4.370 -0.5611  2.0629 -0.1589
 5433TIP3   OH216262   2.136   3.282   5.261  0.6259  0.0625  0.0621
 5433TIP3    H116263   2.090   3.270   5.344 -0.6421  0.1069 -0.6105
 5433TIP3    H216264   2.107   3.209   5.207  1.5085 -0.0132 -0.3146
 5434TIP3   OH216265   4.733   5.058   5.639 -0.4525  0.3342  0.4424
 5434TIP3    H116266   4.661   5.100   5.593 -0.5483 -0.0108  0.2685
 5434TIP3    H216267   4.727   4.966   5.613  1.0785  0.5814 -0.9422
 5435TIP3   OH216268   2.230   0.962   4.415  0.2146  0.6691  0.1618
 5435TIP3    H116269   2.301   0.983   4.475  0.8422  0.0673 -0.3479
 5435TIP3    H216270   2.233   1.031   4.348  1.3974 -0.2422 -0.7639
 5436TIP3   OH216271   1.064   1.395   2.940 -0.0927  0.0634 -0.5687
 5436TIP3    H116272   1.096   1.483   2.922 -0.1162 -0.0776 -1.3503
 5436TIP3    H216273   1.080   1.381   3.034  0.7548  0.5498 -0.6408
 5437TIP3   OH216274   0.617   1.803   0.540  0.5154  0.7797  0.1513
 5437TIP3    H116275   0.648   1.894   0.547 -0.3122  1.1361 -0.6609
 5437TIP3    H216276   0.676   1.763   0.476  1.6817  0.3652  1.4379
 5438TIP3   OH216277   3.245   5.302   1.230 -0.0884  0.1165  0.0047
 5438TIP3    H116278   3.204   5.376   1.275  0.1851  0.3474 -0.1191
 5438TIP3    H216279   3.337   5.306   1.257 -0.4224 -1.3750  1.5987
 5439TIP3   OH216280   4.778   6.270   1.014  0.5780  0.6678  0.1479
 5439TIP3    H116281   4.790   6.209   1.086  1.7861  1.3376  0.5421
 5439TIP3    H216282   4.785   6.217   0.935 -0.4376 -0.0176  0.5015
 5440TIP3   OH216283   4.093   1.072   1.212  0.0193 -0.3903  0.6474
 5440TIP3    H116284   4.105   1.037   1.124  1.4034  0.4313  0.4773
 5440TIP3    H216285   4.177   1.059   1.255  0.3627  1.9288  0.8146
 5441TIP3   OH216286   1.259   5.720   3.193  0.2945  0.2674 -0.2592
 5441TIP3    H116287   1.183   5.756   3.147 -0.4478 -0.6324  0.2271
 5441TIP3    H216288   1.310   5.797   3.218 -0.3818  0.8853 -0.7163
 5442TIP3   OH216289   1.793   6.601   1.348  0.1671  0.5378 -0.1534
 5442TIP3    H116290   1.770   6.639   1.263  0.2818 -0.8449 -0.8262
 5442TIP3    H216291   1.781   6.507   1.336  0.4408  0.3034  1.2926
 5443TIP3   OH216292   5.558   3.289   4.391  0.2319 -0.0127 -0.2416
 5443TIP3    H116293   5.536   3.282   4.484  1.5542  0.7146  0.1485
 5443TIP3    H216294   5.648   3.322   4.390  0.1877  0.1261 -1.7874
 5444TIP3   OH216295   3.162   0.043   2.100  0.1735 -0.2399  0.3076
 5444TIP3    H116296   3.238   0.089   2.064 -0.8668  0.9707 -0.4569
 5444TIP3    H216297   3.165  -0.043   2.059  2.4472 -1.1190  2.1466
 5445TIP3   OH216298   5.467   4.185   3.399  0.1047  0.1717  0.4987
 5445TIP3    H116299   5.512   4.210   3.318 -0.8275 -3.0373 -1.2094
 5445TIP3    H216300   5.384   4.234   3.395 -0.2227 -0.4304 -0.9015
 5446TIP3   OH216301   3.095   5.195   5.717 -0.7098  0.3567 -0.4687
 5446TIP3    H116302   3.100   5.102   5.739  0.3179 -0.3670 -3.3251
 5446TIP3    H216303   3.002   5.216   5.722 -1.0124 -0.9340 -0.1585
 5447TIP3   OH216304   1.073   3.415   3.836  0.0592 -0.7534  0.7100
 5447TIP3    H116305   1.055   3.448   3.924 -2.4228 -1.2378  0.4721
 5447TIP3    H216306   0.987   3.416   3.793  1.1427 -0.9168 -1.5745
 5448TIP3   OH216307   1.348   5.726   0.541  0.1356  0.3100  0.6456
 5448TIP3    H116308   1.395   5.711   0.623 -0.4705 -0.0235  0.9321
 5448TIP3    H216309   1.407   5.692   0.474 -1.0238 -3.2572  1.2122
 5449TIP3   OH216310   4.659   4.424   1.103  0.2214  0.2990 -0.5564
 5449TIP3    H116311   4.652   4.337   1.062 -0.5040 -0.6331  1.4003
 5449TIP3    H216312   4.752   4.444   1.098  0.1944  0.1325 -2.3984
 5450TIP3   OH216313   3.960   3.575   0.453  0.3747 -0.2009  0.1065
 5450TIP3    H116314   3.928   3.502   0.399  0.0214 -0.4493  0.6479
 5450TIP3    H216315   3.972   3.537   0.540  1.0226  0.1808  0.1885
 5451TIP3   OH216316   4.638   1.602   0.012  0.0293 -0.1245 -0.3609
 5451TIP3    H116317   4.681   1.687   0.013  0.6129 -0.4009  0.7256
 5451TIP3    H216318   4.551   1.619  -0.024 -0.0633  1.0368  0.3561
 5452TIP3   OH216319   2.422   0.928   5.478 -0.2098 -0.2053  0.0816
 5452TIP3    H116320   2.349   0.918   5.539  0.9522 -1.0589  1.3920
 5452TIP3    H216321   2.487   0.865   5.508  1.1014  0.5800 -1.0043
 5453TIP3   OH216322   3.424   3.360   0.128 -0.0642 -0.0085  0.2755
 5453TIP3    H116323   3.464   3.444   0.105  0.7378 -0.2187  0.8747
 5453TIP3    H216324   3.459   3.298   0.064  2.8337 -0.7683  2.4401
 5454TIP3   OH216325   5.089   2.550   4.570 -0.1968 -0.2589 -0.5221
 5454TIP3    H116326   5.079   2.586   4.482 -0.3106 -0.7591 -0.7199
 5454TIP3    H216327   5.024   2.480   4.575  0.6670 -1.0755 -0.4864
 5455TIP3   OH216328   0.898   0.451   5.563  0.2589  0.0850 -0.1270
 5455TIP3    H116329   0.819   0.488   5.602 -0.4684 -0.0475 -1.4077
 5455TIP3    H216330   0.870   0.420   5.477  1.4313 -1.0843 -0.1242
 5456TIP3   OH216331   2.540   6.498   0.919 -0.1773 -0.2988 -0.0849
 5456TIP3    H116332   2.496   6.447   0.987  0.5282 -0.5181  0.2112
 5456TIP3    H216333   2.484   6.486   0.842  0.0704 -1.7124 -0.0847
 5457TIP3   OH216334   5.012   6.331   2.300 -0.2453  0.0042 -0.0858
 5457TIP3    H116335   5.096   6.339   2.256  0.4727 -0.2964  1.1850
 5457TIP3    H216336   5.034   6.318   2.392 -1.7179  2.3834  0.6928
 5458TIP3   OH216337   1.656   4.771   0.172 -0.0708  0.5104  0.2436
 5458TIP3    H116338   1.724   4.833   0.201 -1.2251  1.7688  0.3708
 5458TIP3    H216339   1.637   4.798   0.082  0.1885 -0.3824 -0.0838
 5459TIP3   OH216340   1.238   2.598   1.397 -0.0807 -0.4186 -0.2559
 5459TIP3    H116341   1.305   2.538   1.364  0.4572 -0.2154  0.4414
 5459TIP3    H216342   1.193   2.549   1.466  0.1194 -0.1587  0.0646
 5460TIP3   OH216343   1.231   4.894   3.291 -0.5559 -0.2029 -0.7646
 5460TIP3    H116344   1.173   4.819   3.281 -0.6609 -0.2233 -0.0438
 5460TIP3    H216345   1.213   4.949   3.214 -0.4616 -0.9117 -1.3053
 5461TIP3   OH216346   3.115   2.419   4.697  0.0980  0.3297 -0.2949
 5461TIP3    H116347   3.194   2.413   4.750  0.3180  0.9515 -0.5437
 5461TIP3    H216348   3.108   2.512   4.675 -0.1815  0.1348 -1.0639
 5462TIP3   OH216349   3.088   0.268   5.132  0.2023  0.1001  0.0843
 5462TIP3    H116350   3.037   0.191   5.156  0.7875 -0.0612  0.8389
 5462TIP3    H216351   3.108   0.256   5.039  0.3074 -0.6635  0.2038
 5463TIP3   OH216352   6.272   0.654   4.785 -0.5015 -0.0622  0.2046
 5463TIP3    H116353   6.186   0.612   4.791 -0.7761  0.5882  1.0421
 5463TIP3    H216354   6.334   0.582   4.794 -0.9677 -0.3622  1.2950
 5464TIP3   OH216355   6.207   1.215   1.131  0.9222  0.2896  0.6021
 5464TIP3    H116356   6.219   1.143   1.192  1.2483 -0.5919 -0.4637
 5464TIP3    H216357   6.290   1.263   1.134  1.4269 -0.5166 -0.0912
 5465TIP3   OH216358   0.906   6.369   1.383 -0.2527  0.0599  0.4251
 5465TIP3    H116359   0.918   6.311   1.308  0.2099 -0.8559  1.1731
 5465TIP3    H216360   0.864   6.314   1.449  1.8753 -0.0466  1.8204
 5466TIP3   OH216361   5.298   2.380   0.811  0.1198 -0.6292  0.1972
 5466TIP3    H116362   5.229   2.333   0.765 -1.7516  2.4261 -0.4056
 5466TIP3    H216363   5.319   2.324   0.887 -2.1463 -2.2274 -0.2590
 5467TIP3   OH216364   5.139   3.970   1.894 -0.1180  0.2248 -0.6492
 5467TIP3    H116365   5.080   3.947   1.966  0.2686 -0.2085 -0.4652
 5467TIP3    H216366   5.138   3.894   1.837 -2.4828  1.5226 -2.5368
 5468TIP3   OH216367   4.272   4.356   5.764  0.1433  0.3563  0.0129
 5468TIP3    H116368   4.331   4.430   5.784  1.1455 -0.6440  0.8845
 5468TIP3    H216369   4.269   4.354   5.668 -0.9991  2.3508 -0.0436
 5469TIP3   OH216370   7.090   6.363   1.692  0.0402 -0.3717  0.1028
 5469TIP3    H116371   7.008   6.351   1.643 -0.4431 -1.4097  1.1259
 5469TIP3    H216372   7.129   6.442   1.654 -1.6371  0.3911 -0.1222
 5470TIP3   OH216373   0.225   2.887   5.154 -0.3810 -0.1646 -0.6183
 5470TIP3    H116374   0.140   2.854   5.181 -1.2782  0.3712 -2.6140
 5470TIP3    H216375   0.232   2.973   5.196 -1.4344  0.3602 -1.4775
 5471TIP3   OH216376   5.793   3.881   5.294 -0.3925 -0.4811 -0.1081
 5471TIP3    H116377   5.864   3.878   5.230 -1.1066 -0.0998 -0.9391
 5471TIP3    H216378   5.837   3.874   5.379  0.5863 -0.8109 -0.6238
 5472TIP3   OH216379   6.034   3.234   4.505 -0.2477 -0.0151 -0.3716
 5472TIP3    H116380   6.042   3.225   4.600  0.4729  0.8576 -0.3343
 5472TIP3    H216381   6.061   3.149   4.470  1.3409  0.2408  0.1378
 5473TIP3   OH216382   6.147   4.552   0.274 -0.1143  0.1394 -0.0075
 5473TIP3    H116383   6.210   4.531   0.343  1.7901  1.5066 -1.2281
 5473TIP3    H216384   6.076   4.598   0.319  1.0247  0.9086  1.0586
 5474TIP3   OH216385   1.185   4.601   1.551  0.1224 -1.0579 -0.5953
 5474TIP3    H116386   1.121   4.621   1.619 -0.5084 -0.4191 -1.3663
 5474TIP3    H216387   1.257   4.558   1.598  0.2249  0.4104  0.6677
 5475TIP3   OH216388   2.389   0.970   4.656  0.7234  0.2665 -0.4512
 5475TIP3    H116389   2.451   0.953   4.727  1.1520 -1.3187 -1.1471
 5475TIP3    H216390   2.387   1.065   4.648  1.2321  0.4494  1.1680
 5476TIP3   OH216391   0.086   5.616   2.548 -0.1655  0.2725 -0.3651
 5476TIP3    H116392   0.014   5.662   2.589  0.3337  1.4990 -0.8220
 5476TIP3    H216393   0.095   5.535   2.599 -0.8497  0.8127  0.6473
 5477TIP3   OH216394   2.652   1.337   4.260 -0.4772 -0.2220 -0.1999
 5477TIP3    H116395   2.711   1.413   4.262 -2.7318  1.6528 -0.8011
 5477TIP3    H216396   2.696   1.274   4.203  1.3207  0.7091  0.0683
 5478TIP3   OH216397   1.189   0.352   3.988 -0.2753 -0.2218 -0.1988
 5478TIP3    H116398   1.227   0.314   4.067  0.7589  0.7723 -0.1859
 5478TIP3    H216399   1.241   0.431   3.973  0.5135 -1.1082 -2.6804
 5479TIP3   OH216400   5.268   4.844   4.725  0.1961 -0.4715 -0.1892
 5479TIP3    H116401   5.265   4.939   4.736 -2.4120 -0.4123 -0.8563
 5479TIP3    H216402   5.359   4.826   4.702  0.7058  1.8744 -0.3012
 5480TIP3   OH216403   1.013   2.356   0.666 -0.2130  0.0462 -0.4320
 5480TIP3    H116404   0.934   2.409   0.681 -0.6202 -0.1732 -1.6849
 5480TIP3    H216405   1.044   2.335   0.754 -1.5413  0.1590  0.1001
 5481TIP3   OH216406   5.201   6.249  -0.010  0.1954  0.3433  0.4143
 5481TIP3    H116407   5.214   6.259   0.084 -2.8362 -1.2037  1.1195
 5481TIP3    H216408   5.142   6.320  -0.034  0.6382  0.4906 -0.2865
 5482TIP3   OH216409   5.079   1.484   0.558 -0.2442  0.2477  0.1763
 5482TIP3    H116410   5.053   1.396   0.588 -1.7949  0.3780 -0.6475
 5482TIP3    H216411   5.024   1.499   0.480  1.4957  1.1198 -0.9325
 5483TIP3   OH216412   2.026   2.104   1.980  0.2521  0.6249 -0.8294
 5483TIP3    H116413   2.078   2.181   2.002  0.3582  0.2831  0.2034
 5483TIP3    H216414   2.090   2.033   1.973 -0.0979 -0.0670  1.7063
 5484TIP3   OH216415   2.213   3.893   2.620  0.9150 -0.3679 -0.7544
 5484TIP3    H116416   2.176   3.805   2.615 -0.9019  0.3345 -0.4485
 5484TIP3    H216417   2.253   3.897   2.706  1.1964 -0.9483 -0.8502
 5485TIP3   OH216418   3.934   1.558   4.251 -0.0993 -0.6553  0.3132
 5485TIP3    H116419   3.947   1.542   4.345 -0.4002 -1.2731  0.2539
 5485TIP3    H216420   3.949   1.474   4.210  0.8421 -0.2077 -0.2959
 5486TIP3   OH216421   1.300   3.151   5.337 -0.7798  0.6051  0.0700
 5486TIP3    H116422   1.309   3.134   5.243  1.2038 -0.2681  0.3720
 5486TIP3    H216423   1.205   3.153   5.351 -1.1315  0.2872 -1.8589
 5487TIP3   OH216424   6.353   2.175   0.266  0.2959 -0.1958 -0.4654
 5487TIP3    H116425   6.448   2.175   0.256  0.3579  0.0882  0.1065
 5487TIP3    H216426   6.336   2.108   0.333  0.2281  0.8730  0.6119
 5488TIP3   OH216427   6.611   2.539   3.242 -0.0566  0.5097 -0.0741
 5488TIP3    H116428   6.648   2.526   3.155 -0.4919  3.0127 -0.7149
 5488TIP3    H216429   6.546   2.469   3.251  0.6488 -0.3494 -1.3642
 5489TIP3   OH216430   6.559   5.440   1.919 -0.6708 -0.1683  0.1021
 5489TIP3    H116431   6.628   5.449   1.853 -1.3250 -1.2901 -0.7707
 5489TIP3    H216432   6.491   5.388   1.876 -0.5015 -2.2231  2.1004
 5490TIP3   OH216433   4.413   3.333   0.672  0.0648  0.1038 -0.3591
 5490TIP3    H116434   4.477   3.286   0.617  0.3297  0.5050 -0.3977
 5490TIP3    H216435   4.467   3.387   0.730 -0.2583  0.8641 -0.7637
 5491TIP3   OH216436   0.646  -0.023   4.594  0.0119  0.3771 -0.2318
 5491TIP3    H116437   0.604   0.046   4.645 -0.5649 -0.0412 -0.1212
 5491TIP3    H216438   0.662   0.016   4.508  0.5605  0.9376  0.1185
 5492TIP3   OH216439   3.565   4.620   0.037  0.1381  0.4135  0.2237
 5492TIP3    H116440   3.647   4.640  -0.010 -0.1554 -0.0094 -0.4840
 5492TIP3    H216441   3.496   4.650  -0.022 -0.2719 -1.2252 -0.1840
 5493TIP3   OH216442   4.393   5.861   0.473  0.2592  0.2731 -0.2761
 5493TIP3    H116443   4.379   5.956   0.474  0.9315  0.3797 -0.3172
 5493TIP3    H216444   4.341   5.829   0.399  0.3892  0.6692 -0.5398
 5494TIP3   OH216445   0.350   5.704   4.360  0.2393  0.0115  0.5744
 5494TIP3    H116446   0.269   5.689   4.408 -2.8373  0.9287 -3.7281
 5494TIP3    H216447   0.388   5.783   4.398 -2.2226  0.9440  1.2178
 5495TIP3   OH216448   5.244   4.923   3.775 -0.0612 -0.4982  0.5761
 5495TIP3    H116449   5.170   4.863   3.779 -2.2706  2.0817  2.3602
 5495TIP3    H216450   5.215   5.001   3.823  2.5965  2.0307 -1.5009
 5496TIP3   OH216451   3.657   3.965   0.835 -0.5596 -0.0692  0.5099
 5496TIP3    H116452   3.567   3.934   0.834 -1.1181  1.3472  2.2177
 5496TIP3    H216453   3.710   3.885   0.838 -1.7329 -0.9170 -0.5938
 5497TIP3   OH216454   2.356   0.501   4.260 -0.5519 -0.0050  0.5416
 5497TIP3    H116455   2.438   0.513   4.214 -1.5004  1.3968 -0.9090
 5497TIP3    H216456   2.378   0.515   4.352  0.8439  0.2014  0.2000
 5498TIP3   OH216457   6.120   0.145   5.871  0.5629 -0.4218 -0.2109
 5498TIP3    H116458   6.209   0.162   5.842  1.4804 -1.0160  2.0336
 5498TIP3    H216459   6.123   0.058   5.910 -2.2362 -2.7967 -4.4941
 5499TIP3   OH216460   0.806   1.247   2.067  0.3825 -0.2657  0.4669
 5499TIP3    H116461   0.712   1.256   2.082  0.2059  1.0374 -1.1240
 5499TIP3    H216462   0.840   1.337   2.071  1.0131 -0.3176 -2.0288
 5500TIP3   OH216463   2.043   0.448   5.688  0.3618 -0.3126  0.3372
 5500TIP3    H116464   2.111   0.381   5.689  1.0629  0.3379 -1.2669
 5500TIP3    H216465   1.982   0.419   5.619  0.9761  0.9360 -0.7878
 5501TIP3   OH216466   4.870   2.380   4.528  0.0005 -0.2181  0.0240
 5501TIP3    H116467   4.824   2.385   4.612  1.9077 -1.0977  1.1957
 5501TIP3    H216468   4.911   2.294   4.529  1.1143  0.2722 -1.2635
 5502TIP3   OH216469   0.810   3.522   4.745  0.8339 -0.5478  0.0560
 5502TIP3    H116470   0.721   3.488   4.737  1.5475 -2.4741 -0.4321
 5502TIP3    H216471   0.800   3.614   4.769 -1.2687 -0.7374  0.0195
 5503TIP3   OH216472   2.037   5.869   3.698 -0.1866  1.0562  0.1079
 5503TIP3    H116473   2.084   5.925   3.636  1.6023  0.4866  0.8662
 5503TIP3    H216474   1.984   5.811   3.643  0.5616  1.2495 -0.8463
 5504TIP3   OH216475   6.259   2.950   3.760  0.1468  0.0769  0.9214
 5504TIP3    H116476   6.353   2.937   3.751  0.2327  1.3425 -0.2076
 5504TIP3    H216477   6.249   3.042   3.782 -0.9306  0.7048 -1.7667
 5505TIP3   OH216478   6.937   0.487   2.179  0.1554  0.2613  0.5170
 5505TIP3    H116479   6.867   0.505   2.241 -2.9275  0.1107 -2.6027
 5505TIP3    H216480   6.972   0.573   2.156 -1.4795  0.7166 -0.4207
 5506TIP3   OH216481   5.632   0.418   5.795 -0.6702 -0.2017 -0.0479
 5506TIP3    H116482   5.558   0.391   5.741 -0.6856 -1.5931  0.6483
 5506TIP3    H216483   5.692   0.459   5.733 -0.6915 -1.7453 -1.1516
 5507TIP3   OH216484   3.015   3.387   3.292 -0.0340 -0.4618 -0.0532
 5507TIP3    H116485   3.036   3.478   3.311 -0.5009 -0.5764  1.1056
 5507TIP3    H216486   2.933   3.390   3.244  1.1748 -0.1621 -2.1941
 5508TIP3   OH216487   7.026   1.149   2.935  0.0919  0.5129 -0.1855
 5508TIP3    H116488   6.967   1.120   2.866  1.8989 -3.8084 -0.2454
 5508TIP3    H216489   7.096   1.194   2.890 -0.3182  0.5640 -0.7773
 5509TIP3   OH216490   2.877   1.201   1.873 -0.3156  0.2772  0.4245
 5509TIP3    H116491   2.969   1.190   1.895 -0.3719  0.2602  0.6569
 5509TIP3    H216492   2.859   1.294   1.888 -0.1546  0.4337 -0.3278
 5510TIP3   OH216493   5.310   6.512   0.689  0.0111 -0.9017  0.3834
 5510TIP3    H116494   5.395   6.535   0.651 -0.3605  0.9142  0.5452
 5510TIP3    H216495   5.330   6.485   0.779  0.4705 -0.9272  0.2741
 5511TIP3   OH216496  -0.028   2.720   4.119 -0.5046  0.8353  0.1372
 5511TIP3    H116497   0.015   2.717   4.033  1.4443  1.8998  0.9923
 5511TIP3    H216498   0.045   2.723   4.182 -1.7471 -2.6465  2.0628
 5512TIP3   OH216499   5.397   6.422   3.846 -0.5047 -0.1161  0.6637
 5512TIP3    H116500   5.489   6.409   3.869 -0.6487 -0.8307  0.8517
 5512TIP3    H216501   5.348   6.379   3.917 -0.9692 -0.5966  0.0641
 5513TIP3   OH216502   0.184   2.858   5.796 -0.1002  0.1129  0.0050
 5513TIP3    H116503   0.157   2.852   5.888  0.9042  1.1842  0.3994
 5513TIP3    H216504   0.131   2.792   5.751 -1.5783  0.4589  1.1293
 5514TIP3   OH216505   0.818   2.988   3.644  0.1042 -0.1249  0.2878
 5514TIP3    H116506   0.896   3.005   3.697 -1.0044  1.7061  1.4077
 5514TIP3    H216507   0.760   3.062   3.661 -2.1418 -1.6919 -0.0657
 5515TIP3   OH216508   6.375   6.065   4.863 -0.3212 -0.5285  0.0079
 5515TIP3    H116509   6.409   6.110   4.786  0.7369 -1.0890  0.1306
 5515TIP3    H216510   6.382   6.130   4.934  0.3017 -0.5577 -0.0191
 5516TIP3   OH216511   3.051   0.581   2.705  0.2070  0.3149  0.0527
 5516TIP3    H116512   3.048   0.554   2.796 -0.2410  0.1561 -0.0070
 5516TIP3    H216513   3.042   0.500   2.655  3.0138  0.0232 -0.1829
 5517TIP3   OH216514   1.110   5.296   1.086 -0.5136  0.6912  0.4237
 5517TIP3    H116515   1.047   5.368   1.076 -0.8693  0.2938 -0.2394
 5517TIP3    H216516   1.074   5.225   1.034  0.4122  0.4036  0.1517
 5518TIP3   OH216517   1.979   2.280   3.853 -0.6267 -0.3992  0.0616
 5518TIP3    H116518   2.074   2.275   3.852 -0.4610  1.9291  0.0541
 5518TIP3    H216519   1.953   2.274   3.761 -0.5302 -1.3054  0.0847
 5519TIP3   OH216520   1.874   3.500   1.992  0.3374  0.5797  0.0272
 5519TIP3    H116521   1.788   3.475   1.958  1.0052 -0.5813 -0.8798
 5519TIP3    H216522   1.888   3.443   2.068  1.2598 -0.9050 -1.2036
 5520TIP3   OH216523   1.749   0.315   3.413 -0.0653  0.1632  0.4504
 5520TIP3    H116524   1.776   0.389   3.467  0.9986 -0.7549  1.2293
 5520TIP3    H216525   1.665   0.342   3.376 -0.3098  1.2457  1.7102
 5521TIP3   OH216526   0.729   5.783   4.537 -0.0751  0.4458 -0.0937
 5521TIP3    H116527   0.794   5.844   4.571 -0.3632  2.4570 -2.8068
 5521TIP3    H216528   0.648   5.806   4.581  0.2431  0.5376  0.4571
 5522TIP3   OH216529   0.227   6.024   1.322 -0.5278  0.0193  0.1375
 5522TIP3    H116530   0.296   6.077   1.360 -0.6842 -0.8364  1.7230
 5522TIP3    H216531   0.245   5.935   1.353 -0.4150 -0.8481 -2.2118
 5523TIP3   OH216532   3.073   6.050   3.901  0.0684  0.2309 -0.6463
 5523TIP3    H116533   3.036   6.049   3.813  0.7383 -0.4785 -0.9405
 5523TIP3    H216534   3.106   5.961   3.914  1.9422  0.8898 -0.5504
 5524TIP3   OH216535   5.773   2.368   4.576 -0.3021  0.5491 -0.4621
 5524TIP3    H116536   5.793   2.279   4.546 -1.0983  0.0533  0.4393
 5524TIP3    H216537   5.722   2.356   4.656  1.8629  1.8042  1.2262
 5525TIP3   OH216538   2.189   1.748   2.036  0.0356  0.4700  0.0402
 5525TIP3    H116539   2.179   1.786   1.949 -1.6135  1.5544  0.6601
 5525TIP3    H216540   2.231   1.664   2.021 -0.7732  0.3619 -1.8734
 5526TIP3   OH216541   0.749   0.508   3.084 -0.7877 -0.2870  0.5720
 5526TIP3    H116542   0.784   0.433   3.132  0.7232 -0.1053 -0.1884
 5526TIP3    H216543   0.705   0.469   3.009  0.8813 -0.4248 -0.3836
 5527TIP3   OH216544   0.364   5.568   4.748  0.3936 -0.4162  0.4313
 5527TIP3    H116545   0.388   5.514   4.673  0.3386 -2.0416  1.5251
 5527TIP3    H216546   0.379   5.511   4.824  0.6878  1.2631  1.6691
 5528TIP3   OH216547   0.076   2.528   0.957 -0.3322  0.4383  0.4464
 5528TIP3    H116548  -0.015   2.528   0.988  0.1278 -1.2428  1.9339
 5528TIP3    H216549   0.081   2.454   0.897  0.3806 -0.3487  1.4579
 5529TIP3   OH216550   1.794   5.820   0.609  0.2475  0.9910 -0.2160
 5529TIP3    H116551   1.847   5.775   0.675 -2.0550 -1.1379  0.3158
 5529TIP3    H216552   1.799   5.913   0.634  0.2533  0.3707  2.4039
 5530TIP3   OH216553   3.236   6.651   4.327  0.1169 -0.0812  0.0292
 5530TIP3    H116554   3.319   6.694   4.346 -0.5225  0.0313  2.9602
 5530TIP3    H216555   3.245   6.563   4.362 -0.5853 -0.4940 -0.7863
 5531TIP3   OH216556   4.981   3.542   4.549 -0.2934  0.2100 -0.7194
 5531TIP3    H116557   4.888   3.550   4.529 -1.1170  1.4786  2.8601
 5531TIP3    H216558   4.998   3.611   4.613  3.3993  0.6496 -1.9406
 5532TIP3   OH216559  -0.010   4.223   5.417  0.5856  0.1639  0.0440
 5532TIP3    H116560  -0.025   4.312   5.450  1.3634  0.5279 -0.5430
 5532TIP3    H216561   0.085   4.218   5.403  0.6945 -1.1380  1.0854
 5533TIP3   OH216562   2.317   4.898   4.363  0.1916  0.1895  0.5576
 5533TIP3    H116563   2.379   4.830   4.334 -0.8283 -1.4788  2.0457
 5533TIP3    H216564   2.321   4.965   4.295  2.4260 -0.6144 -0.1928
 5534TIP3   OH216565   6.018   1.949   1.763 -0.3441 -0.0262  0.3715
 5534TIP3    H116566   5.957   2.020   1.783  0.2431  1.4664 -2.6602
 5534TIP3    H216567   5.964   1.882   1.720 -0.0494  1.0441 -1.7800
 5535TIP3   OH216568   6.753   5.321   4.255  0.5788  0.4852  0.2185
 5535TIP3    H116569   6.697   5.263   4.305 -1.5068  2.3920  0.2702
 5535TIP3    H216570   6.719   5.318   4.166 -0.4483  2.5108  0.4761
 5536TIP3   OH216571   6.984   0.480   5.037 -0.2161  0.3583 -0.3996
 5536TIP3    H116572   6.895   0.444   5.041 -0.1424  0.1890 -0.2932
 5536TIP3    H216573   6.976   0.557   4.980 -0.7966  1.4015  1.0311
 5537TIP3   OH216574   5.730   3.512   2.891  0.3189 -0.0896 -0.4948
 5537TIP3    H116575   5.735   3.473   2.804 -0.3584  0.2681 -0.7022
 5537TIP3    H216576   5.758   3.603   2.878 -3.1898  1.0554 -1.0903
 5538TIP3   OH216577   5.289   1.677   0.490  0.5003  0.0843 -0.3841
 5538TIP3    H116578   5.214   1.730   0.514 -0.1387 -1.7400  2.0230
 5538TIP3    H216579   5.283   1.670   0.394 -2.5627 -0.2011 -0.2788
 5539TIP3   OH216580   0.290   6.696   2.872  0.2525 -0.3511 -0.4804
 5539TIP3    H116581   0.315   6.737   2.789  2.1474 -1.6593 -0.6237
 5539TIP3    H216582   0.335   6.748   2.939  1.1912 -1.0696 -0.5311
 5540TIP3   OH216583   6.974   6.450   1.105  0.2926  0.0093  0.0407
 5540TIP3    H116584   7.059   6.407   1.093  0.5573 -0.0638  1.8740
 5540TIP3    H216585   6.979   6.490   1.191 -0.1944  3.2617 -1.3019
 5541TIP3   OH216586   2.987   3.628   2.128  0.2381  0.3775 -0.0897
 5541TIP3    H116587   2.929   3.566   2.174  1.6160 -0.8891  0.0311
 5541TIP3    H216588   2.940   3.711   2.131 -0.1859  0.1390  2.7664
 5542TIP3   OH216589   5.878   4.559   2.167 -0.1019  0.2023  0.1946
 5542TIP3    H116590   5.957   4.508   2.189 -1.0424 -0.3674  2.5207
 5542TIP3    H216591   5.912   4.644   2.138  1.4055 -0.5980 -0.4864
 5543TIP3   OH216592   6.172   0.213   4.417 -0.6496  0.8046 -0.2432
 5543TIP3    H116593   6.162   0.120   4.437 -3.1132  1.4117  2.0268
 5543TIP3    H216594   6.137   0.223   4.329 -1.8750 -0.2330  0.0986
 5544TIP3   OH216595   2.184   4.038   4.042 -0.4388 -0.5512  0.0094
 5544TIP3    H116596   2.116   4.006   3.983 -0.2623 -0.9456  0.0181
 5544TIP3    H216597   2.245   4.086   3.985  0.1907 -1.6558 -0.2814
 5545TIP3   OH216598   1.702   0.094   3.751 -0.2462  0.3654  0.4206
 5545TIP3    H116599   1.743   0.033   3.812  0.1825 -0.7583 -0.9396
 5545TIP3    H216600   1.629   0.132   3.801  1.0064  0.6466  2.0993
 5546TIP3   OH216601   3.376   1.825   5.172 -0.6132  0.1873  0.2545
 5546TIP3    H116602   3.467   1.830   5.200 -0.3475 -2.1583 -0.0204
 5546TIP3    H216603   3.333   1.899   5.217  0.7901 -0.4929  2.9243
 5547TIP3   OH216604   0.409   3.444   3.592  0.1109 -0.1971 -0.5335
 5547TIP3    H116605   0.401   3.453   3.497  2.8140 -0.7214 -0.8993
 5547TIP3    H216606   0.457   3.522   3.620  0.5413 -0.7029  0.1754
 5548TIP3   OH216607   5.968   0.742   0.480  0.0619  0.3639  0.1438
 5548TIP3    H116608   6.028   0.668   0.469  0.3408  0.7148 -0.8626
 5548TIP3    H216609   6.017   0.817   0.445 -0.9587  0.6557 -0.7318
 5549TIP3   OH216610   5.093   1.598   0.985  0.0896  0.2235  0.1044
 5549TIP3    H116611   5.027   1.532   1.005  1.9460 -1.3699  1.4790
 5549TIP3    H216612   5.066   1.676   1.034 -0.5372 -0.5468  1.0025
 5550TIP3   OH216613   1.184   2.739   1.165 -0.2313 -0.5877 -0.0400
 5550TIP3    H116614   1.103   2.704   1.130 -1.5309  1.5032  0.7060
 5550TIP3    H216615   1.197   2.691   1.248 -0.5796 -1.0691 -0.2572
 5551TIP3   OH216616   2.979   3.830   2.921 -0.1704  0.5314  0.4117
 5551TIP3    H116617   3.066   3.827   2.881 -0.0640  0.8581  0.6164
 5551TIP3    H216618   2.920   3.848   2.847  0.0839  1.6699  0.4648
 5552TIP3   OH216619   1.248   5.057   2.451 -0.0938  0.0182  0.1009
 5552TIP3    H116620   1.260   4.968   2.484  1.4065  0.1069 -0.1326
 5552TIP3    H216621   1.226   5.108   2.528 -1.8589 -0.6688  0.1148
 5553TIP3   OH216622   2.159   5.353   3.051 -0.0601 -0.2637 -0.0596
 5553TIP3    H116623   2.102   5.342   2.975  0.3340 -1.7649 -0.1889
 5553TIP3    H216624   2.101   5.383   3.121 -1.1745 -2.2093 -0.0520
 5554TIP3   OH216625   5.201   3.169   1.864  0.3845 -0.4764 -0.0709
 5554TIP3    H116626   5.167   3.080   1.851  1.9149 -0.9231 -1.3094
 5554TIP3    H216627   5.198   3.182   1.959 -1.8520 -1.0044 -0.0176
 5555TIP3   OH216628   4.579   2.137   0.818 -0.1035  0.8439  0.1813
 5555TIP3    H116629   4.607   2.150   0.909 -2.1583  3.5401  0.5437
 5555TIP3    H216630   4.661   2.122   0.770  1.0457 -0.5949  2.3998
 5556TIP3   OH216631   2.851   2.131   4.583  0.6286 -0.5559 -0.4378
 5556TIP3    H116632   2.805   2.150   4.664  0.4979 -0.6310 -0.4948
 5556TIP3    H216633   2.942   2.118   4.610  0.2682 -2.5066 -0.0325
 5557TIP3   OH216634   3.335   3.153   5.176  0.1383  0.0039 -0.1915
 5557TIP3    H116635   3.277   3.166   5.251 -1.0833 -3.4210 -0.3386
 5557TIP3    H216636   3.276   3.134   5.103  1.3720  0.3524 -1.3140
 5558TIP3   OH216637   3.285   3.596   3.403 -0.4288 -0.2542 -0.1580
 5558TIP3    H116638   3.301   3.502   3.396 -0.3679 -0.1943 -0.8655
 5558TIP3    H216639   3.311   3.617   3.493  0.3183 -0.7640 -0.2389
 5559TIP3   OH216640   3.123   6.470   3.194  0.0388  0.4228 -0.0833
 5559TIP3    H116641   3.217   6.464   3.180 -0.0078  0.8056 -0.6134
 5559TIP3    H216642   3.086   6.404   3.135 -0.0675  0.8833 -0.5435
 5560TIP3   OH216643   2.348   2.014   0.813 -0.4406 -0.4284 -0.2221
 5560TIP3    H116644   2.279   2.039   0.751 -0.2434 -1.2771 -0.8018
 5560TIP3    H216645   2.340   1.919   0.821  0.8847 -0.5984 -0.5961
 5561TIP3   OH216646   5.033   3.099   4.396  0.1338 -0.6956 -0.1557
 5561TIP3    H116647   4.983   3.019   4.408 -0.4962 -0.3666 -0.5638
 5561TIP3    H216648   4.967   3.168   4.384  0.6540 -0.0396  0.6308
 5562TIP3   OH216649   2.506   2.078   5.356  0.6598  0.1038 -0.5441
 5562TIP3    H116650   2.545   2.064   5.443 -1.1279 -1.2444  0.0994
 5562TIP3    H216651   2.427   2.129   5.373 -0.4034 -1.2752 -1.1893
 5563TIP3   OH216652   4.095   2.073   3.354 -0.2932 -0.5488 -0.0515
 5563TIP3    H116653   4.044   2.149   3.327 -0.9572 -1.6582 -2.0659
 5563TIP3    H216654   4.042   2.032   3.423  1.1050  1.9250  2.7149
 5564TIP3   OH216655   4.295   4.020   1.359 -0.7080 -0.2821 -0.1262
 5564TIP3    H116656   4.259   3.932   1.369 -0.6852 -0.3467 -0.6036
 5564TIP3    H216657   4.244   4.060   1.289  0.4294 -0.5393 -1.1315
 5565TIP3   OH216658   5.314   3.976   3.493  0.2187 -0.1854  0.1493
 5565TIP3    H116659   5.338   3.913   3.426  0.4687 -1.1910  1.1507
 5565TIP3    H216660   5.356   4.058   3.466 -1.2260 -0.0400 -1.8874
 5566TIP3   OH216661   3.653   4.801   3.239 -0.1839 -0.2600  0.3873
 5566TIP3    H116662   3.719   4.764   3.180  2.5741  2.7344  1.2592
 5566TIP3    H216663   3.629   4.729   3.297  0.1862 -2.1753 -1.7130
 5567TIP3   OH216664   2.403   1.959   3.601  0.2285  0.5975 -0.0098
 5567TIP3    H116665   2.488   1.993   3.575  0.1014 -0.1656 -1.5218
 5567TIP3    H216666   2.375   1.905   3.527 -0.6433 -0.8450  1.3144
 5568TIP3   OH216667   7.033   0.451   0.820  0.0315  0.2096  0.1962
 5568TIP3    H116668   6.996   0.539   0.811 -0.6958 -0.2703 -2.7122
 5568TIP3    H216669   7.096   0.444   0.748  0.3597 -1.5228  0.6030
 5569TIP3   OH216670   5.483   2.552   5.597 -0.3884  0.0519 -0.1316
 5569TIP3    H116671   5.467   2.458   5.590 -0.6898  0.2439 -3.2267
 5569TIP3    H216672   5.576   2.559   5.621 -0.3010 -1.0304 -0.1111
 5570TIP3   OH216673   6.936   1.930   2.682  0.0023  0.1927  0.3557
 5570TIP3    H116674   6.886   1.924   2.764  0.0337  0.3113  0.3834
 5570TIP3    H216675   7.004   1.863   2.691  0.9292  1.1956  1.0642
 5571TIP3   OH216676   0.161   6.425   1.332  0.3212 -0.0515  0.1616
 5571TIP3    H116677   0.118   6.422   1.417  0.1551  0.9277  0.1266
 5571TIP3    H216678   0.152   6.516   1.304  2.0398  0.0921 -0.0350
 5572TIP3   OH216679   3.586   2.830   5.020 -0.1071  0.5609  0.3747
 5572TIP3    H116680   3.652   2.770   5.054  0.5439  0.7576 -0.4846
 5572TIP3    H216681   3.516   2.773   4.988  0.4503  0.2530 -0.3234
 5573TIP3   OH216682   3.764   3.651   3.126  0.0057 -0.4024  0.1802
 5573TIP3    H116683   3.708   3.573   3.120  0.3728 -0.5776 -1.2950
 5573TIP3    H216684   3.708   3.723   3.098  0.2308 -0.4349 -0.3616
 5574TIP3   OH216685   0.471   5.598   0.165  0.2450  0.1857 -0.0106
 5574TIP3    H116686   0.440   5.664   0.103  1.4158  1.3739  0.6158
 5574TIP3    H216687   0.394   5.546   0.186 -0.7990  1.5907 -0.2397
 5575TIP3   OH216688   5.546   4.589   5.258  0.7869 -0.2509  0.0230
 5575TIP3    H116689   5.575   4.517   5.203  0.9544  0.8074 -1.3185
 5575TIP3    H216690   5.453   4.600   5.237  1.4192  1.8105 -2.0551
 5576TIP3   OH216691   4.241   1.905   1.747  0.3538  0.0611  0.0342
 5576TIP3    H116692   4.280   1.940   1.667 -0.5455 -0.7412 -0.7759
 5576TIP3    H216693   4.150   1.887   1.724 -0.0323  0.1972  1.3590
 5577TIP3   OH216694   5.248   1.710   4.742  0.2071  0.2630  0.1288
 5577TIP3    H116695   5.190   1.634   4.756  1.0007 -0.3715  0.0297
 5577TIP3    H216696   5.334   1.681   4.772  0.4238  1.2962  0.5251
 5578TIP3   OH216697   6.586   0.689   4.785 -0.1072  0.4379  0.0106
 5578TIP3    H116698   6.545   0.726   4.707  1.0836  1.8101 -0.0071
 5578TIP3    H216699   6.545   0.603   4.795 -0.0510  0.0716 -2.3198
 5579TIP3   OH216700   0.163   5.569   3.276  0.1310  0.1751  0.0398
 5579TIP3    H116701   0.076   5.582   3.237  0.2587  3.1810  0.4892
 5579TIP3    H216702   0.144   5.536   3.364 -0.3344 -2.2455 -0.8800
 5580TIP3   OH216703   6.949   4.358   4.388 -0.8657  0.2390  0.1515
 5580TIP3    H116704   6.898   4.438   4.391  0.5271  1.1841  3.1364
 5580TIP3    H216705   6.906   4.304   4.322 -2.5447  2.9462 -1.1465
 5581TIP3   OH216706   0.063   6.473   0.999  0.2721 -0.2982 -1.0086
 5581TIP3    H116707   0.049   6.560   1.036  0.5718 -0.0635 -1.4356
 5581TIP3    H216708   0.158   6.468   0.984  0.3406 -0.9319 -0.4215
 5582TIP3   OH216709   0.383   2.608   1.651  0.0087 -0.2739  0.2906
 5582TIP3    H116710   0.409   2.618   1.742 -1.6764 -2.1690  1.0798
 5582TIP3    H216711   0.386   2.696   1.615  1.2363  0.4458  2.0173
 5583TIP3   OH216712   3.361   3.928   1.580 -0.3364 -0.2731  0.3185
 5583TIP3    H116713   3.337   3.969   1.497  0.9745 -0.1747 -0.0347
 5583TIP3    H216714   3.437   3.873   1.558  0.1143 -0.1273  1.4794
 5584TIP3   OH216715   0.575   6.155   5.315 -0.1546 -0.1717  0.1552
 5584TIP3    H116716   0.644   6.095   5.343 -0.3846 -1.2265 -1.4372
 5584TIP3    H216717   0.617   6.240   5.312  0.9759 -0.7332 -0.4024
 5585TIP3   OH216718   5.220   3.972   0.058  0.5383 -0.1847  0.0804
 5585TIP3    H116719   5.246   4.064   0.065 -1.3819  0.4217 -0.3012
 5585TIP3    H216720   5.233   3.938   0.147  0.1971  0.7668  0.5166
 5586TIP3   OH216721   4.653   0.311   5.572 -0.3628  0.3475  0.2620
 5586TIP3    H116722   4.633   0.322   5.664 -1.9159  0.4437 -0.0588
 5586TIP3    H216723   4.655   0.216   5.559  1.8763  0.2673  0.7626
 5587TIP3   OH216724   4.614   3.347   5.691  0.0501 -0.5963  0.2262
 5587TIP3    H116725   4.593   3.260   5.726 -3.8858 -0.3672 -1.0617
 5587TIP3    H216726   4.640   3.329   5.600 -0.6689 -0.4929 -0.0099
 5588TIP3   OH216727   2.370   0.971   3.624 -0.0720 -0.0128 -0.5684
 5588TIP3    H116728   2.398   0.880   3.619 -1.6374 -0.4716 -2.1749
 5588TIP3    H216729   2.380   0.995   3.716  0.6215 -1.7105 -0.1735
 5589TIP3   OH216730   1.581   6.336   3.997  0.6055  0.0985 -0.0945
 5589TIP3    H116731   1.511   6.322   3.934 -0.3471  1.1354  0.6774
 5589TIP3    H216732   1.560   6.278   4.070  0.7017  0.2160  0.0283
 5590TIP3   OH216733   3.807   2.560   2.232 -0.1377 -0.4640 -0.4217
 5590TIP3    H116734   3.750   2.567   2.155 -0.5465  0.1782 -0.0757
 5590TIP3    H216735   3.824   2.651   2.257  1.0818 -0.6456 -0.5373
 5591TIP3   OH216736   7.094   1.906   0.471 -0.5003 -0.2129  0.1787
 5591TIP3    H116737   7.125   1.996   0.478  1.2464 -0.9441  3.4484
 5591TIP3    H216738   7.171   1.856   0.446 -1.2032 -0.9805 -0.4997
 5592TIP3   OH216739   5.442   1.343   0.865 -0.4650  0.7804 -0.3771
 5592TIP3    H116740   5.384   1.383   0.801  1.3325  1.7754 -1.4487
 5592TIP3    H216741   5.389   1.273   0.905 -2.3412  1.5897 -1.3308
 5593TIP3   OH216742   2.241   2.331   4.689 -0.0082 -0.3413 -0.0773
 5593TIP3    H116743   2.187   2.346   4.767  2.0826  1.8806  1.0648
 5593TIP3    H216744   2.208   2.394   4.626  3.3495  3.8994  1.8944
 5594TIP3   OH216745   0.473   1.243   0.587 -0.7487  0.3796 -0.5007
 5594TIP3    H116746   0.427   1.318   0.625 -0.7638  0.0777  0.1052
 5594TIP3    H216747   0.514   1.276   0.508  0.2967  1.3401  0.4207
 5595TIP3   OH216748   5.200   1.042   2.792 -0.0666  0.0037  0.0093
 5595TIP3    H116749   5.108   1.057   2.771  0.4873  0.9046 -2.0639
 5595TIP3    H216750   5.212   0.948   2.780 -0.4542  0.0690 -0.9895
 5596TIP3   OH216751   1.127   4.204   0.842 -0.2987 -0.7128 -0.2508
 5596TIP3    H116752   1.083   4.140   0.898  3.2099 -1.4848  1.9707
 5596TIP3    H216753   1.160   4.152   0.768  1.4570 -1.3607  0.9109
 5597TIP3   OH216754   4.627   4.846   0.466 -0.7954 -0.5585 -0.3636
 5597TIP3    H116755   4.587   4.928   0.436  1.7720  1.7812  1.9922
 5597TIP3    H216756   4.721   4.863   0.464 -0.2265 -2.5439  2.4855
 5598TIP3   OH216757   2.063   3.812   5.516 -0.2911 -0.0025  0.7218
 5598TIP3    H116758   2.137   3.868   5.540 -0.0032 -0.5606  1.1656
 5598TIP3    H216759   1.995   3.833   5.580 -0.7988  1.0154 -0.0977
 5599TIP3   OH216760   1.824   3.688   4.059  0.4572  0.4486 -0.0052
 5599TIP3    H116761   1.772   3.764   4.033  0.1426 -0.2100 -1.3676
 5599TIP3    H216762   1.913   3.723   4.066  0.5674  0.6976 -2.0141
 5600TIP3   OH216763   5.020   4.967   4.210 -0.0041  0.0855 -0.3474
 5600TIP3    H116764   5.006   4.998   4.300  1.5827  1.3206 -0.4730
 5600TIP3    H216765   5.100   5.011   4.182  1.8345 -3.3652 -0.9839
 5601TIP3   OH216766   0.723   3.545   3.972  0.1046  0.2991 -0.0267
 5601TIP3    H116767   0.632   3.545   4.001  0.2215  3.1658  0.7252
 5601TIP3    H216768   0.754   3.634   3.992  2.7336 -0.2263 -1.3037
 5602TIP3   OH216769   3.652   3.311   3.412 -0.1673 -0.3093 -0.0303
 5602TIP3    H116770   3.713   3.237   3.421 -0.2896 -0.4787 -0.5403
 5602TIP3    H216771   3.694   3.383   3.458 -0.1009 -0.7322  0.5818
 5603TIP3   OH216772   1.012   2.308   2.913 -0.0801  0.2314  1.0275
 5603TIP3    H116773   1.022   2.320   2.819  0.0620  0.2235  1.0411
 5603TIP3    H216774   0.987   2.394   2.946 -2.2013 -0.2119  0.7176
 5604TIP3   OH216775   4.190   3.835   2.776  0.3022 -0.1496  0.0490
 5604TIP3    H116776   4.251   3.762   2.785 -0.0415 -0.7539 -2.0176
 5604TIP3    H216777   4.196   3.860   2.684 -1.8782  0.3574 -0.0024
 5605TIP3   OH216778   6.764   5.725   1.501 -0.3345 -0.1569 -0.4331
 5605TIP3    H116779   6.677   5.740   1.465  0.4092  0.5334 -2.0862
 5605TIP3    H216780   6.782   5.803   1.553 -1.0036 -0.6682  0.5826
 5606TIP3   OH216781   0.246   2.907   5.501 -0.1195  0.0749  0.2386
 5606TIP3    H116782   0.205   2.990   5.527  0.5291 -0.0489  1.7597
 5606TIP3    H216783   0.236   2.850   5.577 -1.6730 -1.7191 -1.2189
 5607TIP3   OH216784   1.766   0.625   2.006 -0.2303 -0.4174  0.4011
 5607TIP3    H116785   1.850   0.664   2.032  0.5171 -1.8891  0.3141
 5607TIP3    H216786   1.707   0.644   2.078 -0.1345  1.5573  0.0024
 5608TIP3   OH216787   5.418   6.392   2.385  0.0658 -0.8655 -0.1728
 5608TIP3    H116788   5.373   6.308   2.378  1.1245 -1.4280 -0.4817
 5608TIP3    H216789   5.388   6.442   2.309  1.0623 -1.7980 -1.2316
 5609TIP3   OH216790   1.932   5.304   0.697 -0.0790  0.1973 -0.2795
 5609TIP3    H116791   2.017   5.332   0.663 -0.1456 -0.4466 -0.9995
 5609TIP3    H216792   1.923   5.213   0.668 -1.4136  0.5317 -0.9866
 5610TIP3   OH216793   2.276   1.193   4.885  0.1650 -0.6436  0.4317
 5610TIP3    H116794   2.186   1.190   4.916  0.5872 -1.2133  1.6815
 5610TIP3    H216795   2.270   1.174   4.792 -0.8480 -2.6181  0.8493
 5611TIP3   OH216796   5.050   3.132   0.890  0.6917 -0.0887 -0.5509
 5611TIP3    H116797   5.004   3.048   0.889  1.3872 -0.4835 -0.0224
 5611TIP3    H216798   5.114   3.123   0.960 -0.7834  1.7146  1.1588
 5612TIP3   OH216799   0.970   3.663   0.898  0.0949  0.1107 -0.1865
 5612TIP3    H116800   0.968   3.574   0.933 -0.3990 -0.1286 -0.8000
 5612TIP3    H216801   0.900   3.708   0.945  0.3302  0.1732  0.1085
 5613TIP3   OH216802   5.356   4.692   2.016  0.1905  0.0828  0.3573
 5613TIP3    H116803   5.349   4.625   1.948 -3.5256 -0.0865  0.7046
 5613TIP3    H216804   5.386   4.770   1.970  1.7824 -1.0521 -0.6191
 5614TIP3   OH216805   1.534   4.264   1.361  0.3131 -0.2798  0.1723
 5614TIP3    H116806   1.524   4.354   1.328 -0.0672  0.0489  1.1451
 5614TIP3    H216807   1.446   4.240   1.389  0.7057 -0.3915  1.3349
 5615TIP3   OH216808   4.188   5.176   5.235  0.7256 -0.2058  0.1529
 5615TIP3    H116809   4.111   5.139   5.192  1.5495 -1.1069 -0.5805
 5615TIP3    H216810   4.257   5.111   5.221  1.4658  0.2994  1.3354
 5616TIP3   OH216811   4.088   2.339   5.494  0.3156  0.2794 -0.3282
 5616TIP3    H116812   4.171   2.340   5.542 -0.1285  0.8186  0.4628
 5616TIP3    H216813   4.060   2.248   5.496  1.6424 -0.2229 -1.9858
 5617TIP3   OH216814   4.275   3.100   5.655 -0.1378  0.1218 -0.0067
 5617TIP3    H116815   4.333   3.131   5.586  1.0392  0.3137  1.0462
 5617TIP3    H216816   4.216   3.039   5.611  1.8928 -1.3449 -0.8476
 5618TIP3   OH216817   3.276   6.008   2.747 -0.4444  0.2196  0.0552
 5618TIP3    H116818   3.316   5.937   2.697 -0.5895 -0.5478  0.9743
 5618TIP3    H216819   3.231   5.963   2.819 -0.3636  1.2611  0.7827
 5619TIP3   OH216820   2.704   4.543   5.246  0.2268  0.1925 -0.3554
 5619TIP3    H116821   2.795   4.533   5.275 -0.5172 -1.0357  1.8255
 5619TIP3    H216822   2.697   4.484   5.171  0.6361 -1.7583  1.0537
 5620TIP3   OH216823   5.132   2.324   5.496  0.1614  0.1857  0.2436
 5620TIP3    H116824   5.185   2.251   5.530 -0.6059 -0.2490  0.5315
 5620TIP3    H216825   5.063   2.281   5.445  0.9471  0.7985 -1.4101
 5621TIP3   OH216826   5.795   6.239   3.706 -0.0572  0.2741  0.1940
 5621TIP3    H116827   5.801   6.183   3.629 -2.3593  0.8679 -0.4935
 5621TIP3    H216828   5.836   6.321   3.679  1.0690 -0.2059  0.3691
 5622TIP3   OH216829   6.101   3.188   5.130 -0.1027  0.1885 -0.0081
 5622TIP3    H116830   6.025   3.148   5.088 -0.7508  1.1111  0.2483
 5622TIP3    H216831   6.155   3.219   5.058 -0.3575  0.2135 -0.1887
 5623TIP3   OH216832   3.147   0.273   1.173 -0.8714  0.5210 -0.1768
 5623TIP3    H116833   3.104   0.191   1.197  0.1525 -0.1995 -0.7586
 5623TIP3    H216834   3.074   0.334   1.157 -1.7483 -0.8686 -1.8333
 5624TIP3   OH216835   1.290   4.535   4.106 -0.1121  0.6716  0.1612
 5624TIP3    H116836   1.276   4.440   4.107 -0.0846  0.6337 -1.2914
 5624TIP3    H216837   1.384   4.545   4.099 -0.0572  0.8288  1.0236
 5625TIP3   OH216838   3.671   1.102   1.308  0.1608  0.0790 -0.0898
 5625TIP3    H116839   3.642   1.116   1.217  1.0718 -0.9650 -0.5571
 5625TIP3    H216840   3.604   1.146   1.361  0.7699  2.7091 -1.3098
 5626TIP3   OH216841   3.242   2.968   1.127 -0.4019  0.5713 -0.0856
 5626TIP3    H116842   3.234   3.041   1.066  1.0313  0.7728 -0.0769
 5626TIP3    H216843   3.261   3.008   1.212 -1.1159  0.2378  0.2452
 5627TIP3   OH216844   2.104   5.900   5.572 -0.0688  0.1305  0.4471
 5627TIP3    H116845   2.060   5.856   5.645 -1.4912 -0.7533 -0.8913
 5627TIP3    H216846   2.050   5.978   5.556  0.1152  0.2085  0.2067
 5628TIP3   OH216847   6.292   5.772   0.954  0.1414 -0.2008 -0.0971
 5628TIP3    H116848   6.381   5.765   0.987  0.5595  2.3521 -0.4931
 5628TIP3    H216849   6.238   5.733   1.023  1.3849  0.1605  1.1297
 5629TIP3   OH216850   4.090   2.491   0.402 -0.2816  0.0811  0.5271
 5629TIP3    H116851   4.095   2.401   0.372 -1.2377 -0.4615  1.8531
 5629TIP3    H216852   4.175   2.508   0.443  0.4501  0.3145 -1.0388
 5630TIP3   OH216853   6.395   2.232   2.278  0.6360 -0.6367  0.2006
 5630TIP3    H116854   6.471   2.172   2.276 -0.0466 -1.5248  0.2273
 5630TIP3    H216855   6.358   2.225   2.190 -0.1238 -1.1431  0.5567
 5631TIP3   OH216856   0.675   1.862   4.740 -0.1371  0.6303  0.1558
 5631TIP3    H116857   0.725   1.781   4.738  1.9668  1.8824 -1.6451
 5631TIP3    H216858   0.702   1.910   4.661 -2.9135  2.1739 -0.0101
 5632TIP3   OH216859   4.729   3.769   5.320 -0.3395  0.0056  0.0922
 5632TIP3    H116860   4.658   3.822   5.356  0.3490  1.3442 -0.4337
 5632TIP3    H216861   4.718   3.774   5.225  0.6644  0.5620 -0.0131
 5633TIP3   OH216862   1.059   1.759   1.756 -0.3752  0.1010 -0.1493
 5633TIP3    H116863   1.102   1.673   1.748  0.0606  0.3753 -0.8293
 5633TIP3    H216864   1.027   1.761   1.846 -1.3775 -1.2392 -0.4385
 5634TIP3   OH216865   2.791   2.239   3.376 -0.3688  0.2759  0.4242
 5634TIP3    H116866   2.822   2.246   3.286  3.6301  2.2133  1.7334
 5634TIP3    H216867   2.798   2.145   3.396 -0.6940 -0.0871 -1.0493
 5635TIP3   OH216868   5.708   1.558   5.470 -0.1245  0.2491 -0.0455
 5635TIP3    H116869   5.641   1.618   5.435  0.5393  0.7403 -0.5090
 5635TIP3    H216870   5.700   1.480   5.416 -0.6514  0.1146  0.2224
 5636TIP3   OH216871   2.054   4.109   0.749 -0.1977  0.1276  0.4296
 5636TIP3    H116872   1.971   4.130   0.792 -1.0733 -0.5263 -0.9139
 5636TIP3    H216873   2.064   4.176   0.682  0.4730  0.3179  0.7105
 5637TIP3   OH216874   4.950   0.486   1.313 -0.2333 -0.0831 -0.1356
 5637TIP3    H116875   4.991   0.456   1.395  0.1854 -0.2672 -0.4088
 5637TIP3    H216876   4.876   0.427   1.300 -1.1503  0.8140  0.8361
 5638TIP3   OH216877   3.288   5.010   4.135 -0.1072 -0.0353  0.4937
 5638TIP3    H116878   3.261   5.092   4.094 -1.0022 -1.4414 -1.9947
 5638TIP3    H216879   3.298   4.949   4.061  2.3854 -1.6796  2.0450
 5639TIP3   OH216880   6.082   1.032   4.352 -0.5392 -0.1115 -0.5930
 5639TIP3    H116881   6.125   1.097   4.295  0.5964  1.8519  2.2564
 5639TIP3    H216882   6.143   0.959   4.355  0.4752  0.7180 -0.2076
 5640TIP3   OH216883   3.050   4.109   1.908  0.4280  0.4207  0.5494
 5640TIP3    H116884   3.143   4.101   1.930  0.6820  1.0871 -0.2379
 5640TIP3    H216885   3.017   4.177   1.967  0.8541  1.4222 -0.3308
 5641TIP3   OH216886   0.902   1.665   3.717 -0.3134 -0.2189  0.0642
 5641TIP3    H116887   0.840   1.647   3.788  0.1857 -0.6748  0.3908
 5641TIP3    H216888   0.975   1.605   3.733 -0.4421 -0.7511 -1.1548
 5642TIP3   OH216889   0.031   1.376   3.987  0.2213  0.4176  0.1128
 5642TIP3    H116890   0.055   1.401   3.898 -1.1256  0.5710 -0.2170
 5642TIP3    H216891   0.015   1.460   4.032 -1.3819  0.2849 -0.1667
 5643TIP3   OH216892   2.312   5.591   2.484 -0.7764 -0.7922 -0.0849
 5643TIP3    H116893   2.361   5.536   2.422 -0.6627 -1.7816  0.8572
 5643TIP3    H216894   2.372   5.601   2.558 -1.1426 -0.1147  0.1226
 5644TIP3   OH216895   6.349   3.172   3.460  0.0971 -0.2568  0.2660
 5644TIP3    H116896   6.320   3.117   3.387  0.7873 -1.2010  0.6807
 5644TIP3    H216897   6.384   3.110   3.524 -0.2676  0.5819  1.2954
 5645TIP3   OH216898   1.234   6.010   1.777  0.4276  0.3336 -0.2513
 5645TIP3    H116899   1.319   6.055   1.778  0.7717 -0.2666 -1.0454
 5645TIP3    H216900   1.255   5.919   1.798 -0.3169  0.5877  1.7896
 5646TIP3   OH216901   5.441   4.297   4.308  0.6534  0.2585 -0.0439
 5646TIP3    H116902   5.383   4.370   4.287 -0.8952 -0.4954  1.4175
 5646TIP3    H216903   5.504   4.333   4.370  0.1689  0.4824  0.3239
 5647TIP3   OH216904   6.669   2.118   1.443  0.1620 -0.0291 -0.4274
 5647TIP3    H116905   6.692   2.211   1.435 -1.6700  0.4719 -0.3918
 5647TIP3    H216906   6.701   2.079   1.361  1.1204  0.5850 -0.3597
 5648TIP3   OH216907   7.224   2.138   1.548 -0.1826 -0.1307 -0.2997
 5648TIP3    H116908   7.129   2.152   1.551  0.1090  2.1886  1.4575
 5648TIP3    H216909   7.252   2.148   1.639  1.6180 -2.2814 -0.5379
 5649TIP3   OH216910   1.691   1.628   5.542  0.1690 -0.1700  0.1655
 5649TIP3    H116911   1.620   1.568   5.562  0.6101 -0.9794 -0.6479
 5649TIP3    H216912   1.743   1.583   5.475 -0.8280  2.1024 -2.2846
 5650TIP3   OH216913   0.277   6.414   3.300 -0.1136  0.3687 -0.0388
 5650TIP3    H116914   0.209   6.452   3.244 -0.7926 -0.0994  0.4458
 5650TIP3    H216915   0.329   6.359   3.242 -0.0622  0.8370 -0.4407
 5651TIP3   OH216916   6.145   2.394   5.729  0.6402 -0.1912 -0.5219
 5651TIP3    H116917   6.097   2.311   5.729 -1.3812  0.9084  0.1388
 5651TIP3    H216918   6.161   2.412   5.637  0.8727 -1.1836 -0.6895
 5652TIP3   OH216919   5.320   5.644   4.313  0.1982 -0.7706 -0.4382
 5652TIP3    H116920   5.243   5.686   4.275  0.4913  0.4628  0.2712
 5652TIP3    H216921   5.394   5.680   4.264  0.4457 -0.5231  0.1083
 5653TIP3   OH216922   4.474   1.792   3.394  0.1030  0.0094  0.5164
 5653TIP3    H116923   4.397   1.809   3.449  0.4213 -0.4675  1.1185
 5653TIP3    H216924   4.447   1.820   3.306 -1.5803 -2.2676  0.2212
 5654TIP3   OH216925   3.553   4.203   5.001  0.3340 -0.7811 -0.2424
 5654TIP3    H116926   3.605   4.125   4.980  2.3102  0.4786 -0.2915
 5654TIP3    H216927   3.605   4.276   4.968 -2.2346  0.5312 -1.7498
 5655TIP3   OH216928   7.014   4.683   3.742  0.3187 -0.3436  0.4158
 5655TIP3    H116929   6.947   4.699   3.808 -1.3635 -1.6247 -0.8983
 5655TIP3    H216930   7.056   4.768   3.730 -0.5159  0.3114  1.8399
 5656TIP3   OH216931   2.629   4.589   1.000  0.2449 -0.3878  0.5344
 5656TIP3    H116932   2.578   4.607   1.079 -0.0830 -0.2736  0.2982
 5656TIP3    H216933   2.645   4.494   1.003 -1.0362 -0.6454 -0.0102
 5657TIP3   OH216934   5.931   0.383   2.157  0.1026 -0.2225 -0.2041
 5657TIP3    H116935   5.876   0.432   2.218  0.5228 -1.6336  1.3801
 5657TIP3    H216936   6.006   0.441   2.141 -0.6772  0.7363 -0.5082
 5658TIP3   OH216937   0.233   4.675   0.227 -0.4514 -0.1105 -0.0080
 5658TIP3    H116938   0.240   4.758   0.179  2.1066 -0.2357  0.0452
 5658TIP3    H216939   0.141   4.649   0.216 -0.4287  0.8195 -3.1902
 5659TIP3   OH216940   5.968   6.047   2.675 -0.0005  0.6132  0.4950
 5659TIP3    H116941   5.951   6.029   2.583 -0.1207  2.2317  0.1674
 5659TIP3    H216942   6.029   6.121   2.674  1.6011 -0.6256  1.7156
 5660TIP3   OH216943   2.264   1.734   0.541 -0.1510  0.3673 -0.4517
 5660TIP3    H116944   2.349   1.773   0.521 -0.5134  0.6431 -1.5275
 5660TIP3    H216945   2.255   1.743   0.636  1.5674 -0.8048 -0.1284
 5661TIP3   OH216946   1.804   5.184   0.406 -0.2741  0.4449  0.0744
 5661TIP3    H116947   1.826   5.148   0.492  0.2822 -0.4355 -0.4186
 5661TIP3    H216948   1.824   5.114   0.345  1.6685  1.8340 -1.0241
 5662TIP3   OH216949   0.663   3.614   3.241 -0.4002 -0.2052  0.2674
 5662TIP3    H116950   0.755   3.605   3.215 -1.0781 -1.6826 -1.8755
 5662TIP3    H216951   0.644   3.706   3.229  0.2296 -0.2638 -1.4894
 5663TIP3   OH216952   4.591   6.570   0.131 -0.1301 -0.2910  0.4304
 5663TIP3    H116953   4.657   6.594   0.066  1.2754 -1.1627  1.4953
 5663TIP3    H216954   4.512   6.553   0.079  0.9728 -1.0771 -1.0747
 5664TIP3   OH216955   0.936   4.966   2.465 -0.8585  0.1576 -0.1048
 5664TIP3    H116956   0.982   4.896   2.513  0.9663  0.6352 -1.0648
 5664TIP3    H216957   0.851   4.928   2.443  1.2229 -3.1962 -3.5843
 5665TIP3   OH216958   5.878   1.053   0.791  0.0359 -0.1810  0.0717
 5665TIP3    H116959   5.848   1.016   0.874 -1.6121 -2.5094 -1.4214
 5665TIP3    H216960   5.971   1.030   0.786  0.1979  0.1478  1.3308
 5666TIP3   OH216961   4.350   5.955   4.379  0.5693 -0.3473 -0.3665
 5666TIP3    H116962   4.257   5.962   4.358  0.5877  0.6717 -0.1924
 5666TIP3    H216963   4.359   6.003   4.462  1.2639 -0.3140 -0.4547
 5667TIP3   OH216964   3.562   5.809   2.611 -0.7462  0.0761 -0.2170
 5667TIP3    H116965   3.584   5.900   2.634 -1.7346  0.9767 -2.5368
 5667TIP3    H216966   3.468   5.802   2.627 -0.7278 -0.4490 -0.3175
 5668TIP3   OH216967   0.126   1.439   2.403  0.2190 -0.0331  0.3028
 5668TIP3    H116968   0.055   1.404   2.348  0.6655 -0.7059  0.1396
 5668TIP3    H216969   0.196   1.459   2.341 -0.0838  1.3427  0.3735
 5669TIP3   OH216970   3.385   5.911   1.473 -0.3303  1.5521  0.6695
 5669TIP3    H116971   3.340   5.862   1.404  0.4376  1.2316  0.3793
 5669TIP3    H216972   3.445   5.969   1.426  1.2746  0.2813  1.0703
 5670TIP3   OH216973   6.671   0.651   0.765  0.3955  0.3695  0.5044
 5670TIP3    H116974   6.729   0.655   0.841  0.9981 -1.0239  0.1557
 5670TIP3    H216975   6.624   0.569   0.776  1.0851 -0.2615 -1.0194
 5671TIP3   OH216976   0.836   4.219   0.230  0.2701  0.2232 -0.1155
 5671TIP3    H116977   0.919   4.172   0.232  0.5600  0.6749 -0.9597
 5671TIP3    H216978   0.771   4.153   0.207  0.5375  0.0522 -0.3815
 5672TIP3   OH216979   6.483   3.201   3.166 -0.1342 -0.1381  0.1558
 5672TIP3    H116980   6.545   3.168   3.100 -0.0436 -0.0586  0.2019
 5672TIP3    H216981   6.423   3.128   3.180 -0.4349  0.0023 -0.3601
 5673TIP3   OH216982   3.240   0.804   2.389 -0.1557  0.4560 -0.1300
 5673TIP3    H116983   3.292   0.762   2.320 -2.2767 -1.6127 -0.6269
 5673TIP3    H216984   3.303   0.827   2.456  1.4023 -2.4026 -0.4452
 5674TIP3   OH216985   1.194   6.316   2.069  0.3539 -0.5128 -0.9808
 5674TIP3    H116986   1.197   6.378   1.996  1.1235  0.1360 -0.4146
 5674TIP3    H216987   1.260   6.348   2.131  1.5137 -2.4531 -1.1154
 5675TIP3   OH216988   1.675   1.483   1.672 -0.2026  0.5685 -0.1962
 5675TIP3    H116989   1.599   1.502   1.616  1.0809  0.7963 -1.9667
 5675TIP3    H216990   1.696   1.392   1.653  2.3026  1.5374 -2.8906
 5676TIP3   OH216991   0.837   4.306   5.232 -0.3130  0.0055 -0.0502
 5676TIP3    H116992   0.792   4.383   5.196 -0.9425  0.8817  2.4091
 5676TIP3    H216993   0.929   4.331   5.235 -0.6337  1.2074  1.7582
 5677TIP3   OH216994   0.428   5.918   4.542  0.1597 -0.0018 -0.0044
 5677TIP3    H116995   0.401   6.008   4.559  0.1664 -0.0051  0.0264
 5677TIP3    H216996   0.446   5.882   4.629 -0.9149 -0.3719  0.0720
 5678TIP3   OH216997   1.922   3.548   1.294 -0.0276 -0.4314  0.0454
 5678TIP3    H116998   1.829   3.568   1.306  0.1131  0.6969 -0.6000
 5678TIP3    H216999   1.941   3.575   1.204  0.9443 -0.5499  0.2029
 5679TIP3   OH217000   3.313   0.486   3.902  0.2366  0.2193  0.1173
 5679TIP3    H117001   3.323   0.488   3.997 -0.3566  2.5434  0.1878
 5679TIP3    H217002   3.353   0.403   3.876  1.3512 -0.0030  2.2797
 5680TIP3   OH217003   2.452   5.106   0.560  0.0033  0.1351 -0.1924
 5680TIP3    H117004   2.469   5.130   0.468  1.4859 -1.1191 -0.2768
 5680TIP3    H217005   2.496   5.174   0.611  0.8263 -0.2289 -0.4157
 5681TIP3   OH217006   3.263   3.960   0.391  0.2165  0.0929 -0.2908
 5681TIP3    H117007   3.240   3.897   0.460 -1.6158  1.5217  0.4869
 5681TIP3    H217008   3.339   4.006   0.427 -0.6129  0.7070  0.7422
 5682TIP3   OH217009   5.273   2.465   0.450  0.2843  0.4188  0.4495
 5682TIP3    H117010   5.318   2.512   0.521  0.5956  0.9664 -0.1056
 5682TIP3    H217011   5.182   2.461   0.480  0.0822  2.0641  0.1923
 5683TIP3   OH217012   5.310   3.393   2.679  0.1302 -0.3166 -0.3813
 5683TIP3    H117013   5.286   3.423   2.592  0.5038 -0.1101 -0.4198
 5683TIP3    H217014   5.400   3.362   2.669  0.1519 -0.3494 -0.0848
 5684TIP3   OH217015   0.349   0.189   0.713 -0.1387  0.0823 -0.4474
 5684TIP3    H117016   0.323   0.171   0.803 -3.3473  0.4091 -1.1958
 5684TIP3    H217017   0.418   0.124   0.695 -1.0124 -1.4974  1.5142
 5685TIP3   OH217018   1.702   0.772   2.895 -0.4684  0.3365  0.2152
 5685TIP3    H117019   1.695   0.692   2.843 -0.3136  1.1010 -1.0272
 5685TIP3    H217020   1.790   0.767   2.934 -1.0869 -0.8797  1.5439
 5686TIP3   OH217021   0.507   5.761   1.503  0.4188 -0.2657 -0.2786
 5686TIP3    H117022   0.426   5.770   1.453 -0.8789 -0.0851  1.7639
 5686TIP3    H217023   0.564   5.709   1.446 -0.6509  0.6516 -2.2859
 5687TIP3   OH217024   6.597   6.770   4.758  0.0523 -0.4423  0.1030
 5687TIP3    H117025   6.668   6.735   4.811 -0.6017 -0.5392  0.9372
 5687TIP3    H217026   6.594   6.712   4.681  2.3792  0.9512 -1.1404
 5688TIP3   OH217027   6.407   4.901   4.496  0.4434 -0.2344 -0.5145
 5688TIP3    H117028   6.324   4.890   4.543  2.0201 -2.5568  2.0063
 5688TIP3    H217029   6.394   4.854   4.413 -0.6593 -0.8064 -0.0436
 5689TIP3   OH217030   6.984   2.630   0.050  0.1012  0.5809 -0.2411
 5689TIP3    H117031   6.950   2.575   0.121 -1.3808  0.6552 -0.8501
 5689TIP3    H217032   7.053   2.577   0.010 -0.7934 -0.5466 -0.3502
 5690TIP3   OH217033   4.098   4.054   1.154 -0.1440 -0.0786  0.4495
 5690TIP3    H117034   4.045   3.990   1.107  0.1553 -0.3780  0.5109
 5690TIP3    H217035   4.112   4.125   1.092 -1.3126  0.3932  0.7078
 5691TIP3   OH217036   0.766   1.553   3.195 -0.2171 -0.3307  0.0124
 5691TIP3    H117037   0.821   1.627   3.169 -0.7388 -0.2964 -1.0663
 5691TIP3    H217038   0.791   1.535   3.285  1.9021 -0.6023 -0.5752
 5692TIP3   OH217039   2.798   4.959   4.073 -0.1516 -0.5885  0.3867
 5692TIP3    H117040   2.821   5.048   4.097 -0.1550  0.0035 -1.6145
 5692TIP3    H217041   2.880   4.910   4.076  0.1934 -0.0638 -0.2704
 5693TIP3   OH217042   5.110   4.761   3.412 -0.6920 -0.4309 -0.3451
 5693TIP3    H117043   5.099   4.843   3.459 -0.7603 -0.6575  0.0396
 5693TIP3    H217044   5.205   4.744   3.415 -0.8085 -0.9856  0.6521
 5694TIP3   OH217045   1.702   1.220   1.595  0.2336 -0.0662  0.2361
 5694TIP3    H117046   1.766   1.158   1.561  1.0448  0.6771  0.3734
 5694TIP3    H217047   1.617   1.183   1.570  0.6886 -1.3031  0.4682
 5695TIP3   OH217048   6.052   1.309   0.925 -0.5175  0.2035  0.7098
 5695TIP3    H117049   5.957   1.308   0.937 -0.3893  1.7300  2.4026
 5695TIP3    H217050   6.087   1.273   1.007  0.3785 -1.7005 -0.4560
 5696TIP3   OH217051   6.684   6.315   3.832  0.2072 -0.0249 -0.8222
 5696TIP3    H117052   6.756   6.267   3.791  0.4362 -1.0683  0.7087
 5696TIP3    H217053   6.717   6.338   3.919 -0.3020  1.9969 -1.1225
 5697TIP3   OH217054   1.288   3.116   3.426 -0.6077  0.1406 -0.2148
 5697TIP3    H117055   1.242   3.190   3.465 -1.9627 -1.2568  0.9321
 5697TIP3    H217056   1.244   3.039   3.460  0.5154 -1.2208 -1.6785
 5698TIP3   OH217057   4.010   1.874   4.438  0.7365 -0.1948 -0.7980
 5698TIP3    H117058   4.062   1.950   4.413  0.0572  0.0216 -1.6012
 5698TIP3    H217059   3.977   1.838   4.355 -1.8222  0.7182 -0.2710
 5699TIP3   OH217060   2.296   2.058   5.736 -0.6292 -0.3783  0.5799
 5699TIP3    H117061   2.217   2.110   5.724 -0.6711 -0.1810  1.5979
 5699TIP3    H217062   2.309   2.013   5.652 -1.9268 -0.5799  0.4717
 5700TIP3   OH217063   1.508   2.963   1.468  0.1660  0.5151  0.8075
 5700TIP3    H117064   1.564   2.975   1.391 -0.6616  1.0165  0.2714
 5700TIP3    H217065   1.564   2.985   1.542  1.1112 -0.3908  0.3955
 5701TIP3   OH217066   5.331   0.441   0.813 -0.0780 -0.2047  0.3107
 5701TIP3    H117067   5.417   0.470   0.843 -0.2119  1.5764 -0.8941
 5701TIP3    H217068   5.276   0.520   0.817 -1.1881 -0.8955 -0.5987
 5702TIP3   OH217069   2.562   3.855   0.829 -0.5546  0.4327 -0.2226
 5702TIP3    H117070   2.474   3.886   0.808 -0.7628 -0.3756 -0.5720
 5702TIP3    H217071   2.566   3.857   0.925 -0.1415  2.6343 -0.2256
 5703TIP3   OH217072   0.721   0.669   0.717  0.0871  0.1685  0.2340
 5703TIP3    H117073   0.704   0.763   0.718  0.3222  0.2122  0.2436
 5703TIP3    H217074   0.816   0.662   0.712  0.0764 -0.0701  0.3545
 5704TIP3   OH217075   2.433   4.431   3.272 -0.5694 -0.2275  0.2365
 5704TIP3    H117076   2.518   4.390   3.289 -0.2705 -0.4501 -1.6493
 5704TIP3    H217077   2.423   4.494   3.343  2.4930  1.8271 -0.9478
 5705TIP3   OH217078   6.140   0.672   3.054  0.3406 -0.3411  0.1630
 5705TIP3    H117079   6.091   0.670   2.972 -0.1986  0.8757  0.4283
 5705TIP3    H217080   6.099   0.605   3.108  1.4871 -2.0091 -0.9595
 5706TIP3   OH217081   4.225   1.709   0.905 -0.1554  0.4145  0.0226
 5706TIP3    H117082   4.190   1.700   0.817  1.2324 -1.2410 -0.3981
 5706TIP3    H217083   4.232   1.804   0.919 -0.3175  0.6931 -1.6561
 5707TIP3   OH217084   5.921   6.018   0.037 -0.0804 -1.0727 -0.1697
 5707TIP3    H117085   5.976   5.967   0.097  2.3690 -0.6129 -1.9213
 5707TIP3    H217086   5.973   6.027  -0.042 -1.0528  2.7604 -0.5677
 5708TIP3   OH217087   4.783   2.539   2.328  0.0622 -0.0244  0.5057
 5708TIP3    H117088   4.792   2.461   2.273  0.7358  0.0670  0.4826
 5708TIP3    H217089   4.716   2.515   2.392 -0.5702 -0.2024 -0.2182
 5709TIP3   OH217090   6.932   1.469   0.944  0.0215 -0.5698 -0.5229
 5709TIP3    H117091   6.904   1.474   1.036 -0.6182 -1.5638 -0.6542
 5709TIP3    H217092   6.995   1.397   0.942  1.0084  0.2729 -0.6401
 5710TIP3   OH217093   2.811   2.590   0.816 -0.2080  0.7195  0.2493
 5710TIP3    H117094   2.722   2.599   0.850 -0.6460 -0.1279 -0.6198
 5710TIP3    H217095   2.863   2.651   0.868 -1.4508  1.8839  0.1754
 5711TIP3   OH217096   0.458   3.691   0.819  0.2226  0.0118  0.5334
 5711TIP3    H117097   0.424   3.779   0.833 -0.8734 -0.5120  1.2578
 5711TIP3    H217098   0.402   3.652   0.753  1.0334  0.0268 -0.1809
 5712TIP3   OH217099   1.482   1.154   4.925 -0.0565 -0.5610 -0.3799
 5712TIP3    H117100   1.553   1.099   4.891 -0.2591 -0.7360 -0.5279
 5712TIP3    H217101   1.420   1.160   4.852  0.9331  1.6211 -1.1347
 5713TIP3   OH217102   3.440   3.468   4.677 -0.1985  0.0109 -0.2373
 5713TIP3    H117103   3.410   3.380   4.655 -2.9121  0.1921  2.1548
 5713TIP3    H217104   3.383   3.526   4.626  1.6211  0.4971 -1.8594
 5714TIP3   OH217105   3.204   1.715   5.687 -0.0977  0.1440  0.1349
 5714TIP3    H117106   3.109   1.722   5.681  0.0612  2.5163 -0.5694
 5714TIP3    H217107   3.234   1.714   5.596  0.5476 -1.3005  0.3356
 5715TIP3   OH217108   3.698   2.435   4.211 -0.3981 -0.0764 -0.8140
 5715TIP3    H117109   3.747   2.367   4.257  1.2643  2.2703  1.1495
 5715TIP3    H217110   3.647   2.478   4.279 -0.6472  1.2526 -1.7995
 5716TIP3   OH217111   3.446   4.876   4.976  0.5710  0.0049  0.5865
 5716TIP3    H117112   3.361   4.895   4.938 -0.4300 -2.2495  1.5128
 5716TIP3    H217113   3.506   4.873   4.902 -0.6571 -0.8719 -0.4161
 5717TIP3   OH217114   3.273   1.415   3.598  0.0484 -0.8746 -0.3322
 5717TIP3    H117115   3.295   1.475   3.526  3.4633 -0.9837  0.4311
 5717TIP3    H217116   3.298   1.329   3.565  1.1163 -0.9983  0.7397
 5718TIP3   OH217117   3.791   0.375   4.493 -0.2455 -0.6493  0.7109
 5718TIP3    H117118   3.710   0.410   4.529 -0.8807 -1.8891  0.5555
 5718TIP3    H217119   3.834   0.449   4.451 -2.2878 -0.3641 -1.0098
 5719TIP3   OH217120   2.415   3.701   2.090  0.3141  0.4755 -0.0470
 5719TIP3    H117121   2.450   3.789   2.080 -0.6182  0.9745  0.8388
 5719TIP3    H217122   2.322   3.709   2.069 -0.1177  0.0651  1.5254
 5720TIP3   OH217123   1.665   6.017   4.501 -0.1718  0.6966 -0.1805
 5720TIP3    H117124   1.751   6.057   4.512  0.9262 -1.5056 -0.1551
 5720TIP3    H217125   1.655   5.961   4.579 -0.5026 -0.9545 -1.3594
 5721TIP3   OH217126   7.019   2.344   5.655 -0.3942  0.0313 -0.2868
 5721TIP3    H117127   7.109   2.320   5.679  0.1644  0.7390 -1.6064
 5721TIP3    H217128   6.996   2.414   5.716  0.0465  0.0336 -0.1203
 5722TIP3   OH217129   0.856   3.590   0.332 -0.0466  0.2131 -0.1489
 5722TIP3    H117130   0.937   3.585   0.281  0.0324 -2.2320  0.0759
 5722TIP3    H217131   0.801   3.651   0.285  1.3683  0.7612 -1.1503
 5723TIP3   OH217132   4.208   6.455   1.048 -0.0177  0.1401 -0.2151
 5723TIP3    H117133   4.276   6.515   1.078  1.4785 -0.9995 -1.1832
 5723TIP3    H217134   4.211   6.382   1.110 -0.6336  0.2698 -0.0318
 5724TIP3   OH217135   4.461   0.478   2.898 -0.2639 -0.3994 -0.3199
 5724TIP3    H117136   4.419   0.435   2.823 -0.9391 -0.1223 -0.1005
 5724TIP3    H217137   4.453   0.572   2.880 -2.0545 -0.2725  0.9625
 5725TIP3   OH217138   4.743   0.559   2.725 -0.3129 -0.2462 -0.5154
 5725TIP3    H117139   4.790   0.543   2.643 -2.3324 -1.3839 -1.5365
 5725TIP3    H217140   4.783   0.499   2.788  1.2868  0.6715 -0.5907
 5726TIP3   OH217141   7.106   5.056   1.041  0.0519 -0.5732 -0.2516
 5726TIP3    H117142   7.164   5.111   1.095 -2.4946  2.3160 -0.1321
 5726TIP3    H217143   7.111   4.970   1.082  1.4234  0.4570  2.0250
 5727TIP3   OH217144   3.278   1.122   5.682  0.6013 -0.0584 -0.0598
 5727TIP3    H117145   3.311   1.094   5.767  1.7618  0.6943 -0.2458
 5727TIP3    H217146   3.263   1.041   5.634 -0.9266 -0.5459  1.1386
 5728TIP3   OH217147   6.868   2.709   1.537  0.1942 -0.3442  0.2096
 5728TIP3    H117148   6.840   2.712   1.445 -1.2143  0.1483  0.6231
 5728TIP3    H217149   6.886   2.617   1.554  0.1325 -0.4843 -0.4663
 5729TIP3   OH217150   4.306   4.622   3.268 -0.2660  0.0758 -0.3379
 5729TIP3    H117151   4.310   4.532   3.236  0.2945 -0.9821  2.4202
 5729TIP3    H217152   4.226   4.624   3.321  0.8571  0.5272  1.3886
 5730TIP3   OH217153   1.609   0.519   5.843  0.2664 -0.1636  0.2127
 5730TIP3    H117154   1.528   0.543   5.889 -2.0043 -1.3491 -2.8475
 5730TIP3    H217155   1.637   0.438   5.886 -2.0243 -1.4868 -0.5943
 5731TIP3   OH217156   0.091   5.983   3.977 -0.2575 -0.4990  0.0395
 5731TIP3    H117157   0.124   5.927   3.906 -1.9979 -1.4482 -0.0749
 5731TIP3    H217158   0.021   6.034   3.937 -0.6332 -0.3639  0.8416
 5732TIP3   OH217159   6.636   5.315   1.668 -0.1661 -0.5669 -0.1416
 5732TIP3    H117160   6.728   5.303   1.694 -0.5322 -3.2572  0.2779
 5732TIP3    H217161   6.640   5.349   1.579  1.2487 -0.7103 -0.1574
 5733TIP3   OH217162   4.295   4.015   4.015 -0.0589  0.1238 -0.4215
 5733TIP3    H117163   4.348   4.031   3.937 -0.0952  1.1796 -0.2465
 5733TIP3    H217164   4.206   4.039   3.988 -0.1427  0.0841 -0.1808
 5734TIP3   OH217165   0.681   6.698   5.552 -0.3546 -0.3924 -0.3294
 5734TIP3    H117166   0.649   6.781   5.589  0.6449  0.4292 -1.2477
 5734TIP3    H217167   0.757   6.676   5.606 -0.4372 -0.5620 -0.2808
 5735TIP3   OH217168   1.522   0.758   5.421  0.3404  0.2998  0.1965
 5735TIP3    H117169   1.530   0.678   5.472  1.4353  1.2940  1.6885
 5735TIP3    H217170   1.484   0.822   5.482  2.2579  1.6973  0.0379
 5736TIP3   OH217171   0.482   4.190   1.052 -0.1303 -0.5001  0.9641
 5736TIP3    H117172   0.555   4.187   0.990 -2.3768  0.7327 -1.9693
 5736TIP3    H217173   0.465   4.098   1.072  1.2965 -0.8819  0.5572
 5737TIP3   OH217174   4.792   3.542   4.183  0.6616  0.0172 -0.2852
 5737TIP3    H117175   4.814   3.631   4.153 -1.2695  0.3477 -0.8423
 5737TIP3    H217176   4.700   3.531   4.160  1.1470 -2.5865 -1.3266
 5738TIP3   OH217177   4.107   5.629   4.118 -0.4689 -0.0025 -0.3213
 5738TIP3    H117178   4.064   5.564   4.172 -0.2189  0.2012  0.1268
 5738TIP3    H217179   4.188   5.651   4.165  0.6194 -1.0763 -1.6029
 5739TIP3   OH217180   0.954   2.874   2.528  0.1728  0.2031  0.2795
 5739TIP3    H117181   0.948   2.949   2.468 -1.8068 -0.1274  0.0107
 5739TIP3    H217182   0.986   2.803   2.473  0.6257  0.4653  0.1914
 5740TIP3   OH217183   1.627   2.437   0.991 -0.2190 -0.3852  0.2227
 5740TIP3    H117184   1.633   2.365   1.054  1.4394 -1.0788 -0.6712
 5740TIP3    H217185   1.654   2.399   0.908  0.7229  1.2571 -0.2691
 5741TIP3   OH217186   5.717   6.529   4.757 -0.9877  0.6372 -0.1597
 5741TIP3    H117187   5.728   6.622   4.779  0.5002  0.6532 -0.8246
 5741TIP3    H217188   5.785   6.512   4.692 -2.2820 -0.5345 -1.2659
 5742TIP3   OH217189   1.391   1.211   3.596 -0.4937  0.0134 -0.3884
 5742TIP3    H117190   1.386   1.147   3.667  3.5655 -0.5166 -0.3631
 5742TIP3    H217191   1.368   1.162   3.517 -0.0363 -0.7805 -0.0376
 5743TIP3   OH217192   3.552   5.254   1.827 -0.0583 -0.1267  0.4157
 5743TIP3    H117193   3.536   5.346   1.810 -1.4712 -0.7762 -2.3930
 5743TIP3    H217194   3.476   5.224   1.876 -0.5881 -0.1742 -0.4102
 5744TIP3   OH217195   3.535   4.841   2.669 -0.0505  0.9910 -0.0193
 5744TIP3    H117196   3.450   4.875   2.696 -0.3357 -0.3592  0.8817
 5744TIP3    H217197   3.594   4.916   2.676 -0.5996  1.2978  2.1294
 5745TIP3   OH217198   3.601   3.081   0.537 -0.1962 -0.2624  0.4045
 5745TIP3    H117199   3.507   3.084   0.558 -0.1479 -2.4749  1.2151
 5745TIP3    H217200   3.611   3.002   0.485  1.2037  0.1248  0.0583
 5746TIP3   OH217201   2.605   0.451   4.923 -0.1395 -0.4764  0.1453
 5746TIP3    H117202   2.639   0.524   4.871  0.6264 -0.1283  1.0969
 5746TIP3    H217203   2.683   0.403   4.950 -0.5424 -0.8152  0.7274
 5747TIP3   OH217204   3.767   2.868   3.510 -0.6071 -0.1066 -0.0050
 5747TIP3    H117205   3.763   2.863   3.605 -1.3307 -0.4901 -0.0554
 5747TIP3    H217206   3.861   2.873   3.491 -0.4238 -0.7304  0.6911
 5748TIP3   OH217207   6.482   5.135   3.658 -0.3215 -0.0623 -0.0696
 5748TIP3    H117208   6.455   5.063   3.716 -1.0113 -0.3249 -0.6972
 5748TIP3    H217209   6.433   5.210   3.690 -1.4068 -0.4099 -0.8450
 5749TIP3   OH217210   6.408   6.431   1.563  0.0084 -0.3566 -0.1673
 5749TIP3    H117211   6.381   6.371   1.633 -0.2915 -0.7387 -0.6010
 5749TIP3    H217212   6.419   6.516   1.607  0.5024 -0.7363  0.4644
 5750TIP3   OH217213   2.541   5.965   3.764  0.7197  0.2988 -0.3725
 5750TIP3    H117214   2.471   6.021   3.729 -0.1080  0.3056  1.1613
 5750TIP3    H217215   2.572   6.012   3.841  2.2842  0.1725 -0.9063
 5751TIP3   OH217216   5.522   5.359   4.947  0.0382 -0.2116  0.5294
 5751TIP3    H117217   5.470   5.439   4.946 -1.0340 -0.8846 -0.8265
 5751TIP3    H217218   5.611   5.387   4.925 -0.4530  0.5234 -0.5708
 5752TIP3   OH217219   4.079   5.706   3.450  0.7544 -0.8641  0.2370
 5752TIP3    H117220   4.136   5.768   3.494 -1.8345  1.1122  1.0598
 5752TIP3    H217221   4.055   5.749   3.367  0.4438 -1.6331 -0.0863
 5753TIP3   OH217222   3.604   6.170   4.545  0.3196 -0.3131  0.2975
 5753TIP3    H117223   3.550   6.130   4.477  1.6845 -0.7677 -0.5560
 5753TIP3    H217224   3.641   6.247   4.502 -0.3671  0.5336  1.1770
 5754TIP3   OH217225   5.582   4.256   2.708 -0.2056 -0.5272  0.1908
 5754TIP3    H117226   5.648   4.300   2.654  0.9281 -0.6571  1.4321
 5754TIP3    H217227   5.500   4.301   2.687  0.3718  0.0410 -0.9303
 5755TIP3   OH217228   5.045   0.400   1.553 -0.0880 -0.5655 -0.8818
 5755TIP3    H117229   4.975   0.343   1.585 -0.2566 -0.4436 -1.0284
 5755TIP3    H217230   5.039   0.478   1.609  2.7003 -2.2352  2.0606
 5756TIP3   OH217231   5.645   3.406   3.267  1.0065 -0.4226 -0.7403
 5756TIP3    H117232   5.564   3.384   3.222  1.0239 -3.0917  0.3552
 5756TIP3    H217233   5.641   3.357   3.349  3.3243  0.0905 -0.2568
 5757TIP3   OH217234   0.987   2.844   3.248 -0.4605  0.2469  0.1551
 5757TIP3    H117235   1.016   2.826   3.338  1.3573 -0.5985 -0.5472
 5757TIP3    H217236   0.904   2.796   3.240 -0.3621 -0.1320  1.2198
 5758TIP3   OH217237   5.686   3.679   4.018 -0.7083  0.3081  0.4262
 5758TIP3    H117238   5.600   3.703   3.983 -0.1906 -0.6179 -1.6611
 5758TIP3    H217239   5.747   3.735   3.970 -0.1277  1.4141  2.3377
 5759TIP3   OH217240   4.093   4.250   5.223 -0.1542 -0.1416 -0.3005
 5759TIP3    H117241   4.150   4.175   5.204  1.4523  0.2162  2.5427
 5759TIP3    H217242   4.027   4.216   5.283  0.0047  0.4745  0.2371
 5760TIP3   OH217243   0.801   2.104   2.434 -0.1379 -0.4037  0.5113
 5760TIP3    H117244   0.812   2.028   2.491 -1.1773 -0.8874  0.0930
 5760TIP3    H217245   0.879   2.158   2.451  0.3849 -1.3253  1.1577
 5761TIP3   OH217246   0.073   5.380   2.152  0.3190 -0.5779 -0.9488
 5761TIP3    H117247   0.021   5.460   2.163  1.3001 -0.0383 -0.0368
 5761TIP3    H217248   0.134   5.400   2.081  3.1372  0.9836  1.6475
 5762TIP3   OH217249   5.597   4.601   3.019  0.5437  0.4576 -0.0558
 5762TIP3    H117250   5.634   4.625   3.104 -1.8427  0.0010  1.1919
 5762TIP3    H217251   5.608   4.506   3.015 -1.9772  0.0319  1.1893
 5763TIP3   OH217252   2.881   5.319   3.290  0.4308 -0.4350 -0.4620
 5763TIP3    H117253   2.799   5.367   3.294  0.8258  0.1779  0.6431
 5763TIP3    H217254   2.858   5.229   3.310 -0.0273 -0.3330 -0.5354
 5764TIP3   OH217255   6.638   5.356   2.899  1.0076  0.3188  0.0225
 5764TIP3    H117256   6.591   5.373   2.980  0.5783  0.6323 -0.2891
 5764TIP3    H217257   6.591   5.406   2.832  1.7340  0.5863 -0.3087
 5765TIP3   OH217258   3.180   2.411   2.824  0.2695  0.1388 -0.1069
 5765TIP3    H117259   3.124   2.425   2.900 -0.2937 -0.3714 -0.4152
 5765TIP3    H217260   3.157   2.482   2.764  0.2778  0.1899 -0.0495
 5766TIP3   OH217261   2.385   1.587   4.668  0.5598  0.2719 -0.0178
 5766TIP3    H117262   2.458   1.561   4.610  0.2489 -0.3579 -0.1268
 5766TIP3    H217263   2.426   1.646   4.731  0.5158  2.8852 -2.2202
 5767TIP3   OH217264   1.435   0.595   1.105 -0.2889  0.2615  0.2422
 5767TIP3    H117265   1.385   0.553   1.035  2.1875 -0.6435 -1.0922
 5767TIP3    H217266   1.414   0.545   1.184 -1.1242 -0.3731 -0.3712
 5768TIP3   OH217267   6.556   1.844   5.816  0.1302  1.3807  0.5502
 5768TIP3    H117268   6.550   1.898   5.737  0.2201 -1.2059 -1.3501
 5768TIP3    H217269   6.649   1.844   5.839  0.5014  0.2832 -0.8137
 5769TIP3   OH217270   4.347   4.094   2.297 -0.0452  0.3087 -0.2549
 5769TIP3    H117271   4.290   4.144   2.238 -0.3411 -1.1827 -1.2999
 5769TIP3    H217272   4.436   4.113   2.265  0.0506  2.0398  0.9011
 5770TIP3   OH217273   5.925   4.478   0.025  0.2683 -0.1627  0.2375
 5770TIP3    H117274   5.865   4.489   0.098  0.2586 -2.3618  0.6316
 5770TIP3    H217275   5.942   4.567  -0.007 -1.8328  0.6287  1.1882
 5771TIP3   OH217276   5.225   6.181   4.469 -0.2066  0.3396  0.4252
 5771TIP3    H117277   5.217   6.086   4.477  1.7783  0.0281 -0.6403
 5771TIP3    H217278   5.314   6.200   4.500 -0.5758  1.8621  0.6228
 5772TIP3   OH217279   0.315   5.035   4.800 -0.1191  0.5680  0.2726
 5772TIP3    H117280   0.220   5.028   4.799  0.0082 -1.5993 -0.4622
 5772TIP3    H217281   0.339   5.039   4.707  0.4891  2.1442  0.4615
 5773TIP3   OH217282   1.522   1.858   0.529  0.2403 -0.2788  0.4128
 5773TIP3    H117283   1.510   1.782   0.586 -1.6081 -1.6603 -1.6732
 5773TIP3    H217284   1.454   1.919   0.556 -1.5800 -1.5262 -1.1281
 5774TIP3   OH217285   0.643   6.821   1.249  0.4226  1.1331  0.0866
 5774TIP3    H117286   0.663   6.802   1.340 -0.5903  2.0044  0.5170
 5774TIP3    H217287   0.632   6.735   1.208 -0.4596  0.7428  1.1107
 5775TIP3   OH217288   4.304   0.790   1.094 -0.0579  0.4121  0.6856
 5775TIP3    H117289   4.263   0.732   1.157 -0.9190  0.7615  0.4575
 5775TIP3    H217290   4.398   0.785   1.114 -0.0815 -1.2822  0.4555
 5776TIP3   OH217291   6.961   4.641   0.999 -0.1449  0.1467  0.4719
 5776TIP3    H117292   6.871   4.671   0.989  0.9710  3.1839 -2.2407
 5776TIP3    H217293   6.979   4.592   0.919  0.1056 -2.2409  1.9016
 5777TIP3   OH217294   6.015   6.664   4.853  0.8229 -0.2188  0.0673
 5777TIP3    H117295   6.040   6.696   4.766  2.4981  1.5053  1.0899
 5777TIP3    H217296   5.924   6.693   4.864  0.1393 -1.5842 -1.5493
 5778TIP3   OH217297   6.844   0.344   0.173  0.0274  0.4698  0.5354
 5778TIP3    H117298   6.749   0.353   0.181  0.2497  2.8084  1.1049
 5778TIP3    H217299   6.865   0.267   0.225 -1.6636 -0.8583 -0.6298
 5779TIP3   OH217300   2.948   5.800   1.840 -0.3286 -0.0052  0.3777
 5779TIP3    H117301   3.034   5.824   1.874  0.7227 -0.5223 -1.7448
 5779TIP3    H217302   2.908   5.749   1.910  0.0896  2.1562  2.3355
 5780TIP3   OH217303   5.171   0.848   1.094 -0.0587 -0.0669 -0.1177
 5780TIP3    H117304   5.211   0.924   1.135 -0.8079 -0.4799  1.4869
 5780TIP3    H217305   5.164   0.871   1.001  2.7476  0.4598 -0.2749
 5781TIP3   OH217306   2.295   1.115   5.810 -0.0066  0.1025 -0.1166
 5781TIP3    H117307   2.260   1.028   5.794 -1.4878  0.7713 -0.7733
 5781TIP3    H217308   2.289   1.159   5.725  0.3162  0.9822  0.3015
 5782TIP3   OH217309   0.933   1.338   5.218 -0.1939 -0.4111  0.1925
 5782TIP3    H117310   1.016   1.297   5.242  0.0374 -0.1288 -0.1146
 5782TIP3    H217311   0.950   1.432   5.225  1.0502 -0.0373 -4.5759
 5783TIP3   OH217312   6.753   5.563   0.374 -0.3488 -0.0592 -0.1497
 5783TIP3    H117313   6.713   5.494   0.426 -0.0239  0.1854  0.4306
 5783TIP3    H217314   6.838   5.527   0.347 -0.2255  0.0757  0.0617
 5784TIP3   OH217315   1.944   3.204   3.191  0.6049  0.1726 -0.0237
 5784TIP3    H117316   1.946   3.172   3.101  1.1896  0.7866 -0.2360
 5784TIP3    H217317   2.036   3.217   3.214  0.5432 -1.1844  1.1095
 5785TIP3   OH217318   1.363   2.524   0.411  0.0663 -0.0583  0.1660
 5785TIP3    H117319   1.310   2.594   0.373  1.1875  1.4518  1.2418
 5785TIP3    H217320   1.334   2.519   0.502 -0.2367 -1.2674  0.0209
 5786TIP3   OH217321   4.640   2.694   4.522 -0.2658 -0.0449  0.0946
 5786TIP3    H117322   4.684   2.750   4.585 -1.1753  1.3078 -0.4249
 5786TIP3    H217323   4.582   2.639   4.574 -1.8420  1.8214  0.4236
 5787TIP3   OH217324   4.792   4.016   4.637 -0.7504  0.0703  0.2085
 5787TIP3    H117325   4.875   3.969   4.638  0.0348  1.3561  2.0081
 5787TIP3    H217326   4.728   3.953   4.604  0.6702 -1.4409  0.2627
 5788TIP3   OH217327   1.355   2.768   1.575 -0.7070  0.1454 -0.1053
 5788TIP3    H117328   1.418   2.817   1.521  0.7244 -0.7490  0.6968
 5788TIP3    H217329   1.328   2.695   1.519  1.6413 -1.4341  0.6967
 5789TIP3   OH217330   5.987   0.975   3.005  0.0754 -0.0204 -0.0097
 5789TIP3    H117331   5.901   1.001   2.972  0.0641 -1.1894 -0.9675
 5789TIP3    H217332   5.985   0.879   3.004  0.7484 -0.0744  1.6894
 5790TIP3   OH217333   3.622   4.060   2.159  0.4489  0.5640 -0.1418
 5790TIP3    H117334   3.571   3.988   2.197  0.1786  0.3164 -0.9554
 5790TIP3    H217335   3.572   4.138   2.181 -0.2107  0.3373 -0.8033
 5791TIP3   OH217336   4.695   1.282   4.698 -0.2870 -0.2917  0.2592
 5791TIP3    H117337   4.701   1.343   4.772  0.4631  0.1569 -0.1496
 5791TIP3    H217338   4.705   1.338   4.621  1.5142 -1.0346 -0.1056
 5792TIP3   OH217339   7.023   5.301   4.393 -0.3037 -0.6371  0.0172
 5792TIP3    H117340   6.954   5.319   4.458 -0.4632  3.0623 -0.9674
 5792TIP3    H217341   6.975   5.276   4.314 -0.4884  0.3664 -0.2074
 5793TIP3   OH217342   1.915   1.350   4.214  0.0278  0.9943 -0.4824
 5793TIP3    H117343   1.924   1.276   4.274 -0.0599  0.6731 -0.8611
 5793TIP3    H217344   1.895   1.425   4.270 -1.7800  0.3700 -0.2589
 5794TIP3   OH217345   4.135   2.955   3.132  0.0620 -0.1565  0.1984
 5794TIP3    H117346   4.224   2.963   3.167 -0.6980 -0.1150  2.2330
 5794TIP3    H217347   4.101   2.875   3.173 -0.2564 -1.2031 -1.9690
 5795TIP3   OH217348   1.036   3.724   2.874 -0.6814 -0.2098  0.1499
 5795TIP3    H117349   1.089   3.655   2.913 -2.0127 -0.7221  1.1279
 5795TIP3    H217350   1.100   3.784   2.835  0.5912 -0.9020  1.0980
 5796TIP3   OH217351   2.232   1.858   3.852 -0.6438  0.5853  0.3210
 5796TIP3    H117352   2.235   1.953   3.843 -1.1194  0.6957  1.2563
 5796TIP3    H217353   2.293   1.826   3.785  0.5538  1.6002  0.8732
 5797TIP3   OH217354   5.761   5.533   4.974 -0.3104  0.1885  0.6052
 5797TIP3    H117355   5.837   5.575   4.932 -1.0009  1.0416  0.1761
 5797TIP3    H217356   5.784   5.527   5.066  0.1504  0.7357  0.5272
 5798TIP3   OH217357   0.469   3.247   5.574 -0.0869 -0.4868 -0.0145
 5798TIP3    H117358   0.565   3.244   5.571 -0.0389 -1.3606  1.3317
 5798TIP3    H217359   0.441   3.194   5.500  0.4793 -0.7199 -0.0669
 5799TIP3   OH217360   0.555   2.022   2.400 -0.0553  0.1593 -0.2000
 5799TIP3    H117361   0.619   2.086   2.433  1.3088 -1.0765 -0.3720
 5799TIP3    H217362   0.518   2.063   2.323  0.0852  1.1515  0.2401
 5800TIP3   OH217363   1.026   2.754   0.100  0.2835  0.2451  0.2049
 5800TIP3    H117364   0.949   2.753   0.043 -0.1359  0.6747  0.7568
 5800TIP3    H217365   1.052   2.847   0.103 -2.0793  0.9793  3.8617
 5801TIP3   OH217366   1.269   0.470   4.747  0.6191 -0.0110  0.0357
 5801TIP3    H117367   1.345   0.458   4.805 -0.9348 -0.9704  1.9680
 5801TIP3    H217368   1.231   0.553   4.775 -0.8701 -1.0897  1.3264
 5802TIP3   OH217369   0.793   3.410   1.863  0.1928 -0.2020 -0.8023
 5802TIP3    H117370   0.715   3.460   1.840  0.0869 -0.2482 -0.5432
 5802TIP3    H217371   0.805   3.425   1.957  0.1812 -0.6285 -0.7303
 5803TIP3   OH217372   0.797   4.537   5.874  0.1271 -0.2806 -0.8442
 5803TIP3    H117373   0.859   4.561   5.942 -1.5709  1.8975  0.0724
 5803TIP3    H217374   0.848   4.486   5.812  1.9601 -1.6117  1.5796
 5804TIP3   OH217375   2.210   3.227   3.246  0.4939  0.2421  0.3198
 5804TIP3    H117376   2.236   3.168   3.316 -1.1838  0.5874  1.2896
 5804TIP3    H217377   2.244   3.187   3.166  2.5153 -0.1239  1.3047
 5805TIP3   OH217378   7.041   0.596   0.451  0.3366  0.0363  0.3361
 5805TIP3    H117379   6.973   0.535   0.480  0.4334 -0.9629 -1.3645
 5805TIP3    H217380   7.118   0.572   0.503 -0.2524  0.2998  1.3482
 5806TIP3   OH217381   0.413   4.543   2.750 -0.4013  0.0522  0.2717
 5806TIP3    H117382   0.435   4.542   2.843 -1.1122  1.1722  0.4678
 5806TIP3    H217383   0.343   4.608   2.743 -0.6648 -0.3491 -0.9787
 5807TIP3   OH217384   5.130   6.646   3.414  0.2258 -0.5343 -0.4253
 5807TIP3    H117385   5.166   6.632   3.326  1.6614  2.0757 -0.3610
 5807TIP3    H217386   5.179   6.586   3.470  1.4363 -0.1107 -1.0008
 5808TIP3   OH217387   6.965   0.851   0.588  0.0830 -0.3558  0.1621
 5808TIP3    H117388   7.050   0.862   0.630  0.6768  0.8549 -1.2641
 5808TIP3    H217389   6.975   0.774   0.532  0.1778 -0.3343  0.1498
 5809TIP3   OH217390   2.945   3.112   3.290 -0.7776 -0.3952  0.2697
 5809TIP3    H117391   3.002   3.077   3.358 -1.8252  1.1375  2.0346
 5809TIP3    H217392   2.950   3.207   3.300 -1.4086 -0.1414 -1.4436
 5810TIP3   OH217393   3.829   2.686   4.704 -0.0332 -0.5258  0.4945
 5810TIP3    H117394   3.734   2.678   4.693  0.0846  0.5752 -1.6847
 5810TIP3    H217395   3.865   2.618   4.648  0.4939 -1.1767  1.5926
 5811TIP3   OH217396   4.069   0.125   4.262  0.0721  0.3364  0.4010
 5811TIP3    H117397   4.116   0.051   4.300  1.8141 -0.2930 -2.7192
 5811TIP3    H217398   4.137   0.180   4.225 -1.3034  2.8463  1.3640
 5812TIP3   OH217399   4.002   5.705   0.422 -0.5758  0.1451 -0.4708
 5812TIP3    H117400   4.011   5.609   0.418 -0.6121  0.1082  0.2121
 5812TIP3    H217401   3.975   5.722   0.512  0.0679  0.8521 -0.4084
 5813TIP3   OH217402   3.035   5.070   3.532 -0.4519  0.2919 -0.3002
 5813TIP3    H117403   2.954   5.099   3.572 -1.7933  0.7422 -3.1095
 5813TIP3    H217404   3.063   5.143   3.477  1.2896 -0.2477 -0.1941
 5814TIP3   OH217405   2.119   5.945   3.053  0.0886 -0.4942  0.0077
 5814TIP3    H117406   2.165   5.980   2.977 -0.6458  1.0429  0.2286
 5814TIP3    H217407   2.184   5.890   3.097 -0.1541 -3.3897 -2.9257
 5815TIP3   OH217408   6.197   4.122   2.514 -0.1813  0.3779  0.0467
 5815TIP3    H117409   6.271   4.062   2.518  0.2680  0.9966  1.4840
 5815TIP3    H217410   6.124   4.068   2.483  0.3691 -0.7537  0.6710
 5816TIP3   OH217411   3.178   4.247   3.713 -0.2131  0.0030 -0.0780
 5816TIP3    H117412   3.098   4.198   3.731 -0.5623  1.0322  1.2519
 5816TIP3    H217413   3.220   4.258   3.798  1.1883 -0.2126 -0.6981
 5817TIP3   OH217414   5.705   5.983   2.727  0.0704  0.1796  0.4806
 5817TIP3    H117415   5.783   6.035   2.706  1.0730 -1.2626  0.4959
 5817TIP3    H217416   5.719   5.899   2.683 -2.1184  0.3211 -0.6619
 5818TIP3   OH217417   6.319   6.452   1.136  0.3472 -0.7183 -0.3684
 5818TIP3    H117418   6.347   6.512   1.205 -1.1332  0.8060 -1.0141
 5818TIP3    H217419   6.392   6.391   1.126  1.3647  0.1565  1.2380
 5819TIP3   OH217420   2.042   1.612   2.431 -0.8076  0.3378 -0.4174
 5819TIP3    H117421   2.011   1.524   2.411 -0.1634 -0.1927  0.8066
 5819TIP3    H217422   1.962   1.663   2.445 -1.1829 -0.4659  0.4876
 5820TIP3   OH217423   4.143   5.648   3.842 -0.1010 -0.1505 -0.1256
 5820TIP3    H117424   4.207   5.585   3.810 -0.6024 -0.6542 -0.1517
 5820TIP3    H217425   4.114   5.611   3.926  0.7697  0.8530  0.6533
 5821TIP3   OH217426   1.747   1.125   0.817  0.1407 -0.5507  0.3161
 5821TIP3    H117427   1.810   1.144   0.747  0.8968 -0.6835  0.9537
 5821TIP3    H217428   1.767   1.189   0.885  0.0331 -1.0296  0.8026
 5822TIP3   OH217429   1.316   3.449   2.686  0.1428  0.3951  0.0143
 5822TIP3    H117430   1.272   3.489   2.760  0.8077  1.4528 -0.1418
 5822TIP3    H217431   1.253   3.454   2.614 -0.3492 -0.2653  0.3868
 5823TIP3   OH217432   3.022   1.170   3.004 -0.0703  0.4805 -0.2988
 5823TIP3    H117433   2.954   1.105   2.990 -0.4103  0.5944  0.7300
 5823TIP3    H217434   2.995   1.245   2.950  0.1112 -0.0747 -1.1682
 5824TIP3   OH217435   5.418   2.093   1.529 -0.5311 -0.2318  0.0330
 5824TIP3    H117436   5.444   2.185   1.530 -0.9263 -0.1066  1.1978
 5824TIP3    H217437   5.323   2.095   1.544 -0.3692 -0.8487  1.2730
 5825TIP3   OH217438   4.868   4.398   0.461  0.0008 -0.5647  0.0460
 5825TIP3    H117439   4.805   4.468   0.476 -0.3348 -0.3722 -2.0068
 5825TIP3    H217440   4.877   4.356   0.546 -1.5027  0.5564  0.8101
 5826TIP3   OH217441   3.606   4.680   5.472  0.0638  0.0258  0.1934
 5826TIP3    H117442   3.681   4.707   5.418 -0.2828 -1.8821 -1.3507
 5826TIP3    H217443   3.532   4.677   5.411 -0.4360 -1.7777  0.8265
 5827TIP3   OH217444   1.977   2.455   5.331 -0.0347  0.2459 -0.5632
 5827TIP3    H117445   2.006   2.364   5.325 -0.9300 -0.0613 -0.2969
 5827TIP3    H217446   1.918   2.466   5.256  0.9035  0.9397 -1.2403
 5828TIP3   OH217447   4.574   6.262   3.722  0.2894 -0.5621 -0.0314
 5828TIP3    H117448   4.659   6.229   3.692  0.7124  0.1315  0.3807
 5828TIP3    H217449   4.533   6.187   3.766  0.1124 -1.2886 -1.3786
 5829TIP3   OH217450   4.081   2.464   2.132  0.0539 -0.0178 -0.1653
 5829TIP3    H117451   4.039   2.500   2.054 -1.9308 -0.5965  0.5733
 5829TIP3    H217452   4.036   2.506   2.206 -0.2095 -1.6843  0.6825
 5830TIP3   OH217453   6.832   1.552   2.514  0.1185 -0.4312 -0.6366
 5830TIP3    H117454   6.916   1.520   2.546  0.8544  1.0162 -1.0207
 5830TIP3    H217455   6.782   1.571   2.593  0.7085  0.0589 -0.3658
 5831TIP3   OH217456   4.264   3.423   3.672  0.4849 -0.4808  0.3755
 5831TIP3    H117457   4.273   3.512   3.638 -0.3788  0.0062  1.3579
 5831TIP3    H217458   4.169   3.411   3.682  0.5821 -1.5702  0.1202
 5832TIP3   OH217459   4.086   6.036   3.175  0.4320  0.1204 -0.0985
 5832TIP3    H117460   4.089   6.038   3.079  0.6530  0.1886 -0.0910
 5832TIP3    H217461   4.062   6.125   3.200  0.0100  0.0067 -0.1038
 5833TIP3   OH217462   4.955   2.164   5.293 -0.2962  0.3541 -0.2485
 5833TIP3    H117463   4.864   2.139   5.277  0.2690 -2.2456  0.1115
 5833TIP3    H217464   4.996   2.084   5.327  2.2552  1.2652 -0.9414
 5834TIP3   OH217465   1.216   1.842   0.653  0.8130  0.3074  0.2676
 5834TIP3    H117466   1.169   1.796   0.723  1.3012 -0.4218  0.1281
 5834TIP3    H217467   1.184   1.932   0.658  0.8411  0.2642  1.4297
 5835TIP3   OH217468   1.846   1.619   2.964 -0.1026 -0.3714  0.0918
 5835TIP3    H117469   1.768   1.662   2.997  0.4476 -0.0573  1.0031
 5835TIP3    H217470   1.816   1.575   2.884 -0.7022  1.6032 -0.8454
 5836TIP3   OH217471   7.098   2.881   4.950 -0.3126  0.1565 -0.3711
 5836TIP3    H117472   7.031   2.829   4.994 -1.8950  0.6266 -2.1085
 5836TIP3    H217473   7.175   2.824   4.949 -1.4130 -1.4085 -0.4769
 5837TIP3   OH217474   5.795   2.313   3.659  0.1244  0.0505 -0.4285
 5837TIP3    H117475   5.836   2.233   3.626 -0.5917 -0.4490 -0.1168
 5837TIP3    H217476   5.720   2.328   3.602 -2.0683 -1.6852  1.7625
 5838TIP3   OH217477   0.147   1.361   4.411  0.6886 -0.4263  0.3270
 5838TIP3    H117478   0.174   1.442   4.368  0.7613 -0.7137 -0.1690
 5838TIP3    H217479   0.167   1.377   4.504 -1.3005  0.9490  0.5851
 5839TIP3   OH217480   4.824   0.368   2.047 -0.0684  0.3409  0.7828
 5839TIP3    H117481   4.789   0.457   2.058 -1.5001 -0.2039  0.8167
 5839TIP3    H217482   4.752   0.318   2.010  0.5052 -0.9787  1.3800
 5840TIP3   OH217483   1.510   0.108   2.142  0.1300 -0.1330 -0.2206
 5840TIP3    H117484   1.499   0.119   2.236  1.4000  0.2877 -0.0917
 5840TIP3    H217485   1.432   0.061   2.113 -0.3459 -0.1302  1.0139
 5841TIP3   OH217486   3.588   1.214   3.351  0.1648 -0.0530 -0.0595
 5841TIP3    H117487   3.525   1.254   3.290  0.6065  0.8210  0.0305
 5841TIP3    H217488   3.571   1.259   3.434  0.3870 -0.3715  0.1562
 5842TIP3   OH217489   2.359   3.184   0.914 -0.0052 -0.1508  0.0522
 5842TIP3    H117490   2.441   3.212   0.956  1.2098 -2.2881 -0.7384
 5842TIP3    H217491   2.304   3.263   0.915  2.5407  1.8022 -0.5639
 5843TIP3   OH217492   4.821   1.104   3.311  0.4649 -0.0103  0.1619
 5843TIP3    H117493   4.852   1.173   3.253  1.0535 -0.9799 -0.7087
 5843TIP3    H217494   4.880   1.031   3.294  0.1937 -0.5507  1.4659
 5844TIP3   OH217495   1.320   2.799   3.519  0.3850 -0.2688 -0.3342
 5844TIP3    H117496   1.351   2.719   3.475 -0.0968  0.3148 -1.8106
 5844TIP3    H217497   1.397   2.854   3.526  0.1842  0.2791 -1.9723
 5845TIP3   OH217498   3.337   5.542   5.187  0.1614  0.0194 -0.6149
 5845TIP3    H117499   3.312   5.458   5.148 -0.5130  0.9902 -2.4059
 5845TIP3    H217500   3.404   5.520   5.251 -0.7329 -1.9873 -0.2835
 5846TIP3   OH217501   0.630   6.701   4.843  0.1103  0.2226  0.0087
 5846TIP3    H117502   0.543   6.677   4.811  0.4458 -0.6650 -0.2655
 5846TIP3    H217503   0.628   6.682   4.936 -0.4120  1.4806  0.2775
 5847TIP3   OH217504   2.986   1.333   3.768  0.4812  0.5248 -0.3560
 5847TIP3    H117505   2.896   1.327   3.736  0.5283  0.5205 -0.4882
 5847TIP3    H217506   3.039   1.352   3.691  0.8480 -1.5025 -0.6685
 5848TIP3   OH217507   5.870   5.558   3.987 -0.4000  0.1924  0.3995
 5848TIP3    H117508   5.959   5.593   3.983  0.1621 -1.2600 -0.6283
 5848TIP3    H217509   5.824   5.599   3.915 -0.0871 -0.2603 -0.0643
 5849TIP3   OH217510   6.293   2.583   1.972 -0.0205  0.1239 -0.3206
 5849TIP3    H117511   6.310   2.677   1.970  0.0032  0.1274 -2.1328
 5849TIP3    H217512   6.291   2.557   1.880  2.3889 -2.1108  0.1421
 5850TIP3   OH217513   2.487   6.012   4.815  0.0253 -0.0437  0.1832
 5850TIP3    H117514   2.476   5.950   4.742 -1.4766  0.1712  0.1812
 5850TIP3    H217515   2.577   6.000   4.843 -0.0177 -1.7684 -0.2595
 5851TIP3   OH217516   0.936   3.889   3.119 -0.3651  0.6762 -1.2068
 5851TIP3    H117517   0.965   3.844   3.198 -1.3029 -0.0111 -1.2299
 5851TIP3    H217518   0.992   3.855   3.050 -1.2448 -0.7369 -1.2791
 5852TIP3   OH217519   1.903   2.789   4.561 -0.4456  0.1966 -0.1543
 5852TIP3    H117520   1.847   2.867   4.559  0.5264  0.9146 -0.1843
 5852TIP3    H217521   1.968   2.809   4.628 -0.1119 -0.5545 -0.2511
 5853TIP3   OH217522   3.096   6.009   3.272 -0.2065 -0.3053 -0.2687
 5853TIP3    H117523   3.017   5.961   3.297 -0.6137 -0.8743 -2.4275
 5853TIP3    H217524   3.070   6.059   3.194  1.5058 -0.4308 -0.9725
 5854TIP3   OH217525   4.354   0.861   2.191  0.2264 -0.8148  0.4704
 5854TIP3    H117526   4.359   0.799   2.264  0.6191  0.3097  1.4314
 5854TIP3    H217527   4.346   0.806   2.113  0.4818 -2.0668  1.2999
 5855TIP3   OH217528   1.487   0.088   4.550 -0.6427  0.7087 -0.1302
 5855TIP3    H117529   1.398   0.071   4.518 -0.7977  0.1183  0.5924
 5855TIP3    H217530   1.476   0.105   4.643  0.0235  0.4659 -0.0044
 5856TIP3   OH217531   4.815   6.341   2.798 -0.3164  0.0536 -0.2320
 5856TIP3    H117532   4.797   6.433   2.781 -0.2737  0.1939  0.4368
 5856TIP3    H217533   4.738   6.309   2.845  0.2863  0.1358  0.8391
 5857TIP3   OH217534   6.523   6.302   3.535 -0.0005 -0.6337  0.1475
 5857TIP3    H117535   6.477   6.341   3.460  0.2336 -0.8362 -0.1046
 5857TIP3    H217536   6.613   6.332   3.526  0.4917 -2.2725 -0.8083
 5858TIP3   OH217537   6.653   4.277   4.012 -0.2910  0.2497  0.1310
 5858TIP3    H117538   6.632   4.188   3.982  0.2126  0.3057 -0.4044
 5858TIP3    H217539   6.583   4.299   4.073  0.0358 -0.8605  0.9548
 5859TIP3   OH217540   4.924   3.970   0.459 -0.0753  0.3707  0.2502
 5859TIP3    H117541   4.997   3.939   0.512  0.8346 -0.5076 -1.4385
 5859TIP3    H217542   4.964   4.029   0.394 -0.7106 -0.7057 -1.1689
 5860TIP3   OH217543   0.211   1.077   1.066 -0.0217  0.4306  0.9513
 5860TIP3    H117544   0.266   1.027   1.005 -2.2867 -0.6272 -0.3174
 5860TIP3    H217545   0.250   1.165   1.066  1.8660 -0.3418  0.4090
 5861TIP3   OH217546   0.036   1.600   2.135 -0.2220 -0.6694 -0.2542
 5861TIP3    H117547  -0.027   1.543   2.178 -0.3713 -1.4526 -1.4656
 5861TIP3    H217548   0.007   1.604   2.044  1.1034 -0.5370 -0.6982
 5862TIP3   OH217549   4.835   4.557   0.177 -0.2157  0.2571 -0.2036
 5862TIP3    H117550   4.776   4.625   0.209  1.1176  2.3944 -1.9397
 5862TIP3    H217551   4.788   4.516   0.105 -1.5618 -1.7034  1.6840
 5863TIP3   OH217552   4.107   4.432   4.991 -0.4966 -0.1258 -0.6112
 5863TIP3    H117553   4.107   4.374   5.067  0.8789  1.9228  1.0724
 5863TIP3    H217554   4.172   4.395   4.932  0.0118 -0.5901  0.2125
 5864TIP3   OH217555   4.083   0.036   0.393 -0.5048  0.5055 -0.3694
 5864TIP3    H117556   3.999   0.016   0.351  0.0258 -1.4360 -0.5707
 5864TIP3    H217557   4.124   0.100   0.335 -1.2040  0.3462 -1.0548
 5865TIP3   OH217558   2.379   0.460   0.988  0.2537 -0.2940  0.2033
 5865TIP3    H117559   2.388   0.535   0.929  1.2598  0.0812  0.8052
 5865TIP3    H217560   2.289   0.431   0.976 -0.1621  1.0282 -0.0287
 5866TIP3   OH217561   0.899   4.012   4.148 -0.5297  0.3004 -0.8484
 5866TIP3    H117562   0.881   4.106   4.154 -1.6789  0.3742 -3.7506
 5866TIP3    H217563   0.963   4.005   4.077 -1.1879 -1.1296 -1.3386
 5867TIP3   OH217564   3.376   4.830   1.458  0.3132  0.5521 -0.2921
 5867TIP3    H117565   3.446   4.864   1.402  1.1730 -2.1293 -0.9842
 5867TIP3    H217566   3.326   4.771   1.401  0.3329 -1.1260  1.3380
 5868TIP3   OH217567   1.037   2.644   3.779 -0.4837  0.2378  0.4153
 5868TIP3    H117568   1.080   2.711   3.833  1.6115  0.8172 -1.8085
 5868TIP3    H217569   1.102   2.575   3.771 -1.9548 -1.3208  1.1576
 5869TIP3   OH217570   2.731   1.409   0.033 -0.1262 -0.3414 -0.3220
 5869TIP3    H117571   2.782   1.488   0.015 -0.4323  0.0713  0.5769
 5869TIP3    H217572   2.692   1.424   0.119 -2.8568 -0.0612 -1.4859
 5870TIP3   OH217573   5.893   1.996   1.419 -0.1192  0.2886 -0.1660
 5870TIP3    H117574   5.841   1.951   1.352  2.4672  0.5556 -2.5232
 5870TIP3    H217575   5.891   1.937   1.494 -0.6032 -1.5576 -1.5481
 5871TIP3   OH217576   3.880   6.825   2.541  0.4019 -0.3693 -0.0967
 5871TIP3    H117577   3.954   6.834   2.481 -1.3222  2.7229 -2.0111
 5871TIP3    H217578   3.850   6.735   2.529  0.5761 -0.0973 -3.4662
 5872TIP3   OH217579   4.539   3.954   2.599  0.5440 -0.4258 -0.3598
 5872TIP3    H117580   4.575   3.879   2.647  2.1831  1.1932  1.0863
 5872TIP3    H217581   4.615   3.995   2.558 -0.2413  0.8031 -0.6286
 5873TIP3   OH217582   6.013   0.476   3.169 -0.4854  0.5263  0.4494
 5873TIP3    H117583   5.962   0.454   3.247 -0.0588 -0.4284  0.4727
 5873TIP3    H217584   6.099   0.436   3.184  0.1752  1.8095  0.2565
 5874TIP3   OH217585   5.098   1.991   0.547 -0.3031  0.0153  0.1758
 5874TIP3    H117586   5.121   1.950   0.630  0.7801 -2.5042 -1.2638
 5874TIP3    H217587   5.141   2.077   0.551  0.7357 -0.5242  1.7151
 5875TIP3   OH217588   3.475   0.689   3.801  0.4401 -0.1654  0.5426
 5875TIP3    H117589   3.397   0.635   3.814  0.4076  0.1642  1.9029
 5875TIP3    H217590   3.451   0.750   3.731  0.0667 -1.1361 -0.1891
 5876TIP3   OH217591   6.795   0.278   1.605 -0.7367 -0.4284 -0.1894
 5876TIP3    H117592   6.883   0.288   1.642 -0.2301  2.2234 -1.7929
 5876TIP3    H217593   6.794   0.190   1.568  2.1910  0.2228 -2.1949
 5877TIP3   OH217594   2.111   3.803   4.360 -0.3483 -0.1365 -0.2901
 5877TIP3    H117595   2.125   3.895   4.337  0.1218 -0.0122  0.4591
 5877TIP3    H217596   2.104   3.758   4.276  2.5055  0.1181 -0.7573
 5878TIP3   OH217597   1.584   3.243   4.366  0.3407 -0.0148 -0.3608
 5878TIP3    H117598   1.532   3.306   4.417 -1.0681 -0.2846 -1.4015
 5878TIP3    H217599   1.632   3.297   4.303  2.8969  0.4334  1.7715
 5879TIP3   OH217600   4.362   0.721   1.693  0.3954 -0.0486 -0.0017
 5879TIP3    H117601   4.353   0.816   1.697  2.8061  0.2641 -0.1055
 5879TIP3    H217602   4.405   0.704   1.609 -0.6748 -1.3148 -0.3227
 5880TIP3   OH217603   6.924   6.061   0.253  0.1197  0.0559  0.1717
 5880TIP3    H117604   6.888   5.993   0.309  1.7961  0.3001  1.6175
 5880TIP3    H217605   6.972   6.014   0.185  2.2139 -0.2834  1.7973
 5881TIP3   OH217606   6.424   3.137   1.352 -0.5471 -0.8220  0.1102
 5881TIP3    H117607   6.411   3.078   1.427 -1.6856 -0.0898  0.5051
 5881TIP3    H217608   6.402   3.083   1.276 -2.0569 -0.7963  0.4976
 5882TIP3   OH217609   5.999   0.476   1.575 -0.1202  0.1809 -0.2922
 5882TIP3    H117610   6.091   0.497   1.593  0.1395 -1.9619  1.3357
 5882TIP3    H217611   6.000   0.383   1.553 -2.0388 -0.2232  1.0871
 5883TIP3   OH217612   0.160   3.599   3.359 -0.1565  0.4106 -0.0991
 5883TIP3    H117613   0.173   3.621   3.451  0.9507 -0.5289 -0.0149
 5883TIP3    H217614   0.130   3.681   3.319 -2.2129  0.4637  1.3582
 5884TIP3   OH217615   1.529   4.939   4.632 -0.1724 -0.2036 -0.3129
 5884TIP3    H117616   1.495   5.009   4.576 -0.4704 -0.2932 -0.2425
 5884TIP3    H217617   1.467   4.933   4.704  0.1194 -0.2061 -0.0567
 5885TIP3   OH217618   2.638   6.153   2.239  0.2895  0.3807  0.5894
 5885TIP3    H117619   2.695   6.190   2.172 -0.6053  1.0455  0.1839
 5885TIP3    H217620   2.565   6.115   2.191  0.5625 -0.8056  1.0817
 5886TIP3   OH217621   4.909   2.667   1.732 -0.0216  0.5923 -0.4344
 5886TIP3    H117622   4.964   2.590   1.747 -0.1812  0.4551 -0.5485
 5886TIP3    H217623   4.871   2.687   1.817  0.4598  0.8862 -0.2829
 5887TIP3   OH217624   6.164   1.487   2.234 -0.4282 -0.2095  0.1747
 5887TIP3    H117625   6.085   1.434   2.240 -0.0008 -0.8332  0.3779
 5887TIP3    H217626   6.179   1.497   2.140 -2.0197  1.8688  0.0723
 5888TIP3   OH217627   6.568   5.533   0.694 -0.4615  0.3043  0.3682
 5888TIP3    H117628   6.472   5.530   0.698 -0.4444  0.7814  1.4301
 5888TIP3    H217629   6.587   5.600   0.629 -0.8595  0.8460  0.7974
 5889TIP3   OH217630   6.434   3.012   4.680  0.0715  0.1610  0.1858
 5889TIP3    H117631   6.514   3.059   4.654 -0.3446  0.8562  0.1325
 5889TIP3    H217632   6.464   2.948   4.745  0.5778  0.8388  0.6326
 5890TIP3   OH217633   5.590   1.716   3.206 -0.1969 -0.3237 -0.2768
 5890TIP3    H117634   5.571   1.726   3.299 -0.1967  1.7404 -0.4434
 5890TIP3    H217635   5.530   1.648   3.176 -0.8805 -0.3308  1.0354
 5891TIP3   OH217636   2.031   2.728   2.733 -0.0329  0.1982 -0.4636
 5891TIP3    H117637   2.121   2.740   2.764 -0.0572  1.1642 -0.7290
 5891TIP3    H217638   2.035   2.650   2.678  0.2761 -0.7784  0.9052
 5892TIP3   OH217639   0.102   6.566   2.467  0.1981 -0.0410 -0.7401
 5892TIP3    H117640   0.154   6.533   2.540 -0.4057 -0.3943 -0.4630
 5892TIP3    H217641   0.080   6.656   2.491 -0.2975 -0.2706 -0.3158
 5893TIP3   OH217642   5.502   1.725   1.387  0.4014 -0.0607  0.6585
 5893TIP3    H117643   5.509   1.817   1.410  0.2058  0.5890 -1.6752
 5893TIP3    H217644   5.419   1.697   1.424  0.2449  0.8124  0.9865
 5894TIP3   OH217645   3.396   2.352   2.597  0.0144  0.2972 -0.2744
 5894TIP3    H117646   3.479   2.392   2.622  0.7671 -0.2798 -1.7336
 5894TIP3    H217647   3.362   2.314   2.679  1.7008 -0.3647  0.1599
 5895TIP3   OH217648   1.585   1.040   2.440 -0.4273 -0.1980 -0.6303
 5895TIP3    H117649   1.559   1.116   2.493 -1.5604 -0.4644 -0.7724
 5895TIP3    H217650   1.674   1.019   2.469 -0.4958  0.5365  0.1489
 5896TIP3   OH217651   0.310   1.324   4.939  0.3460 -0.3077 -0.5270
 5896TIP3    H117652   0.234   1.355   4.889  0.7956  1.3359 -0.2590
 5896TIP3    H217653   0.272   1.293   5.022 -0.2539 -1.7677 -1.3119
 5897TIP3   OH217654   2.824   4.008   3.122 -0.0990  0.0972  0.5131
 5897TIP3    H117655   2.817   3.999   3.027  1.2247  0.4373  0.3691
 5897TIP3    H217656   2.734   4.002   3.153 -0.3563 -2.4927 -0.5134
 5898TIP3   OH217657   7.137   5.437   2.828  0.2082 -0.4127  0.2806
 5898TIP3    H117658   7.063   5.379   2.812  1.0992 -1.5605  0.1821
 5898TIP3    H217659   7.205   5.407   2.767  0.2472  1.6254 -0.7582
 5899TIP3   OH217660   0.173   3.509   1.400 -0.4534 -0.3866  0.1653
 5899TIP3    H117661   0.119   3.549   1.468 -1.7994 -1.0582 -0.4755
 5899TIP3    H217662   0.235   3.453   1.447 -0.8801 -0.2745  0.8655
 5900TIP3   OH217663   6.060   1.974   4.190 -0.6131 -0.1982 -0.5041
 5900TIP3    H117664   5.974   1.999   4.156 -0.6340 -0.0749 -0.3596
 5900TIP3    H217665   6.051   1.980   4.285 -0.3744  0.0396 -0.4972
 5901TIP3   OH217666   0.824   5.068   2.177 -0.0932  0.3542  0.2761
 5901TIP3    H117667   0.786   5.009   2.242  0.1331  0.4478  0.4958
 5901TIP3    H217668   0.878   5.129   2.229  1.5973 -0.7113 -0.1644
 5902TIP3   OH217669   3.347   4.180   0.954  0.4336  0.8916 -0.2870
 5902TIP3    H117670   3.430   4.201   0.911  1.3068 -1.6606 -0.0025
 5902TIP3    H217671   3.332   4.254   1.014  1.3584  2.4236 -1.8440
 5903TIP3   OH217672   2.216   0.747   4.678  0.2939 -0.2344 -0.9743
 5903TIP3    H117673   2.125   0.775   4.664  0.3247 -0.3636 -1.4625
 5903TIP3    H217674   2.266   0.828   4.681  0.0022 -0.0787  0.6219
 5904TIP3   OH217675   4.798   0.399   3.094 -0.0813  0.4633  0.4547
 5904TIP3    H117676   4.748   0.352   3.161  0.6742 -1.3806 -0.2019
 5904TIP3    H217677   4.748   0.479   3.078 -1.3116  0.0042  1.8003
 5905TIP3   OH217678   6.500   4.015   5.362 -0.1103 -0.2432  0.1975
 5905TIP3    H117679   6.412   4.013   5.400 -0.1993 -1.1479 -0.0466
 5905TIP3    H217680   6.554   4.056   5.430 -0.9847  1.8030 -0.2536
 5906TIP3   OH217681   6.476   0.926   2.798  0.2864 -0.4661 -0.2582
 5906TIP3    H117682   6.414   0.903   2.868 -0.3563  1.2214 -0.2408
 5906TIP3    H217683   6.547   0.862   2.808  0.6722  0.2551  2.5362
 5907TIP3   OH217684   0.325   6.228   4.883  0.2303  0.4378  0.5638
 5907TIP3    H117685   0.352   6.162   4.948 -0.1199  0.4565  0.7326
 5907TIP3    H217686   0.402   6.284   4.873  0.8427 -0.5086 -0.2403
 5908TIP3   OH217687   4.805   0.728   3.579  0.3124 -0.0506  0.4777
 5908TIP3    H117688   4.800   0.702   3.487  0.0066 -2.5457  1.1214
 5908TIP3    H217689   4.715   0.747   3.604  0.1129 -1.2271  0.7096
 5909TIP3   OH217690   7.072   5.991   5.805  0.4144 -0.0500 -0.3247
 5909TIP3    H117691   6.978   5.981   5.792  0.3916  0.4801 -0.5669
 5909TIP3    H217692   7.107   5.903   5.793 -0.1269 -0.3895  0.4529
 5910TIP3   OH217693   0.570   4.685   0.708 -0.7747 -0.1182  0.7171
 5910TIP3    H117694   0.581   4.590   0.715  0.4950 -0.1741 -1.0918
 5910TIP3    H217695   0.476   4.697   0.694 -0.5844 -1.5266 -2.8541
 5911TIP3   OH217696   0.699   2.907   5.681 -0.1394 -0.6375  0.5887
 5911TIP3    H117697   0.760   2.893   5.609 -1.1454  1.1715 -0.7043
 5911TIP3    H217698   0.664   2.820   5.701  1.1450 -1.3586 -0.1715
 5912TIP3   OH217699   5.134   0.737   5.546 -0.2536  0.5092 -0.0255
 5912TIP3    H117700   5.158   0.780   5.629 -0.1362  1.0264 -0.3196
 5912TIP3    H217701   5.158   0.801   5.479 -1.5886  0.6607 -0.3918
 5913TIP3   OH217702   5.953   2.925   5.351 -0.4875  0.0598 -0.2428
 5913TIP3    H117703   5.929   3.018   5.346 -0.6979  0.0155 -0.0973
 5913TIP3    H217704   5.869   2.879   5.344 -0.3389 -0.1357 -0.7590
 5914TIP3   OH217705   0.004   3.152   0.934 -0.8868  0.7370 -0.2051
 5914TIP3    H117706  -0.036   3.238   0.921 -0.0867  1.1051 -0.2539
 5914TIP3    H217707   0.094   3.171   0.961 -1.2791 -0.0497  1.8381
 5915TIP3   OH217708   0.319   5.014   2.344  0.4683  0.1753  0.1329
 5915TIP3    H117709   0.404   5.057   2.339  0.6647 -0.0780  1.0628
 5915TIP3    H217710   0.316   4.958   2.266  1.3367 -0.1333  0.3056
 5916TIP3   OH217711   5.544   0.252   5.042  0.4277  0.1609  0.2440
 5916TIP3    H117712   5.483   0.255   4.969 -0.6497 -2.4347  0.9272
 5916TIP3    H217713   5.612   0.191   5.015  0.9397  0.4765  0.7849
 5917TIP3   OH217714   5.642   0.805   5.327  0.4275 -0.3412 -0.9117
 5917TIP3    H117715   5.588   0.823   5.404  0.1725  0.8758 -1.3615
 5917TIP3    H217716   5.580   0.796   5.255  0.7825  0.6081 -1.3499
 5918TIP3   OH217717   1.230   2.650   1.884 -0.0984 -0.1327 -0.0363
 5918TIP3    H117718   1.318   2.686   1.882  1.1711 -2.9901 -0.6951
 5918TIP3    H217719   1.205   2.654   1.977  2.0369 -2.0422  0.7098
 5919TIP3   OH217720   5.698   6.749   2.333  0.0238 -0.3831 -0.4175
 5919TIP3    H117721   5.738   6.662   2.331 -0.3694 -0.5721 -0.1421
 5919TIP3    H217722   5.697   6.773   2.426  1.8902  0.7439 -0.6212
 5920TIP3   OH217723   1.743   1.423   3.180 -0.2339  0.4602  0.0073
 5920TIP3    H117724   1.744   1.374   3.098 -0.3304  0.5297 -0.0359
 5920TIP3    H217725   1.732   1.514   3.153 -0.2603  0.4837  0.0975
 5921TIP3   OH217726   7.158   2.331   5.179  0.6116 -0.4773  0.3039
 5921TIP3    H117727   7.084   2.378   5.217  0.2540 -0.6084 -0.2220
 5921TIP3    H217728   7.202   2.292   5.255  1.3668  1.2948  0.8415
 5922TIP3   OH217729   3.832   2.414   0.543  0.4299  0.4205 -0.2002
 5922TIP3    H117730   3.911   2.430   0.491 -0.2926  2.1334 -0.8411
 5922TIP3    H217731   3.846   2.466   0.623  1.5946 -2.2851  1.5164
 5923TIP3   OH217732   3.215   5.619   4.418  0.9491 -0.0222  0.3547
 5923TIP3    H117733   3.144   5.572   4.374  0.0875 -0.4225  2.0557
 5923TIP3    H217734   3.170   5.676   4.480  2.0587  1.5933 -0.2563
 5924TIP3   OH217735   5.492   6.074   0.295 -0.1001 -0.0758  0.2428
 5924TIP3    H117736   5.457   6.053   0.382  1.4846  2.3199  1.5734
 5924TIP3    H217737   5.548   5.999   0.274 -2.0732 -1.6439  0.2746
 5925TIP3   OH217738   5.398   4.809   4.085  0.3388  0.0338  0.0203
 5925TIP3    H117739   5.400   4.828   4.179 -0.9120  2.3333 -0.3349
 5925TIP3    H217740   5.455   4.875   4.046  0.2733 -0.4412 -0.8959
 5926TIP3   OH217741   2.533   0.134   4.866  0.3118 -0.9189 -0.3081
 5926TIP3    H117742   2.528   0.054   4.919 -1.2947  1.0619  2.8653
 5926TIP3    H217743   2.452   0.180   4.886  2.2148  2.6294  0.0114
 5927TIP3   OH217744   4.826   5.185   2.942 -0.4456  0.4139  0.4814
 5927TIP3    H117745   4.912   5.186   2.983 -0.9320  0.6010  1.5227
 5927TIP3    H217746   4.836   5.242   2.865  0.5313 -0.1214  0.1906
 5928TIP3   OH217747   3.808   4.454   3.101 -0.1992 -0.6564 -0.7812
 5928TIP3    H117748   3.891   4.483   3.063  0.6095 -1.2354  0.4660
 5928TIP3    H217749   3.742   4.510   3.061  0.7746 -0.2901 -1.9220
 5929TIP3   OH217750   1.530   5.790   1.492 -0.1980 -0.1793  0.0472
 5929TIP3    H117751   1.550   5.882   1.473 -0.0221 -0.1298  0.4663
 5929TIP3    H217752   1.437   5.791   1.515  0.3799  0.3415  2.7120
 5930TIP3   OH217753   2.476   2.458   4.342 -1.1635  0.6516 -0.4439
 5930TIP3    H117754   2.543   2.505   4.293 -0.2328 -0.4347 -0.2735
 5930TIP3    H217755   2.442   2.394   4.280  0.0192 -0.7297  0.2685
 5931TIP3   OH217756   3.795   3.015   4.506 -0.1404 -0.2313 -0.1049
 5931TIP3    H117757   3.764   2.935   4.464  0.0895  0.9543 -2.7867
 5931TIP3    H217758   3.857   3.052   4.443  1.3781  1.0006  1.9969
 5932TIP3   OH217759   2.319   3.877   5.782 -0.6595 -0.1142  0.7185
 5932TIP3    H117760   2.302   3.785   5.801 -0.2963 -0.9958 -2.6109
 5932TIP3    H217761   2.234   3.920   5.794 -1.3403 -1.2970  0.3309
 5933TIP3   OH217762   3.075   4.671   5.430  0.5079 -0.1657  0.0478
 5933TIP3    H117763   3.134   4.741   5.458  2.6422 -1.2232 -1.4720
 5933TIP3    H217764   3.005   4.716   5.382 -0.7207  1.2318  2.8783
 5934TIP3   OH217765   4.961   4.762   3.653  0.3404  0.2769  0.0510
 5934TIP3    H117766   4.896   4.716   3.706 -0.6608 -0.6316 -1.8685
 5934TIP3    H217767   4.985   4.700   3.585  3.2996  0.5780  0.6869
 5935TIP3   OH217768   6.658   1.973   5.027 -0.2737 -0.2775 -0.5063
 5935TIP3    H117769   6.694   2.036   5.090 -1.2705  0.5645 -0.7523
 5935TIP3    H217770   6.735   1.930   4.990  0.5415  1.6314 -1.1802
 5936TIP3   OH217771   5.491   3.596   4.422 -0.1538  0.2042 -0.0827
 5936TIP3    H117772   5.543   3.645   4.358  1.2567 -1.4414 -0.2697
 5936TIP3    H217773   5.526   3.506   4.417  0.8394  0.2177  3.7756
 5937TIP3   OH217774   2.346   5.459   0.270 -0.1513  0.3354 -0.3371
 5937TIP3    H117775   2.291   5.515   0.325 -0.9534 -1.8931  1.3187
 5937TIP3    H217776   2.315   5.475   0.181 -2.1678  0.5912  0.3628
 5938TIP3   OH217777   6.406   4.871   3.086  0.1329  0.0045 -0.1046
 5938TIP3    H117778   6.470   4.924   3.038 -0.8336  1.6069  0.3084
 5938TIP3    H217779   6.354   4.829   3.017  0.0744  0.6395 -0.4539
 5939TIP3   OH217780   5.393   5.483   1.658 -0.2938 -0.3688  0.1898
 5939TIP3    H117781   5.403   5.388   1.668  0.8797 -0.1896  0.9212
 5939TIP3    H217782   5.299   5.496   1.646 -0.4678 -1.6216  0.0311
 5940TIP3   OH217783   0.033   0.069   5.201  0.6198 -0.2975  0.0673
 5940TIP3    H117784   0.026   0.003   5.131 -1.5969 -2.8538  2.4306
 5940TIP3    H217785  -0.008   0.147   5.164 -0.4228 -1.5305 -1.5779
 5941TIP3   OH217786   6.374   4.606   0.090  0.5305  0.2967 -0.2467
 5941TIP3    H117787   6.358   4.700   0.101  1.8246  0.4471  0.5938
 5941TIP3    H217788   6.296   4.564   0.127  0.5103  1.0283  0.5768
 5942TIP3   OH217789   5.557   5.103   0.599 -0.0287 -0.0987  0.6727
 5942TIP3    H117790   5.612   5.165   0.646 -0.1110 -1.2846  2.4515
 5942TIP3    H217791   5.543   5.031   0.662 -0.8617 -1.3724 -0.8890
 5943TIP3   OH217792   4.385   2.413   2.161  0.3917  0.5073 -0.0568
 5943TIP3    H117793   4.291   2.420   2.141  0.3050 -1.5854 -0.5235
 5943TIP3    H217794   4.387   2.380   2.251  0.6597 -0.2201 -0.3261
 5944TIP3   OH217795   3.347   0.777   1.643 -0.3652 -0.5812 -0.0116
 5944TIP3    H117796   3.289   0.713   1.602  0.8988 -0.6680 -1.7815
 5944TIP3    H217797   3.301   0.861   1.634 -1.1802 -0.9439  0.6148
 5945TIP3   OH217798   5.479   1.566   4.489 -0.0901 -0.5374 -0.4070
 5945TIP3    H117799   5.453   1.529   4.573  0.0824 -1.7213 -0.8566
 5945TIP3    H217800   5.414   1.633   4.471 -0.6922 -0.9456  0.2162
 5946TIP3   OH217801   5.814   1.366   4.106 -0.1909  0.2643  0.1019
 5946TIP3    H117802   5.828   1.301   4.174 -0.8136 -2.0072 -1.7956
 5946TIP3    H217803   5.878   1.344   4.038  1.1835  3.1381  0.2946
 5947TIP3   OH217804   3.869   5.119   3.945 -0.5201  0.0047 -0.9888
 5947TIP3    H117805   3.912   5.096   3.862 -0.2237 -0.2825 -0.7594
 5947TIP3    H217806   3.930   5.180   3.987  0.8535 -2.2036  0.4176
 5948TIP3   OH217807   4.687   0.045   5.002 -0.0613  0.0959  0.2395
 5948TIP3    H117808   4.720   0.074   5.087 -1.6584  0.5257  0.7585
 5948TIP3    H217809   4.650   0.125   4.963  0.2837 -0.1841 -0.6782
 5949TIP3   OH217810   6.731   4.318   4.887 -0.5436  0.3394  0.0388
 5949TIP3    H117811   6.751   4.309   4.793 -2.7152  2.0101 -0.6684
 5949TIP3    H217812   6.815   4.336   4.928  0.1984  1.7184 -1.9346
 5950TIP3   OH217813   7.073   6.465   0.088 -0.3361 -0.2858  0.0748
 5950TIP3    H117814   7.007   6.519   0.132 -0.5301 -2.1440  2.3101
 5950TIP3    H217815   7.039   6.452  -0.000 -1.5032  1.1424  0.2758
 5951TIP3   OH217816   1.743   1.319   0.545  0.2659  0.1794 -0.0213
 5951TIP3    H117817   1.685   1.288   0.475 -0.2351 -1.3166  0.9948
 5951TIP3    H217818   1.683   1.354   0.611  0.3136 -2.2917  1.4941
 5952TIP3   OH217819   2.626   3.388   2.633  0.0348 -0.0841 -0.3649
 5952TIP3    H117820   2.682   3.345   2.698 -1.1744 -1.4359 -0.1589
 5952TIP3    H217821   2.651   3.346   2.550  1.3859  1.4454 -0.7780
 5953TIP3   OH217822   4.735   4.833   2.463  0.4103  0.0122  0.1549
 5953TIP3    H117823   4.821   4.803   2.433  0.2764  0.0991 -0.3117
 5953TIP3    H217824   4.755   4.908   2.520  0.5625  1.1240 -1.2961
 5954TIP3   OH217825   5.924   2.013   2.627  0.2353 -0.1418 -0.1801
 5954TIP3    H117826   6.013   1.991   2.599 -0.5886 -0.7047 -2.6129
 5954TIP3    H217827   5.867   1.969   2.564 -1.7496  1.6960  0.1928
 5955TIP3   OH217828   3.841   4.513   2.731  0.2032 -0.0959  0.3258
 5955TIP3    H117829   3.877   4.591   2.687  4.6659 -0.3294  2.9295
 5955TIP3    H217830   3.800   4.548   2.810 -0.7666 -0.2133 -0.1152
 5956TIP3   OH217831   3.960   1.785   3.719  0.6210 -0.0364 -0.2227
 5956TIP3    H117832   3.931   1.872   3.690 -0.1247 -0.3908 -0.5471
 5956TIP3    H217833   4.003   1.747   3.643  0.9523  0.0473 -0.0785
 5957TIP3   OH217834   2.381   5.882   0.900 -0.2852  0.2209 -0.0071
 5957TIP3    H117835   2.447   5.943   0.867 -1.6041  2.5456  1.3614
 5957TIP3    H217836   2.419   5.795   0.885  1.5269  1.3139 -2.4070
 5958TIP3   OH217837   6.446   3.922   2.543  0.0124 -0.1339 -0.7962
 5958TIP3    H117838   6.458   3.876   2.626 -0.8619 -0.0947 -0.6367
 5958TIP3    H217839   6.534   3.948   2.517  0.1718  1.3408  0.9761
 5959TIP3   OH217840   1.429   3.566   0.351 -0.4910  0.0731  0.4195
 5959TIP3    H117841   1.404   3.652   0.387 -0.2053  0.5916 -0.5868
 5959TIP3    H217842   1.383   3.561   0.268  1.5508  0.4040 -0.7841
 5960TIP3   OH217843   5.313   6.236   0.547  0.1529  0.0219  0.4189
 5960TIP3    H117844   5.358   6.301   0.602  0.1030 -0.0272  0.5183
 5960TIP3    H217845   5.380   6.169   0.530  0.5571  0.6847 -0.6692
 5961TIP3   OH217846   3.441   4.211   5.539  0.1907 -0.3543 -0.4259
 5961TIP3    H117847   3.476   4.124   5.521 -0.7996 -0.9134  0.2763
 5961TIP3    H217848   3.359   4.195   5.586 -0.7849  0.9344 -1.6184
 5962TIP3   OH217849   6.526   0.076   3.106  0.1924  0.3998 -0.3839
 5962TIP3    H117850   6.517   0.170   3.091 -0.5681  0.2031 -1.2100
 5962TIP3    H217851   6.613   0.055   3.073 -0.7593  0.2976 -3.0847
 5963TIP3   OH217852   3.441   5.495   1.745 -0.0930  0.9316 -0.0943
 5963TIP3    H117853   3.436   5.573   1.690 -1.3564  0.3630 -0.8378
 5963TIP3    H217854   3.383   5.432   1.702 -1.4461  0.5851  2.0780
 5964TIP3   OH217855   1.432   1.020   3.310 -0.1616 -0.3346 -0.0908
 5964TIP3    H117856   1.445   0.957   3.381  1.8642 -1.3525 -1.2582
 5964TIP3    H217857   1.413   0.965   3.233 -0.0981  0.5898 -0.7809
 5965TIP3   OH217858   3.636   6.554   5.076 -0.1567 -0.0999  0.0757
 5965TIP3    H117859   3.695   6.626   5.102 -0.6855 -0.0069  1.0566
 5965TIP3    H217860   3.691   6.497   5.022  0.7894  0.0876  0.8106
 5966TIP3   OH217861   1.310   6.750   2.267  0.8351  0.4088  0.0386
 5966TIP3    H117862   1.247   6.776   2.334  2.0980  1.6836  0.8072
 5966TIP3    H217863   1.333   6.832   2.222  0.8612 -0.2512 -1.2150
 5967TIP3   OH217864   2.764   6.735   3.808 -0.1464  0.0031 -0.0063
 5967TIP3    H117865   2.796   6.668   3.748  0.6772 -0.9656  1.4453
 5967TIP3    H217866   2.679   6.761   3.772 -0.4376 -1.7421 -0.6838
 5968TIP3   OH217867   5.824   0.596   1.087  0.6205 -0.0506  0.4861
 5968TIP3    H117868   5.731   0.571   1.084  0.5308  0.2420  0.7880
 5968TIP3    H217869   5.870   0.513   1.100  0.2913 -0.0301  2.0544
 5969TIP3   OH217870   4.958   5.311   1.641  0.5102  0.3361 -0.0005
 5969TIP3    H117871   4.994   5.233   1.683 -1.3135 -1.0945 -0.9181
 5969TIP3    H217872   4.895   5.346   1.704 -0.4040 -0.3625 -0.4927
 5970TIP3   OH217873   5.072   1.855   4.584 -0.5136  0.1514  0.6906
 5970TIP3    H117874   5.042   1.819   4.667  0.5654 -0.6378  0.7579
 5970TIP3    H217875   5.167   1.846   4.586 -0.4152  0.7150 -0.3634
 5971TIP3   OH217876   5.960   6.184   0.873  0.4501  0.3200  0.0750
 5971TIP3    H117877   5.959   6.118   0.942 -2.1430 -2.7479 -2.5652
 5971TIP3    H217878   6.033   6.160   0.818  0.2058  0.3810 -0.2786
 5972TIP3   OH217879   1.274   3.596   1.134 -0.6937  0.1429 -0.1644
 5972TIP3    H117880   1.329   3.643   1.072 -1.3939  1.7891  0.4068
 5972TIP3    H217881   1.332   3.529   1.171  0.5796  1.0651 -0.4271
 5973TIP3   OH217882   6.937   1.488   3.922  0.3313 -0.6452  0.3308
 5973TIP3    H117883   6.945   1.449   3.835  0.4101  1.1248 -0.5028
 5973TIP3    H217884   6.857   1.448   3.958 -1.1386  0.3595 -1.5716
 5974TIP3   OH217885   0.515   1.387   3.124  0.2995 -0.2674 -0.3945
 5974TIP3    H117886   0.480   1.352   3.206 -2.6620  0.2052 -1.3484
 5974TIP3    H217887   0.610   1.394   3.140  0.1388 -2.3150  2.1343
 5975TIP3   OH217888   6.881   1.937   1.054 -0.3300  0.4041  0.1895
 5975TIP3    H117889   6.934   1.952   0.976 -0.5478  0.4526  0.0523
 5975TIP3    H217890   6.944   1.943   1.127 -0.2996  1.3670  0.0926
 5976TIP3   OH217891   0.360   3.447   0.418  0.3226  0.5529  0.0381
 5976TIP3    H117892   0.340   3.356   0.399 -2.5417  1.0145  0.3545
 5976TIP3    H217893   0.439   3.466   0.369  1.1871 -2.1750  0.2632
 5977TIP3   OH217894   4.877   0.921   0.423 -0.2622 -0.2120 -0.0256
 5977TIP3    H117895   4.919   0.924   0.337  0.2535 -1.7712  0.1355
 5977TIP3    H217896   4.884   0.829   0.450 -0.4411  0.2351  1.6684
 5978TIP3   OH217897   6.948   5.530   0.188 -0.3266 -0.2460  0.2962
 5978TIP3    H117898   6.889   5.506   0.117 -0.7347 -0.4463  0.6921
 5978TIP3    H217899   7.029   5.482   0.170  0.2198  1.0686 -0.9881
 5979TIP3   OH217900   0.728   3.800   0.174 -0.9384 -0.6088 -0.2513
 5979TIP3    H117901   0.753   3.830   0.087 -2.7305  1.8649 -0.0218
 5979TIP3    H217902   0.632   3.799   0.172 -1.0132 -0.5273  1.6605
 5980TIP3   OH217903   3.541   6.439   1.987  0.7992 -0.0906  0.5029
 5980TIP3    H117904   3.595   6.491   1.928  1.4723 -2.2360 -0.8977
 5980TIP3    H217905   3.452   6.445   1.951  1.3208 -1.9614 -1.2757
 5981TIP3   OH217906   5.691   2.283   3.967 -0.3835  0.2038  0.2083
 5981TIP3    H117907   5.691   2.189   3.950  2.4458  0.1781 -0.2030
 5981TIP3    H217908   5.737   2.321   3.892 -0.0631  1.7320  1.1276
 5982TIP3   OH217909   5.110   4.593   0.125  0.1920  0.0708 -0.2667
 5982TIP3    H117910   5.063   4.666   0.085 -0.6037 -0.8912 -1.1056
 5982TIP3    H217911   5.162   4.556   0.054 -1.3690 -1.7589 -0.5221
 5983TIP3   OH217912   4.363   2.092   3.311  0.0924 -0.0750 -0.0235
 5983TIP3    H117913   4.273   2.070   3.333  0.6727 -1.3603  1.1795
 5983TIP3    H217914   4.392   2.021   3.254  0.7331 -0.3170  0.5999
 5984TIP3   OH217915   5.887   1.630   4.116 -0.3079 -0.2868 -1.1548
 5984TIP3    H117916   5.854   1.541   4.114 -0.8639 -0.1639  0.4177
 5984TIP3    H217917   5.971   1.627   4.070  0.3228 -1.9177  0.0272
 5985TIP3   OH217918   5.351   3.415   0.444 -0.3134  0.1053  0.1981
 5985TIP3    H117919   5.348   3.327   0.482 -1.5283  1.1953  2.8607
 5985TIP3    H217920   5.259   3.440   0.433  0.0017  0.3125 -2.5247
 5986TIP3   OH217921   0.178   3.543   5.328 -0.2221 -0.2137 -0.1552
 5986TIP3    H117922   0.222   3.527   5.412 -0.1022 -0.6325 -0.3014
 5986TIP3    H217923   0.108   3.604   5.351  0.9811  1.1971 -0.0780
 5987TIP3   OH217924   2.385   2.326   3.446 -0.0236  0.1483 -0.3021
 5987TIP3    H117925   2.456   2.274   3.482  0.0657  0.1820 -0.4312
 5987TIP3    H217926   2.415   2.417   3.454  0.7595  0.0730 -2.1071
 5988TIP3   OH217927   0.621   5.980   0.141 -0.5788  0.1957 -0.1677
 5988TIP3    H117928   0.621   5.929   0.222  0.7439  0.4600  0.0220
 5988TIP3    H217929   0.556   6.048   0.155 -0.7846 -0.1248  0.4367
 5989TIP3   OH217930   4.417   5.496   3.445  0.1194  0.1611 -0.1854
 5989TIP3    H117931   4.462   5.489   3.530  0.0769  0.9442 -0.0918
 5989TIP3    H217932   4.332   5.454   3.460  0.2542 -0.0286  0.0567
 5990TIP3   OH217933   3.868   0.569   0.346 -0.3464 -0.1011  0.2000
 5990TIP3    H117934   3.816   0.536   0.419 -1.0977  1.6452  0.4955
 5990TIP3    H217935   3.834   0.523   0.269 -0.6668 -0.7406  0.7105
 5991TIP3   OH217936   4.453   2.851   2.048 -0.4118  0.0893  0.2991
 5991TIP3    H117937   4.364   2.873   2.024 -0.2415  0.2820 -0.1708
 5991TIP3    H217938   4.463   2.759   2.022 -0.4535  0.0854  0.2972
 5992TIP3   OH217939   0.307   4.163   4.909 -0.8268 -0.2167 -0.0886
 5992TIP3    H117940   0.223   4.207   4.918 -1.1895 -1.2808  2.4012
 5992TIP3    H217941   0.369   4.220   4.954 -0.6488 -0.5593  0.1031
 5993TIP3   OH217942   0.195   1.022   3.351 -0.1256 -0.1119  0.2262
 5993TIP3    H117943   0.260   1.032   3.420 -0.1167  0.2714  0.1646
 5993TIP3    H217944   0.243   0.980   3.279 -0.0450 -0.1829  0.3207
 5994TIP3   OH217945   1.836   2.936   5.407  0.1983  0.2042  0.5296
 5994TIP3    H117946   1.801   2.858   5.450  0.0159  1.5142  2.9915
 5994TIP3    H217947   1.931   2.926   5.413  0.1875  0.6574  1.9506
 5995TIP3   OH217948   5.316   3.262   5.139  0.6742  0.0309 -0.0127
 5995TIP3    H117949   5.250   3.229   5.078 -1.6981 -0.8585  2.8031
 5995TIP3    H217950   5.291   3.353   5.155 -0.4569 -0.5240  1.6433
 5996TIP3   OH217951   5.164   3.072   5.329  0.2434 -0.0139  0.4168
 5996TIP3    H117952   5.183   3.110   5.243 -0.8096 -0.0999  0.1313
 5996TIP3    H217953   5.183   2.978   5.319  0.3246  0.0114  0.3373
 5997TIP3   OH217954   4.547   3.471   3.535  0.0667  0.2969  1.1020
 5997TIP3    H117955   4.578   3.382   3.551  0.3951  0.4681  1.4606
 5997TIP3    H217956   4.479   3.485   3.600 -0.0731  0.2626  0.9624
 5998TIP3   OH217957   1.012   1.568   4.015 -0.2563  1.2080  0.0243
 5998TIP3    H117958   1.073   1.509   4.061  0.4275  0.5970 -1.6136
 5998TIP3    H217959   0.931   1.518   4.007  0.4856  0.2133 -1.8371
 5999TIP3   OH217960  -0.006   4.600   3.417 -0.0631  0.2143 -0.0718
 5999TIP3    H117961   0.014   4.605   3.323  0.6362 -1.2762 -0.0297
 5999TIP3    H217962   0.077   4.575   3.458 -0.3146  1.0346  0.9849
 6000TIP3   OH217963   7.184   0.698   4.090  0.2059  0.5337  0.0771
 6000TIP3    H117964   7.131   0.635   4.140  0.5333  0.5514  0.4522
 6000TIP3    H217965   7.166   0.782   4.132 -0.8367  0.8244 -0.9161
 6001TIP3   OH217966   0.201   4.427   5.002 -0.3326  0.1607 -0.1414
 6001TIP3    H117967   0.164   4.497   4.948 -2.6423 -0.4810  0.4767
 6001TIP3    H217968   0.140   4.419   5.076  0.5340 -1.6608  0.4410
 6002TIP3   OH217969   6.954   2.562   5.810  0.4914 -0.0083  0.1152
 6002TIP3    H117970   6.990   2.649   5.824 -0.8430  0.7506 -0.9290
 6002TIP3    H217971   6.860   2.573   5.821  0.2446 -1.1722 -0.6907
 6003TIP3   OH217972   4.533   5.651   0.960 -0.0336  0.1851 -0.2259
 6003TIP3    H117973   4.575   5.655   1.046 -0.6870  1.4793  0.0585
 6003TIP3    H217974   4.484   5.569   0.961  0.9733 -0.4285  0.1421
 6004TIP3   OH217975   2.986   5.407   2.746 -0.5139  0.0212 -0.2214
 6004TIP3    H117976   3.072   5.441   2.772 -0.9537  1.4734 -0.5687
 6004TIP3    H217977   2.933   5.413   2.826 -0.9121  1.2727 -0.5631
 6005TIP3   OH217978   4.498   3.497   1.749 -0.3175  0.5358  0.3005
 6005TIP3    H117979   4.531   3.459   1.667 -1.2750  0.1473  0.0808
 6005TIP3    H217980   4.563   3.563   1.772  1.7330 -1.6055  1.0199
 6006TIP3   OH217981   2.962   0.596   3.675 -0.4805  0.6063 -0.1803
 6006TIP3    H117982   2.894   0.654   3.710 -1.1345  1.0427 -2.0656
 6006TIP3    H217983   2.914   0.530   3.625  0.3825 -0.2787  0.1251
 6007TIP3   OH217984   2.969   2.596   4.449  0.3969 -0.6264  0.1865
 6007TIP3    H117985   2.934   2.507   4.442 -1.8744  0.1721  0.4139
 6007TIP3    H217986   2.924   2.645   4.380  0.8871  0.5635  0.6786
 6008TIP3   OH217987   2.313   5.640   4.934 -0.1537  0.4467  0.6011
 6008TIP3    H117988   2.362   5.706   4.884  0.8411  0.5862  1.6960
 6008TIP3    H217989   2.221   5.659   4.916  0.1136  2.0070  0.7145
 6009TIP3   OH217990   6.834   4.273   3.615 -0.1222 -0.3400  0.2855
 6009TIP3    H117991   6.783   4.279   3.696 -0.5397  1.8164 -0.0617
 6009TIP3    H217992   6.924   4.291   3.642 -0.1856 -0.1369  0.3705
 6010TIP3   OH217993   0.499   2.455   4.788  0.3958  0.0031  0.1647
 6010TIP3    H117994   0.463   2.445   4.876 -2.2790 -1.3835 -0.9499
 6010TIP3    H217995   0.527   2.367   4.764  0.6763  0.2833 -0.5563
 6011TIP3   OH217996   5.746   3.363   2.587 -0.2185 -0.2709  0.1444
 6011TIP3    H117997   5.655   3.335   2.574  0.1064 -0.7772 -1.1769
 6011TIP3    H217998   5.798   3.298   2.540  0.6761  1.3115 -1.1773
 6012TIP3   OH217999   2.857   4.127   5.407  0.5316  0.0709 -0.5672
 6012TIP3    H118000   2.901   4.208   5.383 -1.0403  0.8601 -0.9304
 6012TIP3    H218001   2.852   4.077   5.325 -0.4336  0.5955 -0.8499
 6013TIP3   OH218002   0.255   6.716   0.472 -0.0341 -0.2546 -0.2090
 6013TIP3    H118003   0.233   6.630   0.506 -0.7043 -0.6317 -1.5382
 6013TIP3    H218004   0.310   6.698   0.395  1.7658  0.5779  0.8307
 6014TIP3   OH218005   4.307   1.793   2.002 -0.1814  0.1639 -0.1959
 6014TIP3    H118006   4.386   1.739   1.993  0.0108  0.3289  0.4719
 6014TIP3    H218007   4.294   1.831   1.915  1.9852  2.2000  0.2639
 6015TIP3   OH218008   2.222   1.472   4.910  0.2021 -0.0836 -0.1052
 6015TIP3    H118009   2.228   1.378   4.894  0.1127 -0.0533 -0.3166
 6015TIP3    H218010   2.294   1.509   4.858  0.6513 -0.0955  0.4945
 6016TIP3   OH218011   5.469   2.012   2.054 -0.4741 -0.0853 -0.0810
 6016TIP3    H118012   5.539   2.032   2.116 -0.1082 -0.4071 -0.3909
 6016TIP3    H218013   5.394   1.988   2.109 -0.6237  1.1194  0.2820
 6017TIP3   OH218014   4.103   4.229   2.202 -0.2305  0.3191 -0.0566
 6017TIP3    H118015   4.026   4.176   2.224  1.8603 -2.5066  1.0031
 6017TIP3    H218016   4.107   4.226   2.106 -2.0497  1.6206 -0.2499
 6018TIP3   OH218017   4.040   0.138   2.528  0.2167  0.5848 -1.4268
 6018TIP3    H118018   4.130   0.104   2.527  0.1832  0.4562 -0.7176
 6018TIP3    H218019   3.986   0.063   2.551  0.1349  1.0744  0.0693
 6019TIP3   OH218020   4.715   4.601   5.431  0.2853 -0.2889  0.0093
 6019TIP3    H118021   4.652   4.622   5.362  1.9056  1.3521 -1.0625
 6019TIP3    H218022   4.788   4.561   5.385  0.5090 -1.1757  1.0980
 6020TIP3   OH218023   6.338   6.692   1.257 -0.5999 -0.7788 -0.2597
 6020TIP3    H118024   6.411   6.695   1.318 -1.8181 -0.7035  1.2654
 6020TIP3    H218025   6.344   6.773   1.206  0.4277 -0.8402 -0.2421
 6021TIP3   OH218026   2.300   5.627   3.072 -0.4177 -0.1699  0.4797
 6021TIP3    H118027   2.336   5.708   3.037 -0.7409 -0.8503 -1.5100
 6021TIP3    H218028   2.223   5.610   3.019 -0.4909 -1.6666  1.0218
 6022TIP3   OH218029   3.734   5.558   0.234 -0.7213  0.0441  0.0379
 6022TIP3    H118030   3.747   5.582   0.326  1.2789 -0.9823  0.0726
 6022TIP3    H218031   3.691   5.635   0.196  0.1827  1.3074  1.4145
 6023TIP3   OH218032   1.814   3.818   5.661 -0.1942 -0.0990  0.1403
 6023TIP3    H118033   1.778   3.806   5.573 -0.9370  1.4314  0.1911
 6023TIP3    H218034   1.787   3.741   5.710 -0.0136 -0.8320 -0.8924
 6024TIP3   OH218035   4.535   5.537   3.194 -0.2442  0.4027  0.2974
 6024TIP3    H118036   4.564   5.545   3.285  0.8831 -0.6090  0.0494
 6024TIP3    H218037   4.440   5.526   3.199 -0.1560  0.0836  1.3607
 6025TIP3   OH218038   6.305   4.498   5.036 -0.6610 -0.4204 -0.4488
 6025TIP3    H118039   6.213   4.483   5.053 -0.8050  0.8025 -0.0521
 6025TIP3    H218040   6.310   4.589   5.008  0.4986 -0.2688  0.1569
 6026TIP3   OH218041   1.127   4.020   5.871  0.2710 -0.2001 -0.2482
 6026TIP3    H118042   1.217   4.038   5.899 -0.1824  0.0747  1.1225
 6026TIP3    H218043   1.079   4.100   5.892 -0.2238 -0.1828 -1.3815
 6027TIP3   OH218044   6.783   0.274   2.112  0.1199  0.1372  0.4976
 6027TIP3    H118045   6.841   0.349   2.127 -0.2657  0.4501  0.4360
 6027TIP3    H218046   6.744   0.290   2.026 -0.8053  0.4364  0.9596
 6028TIP3   OH218047   1.995   1.363   5.319  0.3041 -0.2190 -0.3520
 6028TIP3    H118048   2.083   1.335   5.344  0.2006 -0.8317 -0.6518
 6028TIP3    H218049   2.009   1.442   5.267  0.8059 -1.1910 -1.7633
 6029TIP3   OH218050   1.689   6.216   5.827 -0.6420 -0.4853 -0.6587
 6029TIP3    H118051   1.743   6.137   5.831  0.8834  0.5592  1.5353
 6029TIP3    H218052   1.741   6.279   5.778 -0.6948 -0.0469 -0.1614
 6030TIP3   OH218053   4.616   1.972   5.009  0.1754  0.5973  0.0008
 6030TIP3    H118054   4.634   1.937   4.922  0.6884  0.8460 -0.0001
 6030TIP3    H218055   4.528   1.940   5.031  0.0621  0.4983 -0.5874
 6031TIP3   OH218056   4.214   2.847   0.023  0.3743  0.0560 -0.2771
 6031TIP3    H118057   4.169   2.795   0.090 -1.7432  1.0584 -0.8366
 6031TIP3    H218058   4.275   2.902   0.073 -1.3111  0.9423  0.9040
 6032TIP3   OH218059   1.032   5.811   1.715  0.2339 -0.1110  0.5127
 6032TIP3    H118060   1.044   5.858   1.797  0.3419  1.0924 -0.1654
 6032TIP3    H218061   1.114   5.824   1.667  1.1318 -2.8086  1.1377
 6033TIP3   OH218062   4.479   1.857   4.428 -0.1005 -0.0033  0.1680
 6033TIP3    H118063   4.574   1.856   4.437 -0.1246 -0.1196  0.4147
 6033TIP3    H218064   4.453   1.947   4.448  0.0887  0.3924 -1.2757
 6034TIP3   OH218065   2.895   6.626   3.125 -0.1849 -0.1998  0.0243
 6034TIP3    H118066   2.966   6.573   3.160  1.3417  0.9173 -1.2777
 6034TIP3    H218067   2.818   6.600   3.177  0.9615 -2.0381  0.8991
 6035TIP3   OH218068   0.048   1.034   3.815 -0.7704 -0.2345  0.1476
 6035TIP3    H118069  -0.032   1.077   3.844 -0.7275 -0.1533  0.1454
 6035TIP3    H218070   0.107   1.039   3.891  0.6300  3.0632 -0.9934
 6036TIP3   OH218071   6.632   4.483   1.581  0.2828  0.7081  0.5550
 6036TIP3    H118072   6.604   4.563   1.536  2.3733  0.6123 -1.0518
 6036TIP3    H218073   6.565   4.418   1.559 -1.0961  1.8125  1.3544
 6037TIP3   OH218074   2.590   0.276   5.172 -0.5899 -0.2284  0.4620
 6037TIP3    H118075   2.514   0.235   5.130  0.7855 -1.5630 -0.8021
 6037TIP3    H218076   2.581   0.369   5.151 -1.1764 -0.5581 -0.8389
 6038TIP3   OH218077   5.373   2.527   4.349 -0.2969  0.1594 -0.5058
 6038TIP3    H118078   5.311   2.474   4.299 -0.0341  0.1472 -0.8208
 6038TIP3    H218079   5.445   2.543   4.288 -0.1496  0.4630 -0.2516
 6039TIP3   OH218080   6.379   6.032   4.485  0.2567 -0.3209 -0.5190
 6039TIP3    H118081   6.297   6.080   4.492  1.6095  1.9511  1.4124
 6039TIP3    H218082   6.447   6.101   4.481  2.2798 -1.9726  1.8504
 6040TIP3   OH218083   2.217   4.831   1.164  0.6573  0.1392 -0.5737
 6040TIP3    H118084   2.151   4.818   1.096  0.6701 -0.2604 -0.5093
 6040TIP3    H218085   2.174   4.802   1.244 -0.6350  3.7669  0.2471
 6041TIP3   OH218086   3.221   1.834   3.559 -0.0367  0.4861 -0.6187
 6041TIP3    H118087   3.257   1.753   3.523 -0.6540  1.0560 -2.6704
 6041TIP3    H218088   3.260   1.903   3.504  1.1576  1.6997  1.6181
 6042TIP3   OH218089   2.029   4.037   4.746  0.0825  0.0550  0.0795
 6042TIP3    H118090   2.091   3.992   4.803 -1.2219  0.0464  1.5441
 6042TIP3    H218091   2.071   4.036   4.660  1.4099 -1.3012  0.6975
 6043TIP3   OH218092   5.654   5.610   2.534 -0.1001 -0.5357 -1.1281
 6043TIP3    H118093   5.698   5.553   2.472  4.6429  1.1242  0.2691
 6043TIP3    H218094   5.701   5.597   2.616 -0.5447  3.2915 -0.0685
 6044TIP3   OH218095   7.207   4.445   5.190 -0.1452  0.3118 -0.3834
 6044TIP3    H118096   7.216   4.536   5.217 -0.2772 -0.0884  1.1210
 6044TIP3    H218097   7.116   4.438   5.160  0.1240  0.8638 -1.3897
 6045TIP3   OH218098   0.333   0.338   1.351 -0.2722 -0.6017 -0.4575
 6045TIP3    H118099   0.389   0.309   1.279 -1.2936 -0.2095 -1.4334
 6045TIP3    H218100   0.338   0.434   1.348 -0.4933 -0.5798 -0.1386
 6046TIP3   OH218101   4.572   5.081   5.324 -0.2877  0.0140 -0.0676
 6046TIP3    H118102   4.648   5.024   5.312 -2.0435 -2.7643  1.0550
 6046TIP3    H218103   4.604   5.155   5.375  1.7159 -0.9404  0.1168
 6047TIP3   OH218104   1.359   1.368   1.277  0.3199 -0.3774  0.8680
 6047TIP3    H118105   1.377   1.435   1.210 -0.7461  0.4083  1.3446
 6047TIP3    H218106   1.283   1.321   1.244  0.7126 -0.9949  0.8184
 6048TIP3   OH218107   2.122   3.954   0.195 -0.7809 -0.4363  0.7311
 6048TIP3    H118108   2.116   4.028   0.254 -1.0833 -0.3260  0.5659
 6048TIP3    H218109   2.065   3.887   0.233 -0.5673 -0.5561  0.8406
 6049TIP3   OH218110   6.691   1.807   1.207 -0.2662 -0.4703 -0.6511
 6049TIP3    H118111   6.660   1.873   1.145  0.6061  0.4659 -0.1072
 6049TIP3    H218112   6.783   1.794   1.185  0.0626 -0.1114  0.4493
 6050TIP3   OH218113   3.562   6.128   3.568  0.1791 -0.7253  0.3428
 6050TIP3    H118114   3.467   6.134   3.562  0.1315 -2.3658 -1.8339
 6050TIP3    H218115   3.594   6.173   3.489  1.0010 -2.6587 -0.4980
 6051TIP3   OH218116   0.726   3.040   4.116 -0.1015  0.3475  0.1083
 6051TIP3    H118117   0.717   2.990   4.035 -0.5635  1.0855 -0.3069
 6051TIP3    H218118   0.782   3.115   4.092 -0.0316  0.4352  0.5307
 6052TIP3   OH218119   6.547   5.996   0.249  0.1584 -0.0658  0.3812
 6052TIP3    H118120   6.629   5.949   0.266 -0.4877 -1.1700  0.5255
 6052TIP3    H218121   6.489   5.971   0.321 -0.4303  0.4027  0.0799
 6053TIP3   OH218122   4.323   0.362   5.420 -0.2580  0.1137 -0.6109
 6053TIP3    H118123   4.396   0.421   5.403 -1.2877  1.5056 -0.3307
 6053TIP3    H218124   4.294   0.333   5.334  0.3625 -0.1311 -0.7407
 6054TIP3   OH218125   4.637   2.751   2.636  0.2553 -0.2744 -0.0027
 6054TIP3    H118126   4.713   2.783   2.587 -1.1312 -0.3529 -2.3312
 6054TIP3    H218127   4.580   2.828   2.645  0.2517 -0.3903  1.0638
 6055TIP3   OH218128   5.833   3.488   5.740 -0.1145  0.3758 -0.0459
 6055TIP3    H118129   5.740   3.482   5.762 -0.3862  1.8901 -0.6673
 6055TIP3    H218130   5.877   3.433   5.806 -1.4510 -0.5479  0.1051
 6056TIP3   OH218131   4.840   2.531   3.286  0.0553 -0.1335 -0.9845
 6056TIP3    H118132   4.746   2.522   3.269 -0.2090  1.3222 -0.4119
 6056TIP3    H218133   4.881   2.502   3.205 -1.0039  2.1613 -2.4412
 6057TIP3   OH218134   5.921   6.644   5.795 -0.2067  0.1890  0.0821
 6057TIP3    H118135   5.850   6.591   5.759  0.8025 -0.8344 -0.4739
 6057TIP3    H218136   5.976   6.664   5.719  0.3860  0.5206  0.5926
 6058TIP3   OH218137   2.702  -0.009   2.610  0.6088 -0.1294  0.0917
 6058TIP3    H118138   2.798  -0.014   2.608  0.5962 -0.4113  0.0725
 6058TIP3    H218139   2.678   0.030   2.527  0.6445 -1.3269 -0.5073
 6059TIP3   OH218140   3.701   2.868   5.647  0.3969  0.3239 -0.0786
 6059TIP3    H118141   3.641   2.933   5.610 -1.8162 -0.4768  1.8045
 6059TIP3    H218142   3.786   2.911   5.650 -0.7041  2.6334 -0.1544
 6060TIP3   OH218143   3.402   4.889   3.138 -0.1634  0.3261 -0.1365
 6060TIP3    H118144   3.489   4.861   3.166 -0.1137  0.9458  0.3561
 6060TIP3    H218145   3.356   4.909   3.219  0.2399  2.9233 -0.4667
 6061TIP3   OH218146   4.917   5.949   4.632 -0.2073 -0.1987  0.5312
 6061TIP3    H118147   4.873   5.943   4.716  1.6077 -1.1958  1.4621
 6061TIP3    H218148   4.851   5.985   4.573 -2.4453 -2.1203  1.7035
 6062TIP3   OH218149   2.089   3.717   4.613  0.3070 -0.4213 -0.0621
 6062TIP3    H118150   2.128   3.770   4.682  1.6817 -0.4398 -0.7657
 6062TIP3    H218151   2.107   3.766   4.533 -1.3144 -0.3676 -0.4166
 6063TIP3   OH218152   2.938   1.032   4.330  0.2749 -0.2870  0.3466
 6063TIP3    H118153   2.994   1.102   4.296 -0.4289  0.2492  0.2681
 6063TIP3    H218154   2.970   0.952   4.289  0.4375  0.1363 -0.3508
 6064TIP3   OH218155   1.617   1.059   5.236 -0.6304  0.0736 -0.7450
 6064TIP3    H118156   1.703   1.100   5.248 -0.7550 -0.1097  1.0253
 6064TIP3    H218157   1.636   0.973   5.199  0.0952 -0.5287  0.9272
 6065TIP3   OH218158   6.893   5.146   5.447  0.2222 -0.1324  0.3247
 6065TIP3    H118159   6.864   5.237   5.436 -0.9013 -0.6397 -1.3002
 6065TIP3    H218160   6.983   5.146   5.415  0.3132  0.4460  0.5646
 6066TIP3   OH218161   2.830   4.535   2.247 -0.6254 -0.6233 -0.3001
 6066TIP3    H118162   2.847   4.557   2.155 -0.2891  1.2768  0.1804
 6066TIP3    H218163   2.742   4.499   2.247 -0.1608 -1.8636 -1.5328
 6067TIP3   OH218164   1.444   0.455   3.713 -0.6513 -0.2431  0.0511
 6067TIP3    H118165   1.416   0.522   3.775 -1.9646 -1.1764  0.5027
 6067TIP3    H218166   1.471   0.381   3.768  2.4338  0.4261 -0.3642
 6068TIP3   OH218167   4.322   5.695   4.288 -0.0785 -0.4747 -0.0711
 6068TIP3    H118168   4.309   5.771   4.345  0.0476  1.0153 -1.8940
 6068TIP3    H218169   4.410   5.708   4.253 -0.6035 -0.6464 -1.5124
 6069TIP3   OH218170   5.968   2.989   3.970 -0.4359 -0.0391 -0.2082
 6069TIP3    H118171   6.051   3.017   3.931 -0.0328 -0.7315  0.1328
 6069TIP3    H218172   5.941   2.914   3.916  0.9779 -2.0939  1.7735
 6070TIP3   OH218173   3.869   6.056   1.383 -0.2317 -1.0801  0.0758
 6070TIP3    H118174   3.842   6.089   1.297 -2.0477 -0.4247  0.8502
 6070TIP3    H218175   3.933   5.988   1.363  1.1419  0.6094 -1.7011
 6071TIP3   OH218176   2.519   4.858   3.623 -0.1910 -0.3401 -0.5443
 6071TIP3    H118177   2.490   4.779   3.576  1.0205 -0.2751 -1.4667
 6071TIP3    H218178   2.601   4.882   3.580 -1.3839  2.4673 -1.4774
 6072TIP3   OH218179   3.338   6.141   4.636 -0.2640 -0.1580 -0.0338
 6072TIP3    H118180   3.413   6.189   4.672 -0.2762 -0.4970  0.4464
 6072TIP3    H218181   3.359   6.130   4.543  0.2205 -0.1356  0.0713
 6073TIP3   OH218182   5.622   2.546   0.530 -0.1476  0.2985 -0.6223
 6073TIP3    H118183   5.653   2.577   0.615 -1.0303  0.3332 -0.2995
 6073TIP3    H218184   5.686   2.580   0.467  0.8280 -0.1971  0.0720
 6074TIP3   OH218185   6.207   5.385   4.852  0.3340  0.5342  0.3459
 6074TIP3    H118186   6.288   5.354   4.810  0.3058  1.4111 -0.3806
 6074TIP3    H218187   6.182   5.462   4.801 -1.6196 -0.4135 -0.2204
 6075TIP3   OH218188   1.200   6.524   5.810  0.5537  0.3125  0.4680
 6075TIP3    H118189   1.157   6.594   5.859 -0.8710  0.7497 -1.2922
 6075TIP3    H218190   1.162   6.444   5.845  0.9980  0.4905  1.3892
 6076TIP3   OH218191   2.265   2.262   4.290  0.4530 -0.1158 -0.3168
 6076TIP3    H118192   2.197   2.328   4.298  0.2490 -0.1632 -1.4851
 6076TIP3    H218193   2.233   2.201   4.224  0.9027 -1.0677  0.3101
 6077TIP3   OH218194   1.780   0.183   0.664 -0.0222 -0.4318 -0.3619
 6077TIP3    H118195   1.839   0.187   0.589 -0.2566  0.8612 -0.4880
 6077TIP3    H218196   1.707   0.240   0.641 -2.7153 -3.8618 -1.3368
 6078TIP3   OH218197   5.678   5.222   3.598  0.3950 -0.2167 -0.0107
 6078TIP3    H118198   5.679   5.208   3.693  1.0235  0.3951  0.0791
 6078TIP3    H218199   5.614   5.158   3.566  0.2984 -0.5510  0.8010
 6079TIP3   OH218200   6.856   5.494   4.088 -0.8396  0.0652  0.5463
 6079TIP3    H118201   6.831   5.436   4.160 -0.2534 -0.5972  0.2330
 6079TIP3    H218202   6.905   5.438   4.028 -0.9465  0.7099 -0.1579
 6080TIP3   OH218203   4.741   1.659   0.850 -0.3470  0.1841  0.0620
 6080TIP3    H118204   4.674   1.631   0.787 -1.9897  0.4441  1.5808
 6080TIP3    H218205   4.774   1.577   0.887 -1.9600  0.0400  1.3347
 6081TIP3   OH218206   0.635   2.588   4.415  0.1401  0.1921  0.1260
 6081TIP3    H118207   0.625   2.639   4.335 -2.4107  1.2016  0.9953
 6081TIP3    H218208   0.724   2.552   4.409  1.3934  3.1357 -1.4536
 6082TIP3   OH218209   1.840   4.449   4.210  0.0597 -0.1539  0.3732
 6082TIP3    H118210   1.769   4.386   4.225  1.4066 -1.8168  0.1276
 6082TIP3    H218211   1.904   4.430   4.279  0.9151  0.2942 -0.2745
 6083TIP3   OH218212   3.567   4.590   3.416  0.1053 -0.3476  0.1851
 6083TIP3    H118213   3.567   4.586   3.512 -1.8094  1.3759  0.3216
 6083TIP3    H218214   3.600   4.504   3.389  1.6934 -0.5170  2.3620
 6084TIP3   OH218215   1.563   1.036   2.156  0.0660  0.2700 -0.2664
 6084TIP3    H118216   1.571   1.024   2.251  2.2548 -1.9217 -0.6307
 6084TIP3    H218217   1.643   0.998   2.120 -1.1972  0.0393 -3.0823
 6085TIP3   OH218218   5.212   3.435   4.429 -0.0017 -0.2195  0.1803
 6085TIP3    H118219   5.248   3.479   4.507 -1.8820  0.4280  0.7271
 6085TIP3    H218220   5.117   3.440   4.440 -0.3138 -2.8108 -0.6795
 6086TIP3   OH218221   5.795   5.462   3.570  0.0781 -0.2789  0.0791
 6086TIP3    H118222   5.786   5.456   3.475  2.2629 -0.9450 -0.1518
 6086TIP3    H218223   5.744   5.389   3.604 -0.2201 -0.4060 -0.6193
 6087TIP3   OH218224   6.818   2.954   3.153 -0.4778  0.6122 -0.2988
 6087TIP3    H118225   6.761   2.987   3.084 -1.7501  1.0467  0.9200
 6087TIP3    H218226   6.877   3.027   3.172  0.1696  0.3445 -1.1869
 6088TIP3   OH218227   1.299   0.203   0.996  0.0084 -0.4134 -0.3768
 6088TIP3    H118228   1.237   0.203   0.923  0.6195  2.5179 -1.0283
 6088TIP3    H218229   1.380   0.239   0.959  0.8120 -0.2643  1.4209
 6089TIP3   OH218230   4.726   1.197   2.965 -0.3838  0.5432 -0.3330
 6089TIP3    H118231   4.786   1.241   2.905 -0.4591  2.0732  0.6520
 6089TIP3    H218232   4.643   1.194   2.918  0.0590 -0.1714 -1.0945
 6090TIP3   OH218233   1.874   6.103   3.121  0.2967  0.1685  0.2392
 6090TIP3    H118234   1.917   6.159   3.055  1.8288 -0.0560  1.0006
 6090TIP3    H218235   1.922   6.021   3.117 -1.3898 -0.8457 -0.2577
 6091TIP3   OH218236   5.899   2.298   1.012  0.1699  0.1525 -0.2115
 6091TIP3    H118237   5.821   2.245   0.997  0.2193  0.4436 -1.6366
 6091TIP3    H218238   5.868   2.372   1.064  0.1478 -1.3303  2.0328
 6092TIP3   OH218239   0.881   1.211   0.602  0.2005  0.3504  0.3796
 6092TIP3    H118240   0.889   1.304   0.582  1.6010 -0.3381 -2.8843
 6092TIP3    H218241   0.945   1.168   0.545 -0.5675 -2.6554  1.5798
 6093TIP3   OH218242   1.140   3.443   2.472 -0.0579 -0.1371 -0.2270
 6093TIP3    H118243   1.107   3.353   2.464 -0.3604  0.0351 -1.0104
 6093TIP3    H218244   1.062   3.497   2.481  0.1605 -0.0402  1.3867
 6094TIP3   OH218245   2.079   2.421   4.898  0.0678  0.0210  0.2881
 6094TIP3    H118246   2.078   2.464   4.812  0.1281 -1.6531 -0.6040
 6094TIP3    H218247   1.994   2.442   4.936 -1.1352 -1.4346 -1.4147
 6095TIP3   OH218248   0.759   4.740   5.351 -0.5378  0.2889  0.1623
 6095TIP3    H118249   0.697   4.702   5.414 -0.2893  1.0385  0.8792
 6095TIP3    H218250   0.768   4.674   5.283 -0.8084 -0.5503  0.9257
 6096TIP3   OH218251   6.041   6.334   5.086 -0.2204  0.2328 -0.3040
 6096TIP3    H118252   6.095   6.404   5.049 -0.5014  0.7669  0.2767
 6096TIP3    H218253   5.959   6.339   5.037 -0.3500  0.5083 -0.0615
 6097TIP3   OH218254   2.652   3.532   4.114  0.1236 -0.2254  0.2807
 6097TIP3    H118255   2.652   3.436   4.109  0.8485 -0.1725 -1.9001
 6097TIP3    H218256   2.619   3.561   4.029  0.7840  1.4674  0.5523
 6098TIP3   OH218257   2.632   0.056   3.798  0.3848 -0.3523  0.2365
 6098TIP3    H118258   2.638  -0.040   3.798  0.6684 -0.3367  0.6330
 6098TIP3    H218259   2.561   0.075   3.737 -0.6689 -0.8873  1.2605
 6099TIP3   OH218260   0.781   0.962   1.108 -0.3885 -0.1268  0.2345
 6099TIP3    H118261   0.847   0.932   1.171 -0.0450  0.2212  0.0390
 6099TIP3    H218262   0.755   0.882   1.062  0.0209 -0.2394  0.1946
 6100TIP3   OH218263   7.154   5.464   1.116 -0.4818 -0.0032 -0.7106
 6100TIP3    H118264   7.124   5.526   1.183  1.7692  0.5394 -0.1375
 6100TIP3    H218265   7.197   5.394   1.165 -0.8488 -0.8046 -1.4998
 6101TIP3   OH218266   4.316   6.126   1.003  0.0930 -0.2049 -0.5598
 6101TIP3    H118267   4.322   6.130   0.908  0.6660 -1.1811 -0.5812
 6101TIP3    H218268   4.356   6.041   1.026  1.2343  0.6079  0.6412
 6102TIP3   OH218269   5.503   3.508   3.581  0.3783  0.0291  0.0235
 6102TIP3    H118270   5.586   3.461   3.589  0.6710  0.8109  2.4716
 6102TIP3    H218271   5.528   3.597   3.556  0.1664 -0.0249 -0.3918
 6103TIP3   OH218272   6.790   3.143   4.852 -0.2959  0.2251 -0.0220
 6103TIP3    H118273   6.810   3.129   4.945 -0.2092 -0.6234 -0.1646
 6103TIP3    H218274   6.805   3.237   4.839  1.8009  0.0002  0.3246
 6104TIP3   OH218275   6.697   2.393   1.382  0.1087  0.2113 -0.0918
 6104TIP3    H118276   6.652   2.389   1.298 -0.2611  0.0760  0.1096
 6104TIP3    H218277   6.768   2.455   1.368  1.7471 -1.8127 -1.2989
 6105TIP3   OH218278   6.298   5.629   1.835  0.0477  0.4558 -0.3887
 6105TIP3    H118279   6.360   5.673   1.776  1.0655 -0.1564  0.1983
 6105TIP3    H218280   6.344   5.624   1.918 -0.7298 -0.1843  0.0089
 6106TIP3   OH218281   4.056   2.712   3.200  0.0364  0.0348 -0.0867
 6106TIP3    H118282   3.991   2.654   3.239  2.2319 -1.7132  1.2180
 6106TIP3    H218283   4.096   2.659   3.131  0.3818  0.9103 -0.5696
 6107TIP3   OH218284   2.589   5.289   4.304  0.1990 -0.3801 -0.2784
 6107TIP3    H118285   2.576   5.196   4.317  0.3471 -0.2113  1.2095
 6107TIP3    H218286   2.521   5.314   4.241 -0.4392 -1.3089  0.0220
 6108TIP3   OH218287   6.270   4.587   3.662 -0.0412  0.2127 -0.0328
 6108TIP3    H118288   6.318   4.517   3.706 -1.5952 -1.1315 -0.3696
 6108TIP3    H218289   6.190   4.598   3.714 -0.0258  1.4489 -0.2369
 6109TIP3   OH218290   6.187   3.858   0.737 -0.3964  0.0891 -0.4005
 6109TIP3    H118291   6.256   3.794   0.756 -0.1651  0.0175 -1.3775
 6109TIP3    H218292   6.108   3.805   0.728 -0.2027 -0.0787 -1.2220
 6110TIP3   OH218293   5.667   6.042   2.194  0.0388 -0.3187 -0.2526
 6110TIP3    H118294   5.614   6.054   2.115  0.0510  1.0575 -0.0760
 6110TIP3    H218295   5.647   5.953   2.223 -1.4157 -0.1856 -0.7509
 6111TIP3   OH218296   2.116   1.425   2.063  0.7003 -0.5177 -0.0299
 6111TIP3    H118297   2.064   1.351   2.094 -0.6577  0.4044 -0.0177
 6111TIP3    H218298   2.051   1.487   2.029  1.8816  0.1794 -1.0937
 6112TIP3   OH218299   6.385   5.245   4.618  0.6678  0.2477 -0.3393
 6112TIP3    H118300   6.432   5.281   4.693 -0.9965  1.3489  0.2398
 6112TIP3    H218301   6.357   5.322   4.568 -0.6793 -0.3387 -0.5286
 6113TIP3   OH218302   6.163   5.059   1.516 -0.2658 -0.1059 -0.0444
 6113TIP3    H118303   6.252   5.029   1.533  0.8320  3.0917  0.5501
 6113TIP3    H218304   6.174   5.148   1.483 -3.2763  1.5148  2.7586
 6114TIP3   OH218305   3.611   4.409   5.615 -0.1392 -0.3224  0.0974
 6114TIP3    H118306   3.548   4.352   5.571 -2.2030  0.8379  1.3995
 6114TIP3    H218307   3.606   4.492   5.567 -0.9471  0.3330  1.2865
 6115TIP3   OH218308   5.476   4.326   3.691  0.0541  0.2569 -0.2379
 6115TIP3    H118309   5.460   4.264   3.620 -0.6818 -0.0809  0.2111
 6115TIP3    H218310   5.428   4.405   3.665 -0.4258  0.0461 -0.0025
 6116TIP3   OH218311   3.113   0.420   2.297 -0.2445 -0.1400  0.6541
 6116TIP3    H118312   3.070   0.505   2.297  0.2561  0.1229  0.3235
 6116TIP3    H218313   3.049   0.360   2.335  0.0294  0.6900  2.5440
 6117TIP3   OH218314   6.115   4.540   0.705 -0.7326 -0.0803 -0.1091
 6117TIP3    H118315   6.105   4.512   0.795 -0.1000 -0.1818 -0.0624
 6117TIP3    H218316   6.169   4.619   0.710  1.0999 -1.2371 -0.5153
 6118TIP3   OH218317   0.452   2.076   3.802 -0.2612 -0.2333  0.1428
 6118TIP3    H118318   0.533   2.039   3.767 -1.2189 -1.4111 -0.9461
 6118TIP3    H218319   0.429   2.019   3.875 -0.4511 -0.3278  0.0128
 6119TIP3   OH218320   5.640   1.950   0.441 -0.4020 -0.2862 -0.1435
 6119TIP3    H118321   5.701   2.000   0.494  0.0683 -0.6123 -0.3699
 6119TIP3    H218322   5.589   1.899   0.504  0.0520 -0.5617  0.0049
 6120TIP3   OH218323   4.909   0.976   4.621  0.1216  0.7167 -0.0836
 6120TIP3    H118324   4.899   0.980   4.526 -0.0853  1.4528 -0.0328
 6120TIP3    H218325   4.879   0.888   4.644  0.1048  0.5592 -0.6885
 6121TIP3   OH218326   0.333   0.686   1.114  0.5682  0.4311  1.1391
 6121TIP3    H118327   0.369   0.607   1.073 -2.6147 -0.4457 -0.3050
 6121TIP3    H218328   0.349   0.756   1.050 -0.9243 -0.1392  0.0733
 6122TIP3   OH218329   3.226   3.179   1.335 -0.0629 -0.6324 -0.2501
 6122TIP3    H118330   3.186   3.246   1.280 -0.3668 -0.1371  0.5571
 6122TIP3    H218331   3.316   3.210   1.348  0.1153 -0.9296 -0.7489
 6123TIP3   OH218332   5.224   5.274   1.880 -0.0316 -0.5476  0.0419
 6123TIP3    H118333   5.166   5.200   1.864 -0.0008 -1.0252  1.9705
 6123TIP3    H218334   5.300   5.257   1.824 -1.1173 -0.6094 -1.4753
 6124TIP3   OH218335   0.917   0.069   5.538 -0.3640  0.3214  0.1498
 6124TIP3    H118336   1.000   0.074   5.491  0.1424  0.1940  1.0258
 6124TIP3    H218337   0.873  -0.007   5.499  0.3164 -0.1544  0.2907
 6125TIP3   OH218338   2.623   4.234   3.362  0.0959 -0.0319  0.2402
 6125TIP3    H118339   2.693   4.189   3.409 -0.5786 -0.2540  1.0613
 6125TIP3    H218340   2.574   4.165   3.317 -0.4587 -0.0592  0.8560
 6126TIP3   OH218341   3.592   5.636   0.779  0.3524  0.0284  0.2582
 6126TIP3    H118342   3.616   5.604   0.866  0.1635  0.1339  0.3500
 6126TIP3    H218343   3.568   5.727   0.793  0.4538  0.0833  0.0718
 6127TIP3   OH218344   2.616   3.624   3.561 -0.4256 -0.6718 -0.0115
 6127TIP3    H118345   2.660   3.708   3.555 -0.5081 -0.5842  0.5436
 6127TIP3    H218346   2.527   3.645   3.587  0.2250 -1.0414  2.8603
 6128TIP3   OH218347   4.623   6.674   5.415  0.4898  0.0979 -0.2155
 6128TIP3    H118348   4.665   6.712   5.492  0.5923  0.3008 -0.3713
 6128TIP3    H218349   4.685   6.609   5.383  0.7870  0.5564 -0.5778
 6129TIP3   OH218350   2.498   3.650   2.356 -0.3677  0.3508  0.0147
 6129TIP3    H118351   2.465   3.561   2.344  0.2654  0.2515 -1.0451
 6129TIP3    H218352   2.478   3.695   2.273 -0.1238  1.0213  0.3088
 6130TIP3   OH218353   5.594   4.554   3.332 -0.2597 -0.1025  0.3459
 6130TIP3    H118354   5.647   4.616   3.282 -1.1735  0.4115 -0.0198
 6130TIP3    H218355   5.646   4.535   3.410  0.2433  0.7767  0.2348
 6131TIP3   OH218356   4.406   1.895   3.148  0.4024 -0.0678  0.2140
 6131TIP3    H118357   4.458   1.965   3.107 -1.7774  1.5287 -0.0089
 6131TIP3    H218358   4.389   1.833   3.078  2.7832 -1.2236  0.5244
 6132TIP3   OH218359   6.046   5.720   2.742  0.0262  0.2839  0.3367
 6132TIP3    H118360   6.117   5.659   2.763 -0.2708  0.0076  0.5659
 6132TIP3    H218361   5.998   5.729   2.824 -1.1618 -0.8221 -0.1925
 6133TIP3   OH218362   4.420   3.128   5.397 -0.3573 -0.1738  0.1649
 6133TIP3    H118363   4.370   3.197   5.354  0.1875  0.1872  0.0998
 6133TIP3    H218364   4.507   3.166   5.411 -0.3831 -0.4390  1.1730
 6134TIP3   OH218365   2.210   5.324   0.624 -0.3502  0.6255  0.1426
 6134TIP3    H118366   2.254   5.309   0.707 -0.5029  0.1545  0.1442
 6134TIP3    H218367   2.213   5.419   0.611  0.0903  0.6553  0.4543
 6135TIP3   OH218368   2.810   3.234   3.845  0.2467 -0.0716  0.2119
 6135TIP3    H118369   2.869   3.159   3.854  2.0321  1.3368  1.0972
 6135TIP3    H218370   2.773   3.245   3.933  1.9616  1.5094  0.8255
 6136TIP3   OH218371   5.170   6.587   1.065 -0.1887  0.0080  0.1368
 6136TIP3    H118372   5.143   6.514   1.009  1.0443  0.8420 -1.6193
 6136TIP3    H218373   5.090   6.635   1.082 -1.1512 -1.9982  1.8163
 6137TIP3   OH218374   4.580   0.801   3.953 -0.4022 -0.8271  0.5102
 6137TIP3    H118375   4.490   0.784   3.980  0.0746 -0.8477  2.2132
 6137TIP3    H218376   4.602   0.729   3.894 -1.4276 -0.9237  0.2254
 6138TIP3   OH218377   1.528   1.535   1.448  0.0937 -0.3372  0.5112
 6138TIP3    H118378   1.453   1.475   1.447  0.2528 -0.5542  0.9992
 6138TIP3    H218379   1.492   1.618   1.479 -0.2086 -0.0604 -0.5543
 6139TIP3   OH218380   4.966   3.383   5.707  0.1495 -0.0101 -0.6211
 6139TIP3    H118381   4.907   3.435   5.761 -1.1495  1.9662 -3.6716
 6139TIP3    H218382   4.937   3.293   5.720 -1.2759  0.5708  0.5769
 6140TIP3   OH218383   5.231   6.161   5.213 -0.6351 -0.6745 -0.2024
 6140TIP3    H118384   5.200   6.235   5.162  0.6225  0.7424  0.9854
 6140TIP3    H218385   5.170   6.155   5.287 -0.1926 -0.2050  0.2055
 6141TIP3   OH218386   3.705   5.706   5.598  0.3245  0.1767 -0.3257
 6141TIP3    H118387   3.794   5.741   5.598 -0.4446  2.2961 -0.7262
 6141TIP3    H218388   3.672   5.723   5.510 -0.8047  0.3653  0.1117
 6142TIP3   OH218389   0.087   5.026   0.628 -0.4157 -0.1491  0.1001
 6142TIP3    H118390   0.115   5.069   0.547  0.3360  0.1849  0.5251
 6142TIP3    H218391   0.004   4.985   0.605 -0.7929  0.9045 -0.5273
 6143TIP3   OH218392   3.392   0.102   1.919 -0.6091 -0.6148  0.1035
 6143TIP3    H118393   3.452   0.169   1.949 -0.6488 -0.4979 -0.0825
 6143TIP3    H218394   3.372   0.125   1.829  0.9096 -1.9605 -0.6295
 6144TIP3   OH218395   4.792   0.102   5.266 -0.1502  0.8932  0.4886
 6144TIP3    H118396   4.801   0.196   5.276 -0.9752  1.0458 -0.1129
 6144TIP3    H218397   4.776   0.070   5.355 -0.1022  1.3482  0.6603
 6145TIP3   OH218398   5.720   2.436   2.470 -0.1011  0.3175  0.3287
 6145TIP3    H118399   5.695   2.406   2.557  1.5989  0.0097  0.7564
 6145TIP3    H218400   5.662   2.390   2.410  0.6409 -1.7619  1.1399
 6146TIP3   OH218401   2.456   2.061   4.419  0.0142 -0.1256  0.0488
 6146TIP3    H118402   2.478   2.098   4.505  1.4414 -1.8167  0.4637
 6146TIP3    H218403   2.405   2.130   4.376  1.9434  2.0576  1.0276
 6147TIP3   OH218404   0.799   2.634   3.921 -0.3285 -0.7268 -0.0250
 6147TIP3    H118405   0.771   2.724   3.908 -0.1039 -0.9057 -2.1305
 6147TIP3    H218406   0.878   2.626   3.868 -0.0832 -2.0531  0.4942
 6148TIP3   OH218407   2.519   0.321   3.868 -0.2736 -0.2091  0.7497
 6148TIP3    H118408   2.448   0.314   3.932 -0.7356 -1.1443  0.1389
 6148TIP3    H218409   2.569   0.240   3.879  1.1313  0.7438  1.6662
 6149TIP3   OH218410   5.018   2.483   2.088 -0.5957  0.3150 -0.0276
 6149TIP3    H118411   4.964   2.429   2.145 -0.7143 -0.4496 -0.8310
 6149TIP3    H218412   5.069   2.538   2.147  1.3034 -2.3286  0.9722
 6150TIP3   OH218413   6.839   2.898   2.500 -0.4834  0.4096  0.0459
 6150TIP3    H118414   6.803   2.985   2.490  0.3412  0.9156  1.2413
 6150TIP3    H218415   6.920   2.911   2.551 -0.2287 -1.0102  0.0499
 6151TIP3   OH218416   6.080   1.565   3.841  0.1544  0.0145  0.5331
 6151TIP3    H118417   6.087   1.487   3.787 -1.0949 -0.2448  0.7205
 6151TIP3    H218418   6.117   1.635   3.787 -0.8068 -0.2861 -0.5557
 6152TIP3   OH218419   2.366   6.383   1.842  0.9079 -0.1840  0.0868
 6152TIP3    H118420   2.407   6.398   1.928  0.9970  1.2073 -0.1801
 6152TIP3    H218421   2.355   6.288   1.837 -0.7647 -0.2140  2.4193
 6153TIP3   OH218422   5.935   0.026   0.646 -0.1451  0.2432  0.0333
 6153TIP3    H118423   5.884   0.048   0.723  0.5957 -1.2602  0.9999
 6153TIP3    H218424   5.873  -0.017   0.587 -0.7871  1.6948 -0.3909
 6154TIP3   OH218425   0.535   4.717   2.276  0.0801 -0.5702 -0.5693
 6154TIP3    H118426   0.536   4.648   2.210  2.0929  1.7824 -3.2616
 6154TIP3    H218427   0.452   4.762   2.263  0.2267 -0.4609 -1.1641
 6155TIP3   OH218428   5.115   3.727   1.744 -0.0125 -0.3956 -0.2115
 6155TIP3    H118429   5.147   3.742   1.655  0.0888 -1.4500 -0.3627
 6155TIP3    H218430   5.094   3.634   1.747  1.6495 -0.7769  1.3978
 6156TIP3   OH218431   5.475   0.392   5.488  0.1701  0.2771 -0.0497
 6156TIP3    H118432   5.540   0.344   5.437 -1.5169 -1.1540 -0.9595
 6156TIP3    H218433   5.434   0.325   5.544  2.1998  1.8232  3.6438
 6157TIP3   OH218434   5.253   5.105   4.805 -0.1133 -0.1085  0.2531
 6157TIP3    H118435   5.291   5.170   4.746  0.1730 -1.7022 -1.4107
 6157TIP3    H218436   5.176   5.149   4.842 -1.2986  0.4538 -2.6118
 6158TIP3   OH218437   3.990   2.603   3.552  0.1407  0.1029  0.0483
 6158TIP3    H118438   3.936   2.578   3.627  0.2655  1.1551  0.4956
 6158TIP3    H218439   3.937   2.579   3.475 -0.4831  0.1111  0.4723
 6159TIP3   OH218440   4.274   1.223   1.839  0.1425 -0.1008  0.3466
 6159TIP3    H118441   4.202   1.213   1.902  0.4842  0.8687  0.9018
 6159TIP3    H218442   4.246   1.295   1.782  0.0787 -0.6144 -0.2816
 6160TIP3   OH218443   4.645   6.612   2.185  0.1262 -0.0938  0.9465
 6160TIP3    H118444   4.606   6.593   2.099  0.0667 -1.0181  1.1669
 6160TIP3    H218445   4.691   6.694   2.172 -0.6737  0.2720  0.2776
 6161TIP3   OH218446   6.933   2.352   1.079 -0.1868  0.2769 -0.1487
 6161TIP3    H118447   7.006   2.303   1.119 -0.7570 -0.3256  0.1634
 6161TIP3    H218448   6.975   2.408   1.014  0.2542 -2.7126 -2.6477
 6162TIP3   OH218449   2.261   1.544   4.227  0.2469 -0.5171  0.0483
 6162TIP3    H118450   2.182   1.526   4.176 -1.3090  1.5114  1.5751
 6162TIP3    H218451   2.308   1.611   4.177  0.2484 -0.6582 -0.1394
 6163TIP3   OH218452   1.603   4.602   5.099 -0.3780 -0.7796  0.4311
 6163TIP3    H118453   1.591   4.617   5.005  0.7668  2.2471  0.6418
 6163TIP3    H218454   1.696   4.580   5.108  0.6351  3.0163  1.0581
 6164TIP3   OH218455   4.221   5.272   5.864 -0.0510 -0.0601  0.2300
 6164TIP3    H118456   4.146   5.305   5.815  0.0959  3.2792  1.9868
 6164TIP3    H218457   4.290   5.336   5.848  0.6453  0.0129  3.0228
 6165TIP3   OH218458   4.936   1.713   2.890  0.0021  0.3512  0.6232
 6165TIP3    H118459   4.864   1.707   2.953  0.3074 -0.6148  0.8844
 6165TIP3    H218460   4.893   1.710   2.805 -0.3155  0.4075  0.7799
 6166TIP3   OH218461   3.954   4.146   1.971  0.3266  0.1199 -0.2900
 6166TIP3    H118462   3.861   4.167   1.974  0.2960 -0.1186  1.2360
 6166TIP3    H218463   3.966   4.080   2.039  2.3482  3.1459  2.5576
 6167TIP3   OH218464   3.871   5.841   3.276  0.7287 -0.8008  0.6203
 6167TIP3    H118465   3.853   5.880   3.361 -0.2546  1.9167 -0.7325
 6167TIP3    H218466   3.933   5.901   3.235 -1.1665 -0.3300 -1.7313
 6168TIP3   OH218467   6.857   6.360   4.417 -0.3401  0.3930  0.0654
 6168TIP3    H118468   6.832   6.452   4.428 -1.6392 -0.1555  2.3825
 6168TIP3    H218469   6.944   6.354   4.457 -0.2045  0.6248 -0.1903
 6169TIP3   OH218470   7.081   0.850   1.426 -0.0437  0.0867  0.1166
 6169TIP3    H118471   7.005   0.880   1.377  0.1351 -1.1734 -1.0044
 6169TIP3    H218472   7.156   0.883   1.377  0.1368 -0.2994  0.1286
 6170TIP3   OH218473   3.685   1.248   1.755 -0.0327  0.0410 -0.4215
 6170TIP3    H118474   3.634   1.178   1.715  1.7802 -1.5795 -0.0712
 6170TIP3    H218475   3.732   1.290   1.682  0.1537 -0.2226 -0.4541
 6171TIP3   OH218476   1.793   4.372   3.244 -0.3017 -0.2328  0.3838
 6171TIP3    H118477   1.699   4.356   3.240 -0.3817  0.1479  0.6283
 6171TIP3    H218478   1.830   4.320   3.173 -0.6128 -0.9566  0.7527
 6172TIP3   OH218479   2.403   1.055   1.260 -0.1315 -0.1804  0.0627
 6172TIP3    H118480   2.399   1.113   1.336  1.7496  1.8457 -1.2635
 6172TIP3    H218481   2.312   1.047   1.230 -0.4608  2.1133  0.3054
 6173TIP3   OH218482   1.593   0.125   1.115 -0.3475 -0.1491  0.6684
 6173TIP3    H118483   1.668   0.166   1.159  1.3423 -0.7679 -1.4502
 6173TIP3    H218484   1.630   0.050   1.069 -2.6434 -1.6111  1.0246
 6174TIP3   OH218485   0.342  -0.008   4.884  0.5638  0.0912  0.0076
 6174TIP3    H118486   0.375   0.039   4.808  2.4474 -0.8443  0.1877
 6174TIP3    H218487   0.252   0.021   4.893  0.2808  0.2519 -2.5552
 6175TIP3   OH218488   0.483   6.027   4.302 -0.0095  0.4854  0.1412
 6175TIP3    H118489   0.388   6.027   4.299 -0.0155  0.1719  0.2318
 6175TIP3    H218490   0.504   5.994   4.390  0.1809 -1.3684 -0.5535
 6176TIP3   OH218491   4.661   5.176   3.533  0.3178 -0.3772  0.1356
 6176TIP3    H118492   4.675   5.091   3.492  2.9235  0.7184 -1.4486
 6176TIP3    H218493   4.641   5.235   3.461  2.2226  1.0497  0.7036
 6177TIP3   OH218494   6.915   0.433   2.530  0.0249 -0.9003 -0.3801
 6177TIP3    H118495   7.008   0.451   2.542  0.5435 -3.1393 -0.5743
 6177TIP3    H218496   6.909   0.338   2.532 -2.2202 -0.8185 -0.8183
 6178TIP3   OH218497   0.548   6.790   0.645 -0.1136  0.3458  0.9597
 6178TIP3    H118498   0.631   6.802   0.691  0.8363  0.0242 -0.5694
 6178TIP3    H218499   0.551   6.699   0.613  1.7749  1.8510 -4.1158
 6179TIP3   OH218500   5.535   2.370   3.089 -0.0864 -0.2242 -0.0532
 6179TIP3    H118501   5.564   2.319   3.164 -0.5038 -2.4633 -1.2897
 6179TIP3    H218502   5.445   2.395   3.110  0.0026 -0.3173  0.4448
 6180TIP3   OH218503   2.026   6.429   5.738  0.0395 -0.0945  0.4871
 6180TIP3    H118504   2.105   6.454   5.689 -1.3816  2.2119 -0.7916
 6180TIP3    H218505   2.043   6.458   5.828  0.2814  1.3820 -0.0059
 6181TIP3   OH218506   3.831   3.843   5.638 -0.1122 -0.2610  0.0907
 6181TIP3    H118507   3.904   3.896   5.672  0.9820 -0.7252 -1.4522
 6181TIP3    H218508   3.854   3.827   5.547 -2.6197  0.3412 -0.7147
 6182TIP3   OH218509   6.207   0.359   0.955  0.3194  0.2537 -0.6753
 6182TIP3    H118510   6.219   0.264   0.955  2.1149  0.4471 -1.6038
 6182TIP3    H218511   6.221   0.384   1.047 -0.4333 -0.3705 -0.3701
 6183TIP3   OH218512   5.788   6.674   4.267 -0.2332  0.8778 -0.3529
 6183TIP3    H118513   5.787   6.636   4.180  0.5017  0.0381 -0.0095
 6183TIP3    H218514   5.698   6.666   4.298  0.0092 -1.1924 -0.0511
 6184TIP3   OH218515   0.659   2.936   2.867  0.5901  0.1167  0.0764
 6184TIP3    H118516   0.748   2.955   2.897  1.6399 -2.6660 -0.9289
 6184TIP3    H218517   0.615   2.898   2.943  0.6587  0.3797  0.2459
 6185TIP3   OH218518   1.063   5.797   3.498 -0.4824 -0.0844 -0.5869
 6185TIP3    H118519   1.024   5.724   3.546 -0.4503 -0.0026 -0.4376
 6185TIP3    H218520   1.142   5.760   3.458  0.7861  0.4135  1.3197
 6186TIP3   OH218521   3.366   3.630   2.480  0.1914 -0.6411 -0.0443
 6186TIP3    H118522   3.356   3.550   2.430  1.9161  0.2723 -2.0045
 6186TIP3    H218523   3.284   3.678   2.468 -1.4819 -2.6164  2.3684
 6187TIP3   OH218524   5.780   0.356   5.188  0.1463  0.0830 -0.1231
 6187TIP3    H118525   5.721   0.313   5.250 -0.5375  0.8961 -0.1952
 6187TIP3    H218526   5.723   0.409   5.133  1.1040  3.4519  1.8170
 6188TIP3   OH218527   2.834   0.129   5.235 -0.1358 -0.0500  0.5613
 6188TIP3    H118528   2.762   0.190   5.221  0.1514  0.6575  2.0038
 6188TIP3    H218529   2.852   0.134   5.329  0.3274 -1.8785  0.6086
 6189TIP3   OH218530   6.477   2.316   5.384  0.2676  0.3823 -0.0640
 6189TIP3    H118531   6.425   2.276   5.315  0.0692  0.6810 -0.0868
 6189TIP3    H218532   6.461   2.410   5.376 -0.0236  0.3967  0.6017
 6190TIP3   OH218533   1.018   1.923   5.188  0.3235  0.0249  0.6225
 6190TIP3    H118534   1.090   1.983   5.172 -0.7756  1.9653  2.4403
 6190TIP3    H218535   1.018   1.864   5.112  2.7640  0.9670 -0.1924
 6191TIP3   OH218536   0.447   2.981   5.811  0.5705 -0.6750  0.8156
 6191TIP3    H118537   0.413   2.905   5.763  2.6602 -1.1152 -0.0896
 6191TIP3    H218538   0.538   2.958   5.831  0.7648  0.9377  1.9848
 6192TIP3   OH218539   1.471   2.186   4.775 -0.2842 -0.1908  0.5826
 6192TIP3    H118540   1.415   2.124   4.729  1.2875 -0.2813 -1.2991
 6192TIP3    H218541   1.472   2.154   4.866 -1.6696 -1.3026  0.2419
 6193TIP3   OH218542   5.285   2.436   2.743 -0.2889 -0.2581  0.2032
 6193TIP3    H118543   5.268   2.349   2.778  1.1167 -0.6913 -0.1174
 6193TIP3    H218544   5.381   2.439   2.732 -0.3672  1.1232 -0.2931
 6194TIP3   OH218545   6.507   6.552   5.259 -0.0907 -0.3019  0.2993
 6194TIP3    H118546   6.486   6.521   5.171  0.1116  0.3035  0.0350
 6194TIP3    H218547   6.434   6.609   5.283  0.5128  0.6169 -0.0248
 6195TIP3   OH218548   1.903   4.634   3.833 -0.1706 -0.1142 -0.0926
 6195TIP3    H118549   1.946   4.698   3.776 -1.1169  0.5949 -0.0337
 6195TIP3    H218550   1.963   4.559   3.835  1.5271  1.1972  0.7535
 6196TIP3   OH218551   0.576   0.025   1.546 -0.3351  0.0326  0.2296
 6196TIP3    H118552   0.655  -0.009   1.504 -1.0852 -0.4071 -0.8758
 6196TIP3    H218553   0.509   0.022   1.478 -1.9346 -1.8611  1.7349
 6197TIP3   OH218554   3.538   6.755   3.449  0.7941 -0.3375 -0.4229
 6197TIP3    H118555   3.590   6.771   3.370 -0.2623 -3.2269 -1.8369
 6197TIP3    H218556   3.561   6.666   3.475 -0.3275 -0.1307  1.4319
 6198TIP3   OH218557   0.653   0.578   5.688  0.0310  0.0582 -0.0895
 6198TIP3    H118558   0.560   0.573   5.712  0.6543  0.3395  2.6824
 6198TIP3    H218559   0.672   0.672   5.686  0.0036  0.0509 -1.9121
 6199TIP3   OH218560   0.407   0.974   0.588  0.6256  0.1473  0.2230
 6199TIP3    H118561   0.448   1.060   0.576 -0.0978  0.4076 -0.4513
 6199TIP3    H218562   0.315   0.993   0.603  0.1736 -0.5588 -1.4138
 6200TIP3   OH218563   2.700   4.835  -0.008 -0.0497  0.1568 -0.5436
 6200TIP3    H118564   2.787   4.871   0.001 -0.6040  1.3693  0.0840
 6200TIP3    H218565   2.694   4.767   0.060 -0.0255  0.9486  0.2653
 6201TIP3   OH218566   3.795   2.292   0.864 -0.2310  0.3271 -0.3073
 6201TIP3    H118567   3.732   2.357   0.895 -0.3155  0.0573  0.0988
 6201TIP3    H218568   3.741   2.223   0.825 -0.2462 -0.2408  0.6695
 6202TIP3   OH218569   3.531   3.855   2.324  0.1653  0.1198  0.1297
 6202TIP3    H118570   3.477   3.799   2.380  1.1544 -1.4412 -0.4174
 6202TIP3    H218571   3.479   3.865   2.244  0.8624 -1.8943 -0.6467
 6203TIP3   OH218572   2.959   5.983   2.915  0.0502  0.1087  0.0335
 6203TIP3    H118573   2.991   6.053   2.859 -1.4750  2.6062  2.0550
 6203TIP3    H218574   3.039   5.936   2.942  1.0235  0.3850 -2.1051
 6204TIP3   OH218575   6.694   2.154   2.817  0.0238 -0.1484  0.5243
 6204TIP3    H118576   6.726   2.068   2.845 -0.2797 -0.6435 -0.5915
 6204TIP3    H218577   6.600   2.150   2.832  0.0221  0.0210  0.5576
 6205TIP3   OH218578   0.530   5.179   2.334 -0.4330 -0.1385 -0.1831
 6205TIP3    H118579   0.581   5.252   2.368 -1.2893  0.9816 -1.1758
 6205TIP3    H218580   0.590   5.105   2.333  0.0965  0.2062  2.0547
 6206TIP3   OH218581   2.715  -0.012   1.882  0.7486  0.3364 -0.2376
 6206TIP3    H118582   2.738   0.016   1.794  0.2527  1.1834 -0.1015
 6206TIP3    H218583   2.776   0.035   1.939  0.9943 -0.1239 -0.1094
 6207TIP3   OH218584   3.435   6.616  -0.012  0.7511  0.4674 -0.2320
 6207TIP3    H118585   3.387   6.621   0.071  1.3943  2.5258  0.0695
 6207TIP3    H218586   3.498   6.546   0.001  1.8430  1.6895  1.6252
 6208TIP3   OH218587   5.421   5.354   1.009 -0.1767  0.1445  0.4463
 6208TIP3    H118588   5.480   5.390   1.075 -0.7648 -1.7553  2.1231
 6208TIP3    H218589   5.335   5.355   1.051 -1.1167  1.4102 -1.3621
 6209TIP3   OH218590   0.977   5.481   2.949 -0.0252 -0.5309  0.8006
 6209TIP3    H118591   0.927   5.490   2.868  0.8252 -0.6341  0.2519
 6209TIP3    H218592   0.910   5.473   3.018 -0.7730 -1.3434  0.0145
 6210TIP3   OH218593   0.428   0.411   4.247  0.2795  0.2186 -1.0772
 6210TIP3    H118594   0.337   0.441   4.239 -0.7323 -2.5757 -1.2404
 6210TIP3    H218595   0.434   0.379   4.337  0.7239 -0.6348 -1.4001
 6211TIP3   OH218596   1.628   3.014   3.035 -0.2219 -0.8397 -0.3245
 6211TIP3    H118597   1.723   3.009   3.030 -0.3111 -2.6154 -1.1624
 6211TIP3    H218598   1.607   2.977   3.121 -0.1653 -0.8910 -0.3327
 6212TIP3   OH218599   3.184   3.882   4.991  0.2705 -0.0347 -0.1909
 6212TIP3    H118600   3.226   3.856   4.909 -1.4397  1.5992 -1.6738
 6212TIP3    H218601   3.204   3.976   4.999 -0.9711  0.1987  0.3669
 6213TIP3   OH218602   5.609   4.416   0.984 -0.4601  0.1898 -0.3710
 6213TIP3    H118603   5.589   4.449   0.897  0.3211  2.9004  0.3915
 6213TIP3    H218604   5.705   4.411   0.987 -0.4855 -3.2793 -0.7391
 6214TIP3   OH218605   7.139   3.472   2.213  0.0381 -0.0605 -0.6206
 6214TIP3    H118606   7.192   3.420   2.274 -0.3804 -0.2184 -0.3920
 6214TIP3    H218607   7.197   3.543   2.186  0.7068 -0.7777 -1.1284
 6215TIP3   OH218608   1.090   0.210   1.855  0.0813 -0.4189 -0.0135
 6215TIP3    H118609   1.022   0.143   1.843  0.4987 -0.9365  0.4729
 6215TIP3    H218610   1.094   0.223   1.950  0.0724  0.2348 -0.0992
 6216TIP3   OH218611   6.560   2.410   5.651 -0.3984  0.5466 -0.7304
 6216TIP3    H118612   6.553   2.377   5.562  1.4669  0.8406 -1.0390
 6216TIP3    H218613   6.590   2.500   5.641 -2.9612  1.5856  0.1665
 6217TIP3   OH218614   0.161   4.674   1.475  0.4775  0.0352 -0.1837
 6217TIP3    H118615   0.078   4.629   1.491  0.6775 -0.0555  0.6505
 6217TIP3    H218616   0.206   4.671   1.560  0.4769  1.8424 -0.0895
 6218TIP3   OH218617   5.164   1.898   0.298  0.0748 -0.7116  0.2961
 6218TIP3    H118618   5.145   1.925   0.388 -0.4037  0.9116 -0.2493
 6218TIP3    H218619   5.220   1.968   0.264 -2.1648  0.2836 -1.5711
 6219TIP3   OH218620   0.366   0.267   4.470 -0.0271  0.2874 -0.2717
 6219TIP3    H118621   0.338   0.300   4.555 -1.2634  0.0492 -0.5658
 6219TIP3    H218622   0.299   0.203   4.446  0.9891 -0.5857 -0.8536
 6220TIP3   OH218623   4.536   5.199   2.881 -0.6642  0.5047  0.0622
 6220TIP3    H118624   4.533   5.218   2.787  1.0030 -1.8935 -0.5826
 6220TIP3    H218625   4.628   5.206   2.904 -0.9678  0.4228  1.3894
 6221TIP3   OH218626   3.816   3.745   0.806  0.3268  0.4455 -0.2126
 6221TIP3    H118627   3.755   3.677   0.778 -0.0389  0.9257 -0.6035
 6221TIP3    H218628   3.901   3.718   0.770 -0.1518  1.1220 -1.9624
 6222TIP3   OH218629   2.910   2.068   3.590 -0.1827  0.1959 -0.2121
 6222TIP3    H118630   2.935   2.149   3.633  2.1390 -0.5810  0.0383
 6222TIP3    H218631   2.958   2.069   3.507 -1.2986 -0.2622 -0.8957
 6223TIP3   OH218632   0.943   0.328   0.920  0.0272  0.2642  0.4356
 6223TIP3    H118633   0.953   0.398   0.984 -1.2947  1.1547 -0.2918
 6223TIP3    H218634   0.945   0.248   0.972 -1.5851  0.9956  1.6821
 6224TIP3   OH218635   2.708   1.068   1.369 -0.3129 -0.1141  0.9715
 6224TIP3    H118636   2.666   0.985   1.347  0.3377 -0.6501  1.7229
 6224TIP3    H218637   2.688   1.126   1.295 -0.8256 -0.9173  0.4793
 6225TIP3   OH218638   4.344   4.415   2.235  0.0143  0.2828  0.3307
 6225TIP3    H118639   4.400   4.443   2.308 -0.1877  1.5596  0.0230
 6225TIP3    H218640   4.284   4.351   2.274 -0.0211  0.8677  1.2721
 6226TIP3   OH218641   0.366   4.743   4.542 -0.3034 -0.2609  0.6109
 6226TIP3    H118642   0.280   4.720   4.508  0.5446 -2.4557 -0.2980
 6226TIP3    H218643   0.365   4.838   4.552 -2.4160 -0.1332 -0.4577
 6227TIP3   OH218644   5.961   4.751   3.551  0.8653 -0.2468 -0.2656
 6227TIP3    H118645   5.987   4.688   3.485  2.0934  0.3877 -0.4217
 6227TIP3    H218646   5.980   4.708   3.635 -0.0905 -0.8000 -0.3195
 6228TIP3   OH218647   5.685   2.568   4.402  0.1454 -0.1546  0.0587
 6228TIP3    H118648   5.715   2.504   4.466  0.1813  0.0002  0.1981
 6228TIP3    H218649   5.765   2.608   4.369  0.0849  0.5219  0.7018
 6229TIP3   OH218650   7.087   6.707   4.876  0.0721  0.2277 -0.3360
 6229TIP3    H118651   7.045   6.774   4.823 -0.7898  0.6225  0.7964
 6229TIP3    H218652   7.016   6.674   4.932  1.0904  0.3416  1.0593
 6230TIP3   OH218653   5.785   2.063   1.900  0.4220 -0.0399  0.3354
 6230TIP3    H118654   5.733   2.000   1.951 -0.1453  1.2618  1.4312
 6230TIP3    H218655   5.720   2.116   1.854  0.8050  0.8611  0.8102
 6231TIP3   OH218656   0.670   1.046   1.496  0.3243  0.3347  0.3739
 6231TIP3    H118657   0.737   1.086   1.551  1.4883 -0.0080 -0.7162
 6231TIP3    H218658   0.707   0.961   1.472  0.3015  0.8264 -1.6457
 6232TIP3   OH218659   4.365   2.453   4.268  0.0209  0.0351 -0.2501
 6232TIP3    H118660   4.352   2.548   4.262 -0.1318  0.0393  0.1055
 6232TIP3    H218661   4.296   2.416   4.212  0.4889  0.1492 -0.9126
 6233TIP3   OH218662   2.739   1.115   3.372  0.5691  0.0440  0.1008
 6233TIP3    H118663   2.701   1.130   3.458  0.1847 -0.3191 -0.0012
 6233TIP3    H218664   2.831   1.098   3.389  0.3988 -0.5072  0.4889
 6234TIP3   OH218665   1.031   3.831   2.117  0.1322  0.4531 -0.2974
 6234TIP3    H118666   1.082   3.905   2.085  0.3638  0.1488 -0.6330
 6234TIP3    H218667   1.051   3.827   2.211  0.0484  0.8666 -0.2602
 6235TIP3   OH218668   2.030   4.155   4.268  0.1011  0.7100  0.4350
 6235TIP3    H118669   2.087   4.142   4.192  0.7780  0.4485  0.9715
 6235TIP3    H218670   1.943   4.129   4.238 -0.0210  2.4558 -0.8263
 6236TIP3   OH218671   6.458   6.642   0.336  0.4224  0.1350  0.2785
 6236TIP3    H118672   6.467   6.686   0.251  1.1432  0.6669  0.6176
 6236TIP3    H218673   6.363   6.630   0.346  0.3647 -0.5238 -0.8829
 6237TIP3   OH218674   4.220   2.915   0.527 -0.1305  0.0639 -0.0402
 6237TIP3    H118675   4.219   2.831   0.571 -0.1368 -0.4167 -0.9267
 6237TIP3    H218676   4.310   2.923   0.493  0.2386  0.9897  1.0889
 6238TIP3   OH218677   5.258   6.133   5.540 -0.1720  0.3739  0.1803
 6238TIP3    H118678   5.176   6.135   5.490 -0.2192 -1.8013  0.0782
 6238TIP3    H218679   5.325   6.111   5.476 -0.0234 -1.0407  0.7769
 6239TIP3   OH218680   1.403   1.443   2.896  0.3642 -0.1344 -0.0556
 6239TIP3    H118681   1.408   1.349   2.880 -0.0529 -0.3108  0.7845
 6239TIP3    H218682   1.485   1.477   2.861  0.4480 -0.7857 -0.5185
 6240TIP3   OH218683   3.440   2.797   3.887  0.3235  0.0119 -0.5418
 6240TIP3    H118684   3.497   2.725   3.860  2.4081  0.4884  2.1114
 6240TIP3    H218685   3.389   2.761   3.960  0.8328  0.9543  0.3036
 6241TIP3   OH218686   2.494   0.041   1.453 -0.1015  0.3755 -0.3006
 6241TIP3    H118687   2.460  -0.033   1.504 -0.0939 -0.3287 -1.2848
 6241TIP3    H218688   2.510   0.004   1.366 -1.5221  1.8862 -1.2626
 6242TIP3   OH218689   5.699   3.648   1.382  0.5934  0.0497 -0.5523
 6242TIP3    H118690   5.788   3.613   1.382  1.0019  1.0392 -0.4273
 6242TIP3    H218691   5.693   3.698   1.301  0.0808 -0.1807 -0.6568
 6243TIP3   OH218692   6.058   1.628   1.832  0.9030  0.2052  0.4287
 6243TIP3    H118693   6.094   1.539   1.840 -0.1992 -0.3557 -0.5270
 6243TIP3    H218694   6.056   1.661   1.922 -1.4339 -1.8970  1.2904
 6244TIP3   OH218695   0.186   1.080   0.722  0.3374  0.1251 -0.1871
 6244TIP3    H118696   0.187   1.173   0.743 -1.2062  0.0320  0.4872
 6244TIP3    H218697   0.103   1.049   0.758  1.1845 -1.6851  0.3157
 6245TIP3   OH218698   5.178   5.209   4.174  0.0132  0.5679 -0.1266
 6245TIP3    H118699   5.249   5.257   4.131 -1.2979  1.9507 -0.8095
 6245TIP3    H218700   5.209   5.196   4.264  0.6960  2.0966 -0.1213
 6246TIP3   OH218701   0.859   2.679   5.536  0.5937 -0.3419 -0.2708
 6246TIP3    H118702   0.888   2.588   5.526 -0.2230 -0.6125 -0.3202
 6246TIP3    H218703   0.768   2.678   5.504  0.4873  0.4295 -0.0048
 6247TIP3   OH218704   4.856   4.068   5.065 -0.3066 -0.1631  0.1778
 6247TIP3    H118705   4.802   4.146   5.055 -0.2260 -0.1901 -0.5113
 6247TIP3    H218706   4.889   4.073   5.155  0.0521  0.8283  0.0042
 6248TIP3   OH218707   1.961   5.533   1.464  0.3685 -0.9323 -0.7226
 6248TIP3    H118708   1.868   5.540   1.444 -0.2951 -2.7498  1.3136
 6248TIP3    H218709   1.975   5.596   1.536  0.8033 -0.4314 -1.2379
 6249TIP3   OH218710   4.057   4.070   3.846  0.7105 -0.2269 -0.1462
 6249TIP3    H118711   3.997   4.008   3.887 -0.8653  1.3458  0.0376
 6249TIP3    H218712   4.053   4.049   3.752  0.5262 -0.6746 -0.0407
 6250TIP3   OH218713   5.323   3.984   2.498 -0.3455 -0.3905 -0.2095
 6250TIP3    H118714   5.376   4.021   2.568 -0.1632  0.4442 -0.7621
 6250TIP3    H218715   5.256   3.932   2.542 -0.2526  0.1474  0.5761
 6251TIP3   OH218716   6.108   0.534   3.712  0.0060 -0.0589  0.5080
 6251TIP3    H118717   6.164   0.564   3.784  1.3018 -0.3564 -0.3504
 6251TIP3    H218718   6.168   0.524   3.638 -1.4369  1.0530 -0.8615
 6252TIP3   OH218719   1.204   2.180   4.009 -0.1718  0.5488  0.1544
 6252TIP3    H118720   1.212   2.172   4.104  0.9936  0.1388  0.0424
 6252TIP3    H218721   1.242   2.099   3.975 -1.1706  0.4053 -0.6475
 6253TIP3   OH218722   1.815   4.243   3.989 -0.0107 -0.2509  0.0796
 6253TIP3    H118723   1.814   4.307   4.061 -1.9345  0.0889 -0.1823
 6253TIP3    H218724   1.873   4.281   3.924 -2.7978  2.5078 -1.0597
 6254TIP3   OH218725   2.849   1.483   4.658 -0.0409  0.1284  0.4651
 6254TIP3    H118726   2.874   1.561   4.708  1.1273 -2.2448  3.9652
 6254TIP3    H218727   2.932   1.441   4.635 -0.6429 -1.3082  0.8241
 6255TIP3   OH218728   1.391   6.631   2.028 -0.5646  0.0479 -0.2108
 6255TIP3    H118729   1.482   6.653   2.009 -0.0762 -2.1339 -0.6969
 6255TIP3    H218730   1.362   6.700   2.088  1.2332  1.0644 -0.4197
 6256TIP3   OH218731   6.486   2.812   3.852 -0.2091 -0.4686  0.0797
 6256TIP3    H118732   6.570   2.816   3.899 -0.3883  1.0396  0.3139
 6256TIP3    H218733   6.422   2.792   3.920 -0.0600 -1.6547 -0.1044
 6257TIP3   OH218734   1.632   4.116   3.598  0.3111  0.2358 -0.7396
 6257TIP3    H118735   1.726   4.136   3.597  0.3943  0.1932  1.2757
 6257TIP3    H218736   1.590   4.202   3.598  0.3892  0.2745 -0.5872
 6258TIP3   OH218737   0.904   6.725   3.686 -0.2324  0.5056  0.4763
 6258TIP3    H118738   0.928   6.658   3.621 -0.5766 -0.1885  1.0465
 6258TIP3    H218739   0.977   6.726   3.747 -0.8191 -0.3240  1.2138
 6259TIP3   OH218740   0.768   0.583   0.387 -0.0908 -0.4498  0.0166
 6259TIP3    H118741   0.732   0.597   0.474  0.0280  2.2565 -0.2846
 6259TIP3    H218742   0.698   0.610   0.327  1.0659  1.3384 -0.6189
 6260TIP3   OH218743   2.289   4.612   5.345  0.2741 -0.6183  0.1890
 6260TIP3    H118744   2.238   4.539   5.381  0.1668  0.6092  2.7541
 6260TIP3    H218745   2.226   4.683   5.335  0.8057 -0.1780 -0.0623
 6261TIP3   OH218746   3.883   0.563   4.304  0.0537  0.3041 -0.1433
 6261TIP3    H118747   3.942   0.506   4.254  0.0760 -1.1019  1.3731
 6261TIP3    H218748   3.925   0.648   4.304  1.8164 -0.5198  0.3824
 6262TIP3   OH218749   2.526   6.664   2.834  0.3503  0.4823 -0.0373
 6262TIP3    H118750   2.440   6.660   2.876 -1.3002  0.7731 -3.1057
 6262TIP3    H218751   2.555   6.754   2.846  0.0349  0.5082  0.5765
 6263TIP3   OH218752   3.711   4.713   1.360  0.3747 -0.3883  0.0975
 6263TIP3    H118753   3.804   4.709   1.340  0.2047 -0.5374 -0.7031
 6263TIP3    H218754   3.682   4.797   1.324  0.0971 -0.5824 -0.1415
 6264TIP3   OH218755   6.172   0.280   5.441 -0.3892  0.1536  0.0915
 6264TIP3    H118756   6.222   0.266   5.522  0.1914 -1.2701 -0.4768
 6264TIP3    H218757   6.090   0.321   5.470 -0.3093 -0.5758  1.4251
 6265TIP3   OH218758   4.630   0.535   3.821 -0.3285  0.0619 -0.3662
 6265TIP3    H118759   4.609   0.505   3.910  0.3037  1.3795  0.2622
 6265TIP3    H218760   4.550   0.520   3.771 -1.2523  0.7734  0.8321
 6266TIP3   OH218761   6.666   5.272   0.730  0.3121  0.3005  0.7865
 6266TIP3    H118762   6.647   5.365   0.720 -2.2947  0.1136  2.9021
 6266TIP3    H218763   6.581   5.230   0.741  1.3031 -2.5926 -1.3511
 6267TIP3   OH218764   2.429   0.519   5.282  0.0647 -0.1504  0.6640
 6267TIP3    H118765   2.357   0.544   5.224 -0.3177 -1.1321  0.6816
 6267TIP3    H218766   2.500   0.578   5.260  0.1582 -0.9055 -1.2881
 6268TIP3   OH218767   1.996   6.151   5.743  0.0080  0.0872 -0.6061
 6268TIP3    H118768   2.041   6.235   5.738  1.6568 -0.6261  0.7830
 6268TIP3    H218769   2.045   6.102   5.810 -3.3244 -0.5214  1.6333
 6269TIP3   OH218770   1.665   3.252   1.177 -0.6121  0.4683  0.3407
 6269TIP3    H118771   1.749   3.229   1.218 -0.4952  1.7853  0.8669
 6269TIP3    H218772   1.685   3.330   1.125 -1.5665  0.9378  0.6666
 6270TIP3   OH218773   2.726   3.391   3.385  0.8243 -0.5021 -0.3000
 6270TIP3    H118774   2.716   3.481   3.414  1.4417 -0.8365  1.0325
 6270TIP3    H218775   2.802   3.358   3.433  2.3293 -0.9396 -2.8002
 6271TIP3   OH218776   0.734   2.377   4.001 -0.0052 -0.1256 -0.4373
 6271TIP3    H118777   0.771   2.462   3.977  0.1929 -1.1648 -4.4861
 6271TIP3    H218778   0.810   2.319   4.004 -0.4995 -0.8170 -1.2209
 6272TIP3   OH218779   6.312   0.957   3.444  0.1384  0.3605  0.1503
 6272TIP3    H118780   6.228   0.996   3.469  0.0215  0.9828 -1.1079
 6272TIP3    H218781   6.289   0.870   3.411 -0.0624  0.6219 -0.4225
 6273TIP3   OH218782   4.765   4.961   5.918 -0.6939 -0.1863 -0.4016
 6273TIP3    H118783   4.738   4.990   5.831 -2.4437 -0.5606 -0.0335
 6273TIP3    H218784   4.854   4.928   5.906 -0.2680  1.3436 -1.6741
 6274TIP3   OH218785   2.048   4.669   1.313  0.1558  0.8508  0.5144
 6274TIP3    H118786   2.065   4.587   1.268 -0.1394  0.8602  0.3843
 6274TIP3    H218787   2.044   4.644   1.406  1.5759  0.9588  0.6344
 6275TIP3   OH218788   0.493   1.430   2.503  0.0887 -0.1420 -0.0864
 6275TIP3    H118789   0.521   1.369   2.572  3.1241  0.4117 -0.7149
 6275TIP3    H218790   0.453   1.374   2.437  1.3803 -1.3033  0.0675
 6276TIP3   OH218791   3.896   0.225   5.419  0.2763  0.3579  0.4581
 6276TIP3    H118792   3.973   0.261   5.375 -0.6354  0.2912 -1.2540
 6276TIP3    H218793   3.826   0.288   5.401 -0.6400 -0.7785 -0.0990
 6277TIP3   OH218794   6.375   0.549   5.358 -0.1232  0.0163  0.0882
 6277TIP3    H118795   6.288   0.524   5.388 -0.0009 -1.7838 -0.8886
 6277TIP3    H218796   6.412   0.468   5.322  2.2959  0.5122  1.2729
 6278TIP3   OH218797   7.113   5.473   5.806 -0.3919  0.1343 -0.3004
 6278TIP3    H118798   7.153   5.554   5.775  2.4349 -1.1021 -0.2378
 6278TIP3    H218799   7.183   5.407   5.797 -2.7723 -2.4922 -1.1435
 6279TIP3   OH218800   0.784   1.434   4.922  0.6390  0.1773  0.2497
 6279TIP3    H118801   0.848   1.391   4.864  2.8975  0.1859  2.5507
 6279TIP3    H218802   0.732   1.362   4.958  0.4610 -0.0039 -0.3529
 6280TIP3   OH218803   5.006   1.920   0.893  0.2162 -0.1108 -0.6835
 6280TIP3    H118804   5.054   1.850   0.848 -0.7588  1.6067 -4.8421
 6280TIP3    H218805   5.073   1.985   0.915  0.4974  0.0387 -1.8818
 6281TIP3   OH218806   2.597   0.800   4.395 -0.2080  0.6191  0.5275
 6281TIP3    H118807   2.523   0.777   4.452  0.6582  0.4742  1.6277
 6281TIP3    H218808   2.668   0.743   4.423 -0.2202 -0.7658 -1.9283
 6282TIP3   OH218809   2.071   1.341   3.482 -0.1494 -0.3026  0.5647
 6282TIP3    H118810   2.005   1.340   3.413 -2.2655  0.7541  2.4406
 6282TIP3    H218811   2.117   1.257   3.472 -1.6366 -1.0106 -0.9448
 6283TIP3   OH218812   0.795   3.467   1.531  0.7750  0.5405 -0.6930
 6283TIP3    H118813   0.824   3.541   1.585  0.0322  0.3780 -0.0548
 6283TIP3    H218814   0.705   3.490   1.506 -0.8996 -1.6708  2.5013
 6284TIP3   OH218815   1.086   4.956   1.896  0.3142 -0.5510  0.5751
 6284TIP3    H118816   1.048   4.925   1.977 -1.2966  2.1289  0.9842
 6284TIP3    H218817   1.126   5.040   1.919 -0.9316  0.6970 -1.5009
 6285TIP3   OH218818   4.990   0.158   1.218 -0.0721 -0.5466 -0.0978
 6285TIP3    H118819   5.059   0.191   1.275  2.0293 -1.7442 -1.7971
 6285TIP3    H218820   5.027   0.162   1.130 -1.0582 -3.8145 -0.8044
 6286TIP3   OH218821   2.349   4.428   4.721  0.5536 -0.6031  0.2441
 6286TIP3    H118822   2.283   4.485   4.758  0.9503 -0.3315  0.5333
 6286TIP3    H218823   2.383   4.378   4.795  2.0324  0.6242  0.4497
 6287TIP3   OH218824   2.208   4.486   5.724  0.6166 -0.2838 -0.1500
 6287TIP3    H118825   2.243   4.419   5.783  1.1750 -0.6021 -0.8234
 6287TIP3    H218826   2.164   4.548   5.781  1.2478 -0.5223  0.6111
 6288TIP3   OH218827   1.792   1.237   5.500  0.3035  0.2635  0.0096
 6288TIP3    H118828   1.765   1.288   5.576 -1.2717 -0.3219 -0.1334
 6288TIP3    H218829   1.843   1.299   5.447  2.0383  0.4850  1.8260
 6289TIP3   OH218830   3.230   2.662   4.448 -0.2394  0.0180  0.1253
 6289TIP3    H118831   3.279   2.581   4.437  0.9313  0.5677  1.0353
 6289TIP3    H218832   3.139   2.638   4.431  0.2447 -1.1836 -0.9211
 6290TIP3   OH218833   0.923   0.570   4.678 -0.0227  0.8214 -0.2620
 6290TIP3    H118834   0.985   0.643   4.677 -1.1016  1.7741 -0.6002
 6290TIP3    H218835   0.954   0.513   4.749  1.1826  1.2882 -0.3874
 6291TIP3   OH218836   0.079   0.560   3.415  0.0091 -0.1944  0.1902
 6291TIP3    H118837   0.143   0.567   3.486 -1.2833  1.0431  1.2949
 6291TIP3    H218838   0.101   0.477   3.371  0.9332 -0.9289  1.9346
 6292TIP3   OH218839   3.263   6.076   0.604 -0.4914 -0.0816 -0.2583
 6292TIP3    H118840   3.297   6.090   0.693 -1.2549  0.8515 -0.1000
 6292TIP3    H218841   3.340   6.050   0.553  0.0467 -0.1687  0.5692
 6293TIP3   OH218842   6.362   3.198   2.751  0.4254 -0.5841  0.2785
 6293TIP3    H118843   6.430   3.131   2.741  1.6520  0.6713 -0.0330
 6293TIP3    H218844   6.397   3.275   2.706  0.1343  1.0663  2.7148
 6294TIP3   OH218845   3.820   1.377   2.141 -0.1885  0.3402  0.0131
 6294TIP3    H118846   3.906   1.347   2.113 -0.8434  1.2274 -3.4305
 6294TIP3    H218847   3.759   1.312   2.105 -1.0678  0.6335  0.9320
 6295TIP3   OH218848   4.935   0.264   4.435  0.1775 -0.6801  0.5036
 6295TIP3    H118849   4.934   0.190   4.374 -0.5267  0.4859 -0.9389
 6295TIP3    H218850   5.026   0.293   4.437  0.5252 -1.7556  1.3317
 6296TIP3   OH218851   5.587   5.111   1.266  0.0862  0.6310 -0.0336
 6296TIP3    H118852   5.638   5.094   1.345 -1.1676 -1.0207  0.4734
 6296TIP3    H218853   5.583   5.206   1.259  0.8673  0.7887  1.4536
 6297TIP3   OH218854   1.585   2.993   1.214 -0.1346 -0.4731  0.5492
 6297TIP3    H118855   1.671   2.981   1.175  0.4397 -0.0027  1.6478
 6297TIP3    H218856   1.573   3.088   1.217 -2.1089 -0.4593 -2.5701
 6298TIP3   OH218857   6.048   2.898   2.851 -0.4011  0.4925  0.6369
 6298TIP3    H118858   6.068   2.966   2.786  0.1426  0.2281  0.5172
 6298TIP3    H218859   5.961   2.866   2.828  0.2037 -0.3226 -0.6025
 6299TIP3   OH218860   0.511   5.064   3.361 -0.0075 -0.2884  0.3796
 6299TIP3    H118861   0.582   5.080   3.424  0.3693  1.2351 -0.3904
 6299TIP3    H218862   0.453   5.003   3.407  1.8529 -1.7389  0.9740
 6300TIP3   OH218863   4.407   5.413   0.938 -0.5266 -0.1473 -0.3069
 6300TIP3    H118864   4.339   5.354   0.970  0.0117 -1.1211 -0.9105
 6300TIP3    H218865   4.459   5.360   0.879  1.5649  0.1762  1.1306
 6301TIP3   OH218866   1.549   2.503   4.713 -0.4718  0.3531 -0.2576
 6301TIP3    H118867   1.475   2.541   4.666 -0.4048  0.3497 -0.3664
 6301TIP3    H218868   1.514   2.424   4.754 -0.3317 -0.1053 -0.9912
 6302TIP3   OH218869   0.636   5.762  -0.016 -0.3044 -0.1002  0.3457
 6302TIP3    H118870   0.629   5.833   0.047  2.4585  2.3900 -1.8591
 6302TIP3    H218871   0.730   5.744  -0.022 -0.8390 -3.5509  0.2897
 6303TIP3   OH218872   6.093   6.001   5.609 -0.6517  0.0846 -0.4300
 6303TIP3    H118873   6.144   5.927   5.577 -0.9160  0.1962 -1.1253
 6303TIP3    H218874   6.134   6.078   5.569 -1.8968  0.1075 -1.7319
 6304TIP3   OH218875   2.651   3.883   2.482  0.2891 -0.0514 -0.1116
 6304TIP3    H118876   2.581   3.838   2.434  0.9289 -0.5157 -0.6299
 6304TIP3    H218877   2.640   3.975   2.459 -2.4065  0.4678  2.6752
 6305TIP3   OH218878   6.882   3.165   4.283 -0.1523  0.2217 -0.0509
 6305TIP3    H118879   6.950   3.101   4.305 -0.5692 -0.2339 -0.0622
 6305TIP3    H218880   6.870   3.154   4.189 -0.4998  0.0410  0.0141
 6306TIP3   OH218881   2.726   3.021   3.619 -0.0796  0.1309  0.3577
 6306TIP3    H118882   2.763   3.100   3.578 -0.8852  0.3144 -0.0338
 6306TIP3    H218883   2.632   3.030   3.608 -0.1652 -1.0964 -0.0702
 6307TIP3   OH218884   7.166   6.104   1.700  0.2924  0.0253  0.4858
 6307TIP3    H118885   7.136   6.057   1.622 -0.8268 -1.8143  1.9414
 6307TIP3    H218886   7.145   6.196   1.683  0.6096 -0.2467 -1.5816
 6308TIP3   OH218887   5.705   4.748   0.778 -0.3404  0.0623 -0.8743
 6308TIP3    H118888   5.640   4.802   0.824 -1.2705 -1.3715 -0.4495
 6308TIP3    H218889   5.762   4.716   0.847 -0.2601 -0.1269 -1.0283
 6309TIP3   OH218890   2.749   0.256   0.565 -0.2898  0.2569  0.1427
 6309TIP3    H118891   2.775   0.274   0.475 -0.4711 -2.2469 -0.4630
 6309TIP3    H218892   2.749   0.342   0.607 -1.9939  1.7620 -2.6658
 6310TIP3   OH218893   3.866   4.367   1.614  0.1036 -0.5430 -0.0829
 6310TIP3    H118894   3.952   4.397   1.644 -0.2386  0.6234 -0.2271
 6310TIP3    H218895   3.810   4.445   1.618 -1.4431 -1.6425  1.7984
 6311TIP3   OH218896   2.497   6.383   2.088  0.4644  0.4508 -0.4145
 6311TIP3    H118897   2.528   6.403   2.176  1.0870  0.1610 -0.5612
 6311TIP3    H218898   2.430   6.317   2.100  0.7409  0.2131 -0.1753
 6312TIP3   OH218899   5.846   4.737   1.003  0.0538 -0.1460  0.4462
 6312TIP3    H118900   5.798   4.729   1.085  0.2486 -2.0913  0.4189
 6312TIP3    H218901   5.938   4.732   1.028  0.1493  0.3031  0.1962
 6313TIP3   OH218902   2.577   5.583   0.334 -0.0580  0.2971 -0.0550
 6313TIP3    H118903   2.499   5.534   0.308  0.0914 -0.1012  0.2275
 6313TIP3    H218904   2.635   5.517   0.373  0.4434  0.5741 -0.3105
 6314TIP3   OH218905   2.978   1.743   4.706  0.2172  0.3133  0.5603
 6314TIP3    H118906   2.978   1.752   4.610 -0.0735 -0.1554  0.5088
 6314TIP3    H218907   3.070   1.733   4.729  0.2578  0.0033  0.2777
 6315TIP3   OH218908   6.030   3.035   0.647 -0.0370  0.0416  0.4680
 6315TIP3    H118909   6.036   2.974   0.721 -0.1431 -1.6859 -0.8821
 6315TIP3    H218910   5.946   3.015   0.607 -0.4179  1.6464  0.4278
 6316TIP3   OH218911   6.220   5.160   3.953  0.1586 -0.7675 -0.1211
 6316TIP3    H118912   6.280   5.193   3.885 -1.7426 -1.2764 -2.1704
 6316TIP3    H218913   6.217   5.230   4.018  2.1406 -0.2924 -0.4734
 6317TIP3   OH218914   0.597   5.518   0.946  0.3450  0.5336 -0.3904
 6317TIP3    H118915   0.550   5.438   0.970  1.6948  0.1330  1.1138
 6317TIP3    H218916   0.577   5.580   1.017 -0.2491  1.3634 -1.2555
 6318TIP3   OH218917   6.557   2.494   2.616 -0.1374 -0.4091 -0.4341
 6318TIP3    H118918   6.501   2.487   2.693  3.0484 -2.0318  1.9433
 6318TIP3    H218919   6.563   2.405   2.582  2.0618 -0.6090  0.3016
 6319TIP3   OH218920   1.812   1.836   4.955  0.4445  0.2893 -0.7667
 6319TIP3    H118921   1.730   1.879   4.929  0.9569  0.4634 -2.1642
 6319TIP3    H218922   1.879   1.901   4.937  0.9361  0.0343  0.0942
 6320TIP3   OH218923   5.521   3.020   0.997 -0.5200  0.5144 -0.1143
 6320TIP3    H118924   5.467   3.015   1.076  0.7110 -0.1517  0.7179
 6320TIP3    H218925   5.478   3.086   0.943 -1.8982  0.3266  0.7083
 6321TIP3   OH218926   1.842   1.163   3.669 -0.3798 -0.3948 -0.5476
 6321TIP3    H118927   1.799   1.243   3.638 -0.8328 -0.5777 -0.3951
 6321TIP3    H218928   1.887   1.129   3.591 -1.5597 -0.8824 -1.0382
 6322TIP3   OH218929   4.893   5.296   4.693 -0.4279 -1.1635  0.0134
 6322TIP3    H118930   4.847   5.370   4.732 -0.8834 -0.2460 -2.1216
 6322TIP3    H218931   4.978   5.294   4.736 -0.2389  0.9001 -0.1886
 6323TIP3   OH218932   6.565   5.878  -0.015 -0.2590  0.2151 -0.2516
 6323TIP3    H118933   6.508   5.807   0.014  1.5640 -1.3528 -0.3218
 6323TIP3    H218934   6.553   5.946   0.052 -2.0706 -0.0984 -0.1997
 6324TIP3   OH218935   6.229   3.449   4.554  0.1160 -0.0368 -0.0406
 6324TIP3    H118936   6.184   3.369   4.530  0.3041  0.1674 -1.1120
 6324TIP3    H218937   6.297   3.460   4.488  0.5052  0.6707  0.4548
 6325TIP3   OH218938   1.345   2.048   4.575 -0.6681  0.4375  0.0643
 6325TIP3    H118939   1.347   2.101   4.495 -0.5408  1.6266  0.8304
 6325TIP3    H218940   1.355   1.958   4.544 -1.8208  0.7547 -1.3635
 6326TIP3   OH218941   7.184   3.652   1.909 -0.4792  0.4623 -0.7172
 6326TIP3    H118942   7.140   3.568   1.897 -0.0355  0.3074 -1.3096
 6326TIP3    H218943   7.134   3.696   1.977 -1.1313  0.0023 -0.8912
 6327TIP3   OH218944   6.767   5.390   5.446 -0.6292  0.3393 -0.2245
 6327TIP3    H118945   6.689   5.357   5.401 -0.9060 -1.3418  1.3750
 6327TIP3    H218946   6.733   5.436   5.522 -0.0694 -0.1698  0.3376
 6328TIP3   OH218947   1.281   5.494   3.019  0.0675  0.2210 -0.3348
 6328TIP3    H118948   1.204   5.508   2.964  0.8727  2.2412 -1.0542
 6328TIP3    H218949   1.280   5.567   3.082 -0.0963 -1.2888  1.5101
 6329TIP3   OH218950   0.743   2.043   2.149  0.4664 -0.3827  0.0856
 6329TIP3    H118951   0.663   2.077   2.191 -0.4618 -2.0383 -0.2634
 6329TIP3    H218952   0.810   2.049   2.217 -0.3833 -0.5942  0.9727
 6330TIP3   OH218953   5.558   2.077   0.218  0.0624  0.0944 -0.8307
 6330TIP3    H118954   5.572   2.166   0.251 -1.3632  0.4144 -1.0139
 6330TIP3    H218955   5.606   2.021   0.279  0.5277  0.9515 -0.3916
 6331TIP3   OH218956   4.790   0.626   0.451 -0.1100  0.3748 -0.0046
 6331TIP3    H118957   4.759   0.543   0.415 -2.7082  1.5533 -0.6613
 6331TIP3    H218958   4.853   0.658   0.386 -1.1106  0.1663 -1.1126
 6332TIP3   OH218959   6.972   1.689   1.965 -0.2757 -0.7092 -0.3112
 6332TIP3    H118960   6.889   1.727   1.938 -0.9586 -1.8279  0.1750
 6332TIP3    H218961   6.961   1.668   2.058  0.8852  0.0016  0.0171
 6333TIP3   OH218962   5.780   3.605   2.001 -0.6655 -0.1904  0.3930
 6333TIP3    H118963   5.800   3.536   2.065  0.3066  0.8056  1.2060
 6333TIP3    H218964   5.728   3.561   1.934  0.8426 -1.9900  0.3239
 6334TIP3   OH218965   2.312   6.605   2.992  0.1367 -0.5882 -0.3186
 6334TIP3    H118966   2.220   6.633   2.999 -0.6853 -3.3715  2.0603
 6334TIP3    H218967   2.313   6.518   3.031  3.7667 -0.8366 -0.6644
 6335TIP3   OH218968   2.216   5.384   3.960 -0.2254 -0.1016  0.0579
 6335TIP3    H118969   2.143   5.323   3.948 -1.1736  0.9996 -0.0768
 6335TIP3    H218970   2.204   5.448   3.889 -0.3134  1.2051  1.2138
 6336TIP3   OH218971   1.035   0.738   2.615 -0.5516  0.0360 -0.3556
 6336TIP3    H118972   0.993   0.702   2.537 -0.7416  1.6490 -1.0376
 6336TIP3    H218973   1.108   0.790   2.581 -0.2763  0.2863  0.5891
 6337TIP3   OH218974   2.608   5.613   4.783  0.4097 -0.3891  0.3730
 6337TIP3    H118975   2.632   5.525   4.754  1.4825 -0.0167  0.0576
 6337TIP3    H218976   2.652   5.623   4.868  1.4323  0.2974 -0.2029
 6338TIP3   OH218977   5.399   0.576   3.309 -0.1015 -0.0735 -0.1376
 6338TIP3    H118978   5.363   0.514   3.245  0.0112 -0.5927  0.2964
 6338TIP3    H218979   5.441   0.644   3.255 -2.0348  0.7705 -0.6767
 6339TIP3   OH218980   3.421   6.690   4.942 -0.2537 -0.4552  0.9052
 6339TIP3    H118981   3.369   6.620   4.901  0.6330 -0.2539 -0.6401
 6339TIP3    H218982   3.490   6.644   4.989  0.4580 -0.6526 -0.2885
 6340TIP3   OH218983   3.952   6.441   4.270  0.0916 -0.8066  0.0239
 6340TIP3    H118984   3.928   6.369   4.329  0.4881 -1.6088 -0.7702
 6340TIP3    H218985   4.044   6.459   4.292 -0.4683  0.6328  1.3915
 6341TIP3   OH218986   5.440   3.238   0.832 -0.3402 -0.3831  0.3047
 6341TIP3    H118987   5.370   3.303   0.828  1.2255  1.3458 -0.9396
 6341TIP3    H218988   5.426   3.183   0.755 -0.4627 -0.1922  0.1885
 6342TIP3   OH218989   4.817   3.266   2.893  0.1169  0.3206 -0.2574
 6342TIP3    H118990   4.852   3.318   2.821  1.1306  0.8759  0.5877
 6342TIP3    H218991   4.824   3.324   2.969 -1.4767 -0.0384  0.1866
 6343TIP3   OH218992   1.413   5.899   4.447 -0.2027 -0.3222 -0.1034
 6343TIP3    H118993   1.406   5.878   4.354 -0.0655  0.9868 -0.4205
 6343TIP3    H218994   1.464   5.980   4.450  0.1902 -0.5931  1.1402
 6344TIP3   OH218995   6.882   3.591   2.958  0.0001 -0.8197  0.4644
 6344TIP3    H118996   6.917   3.680   2.970  0.2468 -0.7376 -0.7000
 6344TIP3    H218997   6.894   3.549   3.043  0.4887  0.0577  0.8469
 6345TIP3   OH218998   5.663   4.844   5.298 -0.2441  0.1498 -0.0404
 6345TIP3    H118999   5.699   4.811   5.381 -0.0381  0.0060 -0.1856
 6345TIP3    H219000   5.627   4.766   5.255 -0.7266  0.2934  0.1023
 6346TIP3   OH219001   1.433   2.388   4.303  0.4072  0.4818  0.0411
 6346TIP3    H119002   1.484   2.309   4.291  2.8737  1.7091  1.7495
 6346TIP3    H219003   1.451   2.441   4.225  2.0896  1.0385  0.7751
 6347TIP3   OH219004   1.279   3.337   5.634 -0.0034  0.1947 -0.2479
 6347TIP3    H119005   1.330   3.324   5.714  1.5222  0.3114 -1.1539
 6347TIP3    H219006   1.238   3.252   5.618 -0.5623  0.2574  0.8122
 6348TIP3   OH219007   3.643   0.280   2.594 -0.4280 -0.3024  0.3650
 6348TIP3    H119008   3.551   0.306   2.604 -0.3735  0.0214  0.0383
 6348TIP3    H219009   3.661   0.293   2.501  0.7009  2.1593  0.8442
 6349TIP3   OH219010   4.778   6.535   0.975  0.5279  0.2883 -0.2003
 6349TIP3    H119011   4.795   6.453   1.020  1.1601  1.4888  1.8620
 6349TIP3    H219012   4.684   6.548   0.982  0.5983  0.3793  0.6727
 6350TIP3   OH219013   2.759   2.842   1.984 -0.0107 -0.4561 -0.4469
 6350TIP3    H119014   2.814   2.823   2.060  0.8625 -1.3025 -1.2628
 6350TIP3    H219015   2.671   2.816   2.011 -0.0991  1.1590  0.9642
 6351TIP3   OH219016   2.059   5.000   3.417 -0.2294 -0.5854 -0.7445
 6351TIP3    H119017   1.992   4.981   3.483 -0.9392  0.4826 -1.1416
 6351TIP3    H219018   2.141   5.002   3.467 -0.6262 -0.7844 -0.0653
 6352TIP3   OH219019   5.279   6.402   1.501 -0.1194  0.7050  0.6022
 6352TIP3    H119020   5.349   6.428   1.442  0.1051 -0.9561  0.0848
 6352TIP3    H219021   5.267   6.308   1.484 -2.7398  1.0140  0.4027
 6353TIP3   OH219022   5.887   2.481   2.728  0.1115  0.3008  0.2184
 6353TIP3    H119023   5.923   2.407   2.678 -1.6124  0.5932 -1.5317
 6353TIP3    H219024   5.890   2.451   2.819  1.8392 -0.8847 -0.1805
 6354TIP3   OH219025   3.381   5.418   3.053  0.1958 -0.0145  0.2228
 6354TIP3    H119026   3.385   5.502   3.098  0.1927 -0.6092  1.3724
 6354TIP3    H219027   3.467   5.408   3.012 -0.0592  0.8813 -0.5799
 6355TIP3   OH219028   6.651   3.360   2.262 -0.2986 -0.5442  0.6935
 6355TIP3    H119029   6.687   3.412   2.334  0.5761  0.8235 -0.6907
 6355TIP3    H219030   6.585   3.418   2.222 -0.7943 -1.3028  0.3944
 6356TIP3   OH219031   1.941   2.089   2.234 -0.4740  0.3554 -0.2506
 6356TIP3    H119032   1.933   1.993   2.234  1.7878  0.1262  0.0602
 6356TIP3    H219033   1.937   2.113   2.142 -2.1485  0.1212 -0.2818
 6357TIP3   OH219034   3.661   3.797   3.574 -0.6021 -0.1248  0.1929
 6357TIP3    H119035   3.754   3.816   3.563 -0.5291  0.2491  1.2760
 6357TIP3    H219036   3.616   3.873   3.540 -0.4235  0.5682  1.4351
 6358TIP3   OH219037   2.982   2.787   0.993  0.1494  0.2066 -0.0200
 6358TIP3    H119038   2.932   2.865   0.967 -0.3911 -0.6154 -1.5836
 6358TIP3    H219039   3.057   2.786   0.933  0.6285 -0.0122  0.5719
 6359TIP3   OH219040   0.249   1.448   1.882 -0.1155  0.3411 -0.5196
 6359TIP3    H119041   0.234   1.368   1.830 -1.8816 -0.1549  0.6334
 6359TIP3    H219042   0.344   1.460   1.881  0.1043 -1.1180 -1.6865
 6360TIP3   OH219043   6.865   2.893   4.531 -0.1550 -0.5493  0.3350
 6360TIP3    H119044   6.834   2.867   4.444  1.2231 -0.5341 -0.1702
 6360TIP3    H219045   6.960   2.889   4.525 -0.0337 -1.8220  2.2304
 6361TIP3   OH219046   6.583   1.897   5.340 -0.1822 -0.1929 -0.2063
 6361TIP3    H119047   6.495   1.868   5.314 -1.7702  1.1648  3.0564
 6361TIP3    H219048   6.598   1.976   5.287 -0.8353 -0.5607 -0.9599
 6362TIP3   OH219049   1.340   2.935   0.475  0.1208 -0.1920 -0.1447
 6362TIP3    H119050   1.422   2.954   0.522 -0.5809  0.6472  0.7915
 6362TIP3    H219051   1.303   2.860   0.521  0.8618 -1.2667 -1.2425
 6363TIP3   OH219052   4.460   2.510   1.103  0.4558 -0.6386 -0.1720
 6363TIP3    H119053   4.507   2.442   1.151  1.8486 -0.0395 -0.6258
 6363TIP3    H219054   4.397   2.462   1.049 -0.3300 -1.3855  1.3572
 6364TIP3   OH219055   3.870   5.001   0.704  0.4656 -0.0652 -0.2469
 6364TIP3    H119056   3.845   5.069   0.641 -0.5054 -0.0215  0.1637
 6364TIP3    H219057   3.926   4.942   0.655  0.7468  0.6516 -0.8091
 6365TIP3   OH219058   6.283   1.823   4.250  0.3841 -0.0810 -0.5660
 6365TIP3    H119059   6.202   1.857   4.212  0.0476  0.0323  0.2221
 6365TIP3    H219060   6.320   1.768   4.182  0.0187  0.4468 -1.2055
 6366TIP3   OH219061   6.354   3.260   1.671 -0.8208 -0.1990  0.3345
 6366TIP3    H119062   6.383   3.246   1.761  0.2090  0.6704  0.1457
 6366TIP3    H219063   6.335   3.171   1.639 -1.8066 -0.4713  1.5842
 6367TIP3   OH219064   3.213   6.391   1.201 -0.4419 -0.0727  0.1086
 6367TIP3    H119065   3.218   6.428   1.289  1.4190 -1.1219  0.4983
 6367TIP3    H219066   3.203   6.467   1.144  0.9076  0.8682  1.0595
 6368TIP3   OH219067   7.068   1.742   3.093  0.3785  0.2910  0.1918
 6368TIP3    H119068   7.021   1.736   3.176 -0.3502 -1.1902 -0.2767
 6368TIP3    H219069   7.117   1.824   3.098 -1.3838  1.3386  1.1689
 6369TIP3   OH219070   0.436   2.043   5.854 -0.1397 -0.3351  0.5490
 6369TIP3    H119071   0.431   1.966   5.797  0.2997  1.5990 -2.3286
 6369TIP3    H219072   0.530   2.055   5.870 -0.0297  0.5841 -0.5986
 6370TIP3   OH219073   0.613   6.038   2.467  0.0970 -0.4530 -0.2585
 6370TIP3    H119074   0.629   5.954   2.424 -0.8919 -0.1977 -1.1656
 6370TIP3    H219075   0.533   6.071   2.426 -0.6981 -0.0278  1.5666
 6371TIP3   OH219076   0.466   5.259   4.163  0.3176 -0.3401 -0.0361
 6371TIP3    H119077   0.453   5.350   4.190  0.0237 -0.1931 -0.6614
 6371TIP3    H219078   0.489   5.265   4.071 -0.9190 -0.9709 -0.4036
 6372TIP3   OH219079   4.456   3.473   3.087  0.1451  0.7062 -0.0788
 6372TIP3    H119080   4.374   3.426   3.099 -0.2555  0.6559 -2.5222
 6372TIP3    H219081   4.470   3.519   3.170 -0.9115 -1.4315  1.3734
 6373TIP3   OH219082   3.876   4.415   2.247 -0.2341  0.0945  0.4726
 6373TIP3    H119083   3.851   4.391   2.336 -3.0068 -0.0679 -0.2627
 6373TIP3    H219084   3.959   4.369   2.232 -0.2282 -0.7004  2.5855
 6374TIP3   OH219085   6.434   4.415   5.271 -0.5404  0.3195  0.3548
 6374TIP3    H119086   6.483   4.342   5.232 -0.0074  0.8849 -0.0336
 6374TIP3    H219087   6.390   4.456   5.197  0.9947  1.8029  0.2126
 6375TIP3   OH219088   1.181   6.244   0.461  0.9488 -0.0188 -0.4845
 6375TIP3    H119089   1.263   6.291   0.444  0.1197  0.7019 -2.8468
 6375TIP3    H219090   1.208   6.153   0.471  2.0845  0.2431 -0.9710
 6376TIP3   OH219091   4.948   3.723   4.759  0.4672  0.3022 -0.0177
 6376TIP3    H119092   4.992   3.808   4.768  1.0842  0.0643 -0.7681
 6376TIP3    H219093   4.971   3.676   4.839  1.9179  0.0333 -0.5644
 6377TIP3   OH219094   6.285   2.785   2.291 -0.3263  0.5684  0.0845
 6377TIP3    H119095   6.371   2.743   2.280 -0.0800  1.0580  0.1166
 6377TIP3    H219096   6.281   2.807   2.384 -1.3273 -1.2440  0.5131
 6378TIP3   OH219097   5.153   5.874   4.487  0.0630  0.1819 -0.1317
 6378TIP3    H119098   5.076   5.910   4.532 -0.4984  0.0092 -0.9092
 6378TIP3    H219099   5.196   5.818   4.552 -0.3594  0.4446  0.3795
 6379TIP3   OH219100   0.802   4.052   4.543 -0.0493  0.1591 -0.3632
 6379TIP3    H119101   0.767   4.061   4.632 -0.4744 -1.1648 -0.3794
 6379TIP3    H219102   0.897   4.047   4.556  0.0748  2.0997 -0.1860
 6380TIP3   OH219103   5.322   4.613   2.941 -0.1130 -0.0344  0.0631
 6380TIP3    H119104   5.416   4.617   2.958 -0.5068  2.3481  2.3253
 6380TIP3    H219105   5.283   4.603   3.028 -1.9950  0.0791 -0.7285
 6381TIP3   OH219106   7.132   5.696   5.174  0.3431 -0.0349  0.2611
 6381TIP3    H119107   7.134   5.781   5.218  0.0642 -0.2315  0.6585
 6381TIP3    H219108   7.223   5.681   5.146  0.6334 -0.1279  1.2089
 6382TIP3   OH219109   6.573   6.174   3.125  0.3243 -0.1754  0.4873
 6382TIP3    H119110   6.612   6.239   3.067 -0.5507 -1.3329 -1.5045
 6382TIP3    H219111   6.490   6.213   3.152 -0.0784 -0.3307 -0.4876
 6383TIP3   OH219112   6.004   0.960   1.439 -0.2053  0.2467  0.3555
 6383TIP3    H119113   5.948   0.977   1.515  0.3236 -1.1272  1.1053
 6383TIP3    H219114   5.945   0.927   1.372 -0.4096 -0.6862  0.9613
 6384TIP3   OH219115   0.122   5.837   2.197 -0.0171 -0.0088  0.3136
 6384TIP3    H119116   0.084   5.829   2.285 -1.8289  0.3667 -0.3979
 6384TIP3    H219117   0.181   5.912   2.203 -0.3740  0.2178  1.1380
 6385TIP3   OH219118   3.214   1.090   3.182 -0.3353 -0.2396  0.2050
 6385TIP3    H119119   3.143   1.126   3.129  1.2650 -0.0723 -1.9532
 6385TIP3    H219120   3.291   1.141   3.158  0.8038 -1.2134  1.5552
 6386TIP3   OH219121   0.249   3.171   0.382 -0.0430 -0.2802 -0.0188
 6386TIP3    H119122   0.309   3.118   0.435 -0.5501  0.6417  1.5605
 6386TIP3    H219123   0.184   3.108   0.349  0.8909 -1.0382 -0.4495
 6387TIP3   OH219124   5.402   2.771   2.489 -0.0369 -0.1073 -0.3913
 6387TIP3    H119125   5.341   2.834   2.450  0.1195 -0.2580 -0.8921
 6387TIP3    H219126   5.356   2.735   2.564 -0.6687 -0.4280 -0.9312
 6388TIP3   OH219127   0.495   4.924   3.924 -0.5668  0.5822 -0.2540
 6388TIP3    H119128   0.563   4.973   3.971 -0.9823  0.3129  0.6670
 6388TIP3    H219129   0.474   4.977   3.848 -0.1401  1.2353  0.0756
 6389TIP3   OH219130   3.473   6.703   0.987  0.4293  0.1176  0.3508
 6389TIP3    H119131   3.557   6.705   0.941  0.2236  0.3988 -0.0218
 6389TIP3    H219132   3.490   6.742   1.072  0.2358  2.1239 -0.4755
 6390TIP3   OH219133   0.885   1.112   4.522  0.5133 -0.6260 -0.7260
 6390TIP3    H119134   0.827   1.037   4.530 -0.3061  0.1172  0.7994
 6390TIP3    H219135   0.834   1.177   4.473 -0.4064  0.3591  1.3684
 6391TIP3   OH219136   5.518   6.016   5.425  0.1181  0.0618  0.2691
 6391TIP3    H119137   5.507   5.922   5.439  0.1547  0.0364  0.1237
 6391TIP3    H219138   5.553   6.024   5.337 -0.0463  0.2217  0.2171
 6392TIP3   OH219139   2.207   2.326   2.025 -0.6750  0.0627 -0.3752
 6392TIP3    H119140   2.220   2.379   2.103 -2.0514  1.3104 -0.9453
 6392TIP3    H219141   2.265   2.251   2.037  0.3964  1.0618  1.0448
 6393TIP3   OH219142   6.808   6.139   0.617 -0.3709 -0.6443 -0.5362
 6393TIP3    H119143   6.862   6.107   0.690 -0.7118 -0.7553 -0.3289
 6393TIP3    H219144   6.742   6.195   0.659 -0.7984 -1.0041 -0.7150
 6394TIP3   OH219145   1.096   1.108   0.400  0.3410  0.5173  0.0277
 6394TIP3    H119146   1.164   1.041   0.395  0.7747  0.7123  2.3464
 6394TIP3    H219147   1.100   1.153   0.316  0.6547 -1.7495 -1.2459
 6395TIP3   OH219148   5.003   3.859   2.948  0.2934  0.3996  0.1522
 6395TIP3    H119149   5.008   3.954   2.959 -0.6647  0.5326 -0.4463
 6395TIP3    H219150   5.065   3.824   3.012 -1.3371  1.3138  2.3623
 6396TIP3   OH219151   7.037   6.777   0.747 -0.7629  0.5177  0.4389
 6396TIP3    H119152   7.011   6.687   0.767 -1.1984  0.7294  0.8533
 6396TIP3    H219153   7.004   6.792   0.658  2.0883 -0.7736 -0.9572
 6397TIP3   OH219154   1.618   4.508   5.521  0.3299  0.2973  0.1187
 6397TIP3    H119155   1.568   4.575   5.569 -0.6259 -0.8823  0.8461
 6397TIP3    H219156   1.708   4.521   5.549 -0.1860 -0.2889  2.2288
 6398TIP3   OH219157   6.029   2.932   1.861  0.4986 -0.5275 -0.1028
 6398TIP3    H119158   5.983   2.985   1.926  0.1536 -0.9316 -0.0201
 6398TIP3    H219159   5.997   2.843   1.875  1.2846 -0.8114 -0.0558
 6399TIP3   OH219160   4.905   5.864   2.557  0.4380 -0.7742 -0.2226
 6399TIP3    H119161   4.815   5.847   2.584  0.3439 -1.6146 -1.0254
 6399TIP3    H219162   4.920   5.956   2.579 -0.9083 -0.3799 -0.8759
 6400TIP3   OH219163   5.080   5.120   0.583  0.0037  0.6205  0.3442
 6400TIP3    H119164   5.164   5.139   0.542  0.0435  0.1270  0.1889
 6400TIP3    H219165   5.067   5.191   0.646 -0.2210  1.5856 -0.7563
 6401TIP3   OH219166   2.630   2.078   0.884  0.2771 -0.3468 -0.0158
 6401TIP3    H119167   2.565   2.044   0.822  0.2497 -0.6122  0.1534
 6401TIP3    H219168   2.577   2.114   0.955  0.3111 -0.4452  0.0601
 6402TIP3   OH219169   1.280   1.891   4.040  0.0192 -0.0808 -0.0325
 6402TIP3    H119170   1.343   1.824   4.012 -0.9185 -1.0488  0.1088
 6402TIP3    H219171   1.194   1.854   4.019 -0.5059  1.5777 -1.0361
 6403TIP3   OH219172   3.974   4.058   5.749  0.2235  0.8558  0.4624
 6403TIP3    H119173   3.963   4.134   5.692  1.6245 -0.1467 -1.2416
 6403TIP3    H219174   4.043   4.084   5.810  2.5944  0.1666 -1.7524
 6404TIP3   OH219175   2.694   3.251   5.670 -0.1746  0.5470 -0.1661
 6404TIP3    H119176   2.747   3.266   5.592  0.2372  0.2873  0.0598
 6404TIP3    H219177   2.635   3.326   5.673 -1.3418 -0.2736 -1.6397
 6405TIP3   OH219178   5.068   2.566   5.452 -0.5299  0.8368 -0.1225
 6405TIP3    H119179   5.093   2.474   5.457 -1.3952  0.4639 -1.8395
 6405TIP3    H219180   5.120   2.609   5.520  2.2671 -0.4126 -1.3142
 6406TIP3   OH219181   6.526   3.465   3.691 -0.0856  0.4192  0.3135
 6406TIP3    H119182   6.518   3.490   3.599 -1.8171 -0.4423  0.2004
 6406TIP3    H219183   6.563   3.377   3.688  0.0088  0.4528  0.4636
 6407TIP3   OH219184   3.257   4.242   3.269 -0.3179  0.5352  0.1876
 6407TIP3    H119185   3.284   4.328   3.237  0.1173  0.5866  0.6664
 6407TIP3    H219186   3.170   4.229   3.232  0.6539  0.0036 -2.0781
 6408TIP3   OH219187   5.943   1.315   5.160  0.0537 -0.4515  0.4060
 6408TIP3    H119188   6.025   1.356   5.189  0.8402 -0.7144 -1.3434
 6408TIP3    H219189   5.877   1.352   5.218  0.5406  3.8999 -1.4056
 6409TIP3   OH219190   0.500   4.437   4.823  0.4030  0.1070 -0.4910
 6409TIP3    H119191   0.422   4.423   4.769  0.7288 -1.8055 -0.5558
 6409TIP3    H219192   0.565   4.473   4.764  0.7925 -2.0715 -1.4900
 6410TIP3   OH219193   5.753   4.927   5.764  0.7757  0.5307 -0.2174
 6410TIP3    H119194   5.737   4.944   5.857  1.4847 -1.5457  0.3340
 6410TIP3    H219195   5.670   4.950   5.721 -0.4389 -0.8160  1.2685
 6411TIP3   OH219196   2.708   5.384   0.455  0.3047 -0.0341  0.5295
 6411TIP3    H119197   2.723   5.337   0.537 -2.1493 -1.4085  0.2974
 6411TIP3    H219198   2.642   5.332   0.409 -0.0801  1.9021 -1.2990
 6412TIP3   OH219199   4.353   0.228   4.336  0.4380  0.2631  0.1561
 6412TIP3    H119200   4.328   0.136   4.352 -0.6951  0.6424  0.7255
 6412TIP3    H219201   4.419   0.246   4.403  1.2050 -0.3289 -0.4132
 6413TIP3   OH219202   0.854   6.205   4.664 -0.0024 -0.3822 -0.0953
 6413TIP3    H119203   0.891   6.275   4.718  0.4318 -0.6045 -0.1021
 6413TIP3    H219204   0.762   6.200   4.691  0.6327 -1.8387  2.0881
 6414TIP3   OH219205   2.833   0.188   1.294 -0.3635 -0.3601  0.1304
 6414TIP3    H119206   2.882   0.112   1.264 -0.7238 -1.4433  2.1781
 6414TIP3    H219207   2.759   0.194   1.233  1.5708  0.6559 -2.3375
 6415TIP3   OH219208   3.151   1.662   2.172 -0.1370  0.3433 -0.2682
 6415TIP3    H119209   3.094   1.710   2.233  2.1447  1.5512  1.0575
 6415TIP3    H219210   3.191   1.593   2.225 -2.2254 -2.2554 -1.8136
 6416TIP3   OH219211   3.031   6.266   2.803 -0.6989 -0.0219 -0.6819
 6416TIP3    H119212   3.101   6.303   2.749 -0.4976  0.8727  0.1662
 6416TIP3    H219213   2.958   6.327   2.793 -0.7656 -0.0172 -0.2130
 6417TIP3   OH219214   2.913   4.295   2.068 -0.9098 -0.1766  0.1640
 6417TIP3    H119215   2.966   4.339   2.134 -0.1247  1.4475 -1.4449
 6417TIP3    H219216   2.904   4.360   1.998 -2.0169 -1.6864 -1.1579
 6418TIP3   OH219217   2.291   0.031   1.154  0.4724  0.5766 -0.2675
 6418TIP3    H119218   2.226   0.016   1.086  0.2445  0.7685 -0.0940
 6418TIP3    H219219   2.241   0.067   1.227  1.0805  2.7223 -0.8599
 6419TIP3   OH219220   6.550   0.760   3.117  0.3340  0.1092 -0.6597
 6419TIP3    H119221   6.521   0.719   3.035  1.8704  1.2259 -1.8030
 6419TIP3    H219222   6.587   0.844   3.091 -1.2009  1.5419  1.4454
 6420TIP3   OH219223   1.364   5.383   5.463 -0.3138  0.7364 -0.1164
 6420TIP3    H119224   1.365   5.293   5.430  0.1762  0.6050  0.2408
 6420TIP3    H219225   1.315   5.378   5.545  0.3987  0.6347  0.3163
 6421TIP3   OH219226   1.623   3.617   4.853 -0.2025 -0.2428  0.8589
 6421TIP3    H119227   1.582   3.703   4.845  0.9710  0.4504  1.9783
 6421TIP3    H219228   1.671   3.605   4.770 -1.2740 -0.3345  0.2380
 6422TIP3   OH219229   2.524   2.697   2.039 -0.1109  0.4344  0.1137
 6422TIP3    H119230   2.477   2.696   1.956 -0.0474 -0.0363  0.0820
 6422TIP3    H219231   2.470   2.752   2.096 -0.3896  0.3878 -0.1019
 6423TIP3   OH219232   5.129   4.272   4.298  0.0954  0.1531 -0.1431
 6423TIP3    H119233   5.167   4.282   4.386 -0.4788 -0.1587  0.1517
 6423TIP3    H219234   5.163   4.346   4.248  1.6427 -0.4810 -0.1035
 6424TIP3   OH219235   1.906   1.098   5.188 -0.3825  0.4199 -0.1715
 6424TIP3    H119236   1.957   1.035   5.239  0.7615  0.5435 -1.1300
 6424TIP3    H219237   1.911   1.179   5.238  1.1380  0.6693 -0.6932
 6425TIP3   OH219238   4.597   6.664   4.176  0.2321 -0.3896  0.0459
 6425TIP3    H119239   4.591   6.666   4.272 -0.6955  0.4545 -0.0116
 6425TIP3    H219240   4.688   6.640   4.158 -0.1044 -2.6836  1.1181
 6426TIP3   OH219241   5.862   5.288   4.256  0.3984  0.1544 -0.0045
 6426TIP3    H119242   5.928   5.340   4.302  0.2137  0.6865 -0.3271
 6426TIP3    H219243   5.888   5.197   4.270  1.6674  0.3697 -0.8018
 6427TIP3   OH219244   6.377   2.437   1.413  0.3970  0.1452  0.0040
 6427TIP3    H119245   6.449   2.411   1.356  0.7381  0.4411  0.2957
 6427TIP3    H219246   6.305   2.379   1.389  0.4204  0.5159 -0.9851
 6428TIP3   OH219247   6.615   6.169   1.650 -0.4149 -0.2050 -0.2152
 6428TIP3    H119248   6.520   6.176   1.658 -0.5037 -1.9655  1.2076
 6428TIP3    H219249   6.649   6.248   1.692 -1.2325  0.5111 -0.8690
 6429TIP3   OH219250   4.604   6.732   4.498  0.4258  0.0274 -0.5801
 6429TIP3    H119251   4.670   6.674   4.460  0.5146 -0.6367  0.5352
 6429TIP3    H219252   4.643   6.819   4.494  0.6936 -0.1268 -1.4060
 6430TIP3   OH219253   5.296   1.624   5.795  0.4421 -0.2004  0.1435
 6430TIP3    H119254   5.287   1.601   5.702  0.0839  2.9544 -0.7336
 6430TIP3    H219255   5.377   1.675   5.799 -0.0575  0.5383  1.3689
 6431TIP3   OH219256   0.332   3.836   5.624 -0.3462  0.2217  0.3260
 6431TIP3    H119257   0.257   3.892   5.606 -0.1463  0.0985 -0.9936
 6431TIP3    H219258   0.368   3.870   5.706 -0.9375  1.2523  0.1771
 6432TIP3   OH219259   5.741   4.763   4.758 -0.4515  0.0626 -0.2955
 6432TIP3    H119260   5.800   4.785   4.829  0.0142  1.4924 -1.0969
 6432TIP3    H219261   5.795   4.714   4.696 -0.0898  1.3284 -1.0060
 6433TIP3   OH219262   3.525   5.097   0.624  0.0073 -0.5410 -0.2891
 6433TIP3    H119263   3.469   5.109   0.547  0.9981 -0.5647 -1.0413
 6433TIP3    H219264   3.514   5.176   0.675 -0.0370 -0.1591 -0.8798
 6434TIP3   OH219265   1.274   2.516   2.850 -0.2370 -0.0525 -0.2836
 6434TIP3    H119266   1.289   2.447   2.785  0.9322  0.8434 -1.0088
 6434TIP3    H219267   1.350   2.573   2.842  0.3504 -0.3012  2.3934
 6435TIP3   OH219268   2.492   5.576   4.399  0.5074 -0.1666  0.6810
 6435TIP3    H119269   2.579   5.606   4.371  0.6571 -1.1375  0.0649
 6435TIP3    H219270   2.507   5.488   4.432 -0.0957  0.0194  1.4678
 6436TIP3   OH219271   2.611   5.032   0.160 -0.1649  0.2794 -0.1754
 6436TIP3    H119272   2.675   5.100   0.144  0.8911 -0.4502  0.7943
 6436TIP3    H219273   2.645   4.955   0.113  1.1442 -0.8727  2.4373
 6437TIP3   OH219274   3.844   4.999   2.648  0.5509  0.5985 -0.4319
 6437TIP3    H119275   3.926   5.039   2.620 -0.0317  1.3568 -1.0976
 6437TIP3    H219276   3.776   5.054   2.610 -0.2803 -0.7054 -0.9087
 6438TIP3   OH219277   1.069   2.634   4.990  0.1915 -0.2912 -0.1570
 6438TIP3    H119278   1.108   2.717   4.964 -2.1266  0.4996 -1.3526
 6438TIP3    H219279   0.975   2.647   4.978 -0.4773 -2.1914  2.2338
 6439TIP3   OH219280   1.634   2.504   1.331 -0.1762  0.5173 -0.0955
 6439TIP3    H119281   1.689   2.446   1.279  0.8652  0.0620  1.4348
 6439TIP3    H219282   1.554   2.455   1.346 -0.3006  0.4750 -0.8596
 6440TIP3   OH219283   3.361   1.845   4.503  0.4329  0.2009  0.2216
 6440TIP3    H119284   3.313   1.904   4.445  0.7537  0.1218 -0.1282
 6440TIP3    H219285   3.363   1.761   4.456  1.9340  0.5141 -0.3249
 6441TIP3   OH219286   2.777   6.729   1.436 -0.4950 -0.0061  0.1402
 6441TIP3    H119287   2.805   6.642   1.406  2.4192  0.8464  0.1423
 6441TIP3    H219288   2.765   6.719   1.531 -1.4698 -0.6732 -0.0328
 6442TIP3   OH219289   6.407   4.870   0.370  0.7620  0.4032  0.0174
 6442TIP3    H119290   6.387   4.895   0.460  2.7813  0.0189  0.6150
 6442TIP3    H219291   6.322   4.848   0.331 -0.0551 -0.2358  2.0719
 6443TIP3   OH219292   2.991   4.531   0.222  0.2463 -0.4510  0.2799
 6443TIP3    H119293   3.072   4.550   0.175  1.3510 -1.5061  1.6431
 6443TIP3    H219294   2.993   4.436   0.235 -0.1300 -0.2448  2.1609
 6444TIP3   OH219295   6.413   5.397   5.805  0.4537 -0.4557  0.2937
 6444TIP3    H119296   6.354   5.342   5.857  1.2656 -1.1682  0.4753
 6444TIP3    H219297   6.498   5.390   5.850  1.4440 -1.9060 -1.6963
 6445TIP3   OH219298   3.685   4.015   4.872  0.0429 -0.4015  0.0933
 6445TIP3    H119299   3.649   3.942   4.922  0.3819  0.0811  1.0608
 6445TIP3    H219300   3.779   4.000   4.871  0.6799  2.0692  3.8623
 6446TIP3   OH219301   0.342   5.330   0.746 -0.3279 -0.1493  0.3762
 6446TIP3    H119302   0.293   5.407   0.717 -0.9908 -0.4288  0.7295
 6446TIP3    H219303   0.345   5.338   0.841 -1.5509 -1.2216  0.5288
 6447TIP3   OH219304   6.215   1.985   5.479  0.1607  0.1181 -0.0542
 6447TIP3    H119305   6.275   2.021   5.413 -0.4574 -1.0805 -1.3180
 6447TIP3    H219306   6.231   2.038   5.557  0.8533  1.6650 -1.1848
 6448TIP3   OH219307   6.540   6.241   2.310 -0.4958  0.2863 -0.0186
 6448TIP3    H119308   6.519   6.181   2.381 -1.9022  1.1071  0.2893
 6448TIP3    H219309   6.485   6.214   2.237  1.0063 -0.6102 -0.8779
 6449TIP3   OH219310   0.038   2.530  -0.013  0.2080 -0.7481  0.3113
 6449TIP3    H119311   0.122   2.533  -0.060 -0.4735  3.9139 -1.1921
 6449TIP3    H219312   0.062   2.526   0.079  1.9295 -2.1233 -0.1432
 6450TIP3   OH219313   4.233   5.058   2.200  0.0831 -0.2184  0.3351
 6450TIP3    H119314   4.303   5.109   2.241 -1.2323  0.7893  1.4341
 6450TIP3    H219315   4.219   4.985   2.261  0.8888 -1.0252 -0.4305
 6451TIP3   OH219316   4.281   2.032   0.576  0.7327 -0.3178 -0.4373
 6451TIP3    H119317   4.240   2.038   0.490  0.9443 -1.3026 -0.6203
 6451TIP3    H219318   4.263   2.117   0.617 -0.7289 -0.3946 -0.8486
 6452TIP3   OH219319   1.995   3.062   4.373 -0.2583 -0.0640  0.3852
 6452TIP3    H119320   2.033   3.020   4.450  0.2120 -2.4714 -1.0542
 6452TIP3    H219321   2.046   3.143   4.362  2.0533 -1.3973  0.6298
 6453TIP3   OH219322   4.658   6.355   0.445 -0.0203 -0.3195  0.5548
 6453TIP3    H119323   4.679   6.367   0.538  0.6716 -2.5883  0.7597
 6453TIP3    H219324   4.711   6.421   0.400  0.1993  0.3255  1.7187
 6454TIP3   OH219325   0.528   1.457   1.867 -0.0417 -0.6751 -0.0190
 6454TIP3    H119326   0.534   1.549   1.893  0.0889 -1.1086  1.5912
 6454TIP3    H219327   0.617   1.432   1.843 -0.2732 -0.0986 -1.5986
 6455TIP3   OH219328   5.266   5.975   4.997  0.1345 -0.5499  0.1930
 6455TIP3    H119329   5.238   6.041   5.062  0.6374  0.4034 -0.5398
 6455TIP3    H219330   5.228   6.006   4.915 -0.0774 -1.4875 -0.0659
 6456TIP3   OH219331   5.889   0.330   5.524  1.1827 -0.4479  0.0152
 6456TIP3    H119332   5.837   0.251   5.535 -0.3822  0.5243 -0.0977
 6456TIP3    H219333   5.825   0.401   5.520  2.5430  0.8465  0.2017
 6457TIP3   OH219334   6.652   4.522   3.822 -0.0701  0.2803 -0.5285
 6457TIP3    H119335   6.684   4.593   3.878  3.4360 -1.3716 -0.1668
 6457TIP3    H219336   6.664   4.443   3.875  0.5420 -1.0298 -2.5345
 6458TIP3   OH219337   2.445   1.668   1.077  0.2722  0.5163  0.1128
 6458TIP3    H119338   2.537   1.641   1.076  0.1662  0.1426 -0.1678
 6458TIP3    H219339   2.446   1.760   1.051  0.6599  0.8489  1.2558
 6459TIP3   OH219340   1.240   1.872   3.160  0.1249  0.4019 -0.1473
 6459TIP3    H119341   1.256   1.783   3.128 -0.0613 -0.0155  0.8672
 6459TIP3    H219342   1.325   1.915   3.154  0.3636 -0.0441 -0.0622
 6460TIP3   OH219343   5.909   3.467   0.406 -0.5102  0.5939 -0.3410
 6460TIP3    H119344   5.957   3.384   0.399 -0.1633  0.5040  2.2716
 6460TIP3    H219345   5.818   3.444   0.387 -0.8357 -0.9629  2.5612
 6461TIP3   OH219346   1.408   3.388   5.396 -0.7517  0.1659  0.0330
 6461TIP3    H119347   1.388   3.304   5.354 -0.5931 -0.7090  1.6371
 6461TIP3    H219348   1.371   3.380   5.484  2.0271  0.5094  1.3332
 6462TIP3   OH219349   1.797   1.759   1.855 -0.2318  0.1441 -0.1166
 6462TIP3    H119350   1.813   1.758   1.761 -1.0899  1.1565 -0.2929
 6462TIP3    H219351   1.791   1.852   1.877  0.8910 -0.0368  1.1104
 6463TIP3   OH219352   0.202   5.241   2.918 -0.9382  0.2990 -0.7162
 6463TIP3    H119353   0.275   5.283   2.962  1.3127 -2.7766 -1.1560
 6463TIP3    H219354   0.199   5.282   2.831 -0.8559  1.6069 -0.1182
 6464TIP3   OH219355   2.399   1.309   2.955  0.1359  0.0059 -0.1770
 6464TIP3    H119356   2.451   1.276   3.028 -1.4627 -1.0410  0.5472
 6464TIP3    H219357   2.308   1.307   2.987 -0.5083  0.3769 -1.8757
 6465TIP3   OH219358   2.951   6.398   4.257 -0.2718  0.2289  0.1790
 6465TIP3    H119359   3.026   6.433   4.209  0.4501 -2.9027 -1.2287
 6465TIP3    H219360   2.989   6.334   4.318 -1.6708  0.1041  0.9709
 6466TIP3   OH219361   2.052   0.378   3.896  0.0873  0.3422 -0.1793
 6466TIP3    H119362   2.056   0.375   3.801  0.2879 -0.7515 -0.1452
 6466TIP3    H219363   2.067   0.470   3.918  1.4807  0.3627 -1.1344
 6467TIP3   OH219364   2.247   0.671   0.535 -0.2553  0.4813 -0.7937
 6467TIP3    H119365   2.279   0.749   0.491 -0.5035  0.6941 -0.6026
 6467TIP3    H219366   2.151   0.682   0.538 -0.3971 -0.3819 -1.8090
 6468TIP3   OH219367   3.738   1.556   0.020 -0.1618  0.0105 -0.1143
 6468TIP3    H119368   3.675   1.484   0.035  0.3267 -0.1117  1.5029
 6468TIP3    H219369   3.816   1.530   0.068  1.2112  0.1281 -2.1627
 6469TIP3   OH219370   1.076   4.914   4.044 -0.1329  0.2827  0.5740
 6469TIP3    H119371   1.101   4.902   4.136  1.7689 -0.2768  0.0170
 6469TIP3    H219372   1.096   5.005   4.025  1.7803 -0.2098  0.0785
 6470TIP3   OH219373   5.414   1.114   2.402 -0.2491  0.1197 -0.0659
 6470TIP3    H119374   5.333   1.119   2.453 -0.9917  0.5933 -1.2494
 6470TIP3    H219375   5.391   1.153   2.317  1.2557  0.3760 -0.3783
 6471TIP3   OH219376   1.413   2.975   1.895  0.4536 -0.1420 -0.2592
 6471TIP3    H119377   1.472   3.045   1.867 -0.2580  0.0829 -1.2482
 6471TIP3    H219378   1.456   2.895   1.863  1.3390 -0.2022  0.9977
 6472TIP3   OH219379   0.237   4.814   3.341 -0.0052  0.0182  0.2563
 6472TIP3    H119380   0.155   4.837   3.298 -0.2325 -1.0914  0.0713
 6472TIP3    H219381   0.211   4.774   3.424  0.4117  1.4304  1.1063
 6473TIP3   OH219382   0.159   2.079   4.235 -0.5842  0.1858 -0.3321
 6473TIP3    H119383   0.154   2.163   4.282 -3.7555  1.0896 -1.9822
 6473TIP3    H219384   0.109   2.018   4.289  0.4400 -0.2865  0.1137
 6474TIP3   OH219385   6.820   2.093   3.215 -0.2337  0.1811 -0.2664
 6474TIP3    H119386   6.813   1.998   3.212 -0.8566  0.2436 -1.5133
 6474TIP3    H219387   6.886   2.114   3.149 -0.7768  0.6642 -0.6593
 6475TIP3   OH219388   0.570   3.249   2.520  0.0945  0.1938 -0.7714
 6475TIP3    H119389   0.590   3.227   2.428 -1.0572 -1.2406 -0.7127
 6475TIP3    H219390   0.475   3.245   2.526  0.1193  0.8544  0.3682
 6476TIP3   OH219391   0.142   2.373   0.739  0.1855  0.1565  0.4553
 6476TIP3    H119392   0.067   2.410   0.694  0.1197  0.2174  0.6130
 6476TIP3    H219393   0.161   2.291   0.693  0.1501  0.2412  0.2889
 6477TIP3   OH219394   6.086   0.114   5.223  0.0319  0.8276 -0.2967
 6477TIP3    H119395   6.096   0.175   5.295 -0.7192  1.3682 -0.6368
 6477TIP3    H219396   6.081   0.028   5.264 -1.6579  1.2258  0.4121
 6478TIP3   OH219397   5.987   0.524   5.218  0.0823  0.1704  0.3923
 6478TIP3    H119398   5.953   0.597   5.268 -1.2277  0.6856 -1.1678
 6478TIP3    H219399   5.927   0.451   5.237  0.4039 -0.0320  0.6458
 6479TIP3   OH219400   3.624   1.712   4.488  0.0053  0.6087 -0.1399
 6479TIP3    H119401   3.679   1.770   4.435 -1.4690  1.4668 -0.8042
 6479TIP3    H219402   3.559   1.770   4.527 -1.7828 -0.6052 -1.1611
 6480TIP3   OH219403   3.941   3.938   4.221  0.4467 -0.1650  0.3676
 6480TIP3    H119404   3.953   4.028   4.194  0.5650 -0.6536 -1.2872
 6480TIP3    H219405   3.964   3.886   4.144  2.1726 -1.6950  1.8073
 6481TIP3   OH219406   5.117   1.717   0.737  0.0418 -0.0355 -0.5730
 6481TIP3    H119407   5.161   1.680   0.814  1.7876 -0.0723 -1.5606
 6481TIP3    H219408   5.116   1.646   0.673  0.4997  0.6367 -1.3352
 6482TIP3   OH219409   1.022   1.031   1.602  0.5734  0.6579  0.7031
 6482TIP3    H119410   1.077   0.976   1.657 -0.2282 -2.3878 -1.2904
 6482TIP3    H219411   0.935   1.025   1.641  0.3561 -0.0928  0.1360
 6483TIP3   OH219412   1.556   3.182   1.763 -0.2904 -0.0161  0.0882
 6483TIP3    H119413   1.474   3.230   1.752 -0.1903  0.0865 -0.2227
 6483TIP3    H219414   1.618   3.225   1.704 -0.2241 -0.5806 -0.2640
 6484TIP3   OH219415   5.461   1.452   2.641 -0.2808  0.2718  0.2362
 6484TIP3    H119416   5.376   1.409   2.656 -0.4750  0.7310  0.4635
 6484TIP3    H219417   5.482   1.431   2.550 -2.0295  2.5007 -0.7999
 6485TIP3   OH219418   3.864   0.392   5.757 -0.1267 -0.0057 -0.5917
 6485TIP3    H119419   3.945   0.432   5.727  1.5361  1.7769  5.0357
 6485TIP3    H219420   3.810   0.465   5.787 -1.7396 -1.4457  0.2276
 6486TIP3   OH219421   4.714   6.775   3.865 -0.7893 -0.4430 -0.0706
 6486TIP3    H119422   4.768   6.809   3.794  1.7240 -0.2074  1.8067
 6486TIP3    H219423   4.745   6.686   3.878 -0.4027 -0.1022  1.4570
 6487TIP3   OH219424   6.400   3.218   0.517 -0.5131  0.1113 -0.5966
 6487TIP3    H119425   6.388   3.137   0.567 -0.6958 -0.7791 -2.0416
 6487TIP3    H219426   6.311   3.251   0.503 -0.5546 -0.3075 -1.3758
 6488TIP3   OH219427   6.457   0.440   4.716  0.2242 -0.1438  0.3633
 6488TIP3    H119428   6.412   0.386   4.651 -1.0573  0.3920  0.7763
 6488TIP3    H219429   6.407   0.427   4.797  0.3374  1.0759  0.6462
 6489TIP3   OH219430   1.303   6.115   5.421  0.4442  0.0237  0.1592
 6489TIP3    H119431   1.354   6.055   5.366  0.8012  2.2868 -2.2123
 6489TIP3    H219432   1.366   6.150   5.484  1.1306  0.4862 -0.7529
 6490TIP3   OH219433   2.863   2.356   4.385 -0.2888 -0.6630 -0.0104
 6490TIP3    H119434   2.838   2.273   4.426  1.1346 -1.0114  0.2088
 6490TIP3    H219435   2.784   2.386   4.339 -0.9895 -1.8333  0.4124
 6491TIP3   OH219436   6.111   4.254   5.226 -0.3270  0.3501  0.0710
 6491TIP3    H119437   6.027   4.296   5.208 -0.5901 -0.3286 -0.3209
 6491TIP3    H219438   6.146   4.300   5.302 -1.8153 -0.4166  1.2564
 6492TIP3   OH219439   6.294   5.817   5.523  0.2799  0.4583  0.2296
 6492TIP3    H119440   6.342   5.763   5.460  1.7742  2.2566 -0.2730
 6492TIP3    H219441   6.348   5.815   5.602  0.3469  1.1582  0.2092
 6493TIP3   OH219442   0.122   3.557   2.964 -0.3951 -0.1906  0.5135
 6493TIP3    H119443   0.062   3.527   2.896 -0.9702  0.1310  0.8691
 6493TIP3    H219444   0.069   3.559   3.044 -0.3480  1.6068  0.5414
 6494TIP3   OH219445   0.285   5.491   0.357  0.1575  0.9266 -0.1901
 6494TIP3    H119446   0.228   5.507   0.432  1.3973  0.7737  0.8153
 6494TIP3    H219447   0.331   5.410   0.379 -0.2998  0.2211 -1.6602
 6495TIP3   OH219448   7.138   4.992   0.084  0.6465 -0.6816  0.1159
 6495TIP3    H119449   7.085   4.913   0.069 -1.5997  0.8103 -0.3446
 6495TIP3    H219450   7.088   5.062   0.042  3.0535  0.8633 -0.3247
 6496TIP3   OH219451   6.594   2.532   0.056  0.4704  0.0484  0.6232
 6496TIP3    H119452   6.643   2.479  -0.007  0.7845  2.6829 -1.5577
 6496TIP3    H219453   6.502   2.516   0.036  0.5688  0.8087 -0.5410
 6497TIP3   OH219454   5.838   5.067   0.161 -0.7539 -0.6962  0.0497
 6497TIP3    H119455   5.874   5.063   0.073 -0.4130 -0.8385  0.1949
 6497TIP3    H219456   5.793   5.151   0.165 -1.2263 -0.9134 -0.4330
 6498TIP3   OH219457   2.055   5.584   2.362  0.0497 -0.0891  0.3129
 6498TIP3    H119458   2.073   5.524   2.290  0.1333  0.9827 -0.5895
 6498TIP3    H219459   2.141   5.609   2.395  0.0505  0.3641 -0.0261
 6499TIP3   OH219460   3.261   0.597   4.457 -0.2797  0.1971 -0.3256
 6499TIP3    H119461   3.188   0.659   4.452  0.6458  1.2367 -1.5710
 6499TIP3    H219462   3.325   0.640   4.513 -0.4835 -0.6019  0.5501
 6500TIP3   OH219463   3.970   4.783   3.159 -0.5035 -0.5735 -0.2051
 6500TIP3    H119464   3.960   4.851   3.092  0.2986  0.7228  0.9184
 6500TIP3    H219465   3.962   4.701   3.112 -1.3018  0.2985 -1.6575
 6501TIP3   OH219466   1.419   2.804   2.171 -0.4757  0.0409  0.0704
 6501TIP3    H119467   1.432   2.712   2.197  0.3611  0.3857  0.9296
 6501TIP3    H219468   1.505   2.833   2.142 -0.2388  1.1463  1.7700
 6502TIP3   OH219469   0.911   4.138   3.353  0.0588 -0.0218  0.1970
 6502TIP3    H119470   0.908   4.232   3.369  1.2268  0.0500  0.0603
 6502TIP3    H219471   0.943   4.101   3.435  1.7953 -0.0632 -0.4494
 6503TIP3   OH219472   7.144   5.237   3.383 -0.1816  0.0522  0.1097
 6503TIP3    H119473   7.088   5.159   3.387 -1.4920  0.8937 -1.1303
 6503TIP3    H219474   7.170   5.244   3.292 -1.1976  1.7976 -0.0891
 6504TIP3   OH219475  -0.000   6.374   5.774 -0.6136 -0.0007 -0.0005
 6504TIP3    H119476   0.058   6.320   5.827 -1.9364 -0.4267  1.0878
 6504TIP3    H219477  -0.043   6.313   5.715 -0.7864  0.1425 -0.0238
 6505TIP3   OH219478   3.436   4.950   4.352  0.0131  0.0463 -0.6038
 6505TIP3    H119479   3.423   4.856   4.350 -2.0012  0.2843 -1.0965
 6505TIP3    H219480   3.386   4.983   4.277 -1.1575  1.6526  0.7773
 6506TIP3   OH219481   5.864   0.186   0.039  0.2778  0.5108 -0.3790
 6506TIP3    H119482   5.804   0.258   0.022 -2.7146 -1.4896  0.8902
 6506TIP3    H219483   5.865   0.135  -0.042  0.6315  0.7846 -0.5481
 6507TIP3   OH219484   5.976   0.716   5.039  0.2631  0.1097  0.1457
 6507TIP3    H119485   6.064   0.751   5.025 -0.1075  1.5877  1.2195
 6507TIP3    H219486   5.987   0.650   5.107  0.4955  0.5499  0.5421
 6508TIP3   OH219487   2.026   5.986   4.311 -0.6439  0.3311 -0.1317
 6508TIP3    H119488   2.023   5.904   4.261 -0.6798  0.5580 -0.5058
 6508TIP3    H219489   2.119   6.002   4.326 -0.6583 -0.0689  0.4326
 6509TIP3   OH219490   3.285   0.417   2.901  0.0517  0.2474  0.2408
 6509TIP3    H119491   3.330   0.376   2.975 -1.0983 -1.3578  0.1165
 6509TIP3    H219492   3.257   0.502   2.934  1.1311  0.3050  1.0513
 6510TIP3   OH219493   3.325   5.148   0.417  0.0907  0.4149 -0.0254
 6510TIP3    H119494   3.347   5.232   0.376 -0.0325  0.0988 -0.7495
 6510TIP3    H219495   3.248   5.117   0.369 -1.4221  1.0496  1.8470
 6511TIP3   OH219496   1.153   1.558   1.402 -0.1651 -0.7000 -0.0821
 6511TIP3    H119497   1.190   1.485   1.450 -1.8698 -0.4098  1.8283
 6511TIP3    H219498   1.199   1.635   1.434 -1.3846 -0.4927  1.2620
 6512TIP3   OH219499   5.034   0.865   3.344 -0.8088 -0.2010 -0.2924
 6512TIP3    H119500   5.051   0.867   3.438  0.4240 -0.1954 -0.4947
 6512TIP3    H219501   5.034   0.771   3.322 -0.9698 -0.1981 -0.3012
 6513TIP3   OH219502   2.186   2.757   4.888  0.4638 -0.4739 -0.2011
 6513TIP3    H119503   2.128   2.779   4.961  1.7940  0.3300  0.6538
 6513TIP3    H219504   2.159   2.815   4.817 -0.5062 -0.9064 -0.2042
 6514TIP3   OH219505   4.802   1.281   2.036 -0.0046 -0.2098  0.2530
 6514TIP3    H119506   4.768   1.344   1.971 -1.6018  1.5844  2.6222
 6514TIP3    H219507   4.892   1.264   2.008 -0.4146  0.9349 -2.0574
 6515TIP3   OH219508   4.696   1.685   1.985  0.5983 -0.2505  0.2259
 6515TIP3    H119509   4.674   1.775   2.008  1.1441  0.1909 -0.8575
 6515TIP3    H219510   4.619   1.634   2.008  0.5861  0.3624  1.5982
 6516TIP3   OH219511   5.466   6.012   0.570 -0.7079 -0.2631  0.8043
 6516TIP3    H119512   5.535   6.048   0.626 -0.9341  0.6789  0.4994
 6516TIP3    H219513   5.469   5.918   0.585  1.2784 -0.3544  0.0874
 6517TIP3   OH219514   2.084   3.640   2.655 -0.0797  0.4007  0.0213
 6517TIP3    H119515   1.994   3.626   2.687 -0.8677  2.4527 -1.1103
 6517TIP3    H219516   2.135   3.571   2.697 -1.8689  0.1946  2.0443
 6518TIP3   OH219517   4.886   6.047   5.707  0.2846 -0.1805 -0.9877
 6518TIP3    H119518   4.796   6.029   5.733  0.2540  2.5006  1.1367
 6518TIP3    H219519   4.930   5.962   5.710 -1.7134 -1.2310 -0.1368
 6519TIP3   OH219520   3.742   5.956   3.806 -0.0218 -0.0808  0.4645
 6519TIP3    H119521   3.815   5.902   3.775  1.0464  1.3062  0.4537
 6519TIP3    H219522   3.727   5.925   3.896  1.4884  0.4522  0.9496
 6520TIP3   OH219523   1.780   4.819   0.735  0.0651  0.3946  0.0918
 6520TIP3    H119524   1.762   4.750   0.798 -1.1766 -0.9574 -1.6337
 6520TIP3    H219525   1.710   4.884   0.749  1.1541  1.2861  1.6216
 6521TIP3   OH219526   6.853   4.154   4.238  0.0587 -0.1396 -0.5873
 6521TIP3    H119527   6.764   4.161   4.203 -0.7638  3.0120  1.7015
 6521TIP3    H219528   6.846   4.088   4.307 -0.6710  0.3726 -0.1477
 6522TIP3   OH219529   0.626   0.478   0.097  0.3692 -0.3571 -0.1603
 6522TIP3    H119530   0.592   0.419   0.164 -1.2827 -0.9851 -1.4781
 6522TIP3    H219531   0.582   0.561   0.114  1.5724  0.1234  0.7854
 6523TIP3   OH219532   0.633   1.222   1.239  0.0455  0.1003  0.1870
 6523TIP3    H119533   0.660   1.133   1.217 -1.5759 -0.4378  0.2354
 6523TIP3    H219534   0.657   1.274   1.163 -0.7247 -0.7653 -0.6761
 6524TIP3   OH219535   1.995   5.316   0.998  0.2232 -0.4449 -0.0582
 6524TIP3    H119536   1.981   5.255   0.926  0.3982 -1.5954  0.8573
 6524TIP3    H219537   1.907   5.344   1.023 -0.0987 -2.3129  1.1510
 6525TIP3   OH219538   2.526   1.826   1.597 -0.5882 -0.4372 -0.0627
 6525TIP3    H119539   2.477   1.902   1.628  0.9810  0.6784 -0.2287
 6525TIP3    H219540   2.502   1.817   1.505 -1.0923 -0.4284  0.0610
 6526TIP3   OH219541   2.313   4.709   1.928  0.2285  0.0607  0.6712
 6526TIP3    H119542   2.230   4.755   1.924 -0.0585 -0.5124 -1.2529
 6526TIP3    H219543   2.289   4.616   1.933  0.7516 -0.0940  0.3677
 6527TIP3   OH219544   3.058   6.080   4.187 -0.0097 -0.3712 -0.1293
 6527TIP3    H119545   3.141   6.039   4.209  0.5218  0.3423 -0.7450
 6527TIP3    H219546   3.061   6.093   4.092 -1.4415 -1.6420 -0.4023
 6528TIP3   OH219547   6.914   3.666   4.051  0.2823 -0.5200 -0.3399
 6528TIP3    H119548   6.915   3.713   3.968 -0.7338  1.7205  0.8333
 6528TIP3    H219549   6.823   3.638   4.062 -0.2536  1.5846  1.1948
 6529TIP3   OH219550   0.023   1.609   1.802  0.1951 -0.0374 -0.4347
 6529TIP3    H119551  -0.021   1.543   1.749  0.7808 -0.0650 -0.8988
 6529TIP3    H219552   0.092   1.561   1.848 -1.3835 -0.3623  1.7427
 6530TIP3   OH219553   5.773   4.857   0.309  0.2273 -0.2592  0.1744
 6530TIP3    H119554   5.687   4.895   0.329 -0.3948 -1.2305 -0.5912
 6530TIP3    H219555   5.816   4.923   0.254 -0.6111 -0.3737 -0.6457
 6531TIP3   OH219556   1.229   3.784   5.701 -0.2634 -0.0626 -0.6225
 6531TIP3    H119557   1.217   3.847   5.772 -0.6746 -4.2894  3.5292
 6531TIP3    H219558   1.322   3.789   5.679  0.3494  0.0152  1.7669
 6532TIP3   OH219559   0.136   0.620   0.000  0.8413 -0.4145 -0.5011
 6532TIP3    H119560   0.104   0.616   0.090  0.0788  2.2214 -0.5997
 6532TIP3    H219561   0.092   0.547  -0.044  0.2334 -0.9462  0.9310
 6533TIP3   OH219562   5.107   1.058   3.150  0.3168  0.2349  0.6208
 6533TIP3    H119563   5.111   1.039   3.244  1.2612 -2.2430  0.1666
 6533TIP3    H219564   5.172   0.999   3.111  0.0391  1.2907 -1.5857
 6534TIP3   OH219565   0.834   6.101   0.050 -0.4844  0.2511 -0.3395
 6534TIP3    H119566   0.876   6.094   0.136 -0.5978  1.9153 -0.1192
 6534TIP3    H219567   0.752   6.052   0.060 -0.8778  1.0998  0.7678
 6535TIP3   OH219568   6.959   1.742   1.268 -0.1200 -0.2172  0.1373
 6535TIP3    H119569   6.910   1.662   1.254 -0.2762 -0.0946 -0.0170
 6535TIP3    H219570   7.044   1.713   1.302  0.2426 -0.5139 -0.9934
 6536TIP3   OH219571   1.096   6.007   4.168  0.2685  0.6607  0.6417
 6536TIP3    H119572   1.084   5.953   4.090 -0.1655 -2.5786  2.7735
 6536TIP3    H219573   1.012   6.050   4.180 -0.3461 -0.4407  0.4250
 6537TIP3   OH219574   3.509   6.048   2.114 -0.4056  0.9496 -0.1303
 6537TIP3    H119575   3.548   5.961   2.126 -1.7897  0.4038  0.5090
 6537TIP3    H219576   3.562   6.087   2.044 -0.7262 -1.0152 -1.5614
 6538TIP3   OH219577   6.052   2.265   4.774  0.5030  0.0571 -0.1164
 6538TIP3    H119578   6.103   2.346   4.778  1.9702 -0.8585  0.5331
 6538TIP3    H219579   6.079   2.223   4.692 -0.6383  0.4421 -0.7112
 6539TIP3   OH219580   4.293   3.920   0.791 -0.1520  0.0186  0.0202
 6539TIP3    H119581   4.353   3.856   0.830 -1.5753 -0.3982  1.6575
 6539TIP3    H219582   4.261   3.878   0.712 -1.8637 -1.8299  1.6010
 6540TIP3   OH219583   3.088   2.144   4.707 -0.2793 -0.3513 -0.6989
 6540TIP3    H119584   3.157   2.111   4.765 -1.2038 -1.0044  0.0575
 6540TIP3    H219585   3.075   2.234   4.736 -0.8766 -0.7343  0.2720
 6541TIP3   OH219586   2.570   4.864   5.732 -0.1539 -0.0235 -0.0268
 6541TIP3    H119587   2.536   4.811   5.661  0.3049  1.1159 -1.1378
 6541TIP3    H219588   2.500   4.865   5.797 -0.3738 -1.5134 -0.2038
 6542TIP3   OH219589   4.142   0.107   2.142  0.2846  0.4569  0.0077
 6542TIP3    H119590   4.117   0.109   2.050 -0.0588  1.2878  0.1024
 6542TIP3    H219591   4.125   0.018   2.171 -2.9269  0.9923  0.1434
 6543TIP3   OH219592   2.821   5.119   2.324 -0.0597  0.0104  0.4134
 6543TIP3    H119593   2.886   5.139   2.257 -1.0873  3.0252  0.1491
 6543TIP3    H219594   2.744   5.169   2.298 -1.8270 -1.8604  1.7912
 6544TIP3   OH219595   6.467   2.033   4.304  0.1592 -0.2244  0.0331
 6544TIP3    H119596   6.455   2.075   4.219  0.4241 -0.7956 -0.2859
 6544TIP3    H219597   6.399   1.966   4.308 -1.6364  1.5451  1.4055
 6545TIP3   OH219598   6.626   3.468   0.814  0.1522  0.2682  0.4972
 6545TIP3    H119599   6.651   3.426   0.731 -0.2796  0.5143  0.2365
 6545TIP3    H219600   6.609   3.559   0.790 -1.1404  0.0784  0.6254
 6546TIP3   OH219601   3.994   0.951   1.618 -0.1234  0.3282 -0.1305
 6546TIP3    H119602   4.082   0.989   1.609 -0.3907  0.7247 -1.2552
 6546TIP3    H219603   3.958   0.953   1.529 -0.2752 -2.2912 -0.1932
 6547TIP3   OH219604   0.737   0.023   5.741 -0.1093  0.4102 -0.9121
 6547TIP3    H119605   0.817   0.047   5.694  1.4780  0.6466  1.7534
 6547TIP3    H219606   0.742   0.071   5.824 -2.7924  0.0388 -0.4447
 6548TIP3   OH219607   0.458   6.564   0.277  0.4572  0.0262 -0.1509
 6548TIP3    H119608   0.420   6.476   0.270  1.6046 -0.4218 -1.0135
 6548TIP3    H219609   0.551   6.552   0.256 -0.0233  2.0439 -4.6501
 6549TIP3   OH219610   5.762   4.974   2.938 -0.2693  0.3215  0.1315
 6549TIP3    H119611   5.824   4.903   2.958 -1.1026 -0.8446 -1.2427
 6549TIP3    H219612   5.754   5.021   3.021  0.3719 -1.1438  1.0891
 6550TIP3   OH219613   4.988   4.253   2.821 -0.2743  0.1106  0.0650
 6550TIP3    H119614   5.021   4.192   2.886 -1.6758  0.0592  0.7678
 6550TIP3    H219615   5.023   4.338   2.848  0.7171 -0.1954 -0.2374
 6551TIP3   OH219616   1.407   5.126   3.305 -0.0697  0.0664  0.0679
 6551TIP3    H119617   1.502   5.122   3.292  0.1175 -1.0724  1.5571
 6551TIP3    H219618   1.375   5.042   3.272 -0.5669  0.4423 -0.4160
 6552TIP3   OH219619   2.698   3.624   1.403  0.6318 -0.1458 -0.2077
 6552TIP3    H119620   2.779   3.635   1.453  0.2143  0.0794  0.4230
 6552TIP3    H219621   2.633   3.597   1.468  0.1685 -0.2038 -0.6893
 6553TIP3   OH219622   1.985   1.096   3.968  0.4382  0.0083  0.4908
 6553TIP3    H119623   2.071   1.110   4.006  0.3347 -1.4227  1.3105
 6553TIP3    H219624   1.926   1.092   4.044 -0.1843 -0.1313  0.0080
 6554TIP3   OH219625   5.559   3.189   2.919  0.2328  0.2954 -0.5990
 6554TIP3    H119626   5.466   3.175   2.938  0.2368  2.1729  1.0892
 6554TIP3    H219627   5.567   3.283   2.906  1.8520  0.1111 -1.1242
 6555TIP3   OH219628   6.725   0.664   2.811 -0.1367 -0.1355  0.3443
 6555TIP3    H119629   6.800   0.614   2.843 -0.8829  0.2691  3.0016
 6555TIP3    H219630   6.716   0.736   2.873 -2.6499 -0.1252  0.0895
 6556TIP3   OH219631   5.906   2.954   0.184 -0.1456  0.4227  0.2905
 6556TIP3    H119632   5.861   2.870   0.177 -0.2365  0.4862  0.1105
 6556TIP3    H219633   5.844   3.011   0.228  0.1233  0.2451  0.9128
 6557TIP3   OH219634   2.489   5.294   4.797  0.4855 -0.1148 -0.0820
 6557TIP3    H119635   2.491   5.209   4.754  1.2933 -0.1169 -0.0591
 6557TIP3    H219636   2.538   5.352   4.738  0.8519  0.0829  0.4041
 6558TIP3   OH219637   2.571   3.166   5.024 -0.4696 -0.3138  0.1195
 6558TIP3    H119638   2.540   3.155   5.114 -0.4321  0.3694  0.2209
 6558TIP3    H219639   2.666   3.175   5.032 -0.5045  0.1277  0.0477
 6559TIP3   OH219640   0.199   5.329   1.886 -0.3437  0.5102  0.7304
 6559TIP3    H119641   0.253   5.346   1.963 -0.4082 -0.7104  1.0729
 6559TIP3    H219642   0.185   5.234   1.888  0.5320  0.2968 -1.3606
 6560TIP3   OH219643   5.325   5.173   0.462  0.0968 -0.5222 -0.4973
 6560TIP3    H119644   5.390   5.126   0.515  2.3048  2.8223  0.0558
 6560TIP3    H219645   5.361   5.174   0.374  0.0759  0.0755 -0.5049
 6561TIP3   OH219646   4.965   0.090   0.336  0.4772  0.3045 -0.7115
 6561TIP3    H119647   4.948   0.070   0.244 -0.6374  0.4335 -0.5499
 6561TIP3    H219648   4.966   0.186   0.340  0.4098  0.3006 -0.5795
 6562TIP3   OH219649   5.450   5.548   0.830  0.3281  0.4943 -0.1631
 6562TIP3    H119650   5.438   5.474   0.890 -1.7792  0.8459 -0.0749
 6562TIP3    H219651   5.445   5.508   0.743  2.5038  0.1156 -0.1804
 6563TIP3   OH219652   0.394   2.449   2.417 -0.3362  0.1477 -0.3559
 6563TIP3    H119653   0.422   2.410   2.499 -1.6560 -0.9064 -0.3790
 6563TIP3    H219654   0.356   2.533   2.442  1.2815  0.8494 -0.1582
 6564TIP3   OH219655   5.931   0.281   0.544 -0.3947  0.1750  0.2081
 6564TIP3    H119656   5.912   0.199   0.590 -0.4551 -0.2301 -0.5224
 6564TIP3    H219657   5.881   0.275   0.463  0.5701  0.3821 -0.4185
 6565TIP3   OH219658   4.967   4.583   5.278  0.1849  0.3077 -0.1951
 6565TIP3    H119659   4.978   4.596   5.184  2.1785  0.5111  0.0405
 6565TIP3    H219660   5.001   4.495   5.294  1.1639  0.8106  0.5398
 6566TIP3   OH219661   5.049   0.378   2.218 -0.3663  0.1389  0.7485
 6566TIP3    H119662   5.069   0.472   2.223  0.1044  0.0312  0.9206
 6566TIP3    H219663   4.960   0.375   2.182  0.0317  0.6210 -0.3221
 6567TIP3   OH219664   1.446   5.223   0.792 -0.4505 -0.3203  0.2020
 6567TIP3    H119665   1.391   5.290   0.751  0.0595  0.2443  0.4237
 6567TIP3    H219666   1.422   5.226   0.885 -1.8647 -1.8466 -0.0654
 6568TIP3   OH219667   5.279   3.156   3.024 -0.4132 -0.1817  0.0564
 6568TIP3    H119668   5.268   3.129   3.115  1.2910  0.6936  0.5589
 6568TIP3    H219669   5.235   3.087   2.974  0.2015 -1.6633  1.4544
 6569TIP3   OH219670   6.008   3.710   0.373  1.2190 -0.1912  0.2313
 6569TIP3    H119671   6.056   3.693   0.292  0.0650 -1.1051 -0.2958
 6569TIP3    H219672   5.982   3.623   0.404 -0.9082  0.3013 -0.0318
 6570TIP3   OH219673   1.245   6.644   2.579  0.2500  0.2125  0.0904
 6570TIP3    H119674   1.180   6.574   2.579  0.8939 -0.4022 -0.3402
 6570TIP3    H219675   1.194   6.725   2.574 -0.5476 -0.1608  1.5653
 6571TIP3   OH219676   5.351   1.505   4.023  0.4134 -0.5645 -0.3233
 6571TIP3    H119677   5.444   1.495   4.004  0.4331 -0.1310 -0.4606
 6571TIP3    H219678   5.308   1.493   3.938  0.3220 -1.0032 -0.2197
 6572TIP3   OH219679   1.338   5.627   4.640 -0.2699  1.4869  0.0256
 6572TIP3    H119680   1.340   5.717   4.670  2.3429  0.7890  2.3631
 6572TIP3    H219681   1.414   5.619   4.582 -0.5963  0.8211 -0.3291
 6573TIP3   OH219682   3.609   2.385   0.297  0.6979 -0.3189  0.1914
 6573TIP3    H119683   3.529   2.358   0.252  1.0600  0.1585 -0.7694
 6573TIP3    H219684   3.595   2.360   0.388 -0.5462 -0.2362  0.0356
 6574TIP3   OH219685   2.995   5.661   3.100  0.1372  0.6218 -0.3023
 6574TIP3    H119686   3.033   5.672   3.186  0.1044  0.5814 -0.2826
 6574TIP3    H219687   2.972   5.568   3.095  0.2182  0.6063 -0.3868
 6575TIP3   OH219688   4.155   0.273   0.235 -0.5274 -0.2258  0.6125
 6575TIP3    H119689   4.248   0.255   0.225 -0.5700  0.8076 -2.9153
 6575TIP3    H219690   4.152   0.358   0.279  0.3662  0.8149 -1.2169
 6576TIP3   OH219691   4.163   5.444   4.992  0.4364  0.5530  0.2952
 6576TIP3    H119692   4.153   5.395   5.074  2.3573 -0.4968 -0.0250
 6576TIP3    H219693   4.082   5.427   4.945 -0.3268  0.4227  1.5865
 6577TIP3   OH219694   3.089   3.570   0.447  0.0481 -0.2008  0.3702
 6577TIP3    H119695   3.002   3.550   0.481 -0.7590 -0.5081 -1.7061
 6577TIP3    H219696   3.127   3.485   0.425  0.6078 -0.0208  0.6073
 6578TIP3   OH219697   4.031   0.564   4.679  0.2411  0.0941 -0.1934
 6578TIP3    H119698   4.010   0.481   4.637 -1.1753 -0.3294  1.2257
 6578TIP3    H219699   4.065   0.539   4.765  0.0518  0.9699  0.1508
 6579TIP3   OH219700   3.173   0.105   5.356  0.6086  0.3372 -0.2381
 6579TIP3    H119701   3.109   0.037   5.379  0.6200  0.2699 -0.4024
 6579TIP3    H219702   3.121   0.181   5.334  0.4865 -0.2493 -2.1734
 6580TIP3   OH219703   3.507   2.167   4.514 -0.0281 -0.5148  0.1964
 6580TIP3    H119704   3.588   2.116   4.505 -0.4057 -1.2783  1.0235
 6580TIP3    H219705   3.464   2.131   4.591  0.3161  1.9568  1.6514
 6581TIP3   OH219706   5.831   4.247   1.278  0.1813  0.0356 -0.2736
 6581TIP3    H119707   5.895   4.309   1.312  1.1375 -0.5972 -0.8975
 6581TIP3    H219708   5.849   4.242   1.185 -0.7061 -0.2490 -0.4407
 6582TIP3   OH219709   3.988   6.230   2.964 -0.0680  0.4751  0.7518
 6582TIP3    H119710   4.053   6.291   2.999 -0.5110  0.4555  1.6290
 6582TIP3    H219711   3.992   6.243   2.869  1.1812  0.5070  0.7945
 6583TIP3   OH219712   0.935   6.247   1.149 -0.6459 -0.0148  0.3104
 6583TIP3    H119713   0.874   6.265   1.078  1.0433 -0.1880 -1.2626
 6583TIP3    H219714   0.982   6.169   1.121  0.4243  0.2112  1.3778
 6584TIP3   OH219715   1.424   2.798   5.068 -0.3229 -0.0705 -0.4833
 6584TIP3    H119716   1.381   2.854   5.004  1.1266  2.9448  0.9154
 6584TIP3    H219717   1.513   2.785   5.034  0.0565  0.4718  0.2540
 6585TIP3   OH219718   5.181   0.422   4.409 -0.3417 -0.1838  0.1177
 6585TIP3    H119719   5.152   0.411   4.319 -1.1218  1.2173  0.1644
 6585TIP3    H219720   5.274   0.399   4.408 -0.3461 -0.1967 -1.0349
 6586TIP3   OH219721   5.898   3.846   1.853  0.0980  0.2321  0.8069
 6586TIP3    H119722   5.861   3.874   1.769  1.5503  1.2957  0.4861
 6586TIP3    H219723   5.854   3.763   1.872 -1.3466  0.7102 -0.2578
 6587TIP3   OH219724   6.000   2.230   5.163 -0.2310  0.1492  0.4634
 6587TIP3    H119725   5.943   2.305   5.172 -0.3593  0.6419 -3.0559
 6587TIP3    H219726   5.973   2.188   5.082  2.2925 -1.4935  0.3295
 6588TIP3   OH219727   2.984   4.090   2.606  0.2701 -0.3639  0.4213
 6588TIP3    H119728   3.078   4.082   2.623  0.3081  0.3352  0.5406
 6588TIP3    H219729   2.958   4.171   2.650 -0.6380 -1.1791  1.4363
 6589TIP3   OH219730   6.537   5.816   1.358  0.2133 -0.0787 -0.2586
 6589TIP3    H119731   6.572   5.809   1.270 -0.2239  0.5796 -0.4974
 6589TIP3    H219732   6.454   5.768   1.355  1.0049 -1.5449  0.2764
 6590TIP3   OH219733   2.332   4.551   0.951  0.5188 -0.1774  0.3796
 6590TIP3    H119734   2.256   4.608   0.942  0.6215  0.1901  1.6858
 6590TIP3    H219735   2.404   4.602   0.913  0.6577  0.7028  1.7674
 6591TIP3   OH219736   1.621   6.042   2.233  0.1193  0.1059 -0.0543
 6591TIP3    H119737   1.660   6.124   2.263 -0.0566  0.7669 -1.5660
 6591TIP3    H219738   1.595   5.997   2.313  1.1213  1.0707  0.8409
 6592TIP3   OH219739   1.336   1.678   1.872 -0.0105 -0.0536  0.5098
 6592TIP3    H119740   1.276   1.605   1.854 -0.5012  0.4540  0.0463
 6592TIP3    H219741   1.381   1.653   1.952 -0.5650 -0.6248  0.6484
 6593TIP3   OH219742   1.637   5.975   5.584 -0.1426 -0.1524 -0.1085
 6593TIP3    H119743   1.721   5.933   5.604 -0.7101 -1.1963  0.1668
 6593TIP3    H219744   1.606   5.929   5.506 -0.0616  0.8279 -0.7325
 6594TIP3   OH219745   5.166   2.770   3.548  0.1062 -0.4411  0.0693
 6594TIP3    H119746   5.106   2.845   3.549  0.4027 -0.2035  0.5818
 6594TIP3    H219747   5.213   2.777   3.631  0.3371 -1.0353 -0.0125
 6595TIP3   OH219748   2.870   6.234   0.737 -0.1368  0.0176  0.2220
 6595TIP3    H119749   2.888   6.184   0.817 -1.4864 -0.2966  0.3462
 6595TIP3    H219750   2.903   6.322   0.756  2.2106 -0.7357  0.0245
 6596TIP3   OH219751   2.078   1.071   2.366  0.1144 -0.4675  0.3539
 6596TIP3    H119752   2.149   1.017   2.401  0.2543 -0.5148 -0.0076
 6596TIP3    H219753   2.110   1.102   2.282 -0.6668 -1.2856 -0.2711
 6597TIP3   OH219754   4.746   1.454   1.862 -0.2075 -0.2294 -0.4295
 6597TIP3    H119755   4.735   1.431   1.770  0.0594  1.2192 -0.8558
 6597TIP3    H219756   4.820   1.515   1.863 -1.0317  0.8137  0.5459
 6598TIP3   OH219757   1.956   5.175   4.066 -0.1872 -0.4959  0.7041
 6598TIP3    H119758   1.937   5.082   4.079  0.7152 -0.5994  1.3533
 6598TIP3    H219759   1.887   5.205   4.006  1.1327 -2.2334 -1.8795
 6599TIP3   OH219760   0.007   2.102   2.880 -1.0343 -0.9662 -0.0672
 6599TIP3    H119761   0.084   2.123   2.933 -1.5381  2.3447 -0.4102
 6599TIP3    H219762   0.035   2.029   2.824  1.4904 -0.5725  0.5602
 6600TIP3   OH219763   5.979   5.030   5.656 -0.1959  0.1147  0.6802
 6600TIP3    H119764   5.896   5.035   5.703  0.4322 -0.0580  1.8561
 6600TIP3    H219765   6.045   5.025   5.725  0.7325 -0.6926 -0.2346
 6601TIP3   OH219766   5.579   0.525   5.061 -0.0829 -0.1281  0.4041
 6601TIP3    H119767   5.537   0.556   5.141  0.0889  0.6899  0.1943
 6601TIP3    H219768   5.518   0.462   5.024 -0.8210  0.5559  0.4421
 6602TIP3   OH219769   2.510   4.117   1.745 -0.0701 -0.3605 -0.2316
 6602TIP3    H119770   2.599   4.132   1.713 -0.3461  2.2819 -0.0413
 6602TIP3    H219771   2.521   4.106   1.840  0.1840 -1.7917 -0.4153
 6603TIP3   OH219772   4.774   2.691   1.977 -0.4270 -0.0015  0.4051
 6603TIP3    H119773   4.790   2.714   2.068 -0.0324  2.1870 -0.1611
 6603TIP3    H219774   4.697   2.634   1.979 -0.9158  0.6791  2.0213
 6604TIP3   OH219775   0.207   4.080   2.929 -0.3660 -0.7705  0.3302
 6604TIP3    H119776   0.222   3.986   2.922 -0.8328 -0.8960  0.9667
 6604TIP3    H219777   0.250   4.106   3.010 -0.6886 -0.5385  0.4324
 6605TIP3   OH219778   2.465   1.791   3.005 -0.3211 -0.1324  0.5728
 6605TIP3    H119779   2.393   1.801   3.067 -1.0307 -1.4539  0.0060
 6605TIP3    H219780   2.436   1.722   2.945  0.2261  1.3025 -1.4182
 6606TIP3   OH219781   0.624   3.448   4.372 -0.4824  0.8900  0.2765
 6606TIP3    H119782   0.688   3.386   4.337  0.7185  1.9783  0.4562
 6606TIP3    H219783   0.541   3.401   4.370  0.4910 -0.9670  1.0435
 6607TIP3   OH219784   0.789   3.834   1.823 -0.0185  0.0237  0.5284
 6607TIP3    H119785   0.835   3.918   1.820 -0.7033  0.4203  1.0810
 6607TIP3    H219786   0.773   3.819   1.916 -0.0781 -0.6279  0.4135
 6608TIP3   OH219787   4.615   0.393   0.387 -0.0464  0.4157 -0.0412
 6608TIP3    H119788   4.669   0.320   0.357 -1.5845 -0.4319 -0.8685
 6608TIP3    H219789   4.598   0.374   0.479 -0.1148 -0.0621 -0.1514
 6609TIP3   OH219790   6.634   1.592   0.174  0.3203  0.1991 -0.0757
 6609TIP3    H119791   6.597   1.537   0.105  0.0568  0.1517  0.1035
 6609TIP3    H219792   6.714   1.546   0.200 -1.3269 -1.7310  2.1191
 6610TIP3   OH219793   1.673   5.212   1.410 -0.1557 -0.4168  0.5161
 6610TIP3    H119794   1.728   5.259   1.473 -0.9379 -0.2754  1.1093
 6610TIP3    H219795   1.659   5.126   1.450 -1.6113  0.0675  1.1253
 6611TIP3   OH219796   0.886   4.144   3.055  0.3490 -0.2083  0.3302
 6611TIP3    H119797   0.890   4.174   3.145 -1.4984 -0.6807  0.6207
 6611TIP3    H219798   0.911   4.052   3.058 -0.9043 -0.5570  0.5820
 6612TIP3   OH219799   3.711   6.094   4.239 -0.4032 -0.1441  0.4337
 6612TIP3    H119800   3.774   6.099   4.311  0.9198 -0.5627 -0.6533
 6612TIP3    H219801   3.695   6.185   4.216 -0.5027 -0.0193  0.9678
 6613TIP3   OH219802   5.726   4.678   3.848  0.4878  0.4280 -0.2177
 6613TIP3    H119803   5.734   4.713   3.937 -1.7240 -1.6970  0.9113
 6613TIP3    H219804   5.632   4.675   3.832  0.6573 -2.6273 -1.1603
 6614TIP3   OH219805   1.105   1.544   5.256 -1.0147 -0.1213  0.4360
 6614TIP3    H119806   1.162   1.548   5.333 -1.8351 -0.9127  1.1262
 6614TIP3    H219807   1.049   1.622   5.264 -0.3938  0.3650  0.0544
 6615TIP3   OH219808   3.122   2.427   2.514 -0.3494 -0.0203  0.0281
 6615TIP3    H119809   3.207   2.450   2.552  0.0797 -0.2939 -0.7341
 6615TIP3    H219810   3.092   2.352   2.564 -1.0578  1.2254  1.5605
 6616TIP3   OH219811   1.858   2.240   0.929  0.4361  0.1933  0.1336
 6616TIP3    H119812   1.903   2.196   1.000 -1.5421  0.2657  1.5154
 6616TIP3    H219813   1.825   2.169   0.873  2.5821  0.1504 -1.1703
 6617TIP3   OH219814   3.038   2.695   4.731  1.0808  0.0943  0.3461
 6617TIP3    H119815   2.972   2.694   4.801  2.1461 -1.8354  1.4342
 6617TIP3    H219816   2.988   2.689   4.650 -0.1204  0.1162  1.0670
 6618TIP3   OH219817   6.025   5.683   0.666 -0.7433  0.5710 -0.0682
 6618TIP3    H119818   6.003   5.773   0.641 -1.5060  1.1260  2.3343
 6618TIP3    H219819   5.987   5.629   0.597 -3.6758  1.9178  0.3264
 6619TIP3   OH219820   6.628   2.813   1.914 -0.1208  0.2807  0.7275
 6619TIP3    H119821   6.681   2.863   1.976  1.0233 -0.9688  0.8081
 6619TIP3    H219822   6.539   2.821   1.947  0.4368 -0.2788  2.5177
 6620TIP3   OH219823   0.936   2.360   5.348  0.1904  0.1724  0.0018
 6620TIP3    H119824   0.841   2.365   5.360  0.3083  1.4222  0.5883
 6620TIP3    H219825   0.972   2.375   5.435  0.9342  1.4112 -0.4959
 6621TIP3   OH219826   3.541   2.399   2.856  0.2480 -0.3295 -0.4536
 6621TIP3    H119827   3.574   2.441   2.936 -1.1249  1.1608 -0.6109
 6621TIP3    H219828   3.607   2.418   2.790 -0.2153  1.4329 -0.4537
 6622TIP3   OH219829   5.899   6.035   2.384 -0.0487 -0.4883 -0.2004
 6622TIP3    H119830   5.912   5.943   2.361 -0.3097 -0.4659 -0.4448
 6622TIP3    H219831   5.808   6.053   2.359  0.2977  0.1028 -1.0887
 6623TIP3   OH219832   3.251   5.900   4.739  0.0333 -0.0861 -0.2167
 6623TIP3    H119833   3.265   5.888   4.832 -0.3088 -0.7842 -0.2470
 6623TIP3    H219834   3.282   5.989   4.721  1.4416 -0.4547  0.2863
 6624TIP3   OH219835   2.072   0.464   4.299  0.1607 -0.3784  0.1013
 6624TIP3    H119836   2.166   0.458   4.287  0.1324  1.0951 -1.2812
 6624TIP3    H219837   2.053   0.558   4.295 -1.3964 -0.6558  0.0444
 6625TIP3   OH219838   1.931   3.370   0.180  0.9986  0.1745  0.7041
 6625TIP3    H119839   1.939   3.433   0.251  0.5741  1.0182  0.0220
 6625TIP3    H219840   1.860   3.404   0.126  1.7890 -0.0452 -0.5194
 6626TIP3   OH219841   4.138   4.744   3.651 -0.4150  0.4393 -0.7531
 6626TIP3    H119842   4.185   4.662   3.642 -0.0153  0.6016 -0.1731
 6626TIP3    H219843   4.200   4.803   3.693 -0.9241  0.8367 -0.5497
 6627TIP3   OH219844   6.045   6.729   4.382  0.3644 -0.3573 -0.5043
 6627TIP3    H119845   5.959   6.688   4.368  0.4387 -0.2930 -1.1899
 6627TIP3    H219846   6.043   6.758   4.473 -0.0168 -1.1136 -0.2597
 6628TIP3   OH219847   6.102   3.339   2.287  0.6340 -0.0322 -0.3969
 6628TIP3    H119848   6.071   3.342   2.378 -2.6955 -1.4764 -1.3269
 6628TIP3    H219849   6.060   3.414   2.245  1.4405  0.1191 -0.9508
 6629TIP3   OH219850   5.180   2.893   1.864 -0.9185  0.6252 -0.4577
 6629TIP3    H119851   5.193   2.844   1.945  0.1458  0.6166 -0.6220
 6629TIP3    H219852   5.096   2.861   1.829 -1.3004  0.5100  0.5449
 6630TIP3   OH219853   3.491   5.347   0.748  0.6851  0.3725  0.0510
 6630TIP3    H119854   3.431   5.418   0.728  0.5420  0.1870 -0.1765
 6630TIP3    H219855   3.466   5.318   0.836 -1.1863 -1.3417 -0.9750
 6631TIP3   OH219856   5.166   5.597   5.187  0.0647 -0.2735 -0.7030
 6631TIP3    H119857   5.150   5.521   5.243  1.7649 -1.5166 -1.8079
 6631TIP3    H219858   5.082   5.643   5.184 -0.5844 -1.2381  1.2460
 6632TIP3   OH219859   3.421   2.710   2.210  0.0207 -0.4015 -0.1126
 6632TIP3    H119860   3.344   2.722   2.156 -1.0073  3.1584  1.8673
 6632TIP3    H219861   3.417   2.618   2.236 -1.6433 -1.1711 -2.6775
 6633TIP3   OH219862   0.512   3.724   4.290  0.0878  0.2246 -0.2797
 6633TIP3    H119863   0.565   3.645   4.294  0.5504  0.4787 -1.1492
 6633TIP3    H219864   0.575   3.796   4.296 -0.3018  0.5365  0.2165
 6634TIP3   OH219865   2.374   1.931   2.462 -0.6432  0.4376  0.1884
 6634TIP3    H119866   2.305   1.985   2.424 -1.1530 -0.4561 -0.1847
 6634TIP3    H219867   2.330   1.877   2.527  0.0888  1.3826  1.4984
 6635TIP3   OH219868   0.621   1.034   4.033 -0.1288  0.2630 -0.2062
 6635TIP3    H119869   0.595   0.971   4.100  0.7313 -1.3487 -1.3196
 6635TIP3    H219870   0.603   1.120   4.072  1.4297 -0.5449  2.5374
 6636TIP3   OH219871   2.864   0.375   3.340 -0.1874 -0.2775 -0.0139
 6636TIP3    H119872   2.827   0.311   3.280 -0.1878 -0.1523 -0.1494
 6636TIP3    H219873   2.801   0.448   3.339  0.5591  0.3690 -1.0170
 6637TIP3   OH219874   0.709   2.860   0.181 -0.2735 -0.0455  0.0573
 6637TIP3    H119875   0.750   2.915   0.113 -1.2813 -0.3436 -0.8223
 6637TIP3    H219876   0.714   2.771   0.146  0.4884 -0.4064  1.0442
 6638TIP3   OH219877   1.963   3.149   3.906  0.2173 -0.1043 -0.0622
 6638TIP3    H119878   1.908   3.081   3.945 -0.9777 -0.2940 -1.9643
 6638TIP3    H219879   1.925   3.231   3.936  0.3379 -0.2504  0.5007
 6639TIP3   OH219880   1.444   5.881   4.174 -0.4519  0.0769  0.0671
 6639TIP3    H119881   1.540   5.880   4.184 -0.5553  0.4503  1.1942
 6639TIP3    H219882   1.430   5.870   4.080  0.7237  0.8028 -0.2175
 6640TIP3   OH219883   1.234   2.179   3.463 -0.0933  0.0855 -0.4210
 6640TIP3    H119884   1.285   2.128   3.400  0.6867  1.9439 -1.3756
 6640TIP3    H219885   1.147   2.185   3.423  0.3749  1.1874 -1.3446
 6641TIP3   OH219886   0.790   1.196   3.283 -0.2713 -0.3278  0.2091
 6641TIP3    H119887   0.793   1.276   3.335  1.2168  0.7216 -1.3728
 6641TIP3    H219888   0.858   1.208   3.217 -1.8544 -1.7151 -1.8000
 6642TIP3   OH219889   0.460   2.305   4.007 -0.2103  0.2785  0.1021
 6642TIP3    H119890   0.454   2.230   3.948  1.2253 -0.6344  1.0461
 6642TIP3    H219891   0.554   2.317   4.020 -0.4675  1.2132  1.2446
 6643TIP3   OH219892   0.611   0.480   4.775  0.2429  0.0570 -0.8407
 6643TIP3    H119893   0.562   0.555   4.808 -0.3484 -0.3841 -0.7078
 6643TIP3    H219894   0.700   0.494   4.806 -0.0773  0.2004  0.0262
 6644TIP3   OH219895   5.509   2.014   3.236  0.2241 -0.3091  0.1107
 6644TIP3    H119896   5.543   1.926   3.255  0.2236 -0.2957  0.1726
 6644TIP3    H219897   5.422   2.015   3.276  0.5818  0.0279  0.8819
 6645TIP3   OH219898   4.684   1.940   1.733 -0.1049 -0.0300 -0.1515
 6645TIP3    H119899   4.716   1.924   1.822 -1.0540 -1.3352 -0.0136
 6645TIP3    H219900   4.643   1.857   1.707 -1.4384  0.8799 -1.1155
 6646TIP3   OH219901   7.023   5.684   1.829  0.3630 -0.0201 -0.3502
 6646TIP3    H119902   6.987   5.667   1.916 -0.0318 -2.1187 -0.8531
 6646TIP3    H219903   7.076   5.763   1.839 -0.7579  0.5576  1.4578
 6647TIP3   OH219904   1.433   2.544   3.416 -0.8346  0.3664 -0.4742
 6647TIP3    H119905   1.408   2.504   3.333 -1.1748  0.1344 -0.2625
 6647TIP3    H219906   1.529   2.547   3.414 -0.8336  0.0992 -0.7512
 6648TIP3   OH219907   5.185   6.683   2.532 -0.7351 -0.1379  0.1082
 6648TIP3    H119908   5.139   6.758   2.497  0.1815  0.4988  0.2219
 6648TIP3    H219909   5.120   6.613   2.535 -0.8272 -0.3365 -3.1195
 6649TIP3   OH219910   4.054   0.188   3.266 -0.0063 -0.3112 -0.3292
 6649TIP3    H119911   4.054   0.098   3.301 -0.9100 -0.3031 -0.2720
 6649TIP3    H219912   4.035   0.243   3.342  1.1784 -0.0073 -0.2434
 6650TIP3   OH219913   6.448   0.590   1.883 -0.7815  0.1908  0.0715
 6650TIP3    H119914   6.494   0.571   1.964 -0.5817 -0.5948 -0.2156
 6650TIP3    H219915   6.356   0.576   1.904 -0.5531 -3.0589 -0.5778
 6651TIP3   OH219916   2.464   3.297   3.392  0.1835  0.6165  1.0278
 6651TIP3    H119917   2.419   3.344   3.322  0.1287 -1.3974 -0.3529
 6651TIP3    H219918   2.551   3.337   3.397  0.5769  0.0855 -0.9730
 6652TIP3   OH219919   3.524   1.399   0.257 -0.3129 -0.3409  0.2768
 6652TIP3    H119920   3.614   1.425   0.276 -0.3679  0.5108 -0.5602
 6652TIP3    H219921   3.490   1.368   0.341  0.1983  1.0369  1.0227
 6653TIP3   OH219922   5.108   2.900   5.836 -0.9151  0.4502  0.4671
 6653TIP3    H119923   5.202   2.920   5.830 -1.2646  2.1443  0.1774
 6653TIP3    H219924   5.079   2.948   5.914 -2.0321  2.1891 -0.9360
 6654TIP3   OH219925   6.489   4.983   5.686 -0.2145 -0.4657  0.8507
 6654TIP3    H119926   6.523   5.042   5.753 -0.1780  0.0555  0.3802
 6654TIP3    H219927   6.422   5.034   5.641  2.2847  0.6063 -1.9818
 6655TIP3   OH219928   2.188   1.486   4.490 -0.2148 -0.6617  0.1016
 6655TIP3    H119929   2.254   1.501   4.557  1.4174 -2.5537 -0.9824
 6655TIP3    H219930   2.230   1.513   4.408 -0.5609 -2.2896 -0.6675
 6656TIP3   OH219931   4.646   4.933   3.415  0.0604 -0.1727 -0.2862
 6656TIP3    H119932   4.730   4.895   3.388  0.1363 -1.8426  2.0140
 6656TIP3    H219933   4.583   4.899   3.351  0.9462  0.2524 -1.4236
 6657TIP3   OH219934   3.853   0.215   5.109 -0.1984 -0.2468  0.4986
 6657TIP3    H119935   3.796   0.140   5.126 -0.2527 -0.5259 -0.7781
 6657TIP3    H219936   3.795   0.279   5.067 -0.0304  0.3059  1.0996
 6658TIP3   OH219937   1.836   3.608   2.817 -0.6162 -0.0520 -0.3227
 6658TIP3    H119938   1.761   3.551   2.805 -0.2471 -0.5280 -0.4125
 6658TIP3    H219939   1.838   3.626   2.911 -1.4133  0.7615 -0.4577
 6659TIP3   OH219940   5.688   4.169   5.496 -0.4534 -0.1125 -0.1429
 6659TIP3    H119941   5.674   4.257   5.532 -2.2204 -0.1409 -0.6947
 6659TIP3    H219942   5.753   4.182   5.427  0.0166  0.5885  0.4070
 6660TIP3   OH219943   3.697   3.096   5.840  0.0192 -0.0239 -0.3537
 6660TIP3    H119944   3.732   3.175   5.798  0.3722 -0.0836 -0.1726
 6660TIP3    H219945   3.608   3.089   5.807 -0.6751  1.5008  1.0501
 6661TIP3   OH219946   0.203   3.364   4.839 -1.0211 -0.5066 -0.7141
 6661TIP3    H119947   0.210   3.429   4.908 -1.2333 -0.7421 -0.4676
 6661TIP3    H219948   0.155   3.291   4.879  1.5299 -1.9779 -0.1042
 6662TIP3   OH219949   5.891   1.803   4.857 -0.0461 -0.1831 -0.0492
 6662TIP3    H119950   5.825   1.868   4.883  1.8023  1.1313  1.6701
 6662TIP3    H219951   5.906   1.820   4.765 -0.1727  1.3207  0.1804
 6663TIP3   OH219952   1.410   3.932   1.706 -0.0433 -0.8138 -0.2899
 6663TIP3    H119953   1.370   3.883   1.778 -0.9439  0.0571 -0.1757
 6663TIP3    H219954   1.337   3.957   1.650  0.2816  0.9945  0.0327
 6664TIP3   OH219955   2.932   0.150   1.998  0.4374  0.4945 -0.5439
 6664TIP3    H119956   2.954   0.212   1.928 -0.2244 -1.4228 -2.5817
 6664TIP3    H219957   3.011   0.096   2.008 -0.1216 -0.4967 -1.2806
 6665TIP3   OH219958   0.297   3.818   2.318  0.4376  0.0422 -0.5653
 6665TIP3    H119959   0.320   3.881   2.386 -2.1989 -0.0793  0.5405
 6665TIP3    H219960   0.270   3.873   2.244  1.2539  0.1752 -0.7744
 6666TIP3   OH219961   0.008   1.733   0.011 -0.4820  0.2392  0.0849
 6666TIP3    H119962   0.030   1.765  -0.076 -1.4035  0.9811  0.0930
 6666TIP3    H219963   0.018   1.810   0.068 -1.8976  0.3328  0.2606
 6667TIP3   OH219964   0.479   2.060   4.376  0.1528 -0.1015 -0.2963
 6667TIP3    H119965   0.491   1.967   4.394  0.3344  0.0900  0.5935
 6667TIP3    H219966   0.560   2.088   4.334  0.0532 -0.3629 -0.6703
 6668TIP3   OH219967   1.910   6.498   2.571 -0.2283  0.7074  0.3616
 6668TIP3    H119968   1.938   6.407   2.577 -4.0902 -0.5528  2.8358
 6668TIP3    H219969   1.892   6.512   2.478 -0.0389 -1.2150 -0.0067
 6669TIP3   OH219970   3.100   5.672   0.344 -0.0108  0.0919 -0.1694
 6669TIP3    H119971   3.036   5.657   0.275  1.7582 -0.1452 -1.8437
 6669TIP3    H219972   3.097   5.593   0.398 -1.3699  0.2529  0.0152
 6670TIP3   OH219973   7.140   2.204   1.181 -0.1575 -0.3727  1.3376
 6670TIP3    H119974   7.230   2.185   1.155 -0.7894  0.0277 -1.4352
 6670TIP3    H219975   7.115   2.129   1.236  1.4139 -1.1916  0.9933
 6671TIP3   OH219976   4.608   5.193   4.974  0.1846  0.0971 -0.2885
 6671TIP3    H119977   4.626   5.279   4.937 -1.6646  0.2242 -1.0320
 6671TIP3    H219978   4.515   5.179   4.957 -0.2357 -0.8442  2.3175
 6672TIP3   OH219979   0.812   1.363   0.300 -0.3240  1.0590 -0.1992
 6672TIP3    H119980   0.900   1.364   0.262 -0.3318  0.4289 -0.2412
 6672TIP3    H219981   0.822   1.405   0.385 -0.2313  2.1376 -0.7291
 6673TIP3   OH219982   5.082   2.626   0.566  0.4257 -1.1548 -0.5655
 6673TIP3    H119983   5.143   2.643   0.638  0.0447 -0.8201 -0.3218
 6673TIP3    H219984   5.080   2.708   0.517 -0.4568 -0.8947 -0.1048
 6674TIP3   OH219985   4.650   6.512   3.530  0.5875  0.2824  0.4097
 6674TIP3    H119986   4.694   6.503   3.614  0.6582  1.9992  0.5897
 6674TIP3    H219987   4.569   6.558   3.549  1.3864  2.2523 -0.6227
 6675TIP3   OH219988   2.364   2.610   2.560  0.2783 -0.0370 -0.1141
 6675TIP3    H119989   2.353   2.662   2.640 -0.8100  0.3456 -0.4852
 6675TIP3    H219990   2.299   2.540   2.567  1.3256 -1.0154  0.1006
 6676TIP3   OH219991   2.343   1.249   4.601 -0.5020 -0.0849 -0.1754
 6676TIP3    H119992   2.419   1.306   4.591 -0.5739  0.2003  0.7972
 6676TIP3    H219993   2.270   1.300   4.566 -0.4838  0.2294  0.2372
 6677TIP3   OH219994   0.740   2.499   0.816 -0.2099  0.0875  0.3499
 6677TIP3    H119995   0.659   2.548   0.827 -2.2383 -2.7482 -0.8195
 6677TIP3    H219996   0.766   2.475   0.905 -2.4950 -1.6125  0.6474
 6678TIP3   OH219997   3.994   6.435   5.127 -0.7618 -0.3533  0.5242
 6678TIP3    H119998   4.081   6.449   5.165  0.1959  0.2578 -1.7430
 6678TIP3    H219999   3.936   6.424   5.203  0.8982  1.4725  2.1663
 6679TIP3   OH220000   0.775   5.997   0.513  0.1219  0.3385 -0.4055
 6679TIP3    H120001   0.782   5.902   0.525 -1.9295  0.2500  0.5421
 6679TIP3    H220002   0.711   6.007   0.442 -0.1522  1.0111 -0.0659
 6680TIP3   OH220003   6.374   3.649   5.212  0.5383 -0.5340  0.6091
 6680TIP3    H120004   6.449   3.639   5.271  0.4817 -0.9375  0.6112
 6680TIP3    H220005   6.323   3.569   5.223 -0.3788  0.1063  1.2896
 6681TIP3   OH220006   3.362   6.036   4.101  0.1278  0.1554  0.1463
 6681TIP3    H120007   3.407   6.001   4.024  0.1026 -0.9192  0.5967
 6681TIP3    H220008   3.336   5.958   4.150  0.0555  0.8258  1.1897
 6682TIP3   OH220009   4.099   1.480   1.053 -0.1452  0.1143  0.3841
 6682TIP3    H120010   4.151   1.559   1.038 -0.2655  0.0052 -0.6989
 6682TIP3    H220011   4.143   1.412   1.002  0.0739 -0.5899  1.4631
 6683TIP3   OH220012   4.274   6.022   3.370  0.0423 -0.1093  0.0549
 6683TIP3    H120013   4.332   6.093   3.341  0.7248  0.2960  2.2751
 6683TIP3    H220014   4.213   6.010   3.297  2.9989 -0.7189 -2.5430
 6684TIP3   OH220015   4.026   5.057   0.909 -0.1761 -0.4423 -0.5538
 6684TIP3    H120016   3.971   5.038   0.833 -1.6670  0.0024  0.3831
 6684TIP3    H220017   4.050   4.970   0.943 -3.1399 -0.7977  0.9832
 6685TIP3   OH220018   6.368   0.101   5.731 -0.4153  0.1760  0.1594
 6685TIP3    H120019   6.335   0.044   5.662 -1.8373  0.5090  0.5106
 6685TIP3    H220020   6.417   0.169   5.686  0.7649 -0.9695 -0.3070
 6686TIP3   OH220021   6.520   0.357   5.177 -0.0940  0.4637 -0.0035
 6686TIP3    H120022   6.600   0.405   5.156 -0.8137  1.3922 -0.7462
 6686TIP3    H220023   6.542   0.265   5.162  0.6618  0.7574 -0.7803
 6687TIP3   OH220024   7.155   0.184   2.322  0.2302 -0.3195  0.5506
 6687TIP3    H120025   7.191   0.272   2.314 -0.3502 -0.1899 -0.9321
 6687TIP3    H220026   7.131   0.159   2.232 -0.4634 -1.6216  1.0665
 6688TIP3   OH220027   1.230   4.218   4.826  0.0513 -0.2892 -0.4151
 6688TIP3    H120028   1.221   4.236   4.733 -1.1950 -1.0144 -0.4522
 6688TIP3    H220029   1.141   4.220   4.860  0.6487  3.4844  1.4842
 6689TIP3   OH220030   6.243   3.287   4.930  0.6737  0.2140 -0.2623
 6689TIP3    H120031   6.184   3.274   4.855  0.1021 -1.8543  0.4711
 6689TIP3    H220032   6.322   3.323   4.891  0.0012  0.2167 -1.7220
 6690TIP3   OH220033   3.954   0.324   1.530 -0.4023  0.1016  0.7752
 6690TIP3    H120034   3.944   0.235   1.564  0.6006 -0.5434 -0.5286
 6690TIP3    H220035   4.019   0.365   1.587  1.1219 -0.8996 -0.1747
 6691TIP3   OH220036   4.291   1.417   4.089  0.0017  0.1885 -0.5861
 6691TIP3    H120037   4.209   1.419   4.040 -0.5630  0.0983  0.3394
 6691TIP3    H220038   4.329   1.332   4.069 -0.7504 -0.2868 -0.0328
 6692TIP3   OH220039   6.485   4.999   5.287 -0.2484  0.2956  0.5528
 6692TIP3    H120040   6.518   5.008   5.198 -0.5495  0.1510  0.4270
 6692TIP3    H220041   6.536   4.926   5.324 -1.3617 -0.8376 -0.0828
 6693TIP3   OH220042   4.703   2.941   0.464  0.3936 -0.1904 -0.3066
 6693TIP3    H120043   4.701   2.953   0.369 -0.7033 -1.5478 -0.4836
 6693TIP3    H220044   4.639   3.004   0.497 -1.1969 -1.5327 -0.7245
 6694TIP3   OH220045   5.481   2.653   2.928  0.0442 -0.2414  0.2687
 6694TIP3    H120046   5.487   2.736   2.975 -0.1474 -0.0148 -0.0967
 6694TIP3    H220047   5.423   2.600   2.981 -0.0761 -0.0297  0.3512
 6695TIP3   OH220048   3.671   1.325   2.588 -0.0252  0.3443  0.1323
 6695TIP3    H120049   3.747   1.348   2.535 -0.1504  0.7177  0.1119
 6695TIP3    H220050   3.626   1.408   2.602 -0.3054  0.1582  0.3364
 6696TIP3   OH220051   7.194   6.430   4.296  0.1627  0.7980  0.0158
 6696TIP3    H120052   7.188   6.409   4.203 -2.8312  0.4527  0.2118
 6696TIP3    H220053   7.239   6.354   4.334  0.1810  0.3063 -0.9589
 6697TIP3   OH220054   5.696   0.558   3.329  0.0040  1.0155 -0.4178
 6697TIP3    H120055   5.635   0.576   3.400  1.2729  2.2097  0.4224
 6697TIP3    H220056   5.756   0.493   3.364 -1.9811 -1.9167 -1.9954
 6698TIP3   OH220057   0.162   5.282   0.128  0.2121  0.3693  0.1714
 6698TIP3    H120058   0.156   5.253   0.219  0.4417 -2.2135 -0.5672
 6698TIP3    H220059   0.251   5.259   0.100 -0.4579 -0.7287 -1.2318
 6699TIP3   OH220060   6.782   3.184   1.612 -0.4286  0.2274  0.3759
 6699TIP3    H120061   6.759   3.202   1.521  0.7084  0.3691  0.1077
 6699TIP3    H220062   6.758   3.092   1.625  0.1350 -0.0237 -0.3127
 6700TIP3   OH220063   1.848   0.071   5.831  0.3237 -0.2264 -0.1917
 6700TIP3    H120064   1.785   0.055   5.761  0.5106 -1.0645 -0.1803
 6700TIP3    H220065   1.811   0.144   5.881 -0.2679 -0.2305 -0.6196
 6701TIP3   OH220066   3.671   0.805   1.297 -0.2899 -1.1273  0.8845
 6701TIP3    H120067   3.692   0.890   1.337 -1.0316 -1.5487  2.2253
 6701TIP3    H220068   3.575   0.805   1.290 -0.2700 -1.7212  0.5586
 6702TIP3   OH220069   2.696   1.831   4.655  0.1160 -0.0440  0.4737
 6702TIP3    H120070   2.701   1.815   4.749  2.2913 -0.1641  0.3924
 6702TIP3    H220071   2.762   1.898   4.638 -0.6629  0.4155 -0.8964
 6703TIP3   OH220072   6.788   0.028   3.057 -0.2380 -0.1964  0.0744
 6703TIP3    H120073   6.810  -0.065   3.048  1.8542  0.4216 -2.3785
 6703TIP3    H220074   6.833   0.071   2.984 -3.6882  2.3576 -0.8462
 6704TIP3   OH220075   3.241   0.628   5.534  0.5741  0.2692  0.2222
 6704TIP3    H120076   3.318   0.572   5.543 -0.6214 -1.2173  1.7999
 6704TIP3    H220077   3.231   0.669   5.619 -0.3150  0.5282  0.0046
 6705TIP3   OH220078   2.708   3.133   0.659 -0.0235 -1.1748 -0.6067
 6705TIP3    H120079   2.625   3.090   0.679 -0.0849 -0.8032 -0.0389
 6705TIP3    H220080   2.686   3.226   0.653  0.2631 -1.1279 -0.9554
 6706TIP3   OH220081   3.806   1.688   3.300 -0.2120  0.1496  0.0548
 6706TIP3    H120082   3.829   1.707   3.209  2.2374 -0.4449  0.4903
 6706TIP3    H220083   3.788   1.594   3.302  2.1722 -0.3528  0.5734
 6707TIP3   OH220084   4.094   1.209   4.620  0.4142 -0.1414 -0.1999
 6707TIP3    H120085   4.160   1.176   4.559 -0.3651  0.3372 -1.3538
 6707TIP3    H220086   4.123   1.180   4.706  2.3585  0.4388 -0.6232
 6708TIP3   OH220087   1.615   1.473   1.948 -0.0021 -0.5213 -0.2628
 6708TIP3    H120088   1.699   1.488   1.993 -0.1458 -1.8908  0.5234
 6708TIP3    H220089   1.634   1.493   1.856  0.6274  1.1478  0.1895
 6709TIP3   OH220090   3.916   2.507   4.517  0.3170  0.8539 -0.2293
 6709TIP3    H120091   3.994   2.556   4.491  1.5063  0.3002  2.0466
 6709TIP3    H220092   3.918   2.428   4.462  1.7364  0.5621  0.1931
 6710TIP3   OH220093   6.707   4.762   3.359 -0.5587  0.3458  0.1235
 6710TIP3    H120094   6.772   4.694   3.375 -0.6765 -0.6239 -2.8428
 6710TIP3    H220095   6.718   4.824   3.431  1.1000 -1.6358  1.7041
 6711TIP3   OH220096   4.031   1.701   3.971 -0.3060  0.0861  0.0163
 6711TIP3    H120097   4.024   1.724   3.878  1.3501  0.2917 -0.0899
 6711TIP3    H220098   4.022   1.605   3.972 -1.3496  0.1614 -0.2094
 6712TIP3   OH220099   1.709   3.668   0.350  0.1458  0.3021 -0.3865
 6712TIP3    H120100   1.762   3.701   0.278 -0.0317  0.7200 -0.3268
 6712TIP3    H220101   1.670   3.588   0.317  0.7243  0.0484 -0.4699
 6713TIP3   OH220102   6.017   2.037   4.481  0.2102 -0.1714 -0.1394
 6713TIP3    H120103   6.083   2.092   4.523  0.4573 -1.3203  1.0740
 6713TIP3    H220104   5.934   2.078   4.505  0.1881 -1.9281  3.5026
 6714TIP3   OH220105   4.291   2.136   5.866  0.1814  0.1854 -0.4831
 6714TIP3    H120106   4.212   2.161   5.913  0.7638 -3.2058  2.7431
 6714TIP3    H220107   4.341   2.218   5.857 -1.9960  1.7404  0.7895
 6715TIP3   OH220108   1.065   2.110   4.428 -0.1573  0.2201  0.2587
 6715TIP3    H120109   1.093   2.200   4.444 -0.8858  0.8318 -1.6169
 6715TIP3    H220110   1.122   2.080   4.358 -0.3927 -0.5492  0.3902
 6716TIP3   OH220111   1.233   4.295   2.353  0.0881 -0.1531 -0.3556
 6716TIP3    H120112   1.261   4.386   2.352  0.7038 -0.3367 -0.3483
 6716TIP3    H220113   1.151   4.295   2.402 -0.4612  0.5423 -1.2398
 6717TIP3   OH220114   6.369   0.023   2.875  0.0460 -0.8880  0.1979
 6717TIP3    H120115   6.408   0.065   2.952 -1.9623  0.0189  0.7813
 6717TIP3    H220116   6.427   0.049   2.803  1.0201 -0.3571  1.1343
 6718TIP3   OH220117   2.910   4.694   1.163 -0.2610  0.0573 -0.5653
 6718TIP3    H120118   2.890   4.643   1.242 -0.0522 -0.8772 -1.0992
 6718TIP3    H220119   2.828   4.736   1.140 -0.5827 -0.4939 -0.4346
 6719TIP3   OH220120   5.571   4.826   2.839  0.2199  0.1639  0.4543
 6719TIP3    H120121   5.656   4.864   2.863 -0.2345  0.8591  1.0021
 6719TIP3    H220122   5.576   4.735   2.869  0.5710  0.3551  0.9927
 6720TIP3   OH220123   5.556   0.476   2.364  0.0709 -0.4680 -0.3723
 6720TIP3    H120124   5.551   0.395   2.414 -1.4847  0.6735  1.4366
 6720TIP3    H220125   5.558   0.545   2.430 -0.8281  1.0581 -1.8665
 6721TIP3   OH220126   4.986   4.487   4.559 -0.4395  0.5832 -0.8311
 6721TIP3    H120127   5.018   4.542   4.487 -0.2453 -0.1799 -1.3449
 6721TIP3    H220128   4.964   4.404   4.517 -0.8670  0.3114 -0.0918
 6722TIP3   OH220129   3.942   4.585   0.898 -0.3165  0.6852  0.3353
 6722TIP3    H120130   3.981   4.669   0.922  1.0603 -0.3833  2.0753
 6722TIP3    H220131   3.930   4.540   0.981  2.1737 -2.1952 -0.7110
 6723TIP3   OH220132   0.893   0.976   2.588 -0.6398  0.2398  0.7794
 6723TIP3    H120133   0.937   0.891   2.597 -0.7073  0.2109  0.8324
 6723TIP3    H220134   0.902   1.017   2.674  0.6639  0.8973  0.3622
 6724TIP3   OH220135   5.578   4.988   3.960  0.1501  0.2171  0.6704
 6724TIP3    H120136   5.637   4.953   3.893 -1.2057 -0.2180 -0.3340
 6724TIP3    H220137   5.548   5.072   3.924  0.7152  0.7938  1.5120
 6725TIP3   OH220138   1.478   6.543   1.335 -0.3316  0.3661 -0.8938
 6725TIP3    H120139   1.402   6.583   1.376  1.4212  2.6860  0.3600
 6725TIP3    H220140   1.547   6.549   1.401  1.4462  0.1305 -2.6267
 6726TIP3   OH220141   5.321   3.049   4.428  0.3888 -0.5807 -0.4414
 6726TIP3    H120142   5.383   3.122   4.414  1.1910 -1.2233 -0.3277
 6726TIP3    H220143   5.235   3.087   4.408  1.0212 -0.2652 -2.9759
 6727TIP3   OH220144   4.787   0.251   4.668  0.9419 -0.3971 -0.2477
 6727TIP3    H120145   4.830   0.254   4.583  0.0185 -2.2841 -0.8526
 6727TIP3    H220146   4.824   0.324   4.717  2.2336  0.1244 -1.9160
 6728TIP3   OH220147   2.789   6.564   3.586  0.2582 -0.7874 -0.5721
 6728TIP3    H120148   2.786   6.476   3.621 -2.4740 -0.9949 -1.0869
 6728TIP3    H220149   2.763   6.554   3.494 -3.5571  0.7823  0.1713
 6729TIP3   OH220150   6.233   0.575   2.576  0.3870 -0.0738 -0.1594
 6729TIP3    H120151   6.305   0.552   2.517  0.0684 -2.9293  0.4001
 6729TIP3    H220152   6.176   0.499   2.573 -1.1132  0.9122  1.6682
 6730TIP3   OH220153   6.578   5.053   2.944  0.0644 -0.6270  0.1397
 6730TIP3    H120154   6.663   5.091   2.966  0.7011 -0.6071 -2.1232
 6730TIP3    H220155   6.551   5.097   2.864 -1.2558 -1.8750 -0.1555
 6731TIP3   OH220156   3.837   2.139   5.709  0.0478 -0.1867 -0.4708
 6731TIP3    H120157   3.743   2.144   5.692  0.1240 -2.5247 -2.0057
 6731TIP3    H220158   3.877   2.149   5.623  1.0984 -1.0551 -0.0987
 6732TIP3   OH220159   1.960   5.429   5.824  0.0318 -0.8080 -0.3622
 6732TIP3    H120160   2.019   5.400   5.754  0.9893 -0.0168  0.0976
 6732TIP3    H220161   2.011   5.420   5.904 -0.7341 -0.8104  0.1359
 6733TIP3   OH220162   0.027   2.225   5.432 -0.3702 -0.3021  0.4251
 6733TIP3    H120163   0.038   2.130   5.428 -1.0211 -0.4319  1.2679
 6733TIP3    H220164   0.022   2.245   5.526 -0.2025  0.5735  0.2620
 6734TIP3   OH220165   4.206   5.233   5.506 -0.0865  0.1219  0.2322
 6734TIP3    H120166   4.207   5.232   5.410 -0.9702  1.0096  0.1990
 6734TIP3    H220167   4.162   5.315   5.529  0.8524  0.3244  1.4111
 6735TIP3   OH220168   1.908   2.705   3.127 -0.3597 -0.2647  0.0375
 6735TIP3    H120169   1.990   2.668   3.161 -0.6172 -1.1149 -0.2548
 6735TIP3    H220170   1.876   2.761   3.198  0.9093  0.7600 -0.1645
 6736TIP3   OH220171   1.856   2.298   2.425 -0.2165  0.6867  0.3530
 6736TIP3    H120172   1.906   2.252   2.357 -1.4896 -0.3773  0.0923
 6736TIP3    H220173   1.872   2.391   2.407 -0.0048  0.4126 -0.9980
 6737TIP3   OH220174   5.430   2.140   3.620 -0.0246  0.2781  0.0594
 6737TIP3    H120175   5.355   2.081   3.609  0.2615 -0.1809  0.5708
 6737TIP3    H220176   5.496   2.088   3.666  1.1985  0.1772 -1.6984
 6738TIP3   OH220177   0.657   0.991   2.384  0.2020  0.2965  0.1214
 6738TIP3    H120178   0.636   0.953   2.299  0.0165 -0.7096  0.5989
 6738TIP3    H220179   0.671   0.916   2.441  1.4151  0.9480  0.7275
 6739TIP3   OH220180   6.412   0.712   1.361  0.2431 -0.7363 -0.0414
 6739TIP3    H120181   6.457   0.782   1.407 -0.6675  0.7391 -1.2738
 6739TIP3    H220182   6.331   0.699   1.410 -1.0472  1.3065 -1.4881
 6740TIP3   OH220183   3.258   4.433   4.360  0.0509  0.3194 -0.2269
 6740TIP3    H120184   3.292   4.439   4.450 -1.5628  0.6210  0.3947
 6740TIP3    H220185   3.273   4.342   4.335  3.9212  0.9926 -1.1372
 6741TIP3   OH220186   2.235   6.182   4.421 -0.0644 -0.2921 -0.3700
 6741TIP3    H120187   2.308   6.243   4.419  1.1997 -1.7557 -0.5946
 6741TIP3    H220188   2.194   6.196   4.507  1.3954 -0.4663  0.3803
 6742TIP3   OH220189   5.060   4.549   0.777  0.3542  0.2111  0.2270
 6742TIP3    H120190   5.035   4.457   0.765  0.4039  0.3579 -1.3029
 6742TIP3    H220191   4.977   4.597   0.770  0.5575  0.4148 -1.0657
 6743TIP3   OH220192   3.722   4.033   5.849 -0.3179  0.1461  0.2392
 6743TIP3    H120193   3.817   4.040   5.840  0.1902 -0.6072  3.7692
 6743TIP3    H220194   3.695   4.115   5.891 -0.7177 -0.8260  1.9876
 6744TIP3   OH220195   6.891   6.187   1.333  0.1786 -0.5353 -0.1813
 6744TIP3    H120196   6.805   6.185   1.290  0.1660  0.0540 -0.1879
 6744TIP3    H220197   6.894   6.272   1.376 -0.3525 -1.6208  2.1167
 6745TIP3   OH220198   5.582   0.872   4.863 -0.5623  0.8479 -0.4009
 6745TIP3    H120199   5.594   0.794   4.919 -1.2844  0.6787 -0.4735
 6745TIP3    H220200   5.642   0.858   4.791  0.7332  1.2930  0.5590
 6746TIP3   OH220201   0.474   2.234   2.254 -0.1586 -0.2806  0.5314
 6746TIP3    H120202   0.545   2.299   2.258 -0.1729 -0.1365 -0.8859
 6746TIP3    H220203   0.397   2.282   2.282 -0.1688  0.3539 -0.5140
 6747TIP3   OH220204   3.559   4.249   1.372 -0.3496 -0.0786  0.2748
 6747TIP3    H120205   3.547   4.340   1.345 -1.1745 -0.4921 -0.7995
 6747TIP3    H220206   3.522   4.246   1.460  0.5163  0.8144  0.6977
 6748TIP3   OH220207   2.597   4.222   4.076  0.2690  0.4067  0.9609
 6748TIP3    H120208   2.622   4.156   4.141  0.8343  0.5611  0.9003
 6748TIP3    H220209   2.677   4.271   4.058 -0.2814  1.5644  1.5162
 6749TIP3   OH220210   0.324   6.623   0.781 -0.6090 -0.0969  0.0996
 6749TIP3    H120211   0.334   6.562   0.854  0.7196  0.0478  0.0745
 6749TIP3    H220212   0.317   6.566   0.704  0.5953 -0.2587  0.0793
 6750TIP3   OH220213   0.051   0.755   4.363  0.5467 -0.1192 -0.4374
 6750TIP3    H120214   0.066   0.683   4.302 -0.1182 -0.0996 -0.6350
 6750TIP3    H220215  -0.023   0.725   4.417  1.5685 -0.4324  0.8205
 6751TIP3   OH220216   6.158   1.315   2.471 -0.2247  0.5112 -0.2449
 6751TIP3    H120217   6.178   1.350   2.385 -0.0847 -1.0208 -0.8554
 6751TIP3    H220218   6.088   1.252   2.456 -1.5074  1.5808  1.0409
 6752TIP3   OH220219   5.149   6.372   1.853 -0.3358 -0.3441  0.1491
 6752TIP3    H120220   5.141   6.432   1.778 -0.2991 -0.3608  0.1317
 6752TIP3    H220221   5.124   6.426   1.929  2.9189  0.7439  0.6233
 6753TIP3   OH220222   5.504   5.382   5.268  0.3480 -0.0807 -0.2271
 6753TIP3    H120223   5.523   5.409   5.358 -1.8674  1.5085 -0.1348
 6753TIP3    H220224   5.512   5.463   5.217  1.4016 -0.9232 -1.4589
 6754TIP3   OH220225   4.696   5.102   4.721 -0.1982 -0.1515 -0.0310
 6754TIP3    H120226   4.696   5.109   4.816 -0.4110  0.6726 -0.0880
 6754TIP3    H220227   4.747   5.177   4.691 -1.2999  0.3907 -0.6179
 6755TIP3   OH220228   1.954   0.269   2.510 -0.5831 -0.7374 -0.1598
 6755TIP3    H120229   2.001   0.315   2.579  1.1897 -0.7274 -1.3029
 6755TIP3    H220230   1.896   0.335   2.472  0.5852  0.0834 -0.5761
 6756TIP3   OH220231   6.414   2.641   0.865 -0.1427 -0.3298  0.1377
 6756TIP3    H120232   6.452   2.643   0.953  1.2800 -4.6535 -0.1534
 6756TIP3    H220233   6.330   2.597   0.876 -1.6526  2.2244 -0.3344
 6757TIP3   OH220234   3.092   3.343   2.637  0.2156  0.0713 -0.0663
 6757TIP3    H120235   3.118   3.315   2.725  0.6175  0.2313 -0.1300
 6757TIP3    H220236   3.092   3.438   2.641 -1.1299  0.0820  0.1414
 6758TIP3   OH220237   5.076   1.464   1.343  0.7127  0.3229 -0.0352
 6758TIP3    H120238   5.144   1.445   1.278  1.2058  0.2292  0.5019
 6758TIP3    H220239   5.004   1.499   1.292  1.6062  1.5714 -0.4812
 6759TIP3   OH220240   3.614   6.186   0.897 -0.0903 -0.2088  0.2443
 6759TIP3    H120241   3.589   6.205   0.807 -1.6834 -0.8865  0.5014
 6759TIP3    H220242   3.645   6.269   0.932  1.5239 -0.1509 -1.1968
 6760TIP3   OH220243   2.204   5.625   3.782  0.0957  0.1158 -0.4261
 6760TIP3    H120244   2.177   5.717   3.779 -0.0824  0.0822  0.0548
 6760TIP3    H220245   2.227   5.604   3.691 -2.7238 -0.2169 -1.1752
 6761TIP3   OH220246   2.363   3.984   5.395 -0.7920  0.3835  0.0126
 6761TIP3    H120247   2.426   3.942   5.454 -2.3906 -2.8706 -0.3466
 6761TIP3    H220248   2.298   4.022   5.454 -1.1784 -0.8355  0.3995
 6762TIP3   OH220249   0.712   5.495   4.659  0.3772  0.0895 -0.0838
 6762TIP3    H120250   0.696   5.588   4.645  1.4153  0.4596  1.0234
 6762TIP3    H220251   0.800   5.479   4.626 -0.1955 -0.7574 -1.2714
 6763TIP3   OH220252   4.215   1.016   3.972  0.2553  0.6171 -0.2379
 6763TIP3    H120253   4.151   0.979   4.033  1.3898  0.1661  0.7090
 6763TIP3    H220254   4.265   1.078   4.024 -0.4218  2.1620 -1.3672
 6764TIP3   OH220255   4.601   3.846   1.134  0.1048  0.2828 -0.0556
 6764TIP3    H120256   4.571   3.922   1.183  2.7416  0.9629  0.6594
 6764TIP3    H220257   4.567   3.771   1.183  0.1157  0.9883  1.0709
 6765TIP3   OH220258   5.046   3.244   1.204 -0.7187  0.4025 -0.3635
 6765TIP3    H120259   5.066   3.150   1.203 -0.2520  0.4996 -0.2772
 6765TIP3    H220260   5.031   3.265   1.296  0.8488  0.7518 -0.1571
 6766TIP3   OH220261   1.663   0.330   2.204  0.2644  0.5308 -0.2397
 6766TIP3    H120262   1.576   0.294   2.184  0.3925 -1.0917  1.7501
 6766TIP3    H220263   1.716   0.310   2.127 -0.2783 -1.7035 -0.1116
 6767TIP3   OH220264   5.866   3.795   3.815 -0.3467 -0.1051 -0.4669
 6767TIP3    H120265   5.888   3.798   3.722  1.3971 -0.0426 -0.0952
 6767TIP3    H220266   5.921   3.863   3.855 -0.2890 -0.8275  0.7350
 6768TIP3   OH220267   5.586   5.499   5.858  0.1943 -0.0533  0.5718
 6768TIP3    H120268   5.492   5.491   5.870  0.1497 -0.4469 -0.0052
 6768TIP3    H220269   5.598   5.585   5.817 -0.0769 -0.6993 -0.9278
 6769TIP3   OH220270   1.597   2.102   5.524 -1.1732 -0.2709 -0.2316
 6769TIP3    H120271   1.593   2.007   5.535 -0.6861 -0.0469  2.6555
 6769TIP3    H220272   1.592   2.137   5.613  0.9850  2.3187 -0.9898
 6770TIP3   OH220273   5.051   6.648   0.649 -0.2231 -0.3358  0.0703
 6770TIP3    H120274   5.104   6.714   0.605 -0.3986 -0.4523 -0.3166
 6770TIP3    H220275   5.110   6.574   0.663  0.1173  0.0806  0.9609
 6771TIP3   OH220276   1.152   6.471   4.349 -0.3903 -0.5128 -0.6504
 6771TIP3    H120277   1.215   6.406   4.317  0.5115  0.0736 -0.1182
 6771TIP3    H220278   1.149   6.457   4.444  0.8625  1.0812 -0.3321
 6772TIP3   OH220279   4.042   1.709   1.619  0.0134  0.1429 -0.1185
 6772TIP3    H120280   4.105   1.721   1.548  0.1081 -2.3058 -0.5104
 6772TIP3    H220281   3.974   1.774   1.602  0.6275  0.3908 -1.7554
 6773TIP3   OH220282   1.917   0.828   4.865  0.2805  0.0277  0.3736
 6773TIP3    H120283   2.006   0.814   4.897  0.4133 -0.2884 -0.1182
 6773TIP3    H220284   1.923   0.812   4.771 -0.1071  0.9069  0.1884
 6774TIP3   OH220285   0.944   6.495   1.679 -0.3693  0.5888  0.7458
 6774TIP3    H120286   0.975   6.437   1.610  0.6601  0.4201  1.3284
 6774TIP3    H220287   0.951   6.443   1.759  1.4773  1.7799  1.4279
 6775TIP3   OH220288   5.441   3.772   5.428  0.3232  0.6235  0.4801
 6775TIP3    H120289   5.498   3.786   5.352 -0.5522  0.3568 -0.2406
 6775TIP3    H220290   5.391   3.854   5.436 -0.6317  0.1228 -0.1518
 6776TIP3   OH220291   6.313   5.209   4.216 -0.7240 -0.1397 -0.2762
 6776TIP3    H120292   6.273   5.295   4.203 -0.4167 -0.2391 -2.2394
 6776TIP3    H220293   6.358   5.216   4.300 -0.4639  1.7294 -0.5191
 6777TIP3   OH220294   0.381   6.428   2.955 -0.2462 -0.3549  0.4058
 6777TIP3    H120295   0.326   6.498   2.922 -0.7732 -0.0438  1.8627
 6777TIP3    H220296   0.320   6.370   3.002  0.6981  0.3910  2.7025
 6778TIP3   OH220297   2.574   5.489   1.727  0.7899  0.4462 -0.0972
 6778TIP3    H120298   2.559   5.523   1.639  0.5490  2.0907  0.5339
 6778TIP3    H220299   2.493   5.443   1.749  0.8744 -0.0279 -0.7386
 6779TIP3   OH220300   5.463   3.875   4.063 -0.1088  0.2517 -0.0210
 6779TIP3    H120301   5.514   3.951   4.034 -0.5949  0.4465 -0.3778
 6779TIP3    H220302   5.398   3.911   4.123 -0.1735  0.0843  0.0111
 6780TIP3   OH220303   4.396   1.977   0.113 -0.4794  0.1934 -0.2465
 6780TIP3    H120304   4.433   1.890   0.127 -2.1691 -0.5848 -0.3958
 6780TIP3    H220305   4.407   1.992   0.019  1.1806  0.8337  0.0086
 6781TIP3   OH220306   4.066   5.216   2.881  0.7439  0.4126 -0.5176
 6781TIP3    H120307   4.109   5.301   2.891  1.8780 -0.3158  1.3212
 6781TIP3    H220308   3.972   5.237   2.882  0.9824  1.5847  0.8837
 6782TIP3   OH220309   3.387   6.753   4.021  0.0387  0.0292 -0.2531
 6782TIP3    H120310   3.385   6.760   4.117 -2.4874  1.2360 -0.3013
 6782TIP3    H220311   3.428   6.668   4.004  1.6957  0.3319  1.8190
 6783TIP3   OH220312   0.318   2.192   1.938  0.3777 -0.1175 -0.0826
 6783TIP3    H120313   0.402   2.217   1.899  0.8527 -0.4281  0.7127
 6783TIP3    H220314   0.271   2.275   1.947 -0.5774 -0.2202 -3.0913
 6784TIP3   OH220315   4.657   5.264   3.232 -0.3037 -0.6296 -0.0446
 6784TIP3    H120316   4.629   5.351   3.206 -1.1936 -0.4885  1.2918
 6784TIP3    H220317   4.596   5.204   3.189  1.1626 -0.7248 -2.1127
 6785TIP3   OH220318   4.226   4.013   5.142 -0.0847  0.7680  0.6553
 6785TIP3    H120319   4.250   3.983   5.230  1.0723 -0.5843 -0.0962
 6785TIP3    H220320   4.197   3.934   5.097 -1.2366  1.5535 -0.0208
 6786TIP3   OH220321   2.399   0.926   3.134  0.1218  0.8351 -0.0184
 6786TIP3    H120322   2.321   0.982   3.134 -0.7112 -0.2886  0.7580
 6786TIP3    H220323   2.438   0.939   3.221  0.6598  1.1664 -0.2975
 6787TIP3   OH220324   1.331   1.719   1.559 -0.0268  0.1799  0.1567
 6787TIP3    H120325   1.284   1.762   1.631 -0.4148  2.2155 -1.2168
 6787TIP3    H220326   1.418   1.758   1.562  0.1749 -0.2543 -0.0421
 6788TIP3   OH220327   0.099   2.170   2.385  0.0177  0.0584  0.3582
 6788TIP3    H120328   0.158   2.177   2.460 -2.2619 -0.0605  2.2601
 6788TIP3    H220329   0.093   2.259   2.351  0.3222  0.2925  0.8986
 6789TIP3   OH220330   1.685   3.169   2.008  0.2239 -0.1054  0.2984
 6789TIP3    H120331   1.645   3.175   1.921  0.4117  0.2609  0.2358
 6789TIP3    H220332   1.623   3.213   2.066  0.0369 -0.4620  0.3751
 6790TIP3   OH220333   0.982   6.817   0.234 -0.4933 -0.1133 -0.3588
 6790TIP3    H120334   1.055   6.756   0.246 -0.0554  0.5087  0.3252
 6790TIP3    H220335   0.939   6.789   0.154  1.8479  0.8159 -2.0711
 6791TIP3   OH220336   2.598   2.322   1.620  0.0891 -0.7055 -0.4092
 6791TIP3    H120337   2.528   2.277   1.573 -1.2462 -1.1329  1.8768
 6791TIP3    H220338   2.663   2.254   1.638 -2.1346 -2.0894  3.4511
 6792TIP3   OH220339   6.653   6.149   2.045 -0.5002 -0.1573  1.0418
 6792TIP3    H120340   6.691   6.178   2.128 -0.0928  0.6239  0.5972
 6792TIP3    H220341   6.603   6.224   2.013 -0.2551 -0.2717  0.3533
 6793TIP3   OH220342   1.201   1.410   5.019  0.1568 -0.0270  0.5977
 6793TIP3    H120343   1.157   1.326   5.033  1.1772 -0.7253 -0.1938
 6793TIP3    H220344   1.185   1.460   5.099 -0.6094 -0.9150  1.0102
 6794TIP3   OH220345   6.793   5.304   0.040 -0.2108  0.6663  0.2005
 6794TIP3    H120346   6.861   5.309  -0.027 -0.2284  0.7898  0.1923
 6794TIP3    H220347   6.734   5.377   0.021 -0.0635  0.8707  0.5147
 6795TIP3   OH220348   2.484   3.635   1.574 -0.0758  0.6613 -0.4372
 6795TIP3    H120349   2.461   3.728   1.577  0.3773  0.7472  0.7016
 6795TIP3    H220350   2.523   3.617   1.659 -0.3032 -0.6181 -0.5873
 6796TIP3   OH220351   6.751   3.546   4.544  0.7873  0.6520  0.5165
 6796TIP3    H120352   6.837   3.587   4.535  0.4368  1.6933  1.5389
 6796TIP3    H220353   6.709   3.596   4.614 -0.2601 -0.5051  0.7413
 6797TIP3   OH220354   0.165   1.485   4.784  0.0869  0.0337  0.0435
 6797TIP3    H120355   0.091   1.528   4.827 -1.5494 -2.2338 -0.2702
 6797TIP3    H220356   0.159   1.514   4.693  0.2931  0.7491  0.2561
 6798TIP3   OH220357   3.731   5.636   3.855  0.6005 -0.0524 -0.0283
 6798TIP3    H120358   3.764   5.546   3.864 -1.7241 -0.8202  1.8274
 6798TIP3    H220359   3.736   5.673   3.943  1.6320  1.7393 -0.7922
 6799TIP3   OH220360   6.805   6.364   3.398 -0.2117 -0.0009  0.5564
 6799TIP3    H120361   6.848   6.307   3.462 -0.7391 -1.0939 -0.0369
 6799TIP3    H220362   6.804   6.313   3.317 -3.0964 -0.2798  0.6626
 6800TIP3   OH220363   6.678   3.541   1.866  0.1831 -0.1137 -0.3824
 6800TIP3    H120364   6.732   3.588   1.803 -0.6588  1.7371  0.1993
 6800TIP3    H220365   6.712   3.567   1.952 -0.0279 -0.9200 -0.0370
 6801TIP3   OH220366   0.794   5.229   3.087  0.0946  0.2107 -0.1729
 6801TIP3    H120367   0.783   5.302   3.147  1.0502  1.6575 -1.6550
 6801TIP3    H220368   0.712   5.181   3.092 -0.8309  1.7703  0.3603
 6802TIP3   OH220369   2.305   2.886   1.565 -0.0882 -0.1781 -0.0367
 6802TIP3    H120370   2.400   2.893   1.577 -0.3306  3.0075  0.9736
 6802TIP3    H220371   2.291   2.909   1.473  0.0217  1.6272  0.3641
 6803TIP3   OH220372   5.354   4.108   2.916  0.0664 -0.4390  0.3927
 6803TIP3    H120373   5.431   4.087   2.968  0.5477  1.0567  0.3184
 6803TIP3    H220374   5.380   4.089   2.826  0.3203 -0.0419  0.3796
 6804TIP3   OH220375   2.610   6.457   2.330  0.1206  0.0844 -0.0403
 6804TIP3    H120376   2.619   6.518   2.403  0.4119 -0.2503  0.2069
 6804TIP3    H220377   2.684   6.397   2.339  0.1352  0.0113 -0.5855
 6805TIP3   OH220378   5.595   4.953   2.259  0.1558 -0.2238 -0.3359
 6805TIP3    H120379   5.619   4.883   2.320  2.7763  0.4729 -0.4461
 6805TIP3    H220380   5.532   5.006   2.307  0.2750 -1.0768  0.8174
 6806TIP3   OH220381   2.712   5.424   2.663 -0.3454 -0.3734 -0.1703
 6806TIP3    H120382   2.802   5.457   2.662  0.0507 -1.4071 -1.1973
 6806TIP3    H220383   2.719   5.337   2.702 -1.0729 -0.0341  0.7408
 6807TIP3   OH220384   7.113   0.433   5.356  0.6505 -0.1729  0.3317
 6807TIP3    H120385   7.124   0.392   5.270 -2.0613  2.4000 -1.4462
 6807TIP3    H220386   7.137   0.525   5.342 -0.1181  0.3752  2.2508
 6808TIP3   OH220387   1.005   2.870   4.084 -0.1008  0.5882 -0.5967
 6808TIP3    H120388   1.005   2.945   4.024  1.4906 -0.1744 -1.5992
 6808TIP3    H220389   0.971   2.906   4.166 -0.1968  2.2044 -1.3014
 6809TIP3   OH220390   2.828   2.861   3.280  0.4250 -0.1254 -0.6588
 6809TIP3    H120391   2.832   2.957   3.274  1.1047 -0.1302 -0.3148
 6809TIP3    H220392   2.740   2.840   3.248  0.0985  0.6490 -0.3199
 6810TIP3   OH220393   4.325   2.038   1.103 -0.1396 -0.0582  0.1732
 6810TIP3    H120394   4.325   2.133   1.096  0.2246 -0.0063  0.8014
 6810TIP3    H220395   4.324   2.007   1.013 -2.3995  0.5278 -0.0401
 6811TIP3   OH220396   5.626   1.821   4.541 -0.4830  0.4239 -0.2113
 6811TIP3    H120397   5.542   1.840   4.500 -0.9323 -1.1972 -0.1333
 6811TIP3    H220398   5.616   1.849   4.632 -0.1424  2.2554 -0.6898
 6812TIP3   OH220399   2.043   2.428   0.899  0.2325 -0.2971  0.3484
 6812TIP3    H120400   1.976   2.372   0.940  1.2879 -1.5089  0.4799
 6812TIP3    H220401   2.052   2.393   0.810 -0.1708  0.6620 -0.0921
 6813TIP3   OH220402   5.389   5.412   4.140  0.2538  0.8668  0.2438
 6813TIP3    H120403   5.481   5.389   4.147 -0.0925 -0.5207  0.5466
 6813TIP3    H220404   5.375   5.479   4.206  0.9078  0.6415  0.6111
 6814TIP3   OH220405   0.337   0.110   3.856  0.7460  0.4306 -0.0083
 6814TIP3    H120406   0.379   0.135   3.939 -0.2514 -0.8049  0.9102
 6814TIP3    H220407   0.393   0.041   3.822  0.6379  0.2844  0.1116
 6815TIP3   OH220408   5.665   1.005   4.402  0.4540 -0.3477  0.2183
 6815TIP3    H120409   5.576   1.039   4.407 -0.0111 -1.3190 -0.8657
 6815TIP3    H220410   5.683   0.970   4.489  0.0948  0.5735  0.6790
 6816TIP3   OH220411   6.143   1.887   2.004 -0.1230  0.3076  0.1086
 6816TIP3    H120412   6.087   1.890   1.926 -0.0973  0.8188  0.1046
 6816TIP3    H220413   6.209   1.820   1.984 -1.0326 -0.6870  0.3221
 6817TIP3   OH220414   3.036   5.430   0.495 -0.0502  0.4119 -0.8350
 6817TIP3    H120415   2.943   5.450   0.510  0.4113  0.9961  1.7722
 6817TIP3    H220416   3.036   5.340   0.463 -1.5321  0.4909 -1.1261
 6818TIP3   OH220417   5.773   3.509   4.219 -0.6875  0.1773  0.0295
 6818TIP3    H120418   5.758   3.577   4.154 -1.8942 -0.6090 -0.5669
 6818TIP3    H220419   5.817   3.439   4.170 -0.7908 -0.0583  0.2718
 6819TIP3   OH220420   1.403   6.732   1.567  0.3796 -0.1484  0.2800
 6819TIP3    H120421   1.308   6.727   1.580  0.3250 -0.8050 -0.2828
 6819TIP3    H220422   1.433   6.793   1.634 -0.3159 -0.7059  1.1249
 6820TIP3   OH220423   0.061   1.436   3.724 -0.7507  0.8899  0.2155
 6820TIP3    H120424   0.087   1.415   3.634 -1.5689  0.2936  0.1025
 6820TIP3    H220425  -0.020   1.485   3.715 -0.6813  1.0862  0.6213
 6821TIP3   OH220426   1.957   3.476   4.499  0.7898 -0.2280  0.1078
 6821TIP3    H120427   2.025   3.543   4.503  0.5477  0.4085 -3.4498
 6821TIP3    H220428   1.996   3.404   4.449 -0.3265 -0.9084  0.1658
 6822TIP3   OH220429   1.049   6.768   2.398 -0.8408  0.0371 -0.0103
 6822TIP3    H120430   1.022   6.696   2.341  0.8697 -0.6544 -0.0221
 6822TIP3    H220431   1.015   6.847   2.356 -0.4503 -0.5479 -1.4838
 6823TIP3   OH220432   3.234   0.955   5.475  0.3799 -0.2566  0.0854
 6823TIP3    H120433   3.283   0.873   5.470  1.1831  0.2177 -0.0600
 6823TIP3    H220434   3.279   1.014   5.413  0.8048  0.7791  1.3241
 6824TIP3   OH220435   6.994   1.479   4.708 -0.0863 -0.0189  0.5398
 6824TIP3    H120436   7.081   1.507   4.680 -0.5763  1.1131  0.0734
 6824TIP3    H220437   6.934   1.538   4.661 -1.1854 -1.9065 -0.5231
 6825TIP3   OH220438   1.457   0.639   3.914  0.0324  0.3712  0.3271
 6825TIP3    H120439   1.547   0.618   3.887  0.3910  0.3470  1.4853
 6825TIP3    H220440   1.448   0.598   4.000 -0.7279  1.2592  0.6895
 6826TIP3   OH220441   3.310   6.724   5.253 -0.2832  0.0229  0.3250
 6826TIP3    H120442   3.377   6.680   5.304 -1.0561  1.5758  2.8914
 6826TIP3    H220443   3.266   6.654   5.204  1.5364 -1.3225  0.5235
 6827TIP3   OH220444   2.626   6.590   2.578 -0.0822  1.1336 -0.0617
 6827TIP3    H120445   2.600   6.588   2.670  1.8630 -3.4725  0.7231
 6827TIP3    H220446   2.707   6.641   2.578  0.4961  0.2784  1.0777
 6828TIP3   OH220447   2.322   5.472   3.299 -0.2396  0.1601 -0.5705
 6828TIP3    H120448   2.253   5.406   3.302 -0.9008  0.8774  1.1194
 6828TIP3    H220449   2.310   5.515   3.214 -0.0570 -1.5652 -1.5045
 6829TIP3   OH220450   1.557   3.912   1.341 -0.1520  0.1819 -0.0315
 6829TIP3    H120451   1.470   3.903   1.379 -0.3948 -0.3282 -0.6935
 6829TIP3    H220452   1.542   3.952   1.255  0.4998  2.5549  0.8834
 6830TIP3   OH220453   5.723   5.687   5.695 -0.1196 -0.5806 -0.3695
 6830TIP3    H120454   5.716   5.604   5.648 -0.4406 -0.2973 -0.8403
 6830TIP3    H220455   5.791   5.736   5.648  0.6225 -0.8753  0.3820
 6831TIP3   OH220456   0.338   5.603   3.049  0.2145 -0.0147  0.1792
 6831TIP3    H120457   0.296   5.595   3.134 -0.7580 -0.0682 -0.2962
 6831TIP3    H220458   0.361   5.513   3.025  1.1648  0.0743  0.7047
 6832TIP3   OH220459   2.810   1.103   2.518 -0.2251  0.2503  0.4445
 6832TIP3    H120460   2.719   1.132   2.510 -0.1928  0.1650 -0.2931
 6832TIP3    H220461   2.861   1.173   2.478 -0.0059  0.0572  0.3847
 6833TIP3   OH220462   3.145   1.976   2.797  0.0598  0.3616  0.4842
 6833TIP3    H120463   3.063   1.957   2.843  0.0592  0.8402  0.6900
 6833TIP3    H220464   3.196   2.029   2.859  0.2294  0.6652  0.0959
 6834TIP3   OH220465   0.904   6.195   0.677  0.2204  0.1375  0.3279
 6834TIP3    H120466   0.912   6.271   0.618 -0.5517  1.5760  1.9935
 6834TIP3    H220467   0.873   6.124   0.620  1.8038  0.7726 -1.4567
 6835TIP3   OH220468   5.342   4.067   5.060  0.0931  0.4886 -0.0926
 6835TIP3    H120469   5.258   4.026   5.080 -1.6886  3.7842 -0.0099
 6835TIP3    H220470   5.369   4.107   5.143  0.0425  2.1592 -0.8415
 6836TIP3   OH220471   3.255   1.994   1.265 -0.1835 -0.4343  0.3451
 6836TIP3    H120472   3.190   2.052   1.304 -0.9481 -1.3369  0.4558
 6836TIP3    H220473   3.229   1.986   1.173 -0.5056 -1.1515  0.4914
 6837TIP3   OH220474   0.918   1.104   5.746  0.4256  0.0095  0.2367
 6837TIP3    H120475   0.855   1.120   5.816 -0.1266 -0.9317 -0.0433
 6837TIP3    H220476   0.896   1.168   5.678 -0.1871 -0.2784  0.1648
 6838TIP3   OH220477   6.711   2.197   5.252 -0.4768 -0.3904 -0.0624
 6838TIP3    H120478   6.649   2.235   5.316  1.3226  2.0067  0.4176
 6838TIP3    H220479   6.794   2.194   5.299  0.4420 -0.5451 -1.6481
 6839TIP3   OH220480   2.573   0.415   3.604  0.2562 -0.4629 -0.0200
 6839TIP3    H120481   2.493   0.409   3.553  0.8550 -0.2445 -1.0097
 6839TIP3    H220482   2.544   0.406   3.695 -0.8054 -1.0538 -0.3966
 6840TIP3   OH220483   0.225   6.588   4.330  0.0013 -0.8902  0.1236
 6840TIP3    H120484   0.146   6.544   4.301  0.6895 -1.1771 -1.4202
 6840TIP3    H220485   0.205   6.617   4.419 -2.9754  1.8037 -1.2360
 6841TIP3   OH220486   1.088   5.098   0.822 -0.2047 -0.3717 -0.9923
 6841TIP3    H120487   1.005   5.100   0.871  0.4477 -1.2014  0.2077
 6841TIP3    H220488   1.075   5.159   0.749 -1.3385  0.6416  0.0202
 6842TIP3   OH220489   6.740   3.560   2.494  0.2698  0.0731  0.6231
 6842TIP3    H120490   6.713   3.652   2.491 -1.0466 -0.3071 -2.5632
 6842TIP3    H220491   6.824   3.559   2.448  0.5519 -0.2654  1.1416
 6843TIP3   OH220492   6.949   4.137   5.033 -0.2696 -0.5598  0.0255
 6843TIP3    H120493   6.919   4.203   5.096 -2.6627 -1.8025  0.3160
 6843TIP3    H220494   7.042   4.125   5.052 -0.0803  1.7399  0.8318
 6844TIP3   OH220495   6.373   2.064   4.861  0.7352  0.5246  0.2625
 6844TIP3    H120496   6.461   2.042   4.891  1.0057  1.6477  0.3406
 6844TIP3    H220497   6.378   2.054   4.766 -0.1036 -2.9601  0.4434
 6845TIP3   OH220498   3.670   5.897   4.066 -0.3664 -0.2343  0.1520
 6845TIP3    H120499   3.698   5.963   4.130  1.3366 -1.4524  0.7174
 6845TIP3    H220500   3.625   5.831   4.119 -0.5665 -0.3725 -0.1862
 6846TIP3   OH220501   4.727   6.296   4.784 -0.0122 -0.0563  0.2366
 6846TIP3    H120502   4.697   6.294   4.693  2.6065  2.1636 -0.8071
 6846TIP3    H220503   4.674   6.365   4.825 -1.5754 -1.4268  0.6228
 6847TIP3   OH220504   2.439   6.164   2.668 -0.0543 -0.0997  0.0972
 6847TIP3    H120505   2.528   6.195   2.689 -0.3946  1.1328 -0.2130
 6847TIP3    H220506   2.428   6.185   2.575 -0.1395 -1.6208 -0.2674
 6848TIP3   OH220507   3.184   1.162   2.533 -0.3450  0.5483  0.1291
 6848TIP3    H120508   3.105   1.213   2.514 -1.5533 -1.3688 -0.2766
 6848TIP3    H220509   3.205   1.118   2.451  1.1239  0.9593  0.2606
 6849TIP3   OH220510   4.480   0.169   1.035 -0.0957  0.2078  0.0157
 6849TIP3    H120511   4.516   0.103   1.094  1.5340 -1.2189 -2.3799
 6849TIP3    H220512   4.388   0.175   1.058  0.1379 -1.4754  1.6118
 6850TIP3   OH220513   5.233   5.129   3.348 -0.0679 -0.3636  0.3083
 6850TIP3    H120514   5.176   5.116   3.423  0.0048 -0.6195  0.3193
 6850TIP3    H220515   5.266   5.042   3.327 -0.2911 -0.3341 -0.1849
 6851TIP3   OH220516   4.289   6.464   5.208  0.1169  0.3571 -0.2291
 6851TIP3    H120517   4.295   6.377   5.249 -0.5635  0.3175 -0.2062
 6851TIP3    H220518   4.326   6.523   5.274  2.6617 -0.1446 -1.1037
 6852TIP3   OH220519   5.107   6.222   5.752 -0.1935  0.1342  0.3379
 6852TIP3    H120520   5.181   6.187   5.702 -1.2099  0.6988 -1.6257
 6852TIP3    H220521   5.034   6.164   5.731 -0.9054  1.0336  0.2604
 6853TIP3   OH220522   1.252   4.967   1.350 -0.2840  0.0453  0.0278
 6853TIP3    H120523   1.186   5.035   1.336 -0.6592 -0.2522  0.3374
 6853TIP3    H220524   1.325   4.992   1.294 -0.5490  0.5321 -0.0996
 6854TIP3   OH220525   0.385   1.827   5.695 -0.5184 -0.0059  0.1856
 6854TIP3    H120526   0.330   1.749   5.688 -1.5703  0.7717 -0.6237
 6854TIP3    H220527   0.391   1.860   5.605  0.7702  0.2805  0.3623
 6855TIP3   OH220528   5.054   2.607   2.438 -0.6323 -0.9081  0.4381
 6855TIP3    H120529   4.983   2.558   2.396 -0.4457  0.3414 -1.4388
 6855TIP3    H220530   5.010   2.679   2.484 -0.6400 -0.5021 -0.1959
 6856TIP3   OH220531   3.785   5.769   2.814 -0.0814 -0.2896  0.3802
 6856TIP3    H120532   3.733   5.796   2.890  0.2626  2.0799 -0.1497
 6856TIP3    H220533   3.719   5.748   2.747 -0.4361  1.2200  0.2039
 6857TIP3   OH220534   4.925   4.646   4.821 -0.5176 -0.3931  0.2750
 6857TIP3    H120535   4.942   4.609   4.735  0.9128  0.2717  0.2514
 6857TIP3    H220536   4.894   4.735   4.804  0.0701 -0.1509  0.4440
 6858TIP3   OH220537   6.887   1.105   2.701 -0.3457 -0.4451 -0.2950
 6858TIP3    H120538   6.880   1.043   2.628 -1.2111  0.7950 -1.3108
 6858TIP3    H220539   6.797   1.122   2.726 -0.0460 -0.9976  1.2197
 6859TIP3   OH220540   4.496   2.132   4.294  0.3038 -0.2433 -0.3719
 6859TIP3    H120541   4.510   2.212   4.345  2.5968 -1.1896  0.6595
 6859TIP3    H220542   4.565   2.134   4.227  1.0770 -1.7695  0.3139
 6860TIP3   OH220543   3.188   3.955   1.046 -0.5054 -0.2675 -0.0037
 6860TIP3    H120544   3.232   4.036   1.020 -0.1944 -0.1827  0.7612
 6860TIP3    H220545   3.112   3.984   1.096 -0.7817 -0.4385 -0.3230
 6861TIP3   OH220546   1.858   2.605   1.027  0.3721  0.4082  0.7552
 6861TIP3    H120547   1.914   2.548   0.974 -2.1045 -1.4886 -0.0472
 6861TIP3    H220548   1.774   2.560   1.030 -1.3698  3.3783  1.2894
 6862TIP3   OH220549   3.832   0.238   4.251  0.4720  0.1452  0.0277
 6862TIP3    H120550   3.904   0.179   4.270  0.2889 -0.1761 -0.2718
 6862TIP3    H220551   3.803   0.270   4.337 -0.3359 -1.2756  0.3103
 6863TIP3   OH220552   3.676   5.107   5.799  0.1473 -0.3273  0.0152
 6863TIP3    H120553   3.771   5.113   5.810  0.3161 -1.1105 -0.9016
 6863TIP3    H220554   3.664   5.062   5.715 -1.0346 -0.3027  0.1538
 6864TIP3   OH220555   1.245   1.629   2.993 -0.7788 -0.3548  0.3100
 6864TIP3    H120556   1.267   1.687   2.920 -2.2328  0.6629  0.6298
 6864TIP3    H220557   1.285   1.545   2.970  1.6908  0.8024 -0.0064
 6865TIP3   OH220558   2.158   2.068   4.725  0.5250  0.8143 -0.2601
 6865TIP3    H120559   2.204   2.151   4.709  2.8779 -0.4329 -0.4738
 6865TIP3    H220560   2.220   2.001   4.697 -1.8732 -1.0344 -1.4960
 6866TIP3   OH220561   4.391   3.180   3.590 -0.0082  0.2403 -0.0588
 6866TIP3    H120562   4.469   3.165   3.643  0.3156  1.7536 -0.0391
 6866TIP3    H220563   4.361   3.267   3.617  0.2462  1.1392 -2.4145
 6867TIP3   OH220564   5.314   5.549   5.786  0.3042  0.1741 -0.0538
 6867TIP3    H120565   5.223   5.519   5.785  0.1266  0.6059  1.1875
 6867TIP3    H220566   5.320   5.605   5.863  1.5449  0.4235 -0.3074
 6868TIP3   OH220567   6.026   3.384   2.562  0.6187  0.2563 -0.0120
 6868TIP3    H120568   5.936   3.411   2.578  0.4681 -0.6444  0.7962
 6868TIP3    H220569   6.078   3.464   2.569  0.3177  0.2873  3.2826
 6869TIP3   OH220570   6.471   5.610   1.585  0.0097 -0.3379  0.0252
 6869TIP3    H120571   6.511   5.524   1.591  1.7445  0.4272  0.1147
 6869TIP3    H220572   6.439   5.617   1.495  2.2765 -0.0965 -0.8086
 6870TIP3   OH220573   0.641   0.478   3.892  0.2622  0.0610  0.2778
 6870TIP3    H120574   0.631   0.394   3.938 -1.2330 -0.9704 -1.7909
 6870TIP3    H220575   0.583   0.538   3.939 -1.8113 -1.1666 -0.5951
 6871TIP3   OH220576   3.851   5.805   2.507 -0.4807 -0.1609  0.1301
 6871TIP3    H120577   3.758   5.785   2.502 -0.3298 -1.8592  2.3861
 6871TIP3    H220578   3.856   5.884   2.562 -0.6186  0.4193 -0.6861
 6872TIP3   OH220579   0.567   2.753   0.887  0.0987  0.1989 -0.0606
 6872TIP3    H120580   0.652   2.768   0.928 -0.1080  0.7052  0.1858
 6872TIP3    H220581   0.506   2.742   0.960  0.1261 -1.2291 -0.2291
 6873TIP3   OH220582   3.539   0.820   0.039 -0.6166  0.1026 -0.4683
 6873TIP3    H120583   3.457   0.817  -0.011 -0.3258  0.3903 -0.9796
 6873TIP3    H220584   3.526   0.890   0.103 -0.4304  0.8326 -1.1950
 6874TIP3   OH220585   2.806   5.199   0.097 -0.2308  0.3978 -0.1067
 6874TIP3    H120586   2.866   5.158   0.036  0.9329 -0.0441  1.2845
 6874TIP3    H220587   2.849   5.280   0.123 -0.1637  0.0516  0.9395
 6875TIP3   OH220588   0.650   2.511   1.126 -0.1356  0.1047  0.1081
 6875TIP3    H120589   0.719   2.575   1.110 -0.5592  0.4831 -0.2177
 6875TIP3    H220590   0.644   2.504   1.221  1.0983 -0.7444  0.1484
 6876TIP3   OH220591   4.455   0.235   3.019 -0.1137  0.0430  0.6739
 6876TIP3    H120592   4.525   0.244   3.084  1.4348 -0.5530 -0.8159
 6876TIP3    H220593   4.459   0.317   2.969  0.0091 -0.2933  0.1326
 6877TIP3   OH220594   4.951   6.133   2.634 -0.1092 -0.1868  0.2326
 6877TIP3    H120595   4.897   6.192   2.687 -0.0387  0.4022 -0.3520
 6877TIP3    H220596   5.024   6.187   2.603 -0.6215 -0.2991 -1.2093
 6878TIP3   OH220597   5.079   4.311   4.899 -0.0386  0.8886  0.0652
 6878TIP3    H120598   5.138   4.249   4.856 -1.6451 -0.8625  0.2689
 6878TIP3    H220599   4.996   4.301   4.853 -0.5843  2.2687  0.6949
 6879TIP3   OH220600   0.678   5.486   4.312 -0.4016 -0.0822  0.5690
 6879TIP3    H120601   0.660   5.530   4.229  1.7166 -0.8313 -0.3390
 6879TIP3    H220602   0.663   5.554   4.378 -1.7036  0.6441 -0.4212
 6880TIP3   OH220603   1.515   6.437   3.342 -0.3871  0.1602 -0.1439
 6880TIP3    H120604   1.602   6.398   3.356 -0.4478 -0.4433 -1.3678
 6880TIP3    H220605   1.525   6.528   3.371  0.7721  0.2035 -0.6229
 6881TIP3   OH220606   5.057   5.449   5.788 -0.4213 -0.9202  0.2400
 6881TIP3    H120607   5.016   5.388   5.727 -0.2646 -0.0228 -0.8026
 6881TIP3    H220608   5.041   5.411   5.875 -0.5732 -2.2697 -0.3503
 6882TIP3   OH220609   0.015   5.529   0.290  0.7202 -0.0663 -0.0603
 6882TIP3    H120610  -0.019   5.608   0.249  1.1853 -0.3813 -1.1051
 6882TIP3    H220611   0.090   5.504   0.236  1.0253 -0.8166  0.6782
 6883TIP3   OH220612   0.524   5.118   3.088 -0.3946  0.2538 -0.0623
 6883TIP3    H120613   0.495   5.035   3.051  1.2053 -0.6513  0.5984
 6883TIP3    H220614   0.515   5.107   3.182  2.8701 -0.4924  0.2813
 6884TIP3   OH220615   2.105   3.576   4.948  0.6435  0.2351 -0.2237
 6884TIP3    H120616   2.072   3.653   4.901 -0.5365 -0.4734 -0.6100
 6884TIP3    H220617   2.193   3.600   4.975  0.3231  1.7016 -0.3901
 6885TIP3   OH220618   3.286   6.746   2.014 -0.6307 -0.6724 -0.1849
 6885TIP3    H120619   3.212   6.805   2.032  0.0986  0.4995 -0.8619
 6885TIP3    H220620   3.362   6.804   2.017  0.3180 -1.9168  0.8525
 6886TIP3   OH220621   5.352   5.152   4.377  0.1972  0.3889  0.3170
 6886TIP3    H120622   5.436   5.192   4.355 -0.8184  1.7432 -1.3328
 6886TIP3    H220623   5.333   5.182   4.466  0.1236  2.5513 -0.3656
 6887TIP3   OH220624   2.942   1.328   1.224 -0.2777  0.2773 -0.4829
 6887TIP3    H120625   2.938   1.357   1.315  2.0099 -0.4822 -0.0744
 6887TIP3    H220626   2.856   1.291   1.206 -0.4730 -0.4294  1.7018
 6888TIP3   OH220627   0.993   0.688   0.730  0.6061 -0.2717  0.4005
 6888TIP3    H120628   1.031   0.645   0.653 -1.3535 -0.9459 -0.2731
 6888TIP3    H220629   1.038   0.648   0.804  1.1373 -1.1067 -0.3470
 6889TIP3   OH220630   6.716   0.550   1.584  0.2964 -0.1325  0.1971
 6889TIP3    H120631   6.744   0.463   1.554  0.2204 -0.6565  1.5543
 6889TIP3    H220632   6.734   0.549   1.678  0.2018  1.2986  0.2409
 6890TIP3   OH220633   6.654   4.373   2.137  0.2421 -0.4775  0.1364
 6890TIP3    H120634   6.658   4.425   2.057  1.7309 -2.8879 -1.4675
 6890TIP3    H220635   6.569   4.328   2.131  0.0414 -0.1295  0.2998
 6891TIP3   OH220636   2.812   3.949   1.857 -0.3168  0.1674 -0.3739
 6891TIP3    H120637   2.832   3.952   1.764 -3.7986  1.4987 -1.1981
 6891TIP3    H220638   2.873   4.011   1.897  1.7643 -1.0163 -1.5481
 6892TIP3   OH220639   1.977   2.943  -0.016 -0.4650  0.4241  0.4043
 6892TIP3    H120640   2.055   2.892   0.006 -1.4220 -1.7598 -0.9859
 6892TIP3    H220641   1.973   3.011   0.052  2.5970  0.6150  0.5160
 6893TIP3   OH220642   5.216   3.246   1.450  0.6046 -0.0825  0.3286
 6893TIP3    H120643   5.248   3.322   1.499  2.8914 -0.6239 -0.2073
 6893TIP3    H220644   5.236   3.171   1.507  0.4572 -0.4679 -0.1205
 6894TIP3   OH220645   4.047   4.103   1.710 -0.0296  0.4840  0.5598
 6894TIP3    H120646   3.976   4.118   1.647 -0.8499 -1.1273  1.0517
 6894TIP3    H220647   4.024   4.158   1.785  0.8967  2.3355 -0.4174
 6895TIP3   OH220648   6.236   3.711   3.266 -0.7505 -0.0650  0.1615
 6895TIP3    H120649   6.141   3.710   3.278 -0.8054 -0.4257 -0.2623
 6895TIP3    H220650   6.265   3.623   3.293 -0.6821 -0.3373 -0.7391
 6896TIP3   OH220651   2.763   2.965   2.679 -0.0465 -0.1666  0.1485
 6896TIP3    H120652   2.770   2.888   2.622 -0.3432  0.1316 -0.2886
 6896TIP3    H220653   2.851   3.002   2.679 -0.1226  0.0218 -0.3836
 6897TIP3   OH220654   7.152   2.837   4.577  0.3749  0.6891 -0.6643
 6897TIP3    H120655   7.145   2.759   4.632 -1.8286  0.9698 -0.4242
 6897TIP3    H220656   7.231   2.881   4.607  0.9504 -0.7849  0.0783
 6898TIP3   OH220657   0.917   0.674   3.309 -0.1748 -0.0121  0.4725
 6898TIP3    H120658   0.871   0.738   3.255  1.6628  0.7524 -0.2525
 6898TIP3    H220659   0.847   0.626   3.354 -1.6572  1.0957 -0.5628
 6899TIP3   OH220660   4.536   4.980   1.898  0.3456  0.0460 -0.1267
 6899TIP3    H120661   4.615   5.017   1.937 -0.3719  0.5485  0.8872
 6899TIP3    H220662   4.474   5.053   1.894 -0.2330 -0.4489 -0.4733
 6900TIP3   OH220663   3.990   0.721   5.664 -0.3851  0.1178 -0.4034
 6900TIP3    H120664   3.956   0.728   5.753  1.6791  1.0716  0.3844
 6900TIP3    H220665   4.052   0.647   5.669 -1.4584 -0.8832 -1.4958
 6901TIP3   OH220666   1.948   6.611   1.698  0.3264 -0.0428 -0.0004
 6901TIP3    H120667   1.891   6.623   1.774  0.0794 -0.9315 -0.0309
 6901TIP3    H220668   1.958   6.516   1.691  0.8902  0.0614 -0.6806
 6902TIP3   OH220669   7.159   0.518   2.542 -0.1870  0.0423 -0.5890
 6902TIP3    H120670   7.230   0.505   2.605 -1.7610  0.3228  1.3413
 6902TIP3    H220671   7.159   0.613   2.526 -0.0407  0.0256 -0.6858
 6903TIP3   OH220672   6.175   5.434   0.350 -0.5777 -0.3204  0.3858
 6903TIP3    H120673   6.148   5.351   0.390 -0.5796 -0.0488  0.9499
 6903TIP3    H220674   6.209   5.408   0.264 -0.3988 -0.9259  0.6295
 6904TIP3   OH220675   5.148   0.973   5.313  0.0947 -0.3122 -0.3691
 6904TIP3    H120676   5.153   1.065   5.341  1.1303 -0.6352  0.6413
 6904TIP3    H220677   5.096   0.974   5.234  1.1748  1.3338 -1.1141
 6905TIP3   OH220678   6.720   4.476   3.195 -0.2386 -0.5119  0.0739
 6905TIP3    H120679   6.635   4.458   3.155  0.0572  0.0025 -0.8094
 6905TIP3    H220680   6.760   4.542   3.138  1.3035 -1.6864 -0.2656
 6906TIP3   OH220681   4.775   2.781   1.102 -0.1076 -0.2760 -0.2375
 6906TIP3    H120682   4.834   2.745   1.168 -1.5842 -1.3780  0.5538
 6906TIP3    H220683   4.773   2.875   1.120  0.5573 -0.3814  0.4302
 6907TIP3   OH220684   6.930   1.375   3.675 -0.0765 -0.0215  0.7347
 6907TIP3    H120685   6.961   1.352   3.588  1.1269 -0.7114  1.3083
 6907TIP3    H220686   6.900   1.292   3.713 -1.8293  0.4883  0.5334
 6908TIP3   OH220687   0.256   2.167   5.130 -0.3194  0.3336  0.2558
 6908TIP3    H120688   0.205   2.131   5.058 -0.2368  1.0390 -0.1646
 6908TIP3    H220689   0.257   2.098   5.196 -1.0050 -0.0481 -0.1244
 6909TIP3   OH220690   2.974   6.689   4.825  0.0456  0.3454 -0.0126
 6909TIP3    H120691   2.968   6.596   4.801  0.8662  0.1464  0.5295
 6909TIP3    H220692   2.916   6.733   4.763  0.6103 -0.3866 -1.0856
 6910TIP3   OH220693   3.488   5.646   3.720 -0.0173  0.0938 -0.0201
 6910TIP3    H120694   3.458   5.730   3.686 -1.4614  0.2513  1.5029
 6910TIP3    H220695   3.574   5.664   3.758  0.6486  0.3715 -1.5894
 6911TIP3   OH220696   5.866   4.309   2.796  0.1721  0.2781 -0.3864
 6911TIP3    H120697   5.849   4.251   2.721 -0.7884  0.2088 -0.1263
 6911TIP3    H220698   5.815   4.388   2.776 -0.7204 -0.0377  0.5388
 6912TIP3   OH220699   3.990   2.249   4.036 -0.3992  0.4010 -0.3302
 6912TIP3    H120700   3.904   2.266   3.997 -0.7794  0.2486  0.4288
 6912TIP3    H220701   4.002   2.155   4.028 -0.7558  0.2798  0.4658
 6913TIP3   OH220702   3.929   0.359   2.653 -0.0855 -0.5949 -0.2914
 6913TIP3    H120703   3.967   0.278   2.619 -1.8223 -1.2931 -0.6936
 6913TIP3    H220704   3.835   0.350   2.636 -0.4344  1.0896  0.5398
 6914TIP3   OH220705   6.963   4.246   3.303  0.6439 -0.0492 -0.4824
 6914TIP3    H120706   7.055   4.222   3.310  0.3351 -0.9208  1.3195
 6914TIP3    H220707   6.941   4.231   3.211  1.9919 -0.9738 -0.6856
 6915TIP3   OH220708   6.735   4.092   1.483 -0.0340  0.1298 -0.1132
 6915TIP3    H120709   6.771   4.003   1.478  0.5370  0.3770 -0.4970
 6915TIP3    H220710   6.679   4.090   1.560 -0.6248 -0.7760 -0.5423
 6916TIP3   OH220711   3.353   1.865   4.094 -0.0219  0.5630  0.1036
 6916TIP3    H120712   3.358   1.917   4.014  1.0364  0.2807 -0.0350
 6916TIP3    H220713   3.393   1.782   4.071  1.7178  0.9961  1.2988
 6917TIP3   OH220714   4.112   0.809   3.493 -0.0429  0.1708 -0.0340
 6917TIP3    H120715   4.173   0.735   3.490 -0.7285 -0.3821 -0.5322
 6917TIP3    H220716   4.142   0.868   3.423 -0.3858 -0.3456 -0.6194
 6918TIP3   OH220717   5.494   1.110   5.141  0.2269 -0.5270 -0.1244
 6918TIP3    H120718   5.584   1.082   5.127 -0.0996 -0.1825 -4.0719
 6918TIP3    H220719   5.441   1.031   5.125 -0.2511 -0.2678  0.1495
 6919TIP3   OH220720   5.990   2.010   5.330  0.1522  0.2267  0.3257
 6919TIP3    H120721   6.057   2.020   5.397  2.6495 -1.2923 -1.7561
 6919TIP3    H220722   5.992   2.092   5.281  1.1771 -0.1330 -0.2615
 6920TIP3   OH220723   0.068   2.850   3.311  0.4845  0.2460 -0.6660
 6920TIP3    H120724  -0.025   2.839   3.332  0.2390  0.3171 -1.6616
 6920TIP3    H220725   0.114   2.811   3.385 -0.3198  1.6982  0.6640
 6921TIP3   OH220726   6.143   5.853   5.270 -0.6210 -0.1023  0.3857
 6921TIP3    H120727   6.144   5.948   5.260  0.2027 -0.0773  0.6700
 6921TIP3    H220728   6.181   5.837   5.356  0.6914 -0.7527 -0.2814
 6922TIP3   OH220729   6.206   0.495   5.638  0.5375  0.1318  0.4412
 6922TIP3    H120730   6.298   0.504   5.665  0.1729  0.1719  1.7580
 6922TIP3    H220731   6.163   0.457   5.715 -0.7539  1.1392  0.2548
 6923TIP3   OH220732   2.347   4.358   2.850 -0.0268  0.7761  0.0323
 6923TIP3    H120733   2.357   4.335   2.943 -0.7192  2.4142  0.5522
 6923TIP3    H220734   2.374   4.279   2.803  0.8658  0.0821  1.6104
 6924TIP3   OH220735   4.140   3.619   1.055 -0.1157 -0.2016  0.3040
 6924TIP3    H120736   4.134   3.583   1.144  0.7439  1.8504  1.2521
 6924TIP3    H220737   4.093   3.702   1.060 -1.4542 -0.7672 -1.6326
 6925TIP3   OH220738   4.219   3.796   3.689  0.6234 -0.0571  0.2884
 6925TIP3    H120739   4.241   3.779   3.597  1.3411  0.9983  0.2465
 6925TIP3    H220740   4.188   3.887   3.689  1.0798  0.1076  1.1609
 6926TIP3   OH220741   6.303   6.198   5.552 -0.1161 -0.4065 -0.0890
 6926TIP3    H120742   6.346   6.162   5.630 -0.3563 -0.8566 -0.1621
 6926TIP3    H220743   6.372   6.247   5.507  0.2522 -0.8813 -0.0566
 6927TIP3   OH220744   2.378   1.245   1.458 -0.3899 -0.3720 -0.7799
 6927TIP3    H120745   2.332   1.285   1.531 -0.5684 -0.8028 -0.6586
 6927TIP3    H220746   2.412   1.320   1.408  1.5169 -0.0722  0.8493
 6928TIP3   OH220747   5.258   4.479   1.861 -0.1274 -0.5767  0.0113
 6928TIP3    H120748   5.264   4.390   1.896  1.7299 -0.7668 -0.7110
 6928TIP3    H220749   5.313   4.478   1.783  0.1082  1.2735  0.1163
 6929TIP3   OH220750   0.188   3.393   3.881  0.1103 -0.2246 -0.1547
 6929TIP3    H120751   0.099   3.397   3.915 -0.0949 -0.4950 -0.6397
 6929TIP3    H220752   0.224   3.312   3.918  0.1250 -0.1602 -0.0278
 6930TIP3   OH220753   0.681   5.821   2.688 -0.4843  0.2275 -0.2222
 6930TIP3    H120754   0.638   5.765   2.624  2.0719 -1.4664 -0.5939
 6930TIP3    H220755   0.713   5.895   2.638 -1.2416  0.5320 -0.2764
 6931TIP3   OH220756   1.574   4.600   4.802 -0.2785  0.6604 -0.6027
 6931TIP3    H120757   1.611   4.599   4.714 -0.1171  2.4252 -0.5874
 6931TIP3    H220758   1.505   4.666   4.799 -1.8087 -0.8215  0.0331
 6932TIP3   OH220759   5.533   4.866   4.607  0.0216 -0.1499 -0.2052
 6932TIP3    H120760   5.596   4.829   4.669  0.4012  0.5054 -0.1915
 6932TIP3    H220761   5.550   4.960   4.608  0.8634 -0.2172 -2.1695
 6933TIP3   OH220762   4.964   3.864   1.290  0.2310  0.3423 -0.2162
 6933TIP3    H120763   5.003   3.871   1.203 -0.5416  1.5568 -0.4889
 6933TIP3    H220764   4.916   3.946   1.301  0.2661  0.1793  1.3361
 6934TIP3   OH220765   6.100   5.697   2.481  0.0747 -0.6441 -0.0680
 6934TIP3    H120766   6.080   5.720   2.572 -0.8919  0.9457 -0.6249
 6934TIP3    H220767   6.016   5.704   2.436  1.0768  2.3939 -1.7776
 6935TIP3   OH220768   2.727   5.509   4.231  0.5530 -0.4395  0.1629
 6935TIP3    H120769   2.707   5.429   4.278  1.0048 -1.4111 -1.2258
 6935TIP3    H220770   2.661   5.513   4.161  0.5774  0.3632  0.1781
 6936TIP3   OH220771   5.599   5.420   4.609 -0.0988  0.6088 -0.2413
 6936TIP3    H120772   5.513   5.456   4.588 -0.0442 -0.4336 -2.6251
 6936TIP3    H220773   5.651   5.496   4.636 -2.1711  1.0313  3.2142
 6937TIP3   OH220774   6.738   0.065   0.977  0.2761 -0.0760  0.4450
 6937TIP3    H120775   6.781   0.150   0.972  0.0076  0.0045 -0.8322
 6937TIP3    H220776   6.646   0.084   0.957  0.1812 -0.6338  0.3440
 6938TIP3   OH220777   3.965   4.442   4.100  0.5558 -0.4266 -0.2623
 6938TIP3    H120778   4.028   4.479   4.037  0.7717 -1.4179 -0.6493
 6938TIP3    H220779   4.003   4.462   4.186  0.7523  0.0851 -0.4593
 6939TIP3   OH220780   3.450   5.957   3.833 -0.4692 -0.2924  0.2610
 6939TIP3    H120781   3.417   5.975   3.745  0.1611 -5.5598 -1.4000
 6939TIP3    H220782   3.543   5.979   3.828 -0.6084  0.2624 -0.0706
 6940TIP3   OH220783   5.881   0.687   3.651  0.3694  0.5495 -0.6388
 6940TIP3    H120784   5.833   0.606   3.636  1.6178  0.2298 -3.6315
 6940TIP3    H220785   5.969   0.658   3.676  0.2031  1.0781  0.6703
 6941TIP3   OH220786   2.615   3.276   1.024 -0.6651 -0.5477 -0.4029
 6941TIP3    H120787   2.591   3.369   1.019  0.1170 -0.4031 -1.8645
 6941TIP3    H220788   2.676   3.272   1.098 -3.4368 -0.5925  2.0904
 6942TIP3   OH220789   5.798   2.976   1.446  0.3196  0.4394 -0.8409
 6942TIP3    H120790   5.865   3.020   1.497  0.0162  1.3183 -1.1665
 6942TIP3    H220791   5.727   3.041   1.439  0.3705  0.3650 -2.3746
 6943TIP3   OH220792   2.974   3.652   3.195 -0.0777 -0.0688  0.3626
 6943TIP3    H120793   2.960   3.640   3.101 -0.0691 -2.1890  0.6022
 6943TIP3    H220794   2.887   3.667   3.230 -0.0802  0.7468  0.0353
 6944TIP3   OH220795   1.579   3.867   0.808  0.5338  0.5942 -0.0941
 6944TIP3    H120796   1.579   3.892   0.900  2.7817 -0.7035  0.3265
 6944TIP3    H220797   1.547   3.777   0.807 -1.1538  1.1546 -0.8330
 6945TIP3   OH220798   2.924   0.776   1.028  0.2528  0.0488  0.1486
 6945TIP3    H120799   2.926   0.867   0.998 -1.2279 -0.0591 -0.3592
 6945TIP3    H220800   2.835   0.763   1.059 -0.0066 -1.6650 -1.1854
 6946TIP3   OH220801   6.512   5.796   5.695 -0.4667  0.2947  0.1937
 6946TIP3    H120802   6.526   5.778   5.789 -1.2730  0.2379  0.3060
 6946TIP3    H220803   6.517   5.891   5.688 -1.9674  0.4127  0.5622
 6947TIP3   OH220804   0.666   2.419   2.226  0.4116  0.0534  0.5236
 6947TIP3    H120805   0.674   2.476   2.302  1.1368 -2.0593  2.1100
 6947TIP3    H220806   0.756   2.399   2.200  0.1665 -0.1369 -0.2229
 6948TIP3   OH220807   3.030   3.016   0.768  0.6695 -0.2372 -0.3523
 6948TIP3    H120808   3.029   3.099   0.816  0.0471 -0.8613  0.7523
 6948TIP3    H220809   2.969   3.029   0.696 -2.4596 -0.8862  1.9471
 6949TIP3   OH220810   3.708   2.887   0.755 -0.4044  0.1667 -0.2856
 6949TIP3    H120811   3.761   2.888   0.675 -1.9590 -0.6319 -1.3877
 6949TIP3    H220812   3.746   2.817   0.808 -0.5659 -0.6793 -1.2485
 6950TIP3   OH220813   1.787   2.309   1.233 -0.2300  0.2523  0.1410
 6950TIP3    H120814   1.882   2.311   1.241 -0.0937  0.7367 -1.3820
 6950TIP3    H220815   1.766   2.219   1.208 -0.2620 -0.0648  1.2552
 6951TIP3   OH220816   7.014   2.149   3.041 -0.4145  0.5201 -0.2621
 6951TIP3    H120817   7.097   2.116   3.007  1.1266  1.9659  1.8431
 6951TIP3    H220818   7.004   2.235   3.000  0.4152  1.3854  1.2591
 6952TIP3   OH220819   5.302   2.295   4.525  0.0923 -0.1042  0.3392
 6952TIP3    H120820   5.301   2.332   4.613 -0.6910  1.2009 -0.1794
 6952TIP3    H220821   5.316   2.371   4.467  0.0095 -0.8455 -0.6824
 6953TIP3   OH220822   0.287   4.536   3.830  0.1898 -0.5564 -0.0482
 6953TIP3    H120823   0.324   4.526   3.742  0.3488  1.5202 -0.2707
 6953TIP3    H220824   0.193   4.546   3.816  0.5153  3.4729 -0.4621
 6954TIP3   OH220825   5.102   4.536   5.639 -0.1906 -0.2716 -0.6000
 6954TIP3    H120826   5.196   4.553   5.634 -0.5029  1.9369  0.2252
 6954TIP3    H220827   5.062   4.622   5.647 -2.3485 -1.1219 -1.4452
 6955TIP3   OH220828   6.258   3.354   1.948  0.5518  0.3544  0.3403
 6955TIP3    H120829   6.240   3.307   2.030  1.8535 -0.0102  0.4371
 6955TIP3    H220830   6.182   3.335   1.893 -0.2358  0.4238  1.3818
 6956TIP3   OH220831   4.856   4.432   2.531 -0.0778  0.2794 -0.7364
 6956TIP3    H120832   4.793   4.434   2.459 -1.7882  1.6920  0.6952
 6956TIP3    H220833   4.802   4.418   2.609  1.6594 -0.6713  0.3520
 6957TIP3   OH220834   4.897   3.139   5.365  0.6280  0.0273 -0.5884
 6957TIP3    H120835   4.991   3.121   5.373  0.2606 -3.4365 -2.3743
 6957TIP3    H220836   4.856   3.079   5.427 -0.4838 -0.5882 -1.8740
 6958TIP3   OH220837   0.739   1.715   0.319 -0.3609  0.5411  0.1110
 6958TIP3    H120838   0.762   1.631   0.280  1.2339  0.7953  0.4439
 6958TIP3    H220839   0.787   1.780   0.267 -1.6194  1.2659 -0.1826
 6959TIP3   OH220840   0.226   5.970   5.744  0.1646  0.4479 -0.2316
 6959TIP3    H120841   0.279   6.018   5.681  0.1852  1.1099  0.2704
 6959TIP3    H220842   0.177   6.039   5.791  1.7940  0.2205  1.9883
 6960TIP3   OH220843   4.691   1.591   2.954 -0.2589 -0.3644 -0.1475
 6960TIP3    H120844   4.663   1.574   3.044  0.5694 -0.1315  0.1661
 6960TIP3    H220845   4.709   1.504   2.918 -0.3371 -0.4434  0.0034
 6961TIP3   OH220846   5.607   0.746   4.246 -0.4600  0.7739 -0.3690
 6961TIP3    H120847   5.579   0.837   4.245 -2.0740  0.3991  2.0673
 6961TIP3    H220848   5.527   0.695   4.232  0.2799 -0.2939 -0.8878
 6962TIP3   OH220849   5.188   3.186   0.210 -0.6001 -0.0826 -0.2448
 6962TIP3    H120850   5.216   3.096   0.195 -0.6122 -0.3580  1.3014
 6962TIP3    H220851   5.098   3.178   0.243 -0.6164  0.5034 -0.1359
 6963TIP3   OH220852   6.494   2.642   2.386  0.6690 -0.2211 -0.3718
 6963TIP3    H120853   6.475   2.603   2.472 -0.7516 -0.8093 -0.9239
 6963TIP3    H220854   6.547   2.577   2.341  0.7854 -0.2339 -0.2173
 6964TIP3   OH220855   2.649   5.110   4.591  0.1336 -0.0020 -0.4978
 6964TIP3    H120856   2.622   5.019   4.600  0.3606  0.0016  0.3030
 6964TIP3    H220857   2.724   5.107   4.531 -0.0841 -0.2923 -0.7603
 6965TIP3   OH220858   1.838   5.181   4.983 -0.2884  0.1764  0.2161
 6965TIP3    H120859   1.930   5.160   4.998 -0.0900  1.7801  1.5245
 6965TIP3    H220860   1.803   5.105   4.935  1.4288 -0.9443  0.6638
 6966TIP3   OH220861   0.631   0.305   0.908  0.1049  0.1966 -0.4657
 6966TIP3    H120862   0.723   0.332   0.912 -0.0388  0.5497  0.9967
 6966TIP3    H220863   0.629   0.236   0.842  1.7557 -1.0685  0.7288
 6967TIP3   OH220864   0.758   6.263   5.081 -0.0124 -0.2803 -0.0841
 6967TIP3    H120865   0.812   6.295   5.009 -1.4961  1.9747 -0.2825
 6967TIP3    H220866   0.788   6.312   5.158  0.9480 -2.0122  0.7100
 6968TIP3   OH220867   6.281   1.957   3.925 -0.7741  0.0997 -0.2360
 6968TIP3    H120868   6.315   2.022   3.987  0.7827 -0.8022 -0.0884
 6968TIP3    H220869   6.227   2.008   3.865  0.7691  1.6536 -0.4111
 6969TIP3   OH220870   5.285   4.305   2.329 -0.3086 -0.4900 -0.8355
 6969TIP3    H120871   5.233   4.300   2.410 -1.9757  1.0097 -1.7394
 6969TIP3    H220872   5.296   4.214   2.302  0.1638 -1.0128  0.9909
 6970TIP3   OH220873   1.893   0.256   1.596  0.4270  0.0700 -0.1911
 6970TIP3    H120874   1.984   0.268   1.623  1.0035 -0.7362 -1.6776
 6970TIP3    H220875   1.883   0.315   1.521  0.6142 -1.9068 -1.8448
 6971TIP3   OH220876   6.019   0.698   5.587 -0.2512 -0.0278 -0.1781
 6971TIP3    H120877   6.006   0.715   5.494 -0.2462 -1.0143 -0.3700
 6971TIP3    H220878   6.068   0.616   5.590 -2.0516 -1.1411  0.7284
 6972TIP3   OH220879   1.961   4.503   0.399 -0.3017 -0.1205  0.0791
 6972TIP3    H120880   1.911   4.577   0.434 -1.9507 -0.4921 -1.3576
 6972TIP3    H220881   2.016   4.541   0.331 -0.1629 -0.0270  0.2417
 6973TIP3   OH220882   2.031   2.138   1.668  0.0025 -0.1840 -0.5474
 6973TIP3    H120883   1.977   2.088   1.607  1.9295 -1.5047 -1.3055
 6973TIP3    H220884   2.050   2.076   1.738 -0.8574  0.8154  0.5981
 6974TIP3   OH220885   0.892   5.507   1.063  0.4906  0.3632  0.0522
 6974TIP3    H120886   0.825   5.514   0.995  0.6540  3.8893  0.0950
 6974TIP3    H220887   0.842   5.498   1.144  0.1569  0.5711 -0.1271
 6975TIP3   OH220888   6.141   5.347   5.427 -0.1354 -0.1471 -0.0730
 6975TIP3    H120889   6.120   5.406   5.355  0.9681 -0.6304 -0.8344
 6975TIP3    H220890   6.177   5.403   5.495  0.0569  0.1661 -0.4312
 6976TIP3   OH220891   0.453   3.536   5.807 -0.3971 -0.1062 -0.7622
 6976TIP3    H120892   0.531   3.589   5.822 -0.2243 -0.3634 -0.7540
 6976TIP3    H220893   0.382   3.585   5.849 -0.2209  0.0646 -0.6626
 6977TIP3   OH220894   3.040   1.612   2.523  0.6916  0.4200  0.1040
 6977TIP3    H120895   3.109   1.670   2.490 -0.2390  1.3884 -0.2303
 6977TIP3    H220896   3.036   1.631   2.617  0.0558  1.3010 -0.0849
 6978TIP3   OH220897   4.990   3.903   3.447  0.3606  0.0007  0.2020
 6978TIP3    H120898   5.001   3.809   3.429 -0.0827 -0.3973  1.8062
 6978TIP3    H220899   5.030   3.915   3.533 -1.8138  0.7372  1.1793
 6979TIP3   OH220900   3.938   5.867   0.201 -0.1990 -0.5443 -0.4909
 6979TIP3    H120901   3.981   5.948   0.229  0.2677 -0.1810 -2.1488
 6979TIP3    H220902   3.966   5.802   0.264 -0.1599  0.4677  0.5763
 6980TIP3   OH220903   2.952   1.822   5.682  0.0444 -0.5232  0.0039
 6980TIP3    H120904   2.929   1.856   5.595 -0.3153 -0.5632  0.0819
 6980TIP3    H220905   2.984   1.898   5.730  0.5797 -0.5695 -0.2789
 6981TIP3   OH220906   5.988   5.843   3.431 -0.3457 -0.1443 -0.1316
 6981TIP3    H120907   6.046   5.843   3.508  0.2413  1.7907 -0.5154
 6981TIP3    H220908   6.044   5.814   3.359  0.0917  1.3694 -0.4335
 6982TIP3   OH220909   2.050   4.193   2.075  0.5200  0.2070 -0.0702
 6982TIP3    H120910   2.085   4.144   2.149 -1.2233 -1.6628 -0.4041
 6982TIP3    H220911   2.021   4.125   2.013  0.8639  1.7007 -1.9717
 6983TIP3   OH220912   2.327   5.450   3.584 -0.1977  0.1831  0.2310
 6983TIP3    H120913   2.333   5.425   3.492 -1.0262 -0.2923  0.2953
 6983TIP3    H220914   2.406   5.414   3.624  0.4715  0.8982 -0.3882
 6984TIP3   OH220915   0.747   0.831   3.876  0.2206  0.3559  0.2812
 6984TIP3    H120916   0.659   0.808   3.848  0.3924 -0.8269  0.6797
 6984TIP3    H220917   0.735   0.873   3.961  0.2141 -2.2902  1.6650
 6985TIP3   OH220918   6.708   1.431   0.454  0.1854  0.0229  0.1044
 6985TIP3    H120919   6.765   1.461   0.524  2.1146  1.9328 -2.1431
 6985TIP3    H220920   6.761   1.369   0.403  0.1385  1.3589 -1.6680
 6986TIP3   OH220921   1.639   2.783   4.082 -0.3000  0.4840 -0.0999
 6986TIP3    H120922   1.619   2.811   3.993  2.1842  3.3044  0.0804
 6986TIP3    H220923   1.577   2.831   4.137  0.7024  1.8463 -0.1177
 6987TIP3   OH220924   3.464   2.371   1.956  0.0512  0.0678  0.0797
 6987TIP3    H120925   3.484   2.331   2.041  3.1729 -0.1864 -0.6525
 6987TIP3    H220926   3.509   2.456   1.959  0.5264 -0.1117 -1.4372
 6988TIP3   OH220927   6.109   6.718   1.796 -0.0915  0.0362  0.3585
 6988TIP3    H120928   6.125   6.731   1.889  0.2989 -0.9563  0.4418
 6988TIP3    H220929   6.034   6.774   1.777  0.7572  1.4217  0.9221
 6989TIP3   OH220930   0.704   0.225   0.600  0.3630  0.1046  0.4976
 6989TIP3    H120931   0.676   0.162   0.666  2.8396 -1.2473  0.3716
 6989TIP3    H220932   0.697   0.178   0.517 -1.6071  1.4136 -0.1753
 6990TIP3   OH220933   1.332   1.393   0.441  0.6665  0.5236 -0.7026
 6990TIP3    H120934   1.314   1.485   0.459 -1.9250 -0.3023  1.6007
 6990TIP3    H220935   1.261   1.365   0.384 -1.1198 -0.9428  2.0453
 6991TIP3   OH220936   6.468   0.995   0.227  0.1977  0.0609  0.5348
 6991TIP3    H120937   6.390   1.047   0.210  0.0373 -0.2564  0.2889
 6991TIP3    H220938   6.435   0.906   0.239  0.2873  0.2311  2.4570
 6992TIP3   OH220939   0.067   2.116   1.808  0.2910 -0.2303  0.5055
 6992TIP3    H120940   0.144   2.130   1.864 -1.0624 -1.1629  2.7481
 6992TIP3    H220941   0.033   2.031   1.836 -1.1587 -0.1760 -0.9567
 6993TIP3   OH220942   6.235   5.718   4.861  0.5171 -0.1895  0.7235
 6993TIP3    H120943   6.321   5.699   4.823  0.6485 -1.0961  1.4738
 6993TIP3    H220944   6.247   5.801   4.908  0.8595 -0.0897  0.4620
 6994TIP3   OH220945   3.176   0.272   1.546  0.4136  0.4947 -0.2358
 6994TIP3    H120946   3.086   0.277   1.516 -0.1738 -0.3722  1.2741
 6994TIP3    H220947   3.225   0.240   1.470 -0.2952  2.1909 -1.4659
 6995TIP3   OH220948   0.968   2.718   0.447 -0.1851 -0.1095 -0.0439
 6995TIP3    H120949   1.027   2.706   0.521  0.1951  0.1947 -0.2920
 6995TIP3    H220950   0.990   2.805   0.413 -1.6738  0.5858  0.6600
 6996TIP3   OH220951   4.299   5.921   4.742  0.6249 -0.3844  0.1244
 6996TIP3    H120952   4.232   5.859   4.715  0.9374 -0.4680 -0.4622
 6996TIP3    H220953   4.309   5.906   4.836  0.4059 -0.9359  0.0611
 6997TIP3   OH220954   0.358   3.819   3.607  1.0104 -0.1239 -0.1445
 6997TIP3    H120955   0.446   3.783   3.607  1.6268  1.2897 -0.6577
 6997TIP3    H220956   0.310   3.768   3.672  1.8598 -1.7014 -0.7167
 6998TIP3   OH220957   3.233   5.832   0.114  0.1740 -0.2847 -0.2069
 6998TIP3    H120958   3.291   5.759   0.135 -0.0193  0.0447  1.6447
 6998TIP3    H220959   3.186   5.804   0.035  1.8611 -1.1036 -0.9560
 6999TIP3   OH220960   7.023   5.957   1.506  0.5404 -0.3383  0.1542
 6999TIP3    H120961   6.993   6.009   1.432 -0.3847 -1.6977 -0.4680
 6999TIP3    H220962   6.944   5.942   1.558  0.9205 -0.5463  0.6801
 7000TIP3   OH220963   5.345   4.310   5.545 -0.4845  0.3239  0.0916
 7000TIP3    H120964   5.353   4.402   5.521  2.9717  0.4365  1.1996
 7000TIP3    H220965   5.347   4.309   5.641  1.9915 -0.9790  0.0976
 7001TIP3   OH220966   3.109   3.086   3.545  0.0751 -0.0591  0.4353
 7001TIP3    H120967   3.047   3.157   3.560  0.8811  1.1060 -1.3589
 7001TIP3    H220968   3.144   3.065   3.631 -0.9945  0.9499  1.1449
 7002TIP3   OH220969   5.177   4.599   3.174 -0.1049 -0.5430 -0.0361
 7002TIP3    H120970   5.170   4.653   3.253  0.7632 -0.2504 -0.1497
 7002TIP3    H220971   5.203   4.512   3.207  1.4870 -0.1161 -0.0610
 7003TIP3   OH220972   4.643   2.447   0.442 -0.7266  0.2537  0.1208
 7003TIP3    H120973   4.573   2.410   0.494 -2.9263  0.2876 -2.5712
 7003TIP3    H220974   4.668   2.377   0.382 -1.0419  1.3325 -1.3325
 7004TIP3   OH220975   6.793   4.009   0.118  0.5611  0.4739  0.3933
 7004TIP3    H120976   6.775   3.943   0.052  2.5506  0.1518  0.0951
 7004TIP3    H220977   6.711   4.021   0.165 -1.1983  1.3204 -2.6405
 7005TIP3   OH220978   2.698   1.621   1.200  0.4498 -0.3183  0.0138
 7005TIP3    H120979   2.709   1.649   1.291  1.2496 -1.0691  0.1608
 7005TIP3    H220980   2.786   1.626   1.162  0.3561 -1.2318 -0.3497
 7006TIP3   OH220981   4.454   3.479   1.438  0.1994 -0.3579  0.1077
 7006TIP3    H120982   4.363   3.472   1.466 -0.1363  0.0426 -0.8403
 7006TIP3    H220983   4.476   3.571   1.452  1.2563 -0.9220  2.6324
 7007TIP3   OH220984   0.352   4.754   4.849  0.2619 -0.0771  0.1427
 7007TIP3    H120985   0.266   4.712   4.849  0.4364 -0.5486 -1.7989
 7007TIP3    H220986   0.334   4.847   4.863 -0.7142  0.0037 -1.3962
 7008TIP3   OH220987   0.299   4.377   0.900 -0.3651 -0.3208  0.2467
 7008TIP3    H120988   0.209   4.382   0.931 -0.0278  0.8945  1.0798
 7008TIP3    H220989   0.334   4.298   0.943 -0.9620 -0.6730  0.0949
 7009TIP3   OH220990   0.692   3.665   2.471 -0.0213 -0.4798  0.2044
 7009TIP3    H120991   0.668   3.715   2.549 -3.2298  0.1219 -0.9895
 7009TIP3    H220992   0.609   3.656   2.423  1.2502 -3.4190 -1.6688
 7010TIP3   OH220993   1.593   1.622   3.118  0.2067 -0.1741  0.5131
 7010TIP3    H120994   1.533   1.572   3.063  1.1861  0.4105 -1.1717
 7010TIP3    H220995   1.538   1.691   3.157 -0.5895 -0.8692  0.6571
 7011TIP3   OH220996   3.317   0.740   5.026 -0.2005 -0.8822 -0.0931
 7011TIP3    H120997   3.295   0.769   5.114  0.5482  0.8003 -0.4139
 7011TIP3    H220998   3.234   0.710   4.988 -0.3150 -2.8445  1.5699
 7012TIP3   OH220999   3.850   0.471   1.326 -0.0099  0.4559  0.3483
 7012TIP3    H121000   3.896   0.404   1.376  2.5994  1.7409 -0.1705
 7012TIP3    H221001   3.785   0.423   1.275 -0.4332 -1.2610  2.3460
 7013TIP3   OH221002   5.080   0.365   0.324  0.1979  0.1376  0.0292
 7013TIP3    H121003   5.087   0.410   0.408  1.1388  2.9480 -1.4384
 7013TIP3    H221004   5.170   0.348   0.298 -0.1074 -1.6913 -0.0101
 7014TIP3   OH221005   5.316   5.983   5.763  0.1405  0.6868 -0.2378
 7014TIP3    H121006   5.305   6.029   5.680 -1.5942 -0.6975 -0.8548
 7014TIP3    H221007   5.410   5.988   5.781  0.5376  1.2293 -2.1635
 7015TIP3   OH221008   3.755   4.520   4.678 -0.2156  0.1366  0.1180
 7015TIP3    H121009   3.661   4.533   4.688 -0.2650 -0.2566  0.1619
 7015TIP3    H221010   3.793   4.607   4.695 -0.5474  0.2346  0.3710
 7016TIP3   OH221011   3.340   4.286   3.926  0.2174  0.0926 -0.1897
 7016TIP3    H121012   3.376   4.245   4.004  0.7886  0.5025 -0.2278
 7016TIP3    H221013   3.358   4.379   3.937  0.0250  0.1913 -0.6658
 7017TIP3   OH221014   2.045   0.021   1.785 -0.6851 -0.4582 -0.9156
 7017TIP3    H121015   1.967  -0.025   1.817 -2.3960  3.9185  2.3579
 7017TIP3    H221016   2.011   0.083   1.721 -0.1046  1.6114  0.6527
 7018TIP3   OH221017   3.677   4.361   3.628  0.2829 -0.0067  0.1829
 7018TIP3    H121018   3.769   4.367   3.651  0.1026  0.7913  0.7232
 7018TIP3    H221019   3.676   4.359   3.533  0.9304 -1.4835  0.1783
 7019TIP3   OH221020   0.910   1.704   1.441 -0.2493  0.4889  0.0321
 7019TIP3    H121021   0.965   1.772   1.480  0.5149 -2.1356  4.3005
 7019TIP3    H221022   0.971   1.633   1.422 -1.2718  0.1818 -2.4841
 7020TIP3   OH221023   5.627   0.877   2.252  0.1318 -0.1075  0.5037
 7020TIP3    H121024   5.554   0.929   2.218  0.5665 -0.2998 -0.7628
 7020TIP3    H221025   5.705   0.928   2.233  0.3695  0.0372  1.7461
 7021TIP3   OH221026   5.583   4.375   1.288  0.3388 -0.0796  0.2110
 7021TIP3    H121027   5.659   4.317   1.286 -0.0259 -0.5746  0.6328
 7021TIP3    H221028   5.550   4.373   1.198 -1.1280 -2.4858  0.7340
 7022TIP3   OH221029   0.510   5.793   4.762  0.1124  0.4875 -0.3888
 7022TIP3    H121030   0.448   5.721   4.748 -0.5746  0.8205  0.7935
 7022TIP3    H221031   0.528   5.791   4.856  1.0299  1.1107 -0.5370
 7023TIP3   OH221032   0.552   0.472   0.632  0.1265 -0.0613  0.7816
 7023TIP3    H121033   0.614   0.399   0.624  1.4418  1.2430 -2.3168
 7023TIP3    H221034   0.603   0.544   0.668  0.4088  0.9332 -1.4955
 7024TIP3   OH221035   0.640   0.742   0.996  0.0314 -0.0971  0.2464
 7024TIP3    H121036   0.566   0.796   0.969 -1.1609 -0.3543  2.7267
 7024TIP3    H221037   0.671   0.702   0.915 -1.7554  0.9780 -1.0398
 7025TIP3   OH221038   7.053   3.551   3.691 -0.0306 -0.3129  0.6875
 7025TIP3    H121039   7.101   3.599   3.758  3.0440 -0.2297 -1.3960
 7025TIP3    H221040   7.029   3.618   3.626 -0.1027 -0.8601  0.1410
 7026TIP3   OH221041   6.335   3.493   3.918 -0.0438 -0.0915 -0.4791
 7026TIP3    H121042   6.364   3.559   3.855 -0.0421 -0.6481 -1.0671
 7026TIP3    H221043   6.244   3.517   3.937  0.3998  0.9577  0.4686
 7027TIP3   OH221044   5.790   3.385   5.066  0.4149  0.2674 -0.2056
 7027TIP3    H121045   5.866   3.438   5.041 -0.6813  1.5333 -1.0490
 7027TIP3    H221046   5.739   3.378   4.985 -0.4765 -0.3616  0.3928
 7028TIP3   OH221047   3.641   5.884   5.071  0.1159 -0.2620  0.4459
 7028TIP3    H121048   3.722   5.932   5.053  0.7614 -1.3714  0.2482
 7028TIP3    H221049   3.632   5.825   4.996 -1.9799  1.2190 -0.5429
 7029TIP3   OH221050   0.629   2.783   1.431  0.6485  0.1906 -0.3226
 7029TIP3    H121051   0.712   2.811   1.470  1.2257 -1.1578 -0.5310
 7029TIP3    H221052   0.647   2.696   1.397 -0.2319  0.7491 -2.3599
 7030TIP3   OH221053   1.806   1.325   1.348  0.0547  0.2067  0.1286
 7030TIP3    H121054   1.729   1.329   1.291 -1.5334  1.3354  2.2011
 7030TIP3    H221055   1.771   1.300   1.433  2.1796 -0.3238  0.8940
 7031TIP3   OH221056   0.588   4.639   3.814  0.4215 -0.6825  0.2992
 7031TIP3    H121057   0.611   4.597   3.897 -0.9660 -0.8751  0.6154
 7031TIP3    H221058   0.571   4.730   3.838 -0.0287 -0.7494  0.2427
 7032TIP3   OH221059   2.158   2.751   0.792  0.0261  0.0463  0.2240
 7032TIP3    H121060   2.250   2.727   0.783  0.0028  0.5543 -1.8375
 7032TIP3    H221061   2.110   2.677   0.754 -0.5295 -0.8073  2.4490
 7033TIP3   OH221062   6.965   5.570   2.065  0.0406  0.1198 -0.0152
 7033TIP3    H121063   7.029   5.595   2.132  0.3919  1.7292 -0.9045
 7033TIP3    H221064   6.925   5.490   2.099 -0.9370  1.6794  2.9182
 7034TIP3   OH221065   5.045   3.689   0.274 -0.0799  0.1706  0.6149
 7034TIP3    H121066   4.954   3.714   0.289  0.2657  0.9512  1.5518
 7034TIP3    H221067   5.053   3.602   0.312 -0.5321 -0.0816  0.1422
 7035TIP3   OH221068   0.031   3.318   1.212 -0.2933 -0.2498 -0.0955
 7035TIP3    H121069   0.109   3.320   1.156 -1.6279  1.1119 -2.0151
 7035TIP3    H221070   0.041   3.393   1.271 -0.1733 -0.0768 -0.3390
 7036TIP3   OH221071   1.513   1.825   2.346 -0.2183  0.7979  0.3505
 7036TIP3    H121072   1.554   1.740   2.338 -0.3651  0.6539  1.0552
 7036TIP3    H221073   1.572   1.885   2.300  1.0281  0.6728  1.7311
 7037TIP3   OH221074   5.403   2.214   1.089 -0.7121  0.0666  0.0866
 7037TIP3    H121075   5.378   2.291   1.140  1.1673  0.5354  0.3542
 7037TIP3    H221076   5.425   2.148   1.153  0.0337  0.1109 -0.1159
 7038TIP3   OH221077   5.232   0.783   1.584  0.3798  0.2157 -0.0349
 7038TIP3    H121078   5.146   0.817   1.608  0.0814  0.9750 -2.0105
 7038TIP3    H221079   5.213   0.717   1.517  1.2490 -0.9373  0.8098
 7039TIP3   OH221080   2.691   4.760   2.477  0.4773 -0.6230  0.4925
 7039TIP3    H121081   2.644   4.814   2.413  1.8904  0.9373  0.6861
 7039TIP3    H221082   2.648   4.675   2.473 -1.3493  0.2791 -0.4078
 7040TIP3   OH221083   5.571   2.509   4.093  0.7037  0.0529 -0.2506
 7040TIP3    H121084   5.585   2.422   4.056  0.5137  0.3265 -0.9774
 7040TIP3    H221085   5.619   2.568   4.035  1.7206  0.3304  0.8419
 7041TIP3   OH221086   7.148   4.750   5.093 -0.0180  0.4828 -0.2985
 7041TIP3    H121087   7.161   4.829   5.145 -0.2667 -0.4437  1.2317
 7041TIP3    H221088   7.057   4.725   5.109  0.4136 -0.8067  0.3090
 7042TIP3   OH221089   6.014   2.830   2.200 -0.5582 -0.1856  0.2691
 7042TIP3    H121090   5.971   2.747   2.220 -0.4209 -0.2238  0.4036
 7042TIP3    H221091   6.108   2.810   2.204 -0.5261 -0.0525  0.1851
 7043TIP3   OH221092   1.630   1.589   1.162 -0.3051  0.2218  0.4265
 7043TIP3    H121093   1.602   1.558   1.249  2.6556  1.3007  1.8889
 7043TIP3    H221094   1.548   1.600   1.114 -2.0114 -1.4202  2.6986
 7044TIP3   OH221095   3.972   5.106   4.779 -0.2805  0.0906  0.3935
 7044TIP3    H121096   4.055   5.064   4.757  0.0107  0.2123  1.2244
 7044TIP3    H221097   3.916   5.090   4.703  0.5105  0.0397 -0.1926
 7045TIP3   OH221098   1.498   2.629   4.430  0.3052  0.4859  0.1055
 7045TIP3    H121099   1.589   2.607   4.414  0.0056 -0.5632 -0.2250
 7045TIP3    H221100   1.449   2.552   4.402 -0.7984  1.6100 -1.2040
 7046TIP3   OH221101   1.480   2.108   5.030  0.5101 -0.5264 -0.5039
 7046TIP3    H121102   1.519   2.132   5.114  0.1446 -1.3867 -0.0778
 7046TIP3    H221103   1.397   2.066   5.053  0.4157 -0.7831 -1.2869
 7047TIP3   OH221104   4.004   3.896   2.106  0.2015  0.0449  0.3760
 7047TIP3    H121105   3.966   3.810   2.086  0.3900 -0.1930  1.0280
 7047TIP3    H221106   4.046   3.885   2.191  2.1804  0.1424 -0.5321
 7048TIP3   OH221107   4.627   1.087   5.867 -1.0253  0.4879 -0.2989
 7048TIP3    H121108   4.640   1.066   5.774  2.3815 -2.9612  0.6772
 7048TIP3    H221109   4.569   1.018   5.899 -1.7530  1.3456  0.2809
 7049TIP3   OH221110   1.262   4.576   2.379 -0.3128 -0.5392 -0.1090
 7049TIP3    H121111   1.338   4.631   2.359 -3.1122  3.1385 -1.7051
 7049TIP3    H221112   1.265   4.564   2.474  2.0525 -0.3444 -0.0961
 7050TIP3   OH221113   4.920   2.006   2.111 -0.3859  0.1384 -0.0731
 7050TIP3    H121114   5.003   2.053   2.106 -0.1384 -0.2549  0.3237
 7050TIP3    H221115   4.916   1.974   2.201 -0.6833 -0.3639 -0.2619
 7051TIP3   OH221116   1.329   4.380   0.296  0.2059  0.5931  0.2691
 7051TIP3    H121117   1.243   4.371   0.336  0.5717  0.3671  1.0085
 7051TIP3    H221118   1.374   4.446   0.348 -0.0849  1.9510 -1.1071
 7052TIP3   OH221119   5.903   2.594   3.470 -0.4539  0.1342  0.2246
 7052TIP3    H121120   5.920   2.642   3.552  1.5503  0.8103 -0.5273
 7052TIP3    H221121   5.837   2.646   3.425  2.4048  2.9433 -1.0549
 7053TIP3   OH221122   0.460   5.013   1.324 -0.5876  0.1986 -0.2338
 7053TIP3    H121123   0.405   4.940   1.296  0.3021 -0.2006 -0.9973
 7053TIP3    H221124   0.503   5.043   1.243  0.7316  0.1424  0.4193
 7054TIP3   OH221125   1.258   5.382   0.392  0.1460  0.0702 -0.3271
 7054TIP3    H121126   1.350   5.378   0.368  0.4037 -0.6407  0.7579
 7054TIP3    H221127   1.256   5.370   0.486 -1.0998 -0.5320 -0.4055
 7055TIP3   OH221128   0.262   4.681   1.716  0.3780  0.0260 -0.0677
 7055TIP3    H121129   0.207   4.646   1.785 -2.9392  2.1601 -1.3762
 7055TIP3    H221130   0.339   4.715   1.761 -1.6636  1.4121  2.6713
 7056TIP3   OH221131   4.545   5.793   0.132  0.0070  0.1989 -0.2099
 7056TIP3    H121132   4.481   5.864   0.122  1.0083  1.4667  1.8352
 7056TIP3    H221133   4.628   5.832   0.108  0.6204 -0.1635  1.2188
 7057TIP3   OH221134   6.185   1.775   1.453 -0.3109 -0.5247  0.2365
 7057TIP3    H121135   6.239   1.731   1.388 -1.9704 -2.6361  0.1646
 7057TIP3    H221136   6.247   1.806   1.519  1.1647 -0.6857 -1.0292
 7058TIP3   OH221137   2.308   1.641   2.358  0.6979 -0.1206 -0.3997
 7058TIP3    H121138   2.320   1.720   2.306  0.5167  1.7063  2.1858
 7058TIP3    H221139   2.216   1.644   2.386  1.1270 -0.2752  1.1308
 7059TIP3   OH221140   5.761   5.872   4.289  0.4614 -0.9826  0.0194
 7059TIP3    H121141   5.844   5.898   4.248  0.4667 -0.3131  0.4355
 7059TIP3    H221142   5.742   5.943   4.351  0.5781 -2.1064  1.3671
 7060TIP3   OH221143   2.605   4.416   0.297 -0.0936 -0.2946  0.2624
 7060TIP3    H121144   2.663   4.343   0.320 -1.5975 -1.1708  1.4164
 7060TIP3    H221145   2.607   4.473   0.373  0.2818  0.3836 -0.2389
 7061TIP3   OH221146   0.478   4.681   5.083 -0.3918 -0.0381 -0.0812
 7061TIP3    H121147   0.405   4.650   5.135 -0.8081 -1.6228 -1.5347
 7061TIP3    H221148   0.442   4.696   4.996  1.0697 -1.4576 -1.0051
 7062TIP3   OH221149   3.592   5.550   2.902  0.2833  0.5205  0.1845
 7062TIP3    H121150   3.562   5.514   2.819 -0.0066  2.4407 -0.5795
 7062TIP3    H221151   3.666   5.494   2.927  0.2900 -0.1676 -1.2819
 7063TIP3   OH221152   2.570   6.521   4.900 -0.0821 -0.6258  0.0521
 7063TIP3    H121153   2.476   6.527   4.917 -0.0428 -1.9492  0.8325
 7063TIP3    H221154   2.607   6.600   4.938 -1.2160  1.7404 -3.2685
 7064TIP3   OH221155   5.919   0.981   1.062 -0.1987 -0.0634  0.2976
 7064TIP3    H121156   5.924   0.919   1.135  0.4416  0.6034  0.8293
 7064TIP3    H221157   5.892   1.064   1.103 -0.7142  0.0995 -0.3553
 7065TIP3   OH221158   1.434   0.182   2.719  0.7348  0.6889 -0.1610
 7065TIP3    H121159   1.468   0.239   2.650  2.5031  2.0614  1.7325
 7065TIP3    H221160   1.479   0.211   2.799 -1.5262 -0.5223  1.6779
 7066TIP3   OH221161   5.691   4.037   1.426  0.0475  0.5370 -0.1610
 7066TIP3    H121162   5.626   4.098   1.462  1.5638  1.0313  1.9301
 7066TIP3    H221163   5.749   4.092   1.375  0.5217  0.6162  0.4499
 7067TIP3   OH221164   1.441   4.551   0.961 -0.2647  0.1688 -0.1445
 7067TIP3    H121165   1.426   4.463   0.928  0.2235  0.1615 -0.3609
 7067TIP3    H221166   1.395   4.608   0.900 -1.3574  0.0195  0.5110
 7068TIP3   OH221167   4.908   5.200   2.441 -0.1176  0.0403 -0.8706
 7068TIP3    H121168   4.923   5.191   2.347  1.0336  3.0080 -1.1023
 7068TIP3    H221169   4.862   5.284   2.450 -0.0272 -0.0830  1.2139
 7069TIP3   OH221170   5.026   5.736   0.549  0.1527 -0.1543 -0.5227
 7069TIP3    H121171   5.100   5.796   0.541 -0.9291  1.5977  1.6972
 7069TIP3    H221172   4.951   5.786   0.516 -0.4096 -1.1530 -0.7895
 7070TIP3   OH221173   5.824   2.135   4.185 -0.1155 -0.0459  0.3072
 7070TIP3    H121174   5.742   2.145   4.234 -0.8397 -1.6580 -0.4893
 7070TIP3    H221175   5.835   2.217   4.138 -1.3270  0.1596  0.3568
 7071TIP3   OH221176   7.079   5.056   0.356  0.1882  0.4938 -0.5022
 7071TIP3    H121177   7.022   5.132   0.344 -0.6294 -0.0657 -0.2327
 7071TIP3    H221178   7.093   5.021   0.268 -2.1768 -0.9905 -0.3775
 7072TIP3   OH221179   1.511   3.863   2.943  0.6198 -0.8668  0.5146
 7072TIP3    H121180   1.534   3.938   2.998  1.5888 -0.1831 -0.7572
 7072TIP3    H221181   1.579   3.862   2.875 -2.4127  0.5992 -2.8637
 7073TIP3   OH221182   1.890   0.460   0.762  0.3686 -0.1233  0.2726
 7073TIP3    H121183   1.810   0.482   0.810  0.3237  0.6679 -0.1510
 7073TIP3    H221184   1.884   0.366   0.746  0.7642 -0.5981  2.5134
 7074TIP3   OH221185   1.393   3.804   2.151  0.3371 -0.3082 -0.6111
 7074TIP3    H121186   1.367   3.761   2.232  0.5716  0.7170  0.0285
 7074TIP3    H221187   1.384   3.736   2.084  1.3537 -1.5649  0.4483
 7075TIP3   OH221188   5.890   0.448   4.197  0.0118 -0.1774 -0.2500
 7075TIP3    H121189   5.937   0.376   4.155  2.6278  1.6000 -0.5752
 7075TIP3    H221190   5.854   0.499   4.124 -0.8044 -0.4428 -0.0520
 7076TIP3   OH221191   0.474   6.764   2.394 -0.1743  0.0060  0.4306
 7076TIP3    H121192   0.476   6.683   2.344  0.0082 -0.3653  1.0355
 7076TIP3    H221193   0.393   6.807   2.366 -0.3429 -0.4491  0.2110
 7077TIP3   OH221194   1.358   6.638   4.599  0.6213 -0.4111 -0.0102
 7077TIP3    H121195   1.284   6.595   4.641  0.3717 -0.8934 -0.9293
 7077TIP3    H221196   1.376   6.714   4.654 -0.9391  0.0571 -0.1013
 7078TIP3   OH221197   4.502   5.044   2.613 -0.4129  0.8063 -0.4010
 7078TIP3    H121198   4.529   4.957   2.643  0.3175 -0.2124 -3.6406
 7078TIP3    H221199   4.576   5.100   2.636 -0.3970  0.3690  0.6954
 7079TIP3   OH221200   7.060   6.427   2.396  0.5297  0.0760 -0.1528
 7079TIP3    H121201   7.121   6.456   2.463 -1.0467 -1.3187  2.0205
 7079TIP3    H221202   6.975   6.460   2.424 -0.2158 -0.6821 -1.3726
 7080TIP3   OH221203   5.616   5.813   0.225  0.9686 -0.1397 -0.5342
 7080TIP3    H121204   5.603   5.822   0.131  0.8210  0.2246 -0.4814
 7080TIP3    H221205   5.711   5.806   0.235  0.9632 -0.5075 -0.7358
 7081TIP3   OH221206   4.832   5.031   0.465 -0.1089 -0.3245 -0.1264
 7081TIP3    H121207   4.908   5.073   0.505  1.1277  1.5452 -3.9603
 7081TIP3    H221208   4.773   5.103   0.443 -0.0614 -0.9648 -2.7036
 7082TIP3   OH221209   1.404   0.395   1.306  0.3955 -0.2650 -0.0973
 7082TIP3    H121210   1.446   0.413   1.391 -1.1209  0.0115  0.6223
 7082TIP3    H221211   1.421   0.302   1.291  1.7962 -0.0248 -0.1471
 7083TIP3   OH221212   4.428   2.858   5.468  0.3165 -0.4985 -0.0164
 7083TIP3    H121213   4.504   2.826   5.419  2.0325  0.8994  1.5670
 7083TIP3    H221214   4.403   2.939   5.424  0.8133 -0.1099  0.3937
 7084TIP3   OH221215   5.846   5.638   4.442  0.2773 -0.6401  0.0110
 7084TIP3    H121216   5.796   5.647   4.523  1.8337 -1.1062  1.0467
 7084TIP3    H221217   5.799   5.695   4.380 -0.1106  0.8924  1.6128
 7085TIP3   OH221218   5.567   6.293   1.275 -0.1350  0.2075 -0.1213
 7085TIP3    H121219   5.487   6.340   1.250 -0.1804 -0.8026 -2.0076
 7085TIP3    H221220   5.556   6.275   1.369 -1.6929  0.8750 -0.1513
 7086TIP3   OH221221   4.571   3.023   1.672 -0.2701  0.5659  0.6058
 7086TIP3    H121222   4.581   3.087   1.742  0.0960  0.7823  0.3599
 7086TIP3    H221223   4.656   2.978   1.670 -0.1464  0.8177  0.0524
 7087TIP3   OH221224   3.660   3.167   2.203 -0.3655  0.2334 -0.2882
 7087TIP3    H121225   3.747   3.141   2.234 -0.6992 -2.6441 -1.4454
 7087TIP3    H221226   3.673   3.189   2.111 -0.8169 -0.0639 -0.4270
 7088TIP3   OH221227   2.814   3.816   2.183 -0.2513 -0.3593  0.2247
 7088TIP3    H121228   2.859   3.886   2.231 -1.3733 -1.8214  3.7337
 7088TIP3    H221229   2.731   3.855   2.155  0.9079  0.8551 -1.7081
 7089TIP3   OH221230   1.055   4.301   3.734 -1.0855 -0.1103 -0.0181
 7089TIP3    H121231   0.981   4.243   3.753  0.2700 -2.0109 -0.2610
 7089TIP3    H221232   1.130   4.259   3.775  0.2644  0.5473 -1.6841
 7090TIP3   OH221233   7.111   5.183   0.788  0.3318 -0.5470 -0.4894
 7090TIP3    H121234   7.185   5.154   0.734  2.1902  0.6582  1.2619
 7090TIP3    H221235   7.123   5.138   0.871 -0.0844  0.7510  0.2955
 7091TIP3   OH221236   2.235   6.780   3.878 -0.0914  0.0403 -0.1817
 7091TIP3    H121237   2.200   6.718   3.942 -0.6610 -0.9951 -1.4631
 7091TIP3    H221238   2.277   6.848   3.931 -0.9964 -0.5174  1.2968
 7092TIP3   OH221239   2.953   3.458   5.608  0.4050  0.6665 -0.3714
 7092TIP3    H121240   2.899   3.512   5.551 -2.6489 -1.3172  0.4002
 7092TIP3    H221241   2.969   3.513   5.685  0.6727  1.7700 -1.2045
 7093TIP3   OH221242   3.182   0.650   0.564  0.0711 -0.6170 -0.1631
 7093TIP3    H121243   3.225   0.578   0.610 -2.4347 -1.9493  0.2866
 7093TIP3    H221244   3.107   0.609   0.520 -0.8003  1.5406 -0.8276
 7094TIP3   OH221245   6.862   1.000   2.160 -0.1885  0.4697 -0.0901
 7094TIP3    H121246   6.894   1.044   2.238 -0.4154 -2.5047  1.8163
 7094TIP3    H221247   6.916   1.035   2.089 -1.4756  5.0066  0.8198
 7095TIP3   OH221248   0.448   2.676   2.589 -0.1148 -0.0543 -0.0606
 7095TIP3    H121249   0.490   2.755   2.623  0.0036  0.6755 -1.7962
 7095TIP3    H221250   0.426   2.626   2.667  2.6191  0.2111  1.0238
 7096TIP3   OH221251   4.787   5.559   5.598 -0.4270  0.2869 -0.2737
 7096TIP3    H121252   4.879   5.571   5.573 -0.6154  2.3893 -0.1615
 7096TIP3    H221253   4.741   5.632   5.556 -1.5475  1.0038  2.0003
 7097TIP3   OH221254   4.165   2.458   4.047  0.2999 -0.6198 -0.7861
 7097TIP3    H121255   4.104   2.386   4.061 -2.8673  2.0440  0.5167
 7097TIP3    H221256   4.191   2.450   3.956 -3.6943 -0.8599 -2.0960
 7098TIP3   OH221257   6.397   3.797   2.993  0.3417  0.3836  0.4996
 7098TIP3    H121258   6.411   3.890   3.010 -2.6406  0.9445  0.4139
 7098TIP3    H221259   6.328   3.771   3.054  0.8893 -1.7115  0.3022
 7099TIP3   OH221260   3.672   0.837   2.786  0.0160 -0.1240 -0.7566
 7099TIP3    H121261   3.632   0.767   2.735 -1.1863 -0.2322  0.2639
 7099TIP3    H221262   3.599   0.873   2.837  0.5257  2.1002 -1.4957
 7100TIP3   OH221263   4.448   1.573   1.551  0.5426  0.3558 -0.1477
 7100TIP3    H121264   4.518   1.601   1.609  0.9111 -2.0601  0.6716
 7100TIP3    H221265   4.491   1.518   1.485 -0.3825  0.0203 -0.4892
 7101TIP3   OH221266   4.145   4.965   1.929  0.5587  0.1657  0.3439
 7101TIP3    H121267   4.184   4.958   2.017 -1.2591  0.2660  1.1976
 7101TIP3    H221268   4.051   4.974   1.945  0.0589 -0.9109 -1.6540
 7102TIP3   OH221269   6.831   4.225   0.453 -0.0749 -0.0442  0.3260
 7102TIP3    H121270   6.851   4.131   0.450  1.3500  0.1547  1.8015
 7102TIP3    H221271   6.807   4.241   0.544 -0.2107  1.0513  0.1097
 7103TIP3   OH221272   3.291   3.812   5.521 -0.5518  0.2816 -0.0316
 7103TIP3    H121273   3.262   3.753   5.590  0.3941 -0.6900 -0.4349
 7103TIP3    H221274   3.338   3.882   5.566  0.0893 -0.3655  0.3089
 7104TIP3   OH221275   3.112   6.654   3.846  0.0938 -0.4000 -0.1091
 7104TIP3    H121276   3.086   6.635   3.756  2.8803  0.7633 -1.2722
 7104TIP3    H221277   3.166   6.733   3.839 -2.0717  1.5905  3.0317
 7105TIP3   OH221278   2.333   2.952   3.235  0.2226  0.2842  0.1091
 7105TIP3    H121279   2.404   2.888   3.239  0.4949  0.6466  1.4422
 7105TIP3    H221280   2.281   2.925   3.159 -0.5845 -2.5025  1.5115
 7106TIP3   OH221281   3.612   5.898   0.881 -0.3074 -0.0438  0.0439
 7106TIP3    H121282   3.591   5.991   0.894 -2.9156 -0.3132 -1.4232
 7106TIP3    H221283   3.669   5.897   0.805 -0.3018  0.3436  0.0390
 7107TIP3   OH221284   6.895   0.293   0.979 -0.0471  0.3138 -0.3326
 7107TIP3    H121285   6.940   0.360   0.927  0.6173  0.4449  0.3995
 7107TIP3    H221286   6.954   0.275   1.051 -0.9620  0.1446  0.3913
 7108TIP3   OH221287   4.870   1.036   4.077 -0.1922  0.4148  0.0513
 7108TIP3    H121288   4.877   1.129   4.056  2.3364  0.1633 -0.5288
 7108TIP3    H221289   4.862   0.992   3.993  0.1632  0.0193  0.2194
 7109TIP3   OH221290   7.178   3.797   1.351  0.1407  0.0971  0.0111
 7109TIP3    H121291   7.124   3.876   1.362  1.8217  1.0828  1.7197
 7109TIP3    H221292   7.132   3.730   1.403 -0.0575  0.6007  0.4992
 7110TIP3   OH221293   6.980   4.398   1.982  0.0598 -0.3093  0.0499
 7110TIP3    H121294   6.926   4.456   2.034  0.4588  0.8346 -0.7754
 7110TIP3    H221295   6.919   4.332   1.948 -0.6526  0.4520 -0.1604
 7111TIP3   OH221296   6.393   4.113   2.930 -0.6032  0.7054  0.5466
 7111TIP3    H121297   6.340   4.142   3.004 -0.7432 -0.4677  0.9195
 7111TIP3    H221298   6.332   4.114   2.856 -0.6227  1.2779  0.5667
 7112TIP3   OH221299   6.949   3.434   1.997  0.4522  0.0883 -0.4855
 7112TIP3    H121300   6.878   3.497   1.994 -0.3586 -0.7950 -3.0020
 7112TIP3    H221301   6.995   3.452   2.079 -0.8723  2.6421 -0.2145
 7113TIP3   OH221302   1.280   5.403   0.655 -0.7291 -0.0753  0.4737
 7113TIP3    H121303   1.215   5.452   0.705  0.1179  0.8526  0.6858
 7113TIP3    H221304   1.344   5.468   0.627  0.3356 -1.0287  0.6165
 7114TIP3   OH221305   3.739   4.087   2.672 -0.8145  0.3912 -0.7326
 7114TIP3    H121306   3.691   4.108   2.752 -2.0924  2.7821 -2.0285
 7114TIP3    H221307   3.780   4.002   2.691 -0.7918  0.9915  2.5343
 7115TIP3   OH221308   5.133   2.878   4.262 -0.2042  0.0393  0.5877
 7115TIP3    H121309   5.220   2.853   4.231 -0.8245 -0.8937 -0.4688
 7115TIP3    H221310   5.143   2.968   4.292  1.1088 -0.0346  0.4226
 7116TIP3   OH221311   3.980   6.580   5.792 -0.2737  0.2879  0.3450
 7116TIP3    H121312   3.937   6.634   5.858  0.2409  1.0377  0.0863
 7116TIP3    H221313   3.911   6.559   5.730 -0.7657 -0.4287  1.1164
 7117TIP3   OH221314   5.061   2.344   3.775  0.0239 -0.3227  0.0943
 7117TIP3    H121315   5.136   2.336   3.835  0.1640  1.1316  0.1318
 7117TIP3    H221316   5.046   2.438   3.767  0.0065 -0.4656 -2.1713
 7118TIP3   OH221317   2.346   3.272   1.731 -0.4367  0.1320 -0.5429
 7118TIP3    H121318   2.423   3.237   1.776  0.2099  1.1368 -0.8213
 7118TIP3    H221319   2.356   3.244   1.641 -0.7824 -0.3583 -0.4277
 7119TIP3   OH221320   7.115   3.520   5.169 -0.1137 -0.1147 -0.1213
 7119TIP3    H121321   7.204   3.490   5.190 -0.3867  0.0688  1.4132
 7119TIP3    H221322   7.101   3.492   5.079  0.9871 -1.3752  0.0728
 7120TIP3   OH221323   0.821   3.448   3.716  0.0544 -0.0547  0.0481
 7120TIP3    H121324   0.780   3.439   3.802 -1.0628 -0.5791 -0.5122
 7120TIP3    H221325   0.757   3.410   3.655  1.5419 -1.2782 -0.8304
 7121TIP3   OH221326   6.634   1.602   3.673 -0.2574  0.1514 -0.1774
 7121TIP3    H121327   6.561   1.574   3.728  0.1329 -0.2197  0.1583
 7121TIP3    H221328   6.644   1.532   3.608  0.8683 -0.6458  0.8032
 7122TIP3   OH221329   0.329   0.658   0.674  1.1116 -0.1974  0.0250
 7122TIP3    H121330   0.413   0.613   0.685  1.4133 -0.3564 -2.4657
 7122TIP3    H221331   0.345   0.721   0.604 -0.6014  0.4420  0.1807
 7123TIP3   OH221332   4.431   5.422   5.873 -0.1554  0.3755 -0.2931
 7123TIP3    H121333   4.503   5.386   5.821  0.0818  0.5141 -0.0645
 7123TIP3    H221334   4.466   5.426   5.962 -0.7153 -0.3047 -0.0364
 7124TIP3   OH221335   3.040   2.172   2.634  0.4658  0.1719 -0.2417
 7124TIP3    H121336   3.090   2.106   2.680  1.1001 -0.2063 -1.4281
 7124TIP3    H221337   2.977   2.123   2.581 -0.4518  0.6056  0.4079
 7125TIP3   OH221338   3.508   1.833   2.778  0.1517  0.0936  0.5138
 7125TIP3    H121339   3.452   1.756   2.769  1.8493 -1.0237 -1.1832
 7125TIP3    H221340   3.570   1.810   2.847  0.8769 -0.2369 -0.2304
 7126TIP3   OH221341   3.229   6.091   1.887  0.0616  0.4831  0.2223
 7126TIP3    H121342   3.255   6.021   1.827 -2.0049 -0.0295 -0.1434
 7126TIP3    H221343   3.167   6.049   1.947 -2.5375  2.2951 -1.0130
 7127TIP3   OH221344   3.902   5.532   1.269 -0.5688  0.3743  0.4510
 7127TIP3    H121345   3.945   5.617   1.260  2.3868 -0.7763  2.0664
 7127TIP3    H221346   3.898   5.497   1.180  2.0595  0.5531  0.1766
 7128TIP3   OH221347   3.455   2.103   4.228  0.2940  0.2095 -0.0808
 7128TIP3    H121348   3.375   2.055   4.251 -0.1058  0.4473 -0.9405
 7128TIP3    H221349   3.475   2.156   4.305 -1.0592  1.0540 -0.2816
 7129TIP3   OH221350   2.306   1.244   1.893  0.2517  0.1282 -0.1493
 7129TIP3    H121351   2.232   1.295   1.926 -1.2585 -0.4404 -2.4156
 7129TIP3    H221352   2.299   1.160   1.940  0.9080  0.8536  1.3287
 7130TIP3   OH221353   5.886   5.967   1.704  0.3847  0.0273 -0.8073
 7130TIP3    H121354   5.980   5.967   1.686  0.8110  0.0156  1.1513
 7130TIP3    H221355   5.861   6.060   1.699  0.5136  0.0399 -1.2561
 7131TIP3   OH221356   4.864   1.262   2.291 -0.2408  0.3671  0.3671
 7131TIP3    H121357   4.837   1.274   2.200 -2.3676 -0.2953  0.8608
 7131TIP3    H221358   4.792   1.214   2.332  1.1838 -0.3994  2.1361
 7132TIP3   OH221359   4.969   3.887   2.087  0.5411  0.0484 -0.0560
 7132TIP3    H121360   4.974   3.897   2.182 -0.6783  0.0312  0.0211
 7132TIP3    H221361   4.918   3.807   2.074 -1.8224  1.5880 -0.7219
 7133TIP3   OH221362   6.542   4.505   2.849 -0.2988  0.3799  0.4394
 7133TIP3    H121363   6.508   4.470   2.932 -0.2682  0.5923  0.5408
 7133TIP3    H221364   6.632   4.531   2.869  0.8778 -2.5290 -0.4406
 7134TIP3   OH221365   5.502   3.138   5.284 -0.0360 -0.0167 -0.2720
 7134TIP3    H121366   5.433   3.196   5.251  0.2799  1.2137  1.0986
 7134TIP3    H221367   5.568   3.136   5.215  1.4194  3.8569  0.7555
 7135TIP3   OH221368   6.992   4.625   0.478 -0.6513  0.2255 -0.6979
 7135TIP3    H121369   6.940   4.557   0.434  0.3115 -1.7472  1.0122
 7135TIP3    H221370   7.074   4.627   0.428  0.0050 -1.2012  0.2590
 7136TIP3   OH221371   0.777   5.235   2.807 -0.3254 -0.8282 -0.4283
 7136TIP3    H121372   0.807   5.145   2.798 -0.7184 -0.9113 -0.8966
 7136TIP3    H221373   0.789   5.255   2.900  0.1116 -1.2358 -0.3940
 7137TIP3   OH221374   3.655   4.568   1.595  0.3982  0.0851  0.3225
 7137TIP3    H121375   3.665   4.619   1.514 -1.7801 -0.7280 -0.5379
 7137TIP3    H221376   3.598   4.623   1.649 -0.2637 -0.4976  0.2272
 7138TIP3   OH221377  -0.003   1.525   1.033  0.4624 -0.0493  0.7554
 7138TIP3    H121378  -0.047   1.480   0.961 -0.1667 -0.2611  1.2534
 7138TIP3    H221379   0.050   1.592   0.991 -0.6508  0.4805  0.1478
 7139TIP3   OH221380   3.962   4.671   0.112 -0.9305  0.2099  0.4994
 7139TIP3    H121381   4.001   4.707   0.192 -0.7519 -0.2414  0.6161
 7139TIP3    H221382   3.926   4.587   0.139 -0.3218 -0.2277 -0.0389
 7140TIP3   OH221383   2.661   2.458   1.032  0.0023 -0.4736 -0.0087
 7140TIP3    H121384   2.590   2.520   1.043 -0.2372 -0.4334 -1.5418
 7140TIP3    H221385   2.658   2.403   1.111 -0.8926  0.3407  0.5363
 7141TIP3   OH221386   5.356   0.841   5.184 -0.1811 -0.6676 -0.1018
 7141TIP3    H121387   5.287   0.869   5.244 -0.3968 -2.4771  0.5573
 7141TIP3    H221388   5.351   0.745   5.185  1.2293 -0.7850 -1.3609
 7142TIP3   OH221389   6.020   3.204   3.265 -0.0452  0.3394 -0.2348
 7142TIP3    H121390   6.028   3.116   3.226  1.1729  1.2014 -2.1089
 7142TIP3    H221391   5.975   3.255   3.198  1.0876  1.6272 -0.0420
 7143TIP3   OH221392   2.855   5.679   1.472 -0.0512  0.5672 -0.1107
 7143TIP3    H121393   2.819   5.764   1.498  0.9611  0.5319  1.5120
 7143TIP3    H221394   2.935   5.669   1.523  0.5453 -0.8074 -1.2240
 7144TIP3   OH221395   6.685   1.874   0.360 -0.2335 -0.5881 -0.3967
 7144TIP3    H121396   6.618   1.942   0.351  0.5936  0.2872 -0.0265
 7144TIP3    H221397   6.657   1.823   0.437  0.1442  0.5053  0.4854
 7145TIP3   OH221398   2.709   2.125   4.157 -0.6671  0.0119  0.6941
 7145TIP3    H121399   2.788   2.120   4.103 -1.2442 -1.7728 -0.0729
 7145TIP3    H221400   2.716   2.051   4.217 -0.6569  1.2271  2.2380
 7146TIP3   OH221401   3.953   6.587   1.627  0.3219 -0.1029  0.0980
 7146TIP3    H121402   3.860   6.594   1.606  0.1167  0.3738  1.0957
 7146TIP3    H221403   3.956   6.523   1.699  0.6314  0.7425  0.8532
 7147TIP3   OH221404   5.195   2.108   2.130 -0.2459  0.1444  0.2967
 7147TIP3    H121405   5.251   2.085   2.204 -0.2208  0.6540  0.4396
 7147TIP3    H221406   5.232   2.190   2.097 -1.0108  0.5839  0.5099
 7148TIP3   OH221407   0.725   1.608   1.669 -0.0932  0.7251  0.2502
 7148TIP3    H121408   0.646   1.596   1.617 -0.7547  1.1486  1.1242
 7148TIP3    H221409   0.789   1.645   1.608  0.3235 -2.0906 -1.1595
 7149TIP3   OH221410   0.760   0.583   1.236  0.1298  0.3654  0.1375
 7149TIP3    H121411   0.713   0.610   1.158  0.2856  0.2362 -0.0015
 7149TIP3    H221412   0.698   0.525   1.282  0.3320 -0.1978 -0.2931
 7150TIP3   OH221413   1.794   5.556   2.062 -0.4594 -0.6771  0.1535
 7150TIP3    H121414   1.723   5.548   2.126  0.4522  0.4323  1.3480
 7150TIP3    H221415   1.763   5.622   2.001 -0.7064 -0.6432  0.3109
 7151TIP3   OH221416   2.556   5.292   3.656 -0.0423  0.2686 -0.1141
 7151TIP3    H121417   2.615   5.261   3.724 -0.5426  0.6326  0.4943
 7151TIP3    H221418   2.561   5.224   3.588 -0.3544 -0.6456  0.7482
 7152TIP3   OH221419   7.152   6.019   4.993 -0.3539 -0.1060  0.3126
 7152TIP3    H121420   7.128   6.064   5.075  1.4767  1.2901  0.1537
 7152TIP3    H221421   7.176   6.090   4.933  2.5484 -1.2143 -0.0007
 7153TIP3   OH221422   0.362   2.897   1.550 -0.2079 -0.6913  0.3954
 7153TIP3    H121423   0.309   2.935   1.480 -0.7553  0.7064  1.5010
 7153TIP3    H221424   0.451   2.927   1.532 -0.5968  1.0427  1.1272
 7154TIP3   OH221425   1.331   2.493   0.704  0.6424  0.2099 -0.0243
 7154TIP3    H121426   1.296   2.518   0.789  1.4060 -0.8834  0.6522
 7154TIP3    H221427   1.420   2.461   0.723  0.7642 -0.2278 -1.2032
 7155TIP3   OH221428   5.284   2.725   2.748  0.0049 -0.1713 -0.1296
 7155TIP3    H121429   5.225   2.657   2.780 -1.0944  1.2813  1.1235
 7155TIP3    H221430   5.369   2.703   2.786 -0.2732 -0.9892  0.0412
 7156TIP3   OH221431   5.809   4.151   4.150 -0.8415  0.1021  0.6808
 7156TIP3    H121432   5.819   4.058   4.129  1.1489  0.4551 -0.1193
 7156TIP3    H221433   5.893   4.177   4.187 -0.8119  1.9361 -0.5486
 7157TIP3   OH221434   6.494   6.338   5.450 -0.0342  0.0107  0.4152
 7157TIP3    H121435   6.482   6.416   5.396  0.1653  0.1146  0.5202
 7157TIP3    H221436   6.556   6.365   5.518  1.7657 -0.8632 -0.8217
 7158TIP3   OH221437   2.120   6.282   4.686  0.6733  0.4514  0.4300
 7158TIP3    H121438   2.050   6.225   4.719  1.2055  0.1156  0.9776
 7158TIP3    H221439   2.114   6.361   4.740 -0.0630  0.9300 -0.3272
 7159TIP3   OH221440   4.462   5.486   1.397 -0.0779 -0.2004  0.1687
 7159TIP3    H121441   4.390   5.440   1.353 -0.6785  1.6304 -0.8786
 7159TIP3    H221442   4.533   5.487   1.332  0.1608 -0.2285  0.4308
 7160TIP3   OH221443   1.237   3.266   0.814  0.8863  0.1075 -0.7933
 7160TIP3    H121444   1.238   3.280   0.908  0.7298  1.6705 -0.9950
 7160TIP3    H221445   1.192   3.183   0.802 -1.3521  1.0550  0.4146
 7161TIP3   OH221446   4.455   4.640   4.696 -0.5427  0.3548  0.2122
 7161TIP3    H121447   4.530   4.698   4.703  0.6244 -1.0710 -0.1055
 7161TIP3    H221448   4.470   4.573   4.763  0.2454 -1.8591 -2.0606
 7162TIP3   OH221449   1.311   4.611   4.543  0.6900  0.4612 -0.2902
 7162TIP3    H121450   1.373   4.638   4.476  0.4482 -0.7651 -1.0372
 7162TIP3    H221451   1.322   4.516   4.550  1.0542  0.6007  1.7661
 7163TIP3   OH221452   6.446   1.996   1.886 -0.6038  0.6144 -0.5444
 7163TIP3    H121453   6.448   2.005   1.981 -0.6045  0.9390 -0.5728
 7163TIP3    H221454   6.446   2.086   1.853  1.5081  0.5370 -0.9053
 7164TIP3   OH221455   0.286   0.138   3.459  0.4730 -0.0180 -0.1231
 7164TIP3    H121456   0.309   0.046   3.469 -0.6327 -0.3120 -0.1836
 7164TIP3    H221457   0.367   0.180   3.430  0.4322 -1.3575 -2.3344
 7165TIP3   OH221458   7.198   1.987   0.157  0.1597 -0.2146 -0.0891
 7165TIP3    H121459   7.194   2.066   0.103  1.5541 -0.6032 -0.7951
 7165TIP3    H221460   7.106   1.962   0.170 -0.2573  0.9659 -0.6615
 7166TIP3   OH221461   3.704   4.344   2.523  0.5859  0.4318 -0.1071
 7166TIP3    H121462   3.769   4.391   2.575  0.9851 -0.2796  0.0503
 7166TIP3    H221463   3.708   4.254   2.555  0.2928  0.1455 -0.8391
 7167TIP3   OH221464   3.177   4.498   0.644 -0.0597 -0.1006 -0.1426
 7167TIP3    H121465   3.088   4.521   0.670 -0.0883 -0.0983 -0.2419
 7167TIP3    H221466   3.194   4.551   0.566 -0.0317 -0.2223 -0.2203
 7168TIP3   OH221467   0.577   4.301   5.696  0.8259  0.3479 -0.1850
 7168TIP3    H121468   0.579   4.208   5.718  1.1143 -0.0689 -1.8956
 7168TIP3    H221469   0.668   4.329   5.701  0.7577  0.5264  0.1723
 7169TIP3   OH221470   4.378   5.167   1.992  0.0396 -0.5312 -0.2957
 7169TIP3    H121471   4.317   5.154   2.065  0.0655 -0.0635 -0.1861
 7169TIP3    H221472   4.356   5.253   1.958  3.1019  1.4406  2.1830
 7170TIP3   OH221473   6.446   4.276   1.579 -0.3024 -0.9462  0.5396
 7170TIP3    H121474   6.419   4.324   1.657  2.3966  0.0864  0.9329
 7170TIP3    H221475   6.456   4.186   1.608 -1.5203 -1.0141  0.7861
 7171TIP3   OH221476   2.812   5.097   3.795 -0.4861  0.0964  0.0088
 7171TIP3    H121477   2.773   5.141   3.870 -1.4395  1.1088 -1.0521
 7171TIP3    H221478   2.827   5.007   3.826 -1.5086  0.2987  1.1774
 7172TIP3   OH221479   2.994   2.357   3.104  0.0534 -0.3575  0.1334
 7172TIP3    H121480   3.078   2.359   3.149  0.1387  0.9655 -0.0397
 7172TIP3    H221481   2.969   2.449   3.096 -0.4167 -0.5998 -1.6877
 7173TIP3   OH221482   0.270   6.304   5.628 -0.0816  0.6301  0.1455
 7173TIP3    H121483   0.278   6.366   5.555 -0.4861  0.7052  0.1642
 7173TIP3    H221484   0.243   6.222   5.587  1.0574  0.2892  0.0439
 7174TIP3   OH221485   4.496   6.776   5.178  0.0750  0.0179  0.3064
 7174TIP3    H121486   4.539   6.691   5.188  0.1172  0.0344  0.2631
 7174TIP3    H221487   4.516   6.823   5.259 -0.1267 -0.0930  0.4219
 7175TIP3   OH221488   0.526   5.386   3.885 -0.1379  0.6330  0.3402
 7175TIP3    H121489   0.449   5.373   3.831 -0.3216 -0.4102  0.8251
 7175TIP3    H221490   0.573   5.459   3.843 -1.7111  1.7610  0.4330
 7176TIP3   OH221491   2.442   3.354   4.835  0.7664  0.5194  0.2566
 7176TIP3    H121492   2.449   3.448   4.851 -0.4508  0.5094  0.9529
 7176TIP3    H221493   2.498   3.315   4.902  0.7932  0.7272  0.3566
 7177TIP3   OH221494   3.516   1.722   3.684 -0.1492  0.3745 -0.5031
 7177TIP3    H121495   3.593   1.680   3.724  0.9265  1.4652 -1.3320
 7177TIP3    H221496   3.504   1.802   3.734 -1.2270 -0.1459  0.0886
 7178TIP3   OH221497   4.110   4.935   2.909  0.2770 -0.5556  0.7651
 7178TIP3    H121498   4.114   5.029   2.888 -1.6157 -0.3575  1.1057
 7178TIP3    H221499   4.160   4.926   2.990  0.9875  0.0243  0.4119
 7179TIP3   OH221500   5.839   2.094   2.982  0.1083 -0.1632 -0.1848
 7179TIP3    H121501   5.808   2.090   3.072 -0.2250  0.7257 -0.2497
 7179TIP3    H221502   5.765   2.063   2.930  0.3271 -0.7505 -0.1605
 7180TIP3   OH221503   1.675   3.134   0.290  0.1625 -0.5303  0.0708
 7180TIP3    H121504   1.606   3.130   0.224  0.4686  0.8508 -0.3654
 7180TIP3    H221505   1.663   3.220   0.332  0.0189 -1.3458  1.7740
 7181TIP3   OH221506   1.309   1.248   4.238  0.0382 -0.4523  0.0520
 7181TIP3    H121507   1.330   1.205   4.321  0.8386  0.4633  0.3454
 7181TIP3    H221508   1.380   1.311   4.226 -0.1158 -0.5257 -1.2980
 7182TIP3   OH221509   0.213   5.562   1.126  0.3696  0.4213  0.7485
 7182TIP3    H121510   0.211   5.635   1.065  1.9266 -1.0618 -1.2421
 7182TIP3    H221511   0.123   5.530   1.128  0.3772  0.0922 -1.4272
 7183TIP3   OH221512   6.365   3.943   1.375 -0.1246  0.3613 -0.3152
 7183TIP3    H121513   6.435   3.998   1.340  0.6280 -0.5206 -0.2145
 7183TIP3    H221514   6.410   3.879   1.429 -1.0013 -0.3494 -0.4147
 7184TIP3   OH221515   3.403   1.061   5.291  0.0191  0.1432 -0.2508
 7184TIP3    H121516   3.471   1.018   5.344  1.2629  0.3231 -1.6311
 7184TIP3    H221517   3.414   1.025   5.204 -1.1685  0.7634 -0.6747
 7185TIP3   OH221518   4.124   2.669   1.000  0.5263  0.0358 -0.1554
 7185TIP3    H121519   4.031   2.688   0.984  0.9445  0.7897 -1.9240
 7185TIP3    H221520   4.139   2.697   1.090 -1.0879 -0.6823  0.3974
 7186TIP3   OH221521   2.646   2.392   0.499  0.1274  0.0893  0.1759
 7186TIP3    H121522   2.699   2.468   0.522  0.0374 -0.0293  0.7971
 7186TIP3    H221523   2.555   2.423   0.505  0.0950 -0.0199  0.2579
 7187TIP3   OH221524   0.608   0.367   1.612  0.1139  0.3233  0.1652
 7187TIP3    H121525   0.638   0.351   1.523 -0.6493  0.6811 -0.1596
 7187TIP3    H221526   0.534   0.307   1.624 -3.8080  4.2237 -1.5927
 7188TIP3   OH221527   7.127   2.539   5.475  0.1664  0.1111 -0.0301
 7188TIP3    H121528   7.062   2.471   5.494 -0.0629  0.7129  1.5065
 7188TIP3    H221529   7.106   2.567   5.386  0.3716 -1.9101 -0.7593
 7189TIP3   OH221530   4.103   3.271   1.902  0.2234 -0.1807  0.0570
 7189TIP3    H121531   4.023   3.247   1.853  0.9138  1.9603 -2.3284
 7189TIP3    H221532   4.174   3.247   1.843  1.2894 -0.4215  1.4093
 7190TIP3   OH221533   0.782   6.233   0.920  0.1958  0.3928  0.2623
 7190TIP3    H121534   0.832   6.224   0.839  0.0056  0.3893  0.1444
 7190TIP3    H221535   0.691   6.229   0.893  0.1102  1.5883  0.3357
 7191TIP3   OH221536   6.357   1.175   1.988 -0.2280 -0.2771  0.6619
 7191TIP3    H121537   6.452   1.186   1.989 -0.3520  2.2607 -2.0746
 7191TIP3    H221538   6.338   1.131   1.906 -1.4737 -0.3390  0.9639
 7192TIP3   OH221539   2.105   6.259   4.160 -0.1579 -0.3256  0.0077
 7192TIP3    H121540   2.159   6.193   4.117 -0.0366  0.1991 -0.6606
 7192TIP3    H221541   2.122   6.247   4.254  1.8544  0.4583 -0.2099
 7193TIP3   OH221542   1.926   5.470   3.773  0.0180  0.0204 -0.2923
 7193TIP3    H121543   1.838   5.440   3.753 -0.3261 -0.5676  1.8985
 7193TIP3    H221544   1.972   5.392   3.803  1.2092  0.3833 -1.0968
 7194TIP3   OH221545   3.638   3.619   2.500  0.1434 -0.2771 -0.0878
 7194TIP3    H121546   3.543   3.632   2.499  0.1185 -0.1477  1.6106
 7194TIP3    H221547   3.650   3.526   2.479 -0.2190  0.0931 -2.1675
 7195TIP3   OH221548   3.867   4.354   4.488  0.1375  0.3769  0.3660
 7195TIP3    H121549   3.861   4.276   4.544 -0.8450  0.0098 -0.2174
 7195TIP3    H221550   3.824   4.423   4.539  0.0741  0.2717  0.4551
 7196TIP3   OH221551   7.091   2.969   4.339  0.5300  0.7608  0.6177
 7196TIP3    H121552   7.123   2.907   4.405  0.1547  0.5551  0.6066
 7196TIP3    H221553   7.102   2.923   4.255 -0.5151  0.3865  0.6798
 7197TIP3   OH221554   2.093   0.897   3.717  0.2062 -0.1453 -0.0471
 7197TIP3    H121555   2.132   0.825   3.666  2.3660  0.0946  1.1557
 7197TIP3    H221556   2.167   0.935   3.764 -1.1745  1.8388  0.6154
 7198TIP3   OH221557   3.488   1.865   5.451 -0.4173 -0.2194 -0.2879
 7198TIP3    H121558   3.402   1.830   5.430  0.1770 -2.3966  0.6312
 7198TIP3    H221559   3.494   1.860   5.546 -0.2722  2.5060 -0.0919
 7199TIP3   OH221560   4.968   2.948   1.672 -0.2189 -0.1976  0.3925
 7199TIP3    H121561   4.948   2.993   1.590 -1.2174 -0.3936  0.5235
 7199TIP3    H221562   4.949   2.856   1.655  1.3678 -0.5431  0.2784
 7200TIP3   OH221563   0.514   6.059   5.042  0.0552 -0.1810 -0.3618
 7200TIP3    H121564   0.500   5.992   5.108 -1.8945 -0.8506 -1.3843
 7200TIP3    H221565   0.534   6.138   5.093  0.9399 -1.1760  0.9093
 7201TIP3   OH221566   4.595   4.985   1.222 -0.6582  0.3883  0.5121
 7201TIP3    H121567   4.535   5.039   1.170 -0.9965  0.0285  0.5259
 7201TIP3    H221568   4.539   4.922   1.267 -0.1946 -0.5133 -0.1440
 7202TIP3   OH221569   0.806   2.155   4.583  0.0631  0.2803  0.0166
 7202TIP3    H121570   0.835   2.246   4.587 -0.0157  0.2956  0.2694
 7202TIP3    H221571   0.865   2.113   4.521 -0.2979  0.6528 -0.5817
 7203TIP3   OH221572   3.673   5.860   5.342 -0.3393 -0.1305  0.4670
 7203TIP3    H121573   3.599   5.906   5.383  0.3353  1.9233 -0.5177
 7203TIP3    H221574   3.656   5.866   5.248  1.2408  0.6987  0.2084
 7204TIP3   OH221575   5.498   6.557   1.418  0.0123  0.5694  0.1432
 7204TIP3    H121576   5.587   6.556   1.385  0.1520  0.3812  0.5251
 7204TIP3    H221577   5.507   6.548   1.513 -0.4831 -1.4872  0.0359
 7205TIP3   OH221578   1.780   0.586   1.715 -0.2081 -0.2564  0.1286
 7205TIP3    H121579   1.874   0.592   1.697 -0.0971  0.3946  0.8853
 7205TIP3    H221580   1.767   0.636   1.795 -1.6580  2.0991 -1.4649
 7206TIP3   OH221581   2.092   3.311   4.296 -0.0348 -0.3802  0.0970
 7206TIP3    H121582   2.094   3.358   4.213 -0.8618  1.4426  1.0357
 7206TIP3    H221583   2.175   3.333   4.339  0.6577 -1.7972 -0.4466
 7207TIP3   OH221584   1.523   4.328   3.232  0.0786 -0.1792 -0.4635
 7207TIP3    H121585   1.484   4.353   3.316 -0.4790 -0.9843 -0.4759
 7207TIP3    H221586   1.516   4.407   3.178  0.3375  0.3080  0.2071
 7208TIP3   OH221587   1.358   5.707   1.784 -0.0674  0.6164  0.2828
 7208TIP3    H121588   1.320   5.723   1.697 -0.3404 -0.8631  0.0936
 7208TIP3    H221589   1.293   5.651   1.828  1.0585 -0.4765  0.6102
 7209TIP3   OH221590   6.158   3.400   1.549 -0.3570 -0.1847  0.1144
 7209TIP3    H121591   6.180   3.405   1.456 -0.0481 -1.1000  0.1346
 7209TIP3    H221592   6.231   3.354   1.589  0.1383  1.3365  1.0443
 7210TIP3   OH221593   6.289   2.743   0.100 -0.0560 -0.1791  0.2487
 7210TIP3    H121594   6.275   2.654   0.067  0.0279 -0.1880  0.2371
 7210TIP3    H221595   6.376   2.767   0.069  0.0176 -0.1831  0.4506
 7211TIP3   OH221596   2.990   1.999   3.340 -0.2686 -0.7247  0.2387
 7211TIP3    H121597   2.939   2.008   3.259 -0.1810 -1.5652  0.0782
 7211TIP3    H221598   3.076   1.969   3.310 -0.3323 -1.3414  0.6585
 7212TIP3   OH221599   1.145   6.651   5.550  0.6420  0.1957 -0.0790
 7212TIP3    H121600   1.201   6.728   5.545  0.5876  0.1758 -1.3584
 7212TIP3    H221601   1.205   6.579   5.570  0.7992  0.4488  0.3682
 7213TIP3   OH221602   4.091   0.429   1.991 -0.1124  0.0094 -0.1452
 7213TIP3    H121603   4.071   0.405   2.081 -0.1324 -1.6081 -0.5343
 7213TIP3    H221604   4.186   0.422   1.984 -0.2062 -1.1642 -0.5469
 7214TIP3   OH221605   4.995   5.090   4.456 -0.3508  0.3399 -0.2248
 7214TIP3    H121606   4.981   5.043   4.539 -0.2147 -1.4504 -1.1694
 7214TIP3    H221607   5.008   5.181   4.483 -0.7547 -0.1045  1.6862
 7215TIP3   OH221608   4.313   3.341   4.027  0.4949  0.3071  0.8461
 7215TIP3    H121609   4.261   3.407   4.073  0.7869  1.0426  0.1433
 7215TIP3    H221610   4.250   3.272   4.005 -0.0211  0.8094  0.7203
 7216TIP3   OH221611   6.752   0.639   4.069  0.1113 -0.1657  0.1602
 7216TIP3    H121612   6.769   0.727   4.102  2.6362 -0.9174  1.0780
 7216TIP3    H221613   6.802   0.635   3.987  1.9941 -1.4077  1.2840
 7217TIP3   OH221614   2.083   0.336   1.991  0.8912 -0.2407  0.5847
 7217TIP3    H121615   2.117   0.375   2.071  2.3484  0.6194 -0.4050
 7217TIP3    H221616   2.051   0.410   1.940  0.0979 -0.7662  0.2963
 7218TIP3   OH221617   2.805   4.837   5.846  0.2763  0.0081  0.2709
 7218TIP3    H121618   2.772   4.901   5.908  1.0501  0.0258  0.6739
 7218TIP3    H221619   2.736   4.830   5.780  0.1002  1.1098  0.3185
 7219TIP3   OH221620   2.709   2.792   0.332  0.0406 -0.4189 -0.0143
 7219TIP3    H121621   2.755   2.718   0.292  0.2436 -0.1710 -0.2417
 7219TIP3    H221622   2.663   2.834   0.259  0.5720  0.1533 -0.0246
 7220TIP3   OH221623   1.017   4.750   5.305 -0.1670  0.6387  0.4996
 7220TIP3    H121624   1.029   4.670   5.355 -2.1667 -0.7051 -0.9748
 7220TIP3    H221625   0.922   4.760   5.298  0.0165  1.3670 -2.0011
 7221TIP3   OH221626   2.909   5.868   3.391  0.3191  0.4069 -0.2381
 7221TIP3    H121627   2.838   5.910   3.439  0.5473 -1.0260  1.4796
 7221TIP3    H221628   2.908   5.778   3.422  2.8364  0.3322 -0.1822
 7222TIP3   OH221629   6.356   6.066   3.546 -0.3915 -0.5337 -0.6403
 7222TIP3    H121630   6.386   6.152   3.516  2.6988  0.1163  3.4825
 7222TIP3    H221631   6.292   6.086   3.614 -0.0471 -1.5093 -0.0262
 7223TIP3   OH221632   5.589   3.491   5.853 -0.3341 -0.6213  0.1109
 7223TIP3    H121633   5.511   3.537   5.822 -0.5301  0.4088  1.9458
 7223TIP3    H221634   5.555   3.428   5.916  0.3666  1.6203  2.9672
 7224TIP3   OH221635   0.353   4.001   1.964 -0.0964  0.0909 -0.3068
 7224TIP3    H121636   0.429   4.034   2.011  0.3720  1.0110 -1.6659
 7224TIP3    H221637   0.279   4.018   2.023  0.7051 -0.7706  1.0027
 7225TIP3   OH221638   6.272   4.476   4.020  0.2227 -1.2525 -0.2132
 7225TIP3    H121639   6.185   4.468   4.059  0.4702 -1.6906  0.2623
 7225TIP3    H221640   6.331   4.488   4.095  0.4305  0.3464 -0.6013
 7226TIP3   OH221641   1.471   4.952   2.658 -0.6321 -0.5047 -0.1921
 7226TIP3    H121642   1.473   4.857   2.656 -1.5559 -0.5733  1.1314
 7226TIP3    H221643   1.467   4.975   2.751 -1.2648  0.7892 -0.5016
 7227TIP3   OH221644   6.469   6.526   4.314 -0.4405  0.2139  0.7076
 7227TIP3    H121645   6.438   6.454   4.258 -0.6107 -0.1329  1.2420
 7227TIP3    H221646   6.524   6.579   4.257 -0.1979 -0.4195  0.3436
 7228TIP3   OH221647   6.643   4.036   4.710  0.3078 -0.1214 -0.1105
 7228TIP3    H121648   6.611   4.112   4.662  1.5557 -0.0075 -0.8110
 7228TIP3    H221649   6.729   4.063   4.743 -0.2552 -0.3932  1.7228
 7229TIP3   OH221650   6.130   6.166   3.672 -0.1078 -0.3046  0.2223
 7229TIP3    H121651   6.082   6.244   3.700 -1.2197  0.2370 -2.7462
 7229TIP3    H221652   6.063   6.108   3.636  0.4584 -3.4939  3.6979
 7230TIP3   OH221653   6.128   3.122   4.735 -0.0041  0.4246  0.0442
 7230TIP3    H121654   6.211   3.076   4.743 -0.2899 -0.1477 -0.2086
 7230TIP3    H221655   6.078   3.095   4.812 -1.1902 -1.8362 -1.4170
 7231TIP3   OH221656   2.019   0.811   1.376  0.1590 -0.4257  0.2815
 7231TIP3    H121657   1.975   0.752   1.315 -1.3545  1.0397 -0.1446
 7231TIP3    H221658   2.082   0.858   1.322  0.7335 -1.0121  0.4338
 7232TIP3   OH221659   2.720   0.267   3.121 -0.4930 -0.6513  0.5229
 7232TIP3    H121660   2.783   0.284   3.052  1.2535 -2.0855  1.6675
 7232TIP3    H221661   2.646   0.225   3.077  0.1411 -0.6111 -0.5982
 7233TIP3   OH221662   0.319   0.552   2.264 -0.3048  0.0827  0.4834
 7233TIP3    H121663   0.383   0.524   2.330  0.6939 -1.5568 -1.0908
 7233TIP3    H221664   0.336   0.645   2.253  1.0840 -0.0895  0.9085
 7234TIP3   OH221665   6.008   4.671   5.157 -0.5226 -0.4382  0.1280
 7234TIP3    H121666   6.025   4.731   5.230  1.5458  0.0027 -0.6284
 7234TIP3    H221667   5.981   4.589   5.199  0.7073 -0.2253  1.4139
 7235TIP3   OH221668   0.852   4.380   1.952 -0.2532 -0.3006  0.3749
 7235TIP3    H121669   0.943   4.354   1.965 -0.1094  0.1005  0.2059
 7235TIP3    H221670   0.829   4.429   2.031 -0.8081 -1.6833  1.0948
 7236TIP3   OH221671   4.304   3.610   1.966  0.0137  0.0736  0.5379
 7236TIP3    H121672   4.327   3.576   1.880 -0.8807  1.7326 -0.4011
 7236TIP3    H221673   4.376   3.668   1.989 -0.3734  0.6606  0.2906
 7237TIP3   OH221674   4.681   4.349   2.063 -0.5464  0.7057 -0.5100
 7237TIP3    H121675   4.595   4.320   2.094  0.8633 -1.6619  1.5339
 7237TIP3    H221676   4.710   4.280   2.004  0.3046  1.0724 -0.5407
 7238TIP3   OH221677   1.527   6.244   4.789  0.3460 -0.1324  0.1332
 7238TIP3    H121678   1.538   6.298   4.867  0.5041 -1.0424  0.7540
 7238TIP3    H221679   1.442   6.271   4.753  1.3530  2.0320 -0.8082
 7239TIP3   OH221680   6.310   1.653   1.226 -0.1103  0.1615  0.1750
 7239TIP3    H121681   6.258   1.587   1.178  1.2023 -0.0946 -0.9390
 7239TIP3    H221682   6.400   1.634   1.203  0.3258  2.2756 -0.0365
 7240TIP3   OH221683   6.982   4.273   1.248 -0.4459 -0.1781 -0.4442
 7240TIP3    H121684   7.052   4.333   1.272 -1.3710  0.5906  0.3972
 7240TIP3    H221685   6.907   4.300   1.301 -1.4175 -0.9132 -1.3924
 7241TIP3   OH221686   4.322   5.962   0.145  0.6580  0.0794  0.6572
 7241TIP3    H121687   4.302   5.874   0.175  1.5201 -0.1535  0.5774
 7241TIP3    H221688   4.312   6.017   0.223  1.6411 -0.3327  1.0875
 7242TIP3   OH221689   1.757   2.048   0.724  0.2289  0.0787 -0.1114
 7242TIP3    H121690   1.672   2.007   0.713  0.0419  0.4243  0.0096
 7242TIP3    H221691   1.810   2.016   0.651  0.1449 -0.5088  0.0823
 7243TIP3   OH221692   2.229   0.410   0.447 -0.3510 -0.0094  0.4842
 7243TIP3    H121693   2.224   0.499   0.481 -0.9552 -0.3823  1.4124
 7243TIP3    H221694   2.304   0.371   0.492  0.0067  0.0660 -0.0335
 7244TIP3   OH221695   3.651   4.020   0.380  0.2018 -0.3482  0.4630
 7244TIP3    H121696   3.706   3.942   0.390  1.5509  0.2385 -1.6998
 7244TIP3    H221697   3.696   4.087   0.432  0.3485 -0.4128  0.4201
 7245TIP3   OH221698   4.407   5.552   5.513 -0.9477 -0.1219  0.5763
 7245TIP3    H121699   4.459   5.507   5.580  2.4752  3.3975  0.6164
 7245TIP3    H221700   4.418   5.645   5.533 -2.0561  0.9968 -3.3098
 7246TIP3   OH221701   1.052   2.368   2.644  0.3082  0.1478 -0.0653
 7246TIP3    H121702   1.071   2.280   2.613  0.4935 -0.1184  0.8009
 7246TIP3    H221703   0.988   2.402   2.581 -3.4039 -2.2518  2.0379
 7247TIP3   OH221704   1.353   5.655   5.427  0.2078 -0.1944  0.2274
 7247TIP3    H121705   1.385   5.566   5.414 -0.2608 -0.7847  2.5486
 7247TIP3    H221706   1.259   5.650   5.407  0.6611  0.5264 -2.4363
 7248TIP3   OH221707   1.846   1.801   3.479 -0.4060 -1.1386 -0.5386
 7248TIP3    H121708   1.798   1.816   3.561  0.0080  1.3504 -0.6861
 7248TIP3    H221709   1.914   1.738   3.503 -2.6029 -3.4641  0.0557
 7249TIP3   OH221710   6.453   5.617   4.310  0.2582  0.2193 -0.1231
 7249TIP3    H121711   6.508   5.696   4.320  0.6077 -0.1301  0.8226
 7249TIP3    H221712   6.484   5.577   4.228  0.5861  0.6710 -0.2260
 7250TIP3   OH221713   0.567   4.249   1.911  0.2038 -0.0343 -0.4164
 7250TIP3    H121714   0.574   4.183   1.980 -1.2289  1.8371  1.6751
 7250TIP3    H221715   0.647   4.301   1.920 -0.3068  0.6383  0.3554
 7251TIP3   OH221716   5.308   3.635   2.502  0.4764  0.7683  0.1132
 7251TIP3    H121717   5.383   3.641   2.563  1.3769 -1.2789 -0.7208
 7251TIP3    H221718   5.345   3.597   2.423 -1.0387  1.8076 -1.1495
 7252TIP3   OH221719   0.266   3.922   3.936 -0.2094  0.4821  0.3854
 7252TIP3    H121720   0.223   3.995   3.891 -2.3080 -1.2826 -0.6774
 7252TIP3    H221721   0.278   3.856   3.868  1.6965 -0.1720  1.2928
 7253TIP3   OH221722   6.023   0.537   4.737  0.2601  0.3256 -0.0845
 7253TIP3    H121723   6.016   0.499   4.649  1.1072 -1.7054  0.6533
 7253TIP3    H221724   5.938   0.520   4.777  0.2220  0.3215 -0.1666
 7254TIP3   OH221725   6.324   0.672   4.094  0.1900  0.2473 -0.3134
 7254TIP3    H121726   6.237   0.699   4.123 -0.5196 -0.1860 -1.9013
 7254TIP3    H221727   6.382   0.693   4.167 -1.5140 -1.2514  1.5720
 7255TIP3   OH221728   0.404   5.142   0.129 -0.0091  0.4879  0.1860
 7255TIP3    H121729   0.469   5.124   0.198 -0.7243  0.9053  0.9831
 7255TIP3    H221730   0.446   5.111   0.048  1.0653  0.4801  0.7258
 7256TIP3   OH221731   4.398   0.064   5.204  0.4415  0.2617  0.2610
 7256TIP3    H121732   4.349  -0.015   5.226 -0.8387  0.6194 -1.1019
 7256TIP3    H221733   4.354   0.099   5.127  4.1610 -0.5417 -2.4784
 7257TIP3   OH221734   0.466   6.549   5.656  0.5259 -0.0431 -0.1102
 7257TIP3    H121735   0.550   6.583   5.625  0.5280  0.4355  0.4154
 7257TIP3    H221736   0.412   6.543   5.577  0.8227  0.3079 -0.3421
 7258TIP3   OH221737   6.640   0.397   0.918 -0.1672  0.1202 -0.4433
 7258TIP3    H121738   6.723   0.403   0.966  0.1474  1.1351 -1.0709
 7258TIP3    H221739   6.653   0.325   0.856  0.3674  0.4485 -0.7260
 7259TIP3   OH221740   0.388   0.420   3.138 -0.8253 -0.7063  0.3968
 7259TIP3    H121741   0.404   0.511   3.160  0.7955 -0.1945 -2.3850
 7259TIP3    H221742   0.428   0.370   3.210 -1.8067  0.6950  1.9938
 7260TIP3   OH221743   0.316   3.932   4.200 -0.2894 -0.3023 -0.0148
 7260TIP3    H121744   0.277   3.932   4.112  0.1996  0.3302 -0.2352
 7260TIP3    H221745   0.356   3.846   4.208  0.6331  0.0285 -0.8595
 7261TIP3   OH221746   1.348   3.340   1.756 -0.4629  0.2087  0.8368
 7261TIP3    H121747   1.357   3.406   1.687  1.1289  1.9367  2.5545
 7261TIP3    H221748   1.278   3.374   1.812 -0.1708  0.0402  1.3114
 7262TIP3   OH221749   5.023   5.555   0.336 -0.3581 -0.1604  0.4994
 7262TIP3    H121750   4.955   5.498   0.372 -1.2630  0.4899 -0.1347
 7262TIP3    H221751   5.036   5.623   0.402 -1.8489  0.8993 -0.2469
 7263TIP3   OH221752   1.733   0.769   0.368  0.7365  0.2649 -0.1014
 7263TIP3    H121753   1.638   0.768   0.375  0.7986  0.7351  0.9815
 7263TIP3    H221754   1.756   0.862   0.367  1.1700  0.1557 -0.6132
 7264TIP3   OH221755   0.628   2.916   2.588 -0.2590 -0.0188 -0.3761
 7264TIP3    H121756   0.720   2.892   2.590  0.1518  1.4526 -0.4672
 7264TIP3    H221757   0.605   2.935   2.679 -1.0342 -2.2060 -0.0397
 7265TIP3   OH221758   3.436   6.154   1.191  0.0369  0.3101  0.2329
 7265TIP3    H121759   3.346   6.163   1.159 -0.9258 -0.7949  2.4636
 7265TIP3    H221760   3.452   6.233   1.242 -0.1769 -0.1401  0.9974
 7266TIP3   OH221761   6.638   2.253   2.469 -0.3012 -0.3827 -0.0545
 7266TIP3    H121762   6.733   2.256   2.476 -0.1590 -1.3168 -1.2890
 7266TIP3    H221763   6.619   2.292   2.383 -1.1379  0.8369  0.6367
 7267TIP3   OH221764   5.955   0.174   1.710  0.3850 -0.3336 -0.1299
 7267TIP3    H121765   5.939   0.082   1.730 -0.2777  0.1087  1.5789
 7267TIP3    H221766   5.936   0.182   1.617 -3.4483 -1.1818  0.4194
 7268TIP3   OH221767   1.476   0.152   1.391 -0.5116 -0.4362 -0.0037
 7268TIP3    H121768   1.438   0.076   1.346  0.4166  0.6480 -2.8225
 7268TIP3    H221769   1.569   0.150   1.368 -0.5501  1.7843 -0.5745
 7269TIP3   OH221770   1.616   3.037   3.843  0.4365 -0.1062 -0.3907
 7269TIP3    H121771   1.685   2.969   3.844 -0.2047 -0.7674 -0.1053
 7269TIP3    H221772   1.610   3.066   3.934  0.6461  0.2691 -0.4972
 7270TIP3   OH221773   6.016   1.286   4.539 -0.1055  0.1753 -0.5241
 7270TIP3    H121774   6.073   1.210   4.540 -0.0918  0.1800  0.5500
 7270TIP3    H221775   6.033   1.330   4.622 -2.5297 -0.4808  0.4202
 7271TIP3   OH221776   2.201   3.815   1.520  0.1833  0.2909 -0.1399
 7271TIP3    H121777   2.128   3.756   1.542  1.2892 -1.1233 -0.1119
 7271TIP3    H221778   2.225   3.856   1.602  1.7541 -2.0248  0.6791
 7272TIP3   OH221779   1.438   0.428   1.888  0.9569  0.6243  0.1725
 7272TIP3    H121780   1.515   0.484   1.889  1.0986  0.4662  1.8966
 7272TIP3    H221781   1.466   0.348   1.843  1.3266  1.1601 -0.5708
 7273TIP3   OH221782   6.384   1.487   2.816  0.4786  0.4843  0.5267
 7273TIP3    H121783   6.316   1.468   2.880  0.6988  0.4559  0.7561
 7273TIP3    H221784   6.372   1.422   2.748  1.5236 -0.8295  1.5351
 7274TIP3   OH221785   6.028   5.890   3.908  0.1560  0.5243 -0.1194
 7274TIP3    H121786   6.096   5.949   3.875 -0.0629  1.8987  1.6948
 7274TIP3    H221787   5.957   5.948   3.935  0.0980 -0.4747  2.1489
 7275TIP3   OH221788   4.019   5.071   3.715 -0.2919 -0.6766  0.1142
 7275TIP3    H121789   4.084   5.115   3.660  0.3021 -0.1817  1.1877
 7275TIP3    H221790   3.939   5.070   3.661  0.3397 -0.4553 -0.8537
 7276TIP3   OH221791   1.645   2.050   3.579  0.3689  0.0914 -0.6441
 7276TIP3    H121792   1.602   2.114   3.635 -1.4657  0.1482 -2.0269
 7276TIP3    H221793   1.659   1.974   3.635  1.0056  1.0435  0.5497
 7277TIP3   OH221794   4.184   4.827   4.217 -0.4946 -0.2272 -0.0468
 7277TIP3    H121795   4.100   4.802   4.256 -0.5228  0.1114  0.1200
 7277TIP3    H221796   4.249   4.809   4.286 -0.7150  1.7909  0.7627
 7278TIP3   OH221797   2.300   3.480   0.398  0.0892  0.2358 -0.3780
 7278TIP3    H121798   2.373   3.485   0.459  0.0875  0.2243 -0.3752
 7278TIP3    H221799   2.276   3.572   0.382  0.3275  0.2555 -0.6482
 7279TIP3   OH221800   5.801   3.283   0.057  0.4859  0.0431 -0.1747
 7279TIP3    H121801   5.837   3.267   0.144  2.0066 -0.0651 -0.7868
 7279TIP3    H221802   5.813   3.377   0.043  0.0540  0.0956 -0.1773
 7280TIP3   OH221803   1.417   1.578   2.121  0.7179  0.5432  0.5553
 7280TIP3    H121804   1.409   1.537   2.207  1.6106  1.4670  1.0990
 7280TIP3    H221805   1.497   1.541   2.083  0.0770 -0.2200 -0.1036
 7281TIP3   OH221806   4.244   2.257   5.202 -0.2947  0.4681 -0.0482
 7281TIP3    H121807   4.272   2.210   5.281  0.3570  1.5470  0.3806
 7281TIP3    H221808   4.150   2.243   5.197 -0.1385 -0.8089  0.1083
 7282TIP3   OH221809   1.006   6.658   5.288  0.6809 -0.1092 -0.2581
 7282TIP3    H121810   0.938   6.724   5.305  1.9800  1.5056 -0.9963
 7282TIP3    H221811   1.052   6.649   5.372  0.2511 -0.3570 -0.0517
 7283TIP3   OH221812   1.401   0.835   5.664 -0.3006 -0.1882 -0.6076
 7283TIP3    H121813   1.329   0.893   5.689  0.0683  0.3252 -0.7205
 7283TIP3    H221814   1.360   0.749   5.655 -0.5840 -0.2791  1.1209
 7284TIP3   OH221815   5.977   2.021   3.912  0.0280 -0.0071 -0.2343
 7284TIP3    H121816   6.060   1.980   3.938 -0.1689  0.5187  1.3840
 7284TIP3    H221817   5.991   2.115   3.927 -0.3810  0.2440 -1.3654
 7285TIP3   OH221818   4.504   6.486   0.997  0.1774 -0.1314 -0.1886
 7285TIP3    H121819   4.479   6.542   1.071  0.6871  0.5993 -0.5593
 7285TIP3    H221820   4.477   6.398   1.024 -2.6589  0.5591 -0.5176
 7286TIP3   OH221821   3.671   5.795   4.454 -0.1561  0.2771 -0.5871
 7286TIP3    H121822   3.674   5.890   4.466 -1.0571  0.1891  0.4961
 7286TIP3    H221823   3.601   5.766   4.513  1.3088 -1.2621  0.4904
 7287TIP3   OH221824   5.173   6.064   0.733  0.2881 -0.4406 -0.5360
 7287TIP3    H121825   5.244   6.042   0.793 -0.4519 -0.4351  0.3558
 7287TIP3    H221826   5.213   6.125   0.671  0.6353  1.0736  1.0775
 7288TIP3   OH221827   1.083   6.200   5.272 -0.4472 -0.2646  0.8710
 7288TIP3    H121828   1.157   6.196   5.333 -1.7559  1.6765  2.6965
 7288TIP3    H221829   1.106   6.271   5.212  0.7634 -2.0654 -0.9565
 7289TIP3   OH221830   3.245   1.388   2.683  0.2864  0.3636  0.0096
 7289TIP3    H121831   3.274   1.357   2.769 -0.3030  1.5250  0.6596
 7289TIP3    H221832   3.229   1.308   2.633  0.4391 -0.3443  1.0508
 7290TIP3   OH221833   0.472   2.828   0.619 -0.1572 -0.2576  0.1239
 7290TIP3    H121834   0.393   2.803   0.666  0.5297  0.6036  1.8059
 7290TIP3    H221835   0.537   2.762   0.643  0.3030  0.3926  0.7234
 7291TIP3   OH221836   1.794   4.930   5.362  0.2816  0.1181  0.0924
 7291TIP3    H121837   1.788   4.944   5.457 -0.5650  2.2095 -0.2242
 7291TIP3    H221838   1.846   5.004   5.330 -0.8904  0.3979 -1.2591
 7292TIP3   OH221839   4.865   5.526   1.004  0.0122  0.3729  0.0656
 7292TIP3    H121840   4.951   5.564   0.983 -0.6210  0.1304 -3.6411
 7292TIP3    H221841   4.804   5.599   0.998 -0.5925 -0.2277 -2.4274
 7293TIP3   OH221842   3.302   1.149   0.784  0.4823  0.1108  0.0941
 7293TIP3    H121843   3.395   1.127   0.773  0.1401 -0.6236 -1.7926
 7293TIP3    H221844   3.259   1.064   0.796 -0.0992  0.3254 -0.4417
 7294TIP3   OH221845   5.372   6.035   0.923 -0.4738 -0.5104  0.0344
 7294TIP3    H121846   5.460   6.052   0.889 -1.0720 -1.4627 -2.1819
 7294TIP3    H221847   5.386   6.004   1.012  1.6167 -2.5838 -0.9235
 7295TIP3   OH221848   2.059   1.800   1.124 -0.2165  0.0167  0.2896
 7295TIP3    H121849   1.986   1.822   1.181  0.2530  0.9376  0.5483
 7295TIP3    H221850   2.133   1.786   1.183  0.4726  1.7669 -0.1021
 7296TIP3   OH221851   0.331   2.729   1.030  0.5047  0.1881  0.4572
 7296TIP3    H121852   0.317   2.661   1.096 -1.4301 -1.0130 -1.0618
 7296TIP3    H221853   0.258   2.718   0.969  1.7630  1.7672 -1.4566
 7297TIP3   OH221854   5.374   0.851   2.373  0.0382  0.4713 -0.0033
 7297TIP3    H121855   5.451   0.824   2.323  0.1461 -0.4887  0.6475
 7297TIP3    H221856   5.396   0.936   2.410  0.6636  0.3426 -0.0817
 7298TIP3   OH221857   5.290   2.547   3.086  0.1562  0.2439 -0.8555
 7298TIP3    H121858   5.265   2.541   3.178  1.6417  1.1412 -0.3552
 7298TIP3    H221859   5.207   2.545   3.038 -0.5578 -2.2768  0.3357
 7299TIP3   OH221860   1.167   2.673   4.175 -0.5017  0.6698  0.1874
 7299TIP3    H121861   1.113   2.744   4.142 -1.3553  0.2184  0.5778
 7299TIP3    H221862   1.124   2.593   4.144  1.8848  0.2908 -2.5115
 7300TIP3   OH221863   5.489   6.172   0.037 -0.0350  0.7061 -0.0555
 7300TIP3    H121864   5.478   6.109   0.108 -0.5286  0.2656 -0.5156
 7300TIP3    H221865   5.452   6.129  -0.040  0.0768  1.3590 -0.4880
 7301TIP3   OH221866   3.506   4.264   2.326 -0.6255  0.7112  0.8578
 7301TIP3    H121867   3.443   4.311   2.271  1.4989  0.5505 -1.9512
 7301TIP3    H221868   3.570   4.331   2.351  0.6972  0.0125 -0.5075
 7302TIP3   OH221869   3.685   5.103   5.062  0.4810  0.2385  0.8182
 7302TIP3    H121870   3.686   5.066   4.974 -0.6924 -1.6119  1.5243
 7302TIP3    H221871   3.620   5.052   5.109  1.5592  0.7129  2.9704
 7303TIP3   OH221872   4.942   1.140   2.808  0.6277  0.5911 -0.2239
 7303TIP3    H121873   4.920   1.066   2.865 -0.0734  0.7371 -0.2925
 7303TIP3    H221874   4.884   1.131   2.733  1.3358  0.5756 -0.7767
 7304TIP3   OH221875   1.637   0.030   5.030 -0.0576  0.1619 -0.1521
 7304TIP3    H121876   1.697  -0.041   5.052  1.2161  1.5706  1.0979
 7304TIP3    H221877   1.642   0.037   4.935  0.4291 -0.8672 -0.2151
 7305TIP3   OH221878   0.572   0.457   1.878  0.0334 -0.1784 -0.0616
 7305TIP3    H121879   0.571   0.405   1.798 -2.2225  0.7616 -0.7157
 7305TIP3    H221880   0.626   0.533   1.857 -1.4545  0.6282 -1.1291
 7306TIP3   OH221881   4.786   6.637   5.027 -0.7401  0.2689 -0.4508
 7306TIP3    H121882   4.848   6.618   4.956 -0.7423  0.2439 -0.4462
 7306TIP3    H221883   4.707   6.590   5.002 -0.7008  0.1584 -0.3687
 7307TIP3   OH221884   6.212   5.795   3.585 -0.5195  0.5036  0.3515
 7307TIP3    H121885   6.221   5.724   3.522  0.1775  0.4640  0.4939
 7307TIP3    H221886   6.283   5.855   3.564 -0.1662  0.3999  1.2046
 7308TIP3   OH221887   2.804   0.627   5.120 -0.3093 -0.0618 -0.8127
 7308TIP3    H121888   2.836   0.677   5.045  0.7366  1.3988  0.5449
 7308TIP3    H221889   2.725   0.672   5.148 -0.1260  0.0323 -0.4283
 7309TIP3   OH221890   5.811   2.551   1.195 -0.0534 -0.0995  0.5038
 7309TIP3    H121891   5.720   2.548   1.223  0.1063 -2.1074  0.9841
 7309TIP3    H221892   5.854   2.483   1.248  1.4007 -0.1959 -0.7483
 7310TIP3   OH221893   6.056   0.596   1.300 -0.1089 -0.7682 -0.1208
 7310TIP3    H121894   5.986   0.661   1.289  1.2268  0.6597 -0.5913
 7310TIP3    H221895   6.021   0.516   1.262 -1.3482  0.0092 -0.6688
 7311TIP3   OH221896   2.350   0.550   4.969  0.1361  0.8135 -0.0212
 7311TIP3    H121897   2.441   0.518   4.964 -0.3640 -0.7593  0.4694
 7311TIP3    H221898   2.297   0.474   4.946 -1.0729  1.7531 -0.4235
 7312TIP3   OH221899   4.260   4.718   3.970  0.8297 -0.2715  0.5831
 7312TIP3    H121900   4.251   4.786   3.903  0.2926 -0.7157  0.1892
 7312TIP3    H221901   4.243   4.762   4.053 -2.2040 -0.3956  0.1481
 7313TIP3   OH221902   1.805   2.468   4.838 -0.2114  0.0437  0.4403
 7313TIP3    H121903   1.853   2.511   4.767 -1.2116 -0.7220 -0.7452
 7313TIP3    H221904   1.713   2.473   4.812 -0.3473 -3.6391 -0.3415
 7314TIP3   OH221905   0.797   1.560   0.053 -0.1696  0.3583 -0.6182
 7314TIP3    H121906   0.773   1.502  -0.019  1.1393  0.2976 -1.0357
 7314TIP3    H221907   0.891   1.546   0.065 -0.3042  0.5558  0.9394
 7315TIP3   OH221908   1.063   5.398   4.060  0.6503  0.3028 -0.4810
 7315TIP3    H121909   1.030   5.374   4.147  0.9090 -0.4390 -0.5739
 7315TIP3    H221910   1.088   5.490   4.068 -2.0337  1.1324 -0.5787
 7316TIP3   OH221911   6.504   0.261   5.546  0.0439 -0.3354 -0.4727
 7316TIP3    H121912   6.576   0.313   5.581  0.2844 -0.7996 -0.2620
 7316TIP3    H221913   6.506   0.277   5.452  0.0787  0.0807 -0.4013
 7317TIP3   OH221914   5.024   2.281   4.893 -0.1353  0.0994 -0.2743
 7317TIP3    H121915   5.046   2.204   4.945 -1.4708 -0.8724 -1.0813
 7317TIP3    H221916   5.043   2.256   4.803 -1.4868  0.3401 -0.6491
 7318TIP3   OH221917   0.160   1.612   4.293  0.0100 -0.3052 -0.0622
 7318TIP3    H121918   0.163   1.665   4.213  0.8121  0.0011  0.1594
 7318TIP3    H221919   0.071   1.626   4.328  0.2478  1.0172  0.0666
 7319TIP3   OH221920   3.056   5.862   2.581  0.3326  0.1143  0.2357
 7319TIP3    H121921   3.063   5.954   2.608  0.0421  0.1186  0.2918
 7319TIP3    H221922   3.146   5.829   2.588  0.2066  0.0204  1.5555
 7320TIP3   OH221923   6.511   5.248   2.333  0.3496  0.2123  0.2023
 7320TIP3    H121924   6.580   5.250   2.399  0.2729 -0.1941  0.2919
 7320TIP3    H221925   6.502   5.340   2.305  1.8894  0.0886 -0.8094
 7321TIP3   OH221926   7.137   2.643   2.661  0.2699  0.0620 -0.1148
 7321TIP3    H121927   7.152   2.562   2.709 -2.3298 -0.6443 -0.3216
 7321TIP3    H221928   7.057   2.625   2.610 -1.0424  3.1011  0.6851
 7322TIP3   OH221929   4.002   4.422   0.399  0.1077 -0.1511  0.0579
 7322TIP3    H121930   3.917   4.459   0.424 -0.7797 -1.4763 -0.8451
 7322TIP3    H221931   3.992   4.328   0.412  0.6733 -0.5721 -2.0822
 7323TIP3   OH221932   3.719   4.947   4.294 -0.2885 -0.1445 -0.1817
 7323TIP3    H121933   3.634   4.963   4.335  0.6117  1.4037  1.1824
 7323TIP3    H221934   3.704   4.966   4.201 -1.5793 -0.5730 -0.0946
 7324TIP3   OH221935   0.326   3.131   4.016 -0.0860  0.1291  0.3665
 7324TIP3    H121936   0.338   3.052   4.069  0.6101  0.0774  0.1478
 7324TIP3    H221937   0.361   3.107   3.930 -0.8092  0.3510  0.0069
 7325TIP3   OH221938   2.621   5.619   5.285 -0.4869 -0.1708 -0.2846
 7325TIP3    H121939   2.653   5.641   5.197  0.2390 -0.6070 -0.1325
 7325TIP3    H221940   2.647   5.528   5.299 -0.2404  0.0197  0.5442
 7326TIP3   OH221941   2.717   1.420   4.925  0.8003 -0.0832  0.1816
 7326TIP3    H121942   2.774   1.424   4.848  0.3390 -0.2304 -0.1715
 7326TIP3    H221943   2.643   1.367   4.897  0.5157  0.0620  0.6548
 7327TIP3   OH221944   6.028   3.971   3.971 -0.0176  0.1454  0.3869
 7327TIP3    H121945   6.045   3.914   4.046  1.0643  0.0724  0.0991
 7327TIP3    H221946   6.080   4.049   3.987  1.2153 -0.3731 -0.8614
 7328TIP3   OH221947   3.055   4.561   4.215  0.0512 -0.4032  0.2846
 7328TIP3    H121948   3.128   4.521   4.263  0.2853 -0.7860 -0.3710
 7328TIP3    H221949   3.034   4.497   4.147 -0.6809 -0.1431  0.2644
 7329TIP3   OH221950   6.640   0.803   0.043  0.2668  0.1748 -0.0193
 7329TIP3    H121951   6.567   0.779   0.100  0.0042  1.2157  0.1084
 7329TIP3    H221952   6.717   0.803   0.100  0.5552 -1.8117 -0.3421
 7330TIP3   OH221953   0.131   6.505   1.605 -0.2331  0.0497  0.0055
 7330TIP3    H121954   0.144   6.414   1.630  1.9615  0.2164 -0.3523
 7330TIP3    H221955   0.098   6.548   1.684 -0.4756 -0.8857  0.4178
 7331TIP3   OH221956   7.112   6.781   3.037  0.1218  0.0303 -0.0059
 7331TIP3    H121957   7.029   6.790   2.989  0.4254  0.7168 -0.4260
 7331TIP3    H221958   7.146   6.696   3.011  0.7332  0.7591 -1.7984
 7332TIP3   OH221959   1.463   0.218   3.839  0.5641 -0.0290 -0.0527
 7332TIP3    H121960   1.383   0.172   3.813 -0.0606  0.7170  0.5409
 7332TIP3    H221961   1.480   0.188   3.928  0.2785  0.7245  0.2547
 7333TIP3   OH221962   5.952   5.529   0.465  0.4962 -0.4247  0.0688
 7333TIP3    H121963   5.917   5.578   0.391 -0.1271 -1.2589 -0.1925
 7333TIP3    H221964   6.029   5.485   0.429  0.9037  0.1344  0.2377
 7334TIP3   OH221965   1.254   0.020   3.737 -0.1163  0.2952  0.6566
 7334TIP3    H121966   1.168   0.032   3.777 -0.5054 -3.9763  1.6347
 7334TIP3    H221967   1.236  -0.006   3.647  0.2669  0.8861  0.4024
 7335TIP3   OH221968   1.669   6.614   4.483 -0.0915  0.0728 -0.0477
 7335TIP3    H121969   1.577   6.641   4.489  0.0034  0.0943  1.4941
 7335TIP3    H221970   1.672   6.530   4.528  0.2226 -1.1169 -2.1440
 7336TIP3   OH221971   0.783   1.784   1.971  0.1880  0.0223 -0.0327
 7336TIP3    H121972   0.726   1.800   1.896  1.0184  1.5945 -0.3750
 7336TIP3    H221973   0.783   1.867   2.019  1.6461 -0.1645  0.3301
 7337TIP3   OH221974   4.441   4.540   5.851 -0.0846  0.0222 -0.3163
 7337TIP3    H121975   4.518   4.558   5.797  0.4321  0.9258  0.6788
 7337TIP3    H221976   4.396   4.625   5.858 -0.7423 -0.3253 -0.2463
 7338TIP3   OH221977   1.394   3.733   4.684 -0.0164 -0.1271  0.0232
 7338TIP3    H121978   1.331   3.669   4.716  0.1722 -0.1982  0.2556
 7338TIP3    H221979   1.376   3.812   4.733  1.2061 -0.6409  1.3689
 7339TIP3   OH221980   3.606   4.321   0.329 -0.2299  0.0333 -0.1558
 7339TIP3    H121981   3.651   4.377   0.392  1.0074  0.0021 -0.9782
 7339TIP3    H221982   3.578   4.245   0.380  1.5011 -0.3953  0.2145
 7340TIP3   OH221983   0.571   5.208   1.076  0.3801 -0.2274  0.0876
 7340TIP3    H121984   0.483   5.246   1.082 -0.6257 -2.4840  0.6914
 7340TIP3    H221985   0.563   5.140   1.010  1.7874 -0.2175 -0.1135
 7341TIP3   OH221986   4.942   4.075   4.256 -0.2696  0.7931  0.2828
 7341TIP3    H121987   4.882   4.103   4.187  0.3458  4.1137  0.9090
 7341TIP3    H221988   5.012   4.140   4.255  0.3007  0.4009  3.3256
 7342TIP3   OH221989   4.539   0.782   3.586  0.4435 -0.0484 -0.1550
 7342TIP3    H121990   4.509   0.873   3.577  0.6848  0.0964  0.3957
 7342TIP3    H221991   4.467   0.737   3.631  0.2134 -0.1947 -0.6716
 7343TIP3   OH221992   4.385   0.499   0.675 -0.4339 -0.4582  0.0338
 7343TIP3    H121993   4.459   0.452   0.636  1.0554  1.6411  0.1921
 7343TIP3    H221994   4.371   0.574   0.618  0.3610  1.4853  2.2617
 7344TIP3   OH221995   3.238   1.021   1.601 -0.0889 -0.4950 -0.1226
 7344TIP3    H121996   3.255   1.112   1.578 -2.2408  0.6085  2.2042
 7344TIP3    H221997   3.151   1.003   1.565 -1.1856 -0.4317  2.3167
 7345TIP3   OH221998   0.044   1.720   5.799 -0.7287 -0.6296  0.0630
 7345TIP3    H121999  -0.040   1.752   5.766 -1.6560 -2.3227  0.6947
 7345TIP3    H222000   0.021   1.666   5.875  0.7257 -2.8408 -0.9815
 7346TIP3   OH222001   5.653   2.787   1.021  0.2373 -0.2896 -0.0961
 7346TIP3    H122002   5.615   2.873   1.037  0.0048 -0.3634 -0.2443
 7346TIP3    H222003   5.736   2.788   1.069  0.7267  0.3911 -0.9251
 7347TIP3   OH222004   5.279   1.578   3.561 -0.3881 -0.1485  0.2832
 7347TIP3    H122005   5.363   1.553   3.522  0.2493 -0.6465  1.8825
 7347TIP3    H222006   5.215   1.519   3.520 -0.4266  1.7246 -2.6585
 7348TIP3   OH222007   1.752   0.638   5.006  0.1002  0.1451 -0.2172
 7348TIP3    H122008   1.811   0.697   4.960  1.1073  1.4217  2.4924
 7348TIP3    H222009   1.709   0.693   5.072 -3.0444 -1.0742 -1.0536
 7349TIP3   OH222010   4.552   5.735   1.541  0.2552  0.5766 -0.0695
 7349TIP3    H122011   4.631   5.683   1.549  1.1719  1.7907 -0.7995
 7349TIP3    H222012   4.489   5.678   1.496  1.3716  0.2325 -1.2500
 7350TIP3   OH222013   3.849   4.851   5.368 -0.3009  0.1838  0.1908
 7350TIP3    H122014   3.931   4.843   5.320  0.0828  0.7026  0.7414
 7350TIP3    H222015   3.782   4.860   5.300  0.1166 -0.0473 -0.2559
 7351TIP3   OH222016   3.821   2.827   3.026  0.2681 -0.0587 -0.1895
 7351TIP3    H122017   3.901   2.804   3.073 -0.7549 -1.4886  0.9333
 7351TIP3    H222018   3.779   2.893   3.082  0.7125  0.8093 -0.8573
 7352TIP3   OH222019   4.617   0.741   4.332  0.3442 -0.3583 -0.2359
 7352TIP3    H122020   4.694   0.684   4.327 -0.5192 -1.6952  0.9046
 7352TIP3    H222021   4.643   0.820   4.286  1.9820 -1.2407 -0.9149
 7353TIP3   OH222022   4.032   5.242   1.597 -0.2469 -0.2005  0.2879
 7353TIP3    H122023   3.971   5.174   1.570 -0.4506 -0.1151  0.5337
 7353TIP3    H222024   4.114   5.195   1.616 -0.2891 -0.3352  0.1420
 7354TIP3   OH222025   2.459   5.335   3.029 -0.5925 -0.0078  0.0622
 7354TIP3    H122026   2.365   5.335   3.048 -0.8214  0.7283 -0.9632
 7354TIP3    H222027   2.471   5.408   2.968  0.7411  0.2488  0.5985
 7355TIP3   OH222028   4.527   4.443   3.414  0.2246  0.3448 -0.0922
 7355TIP3    H122029   4.467   4.485   3.476  0.3978 -0.4273  0.6273
 7355TIP3    H222030   4.477   4.434   3.333 -0.3205  0.5413  0.2180
 7356TIP3   OH222031   6.854   4.731   1.651 -0.0651  0.8645 -0.5499
 7356TIP3    H122032   6.809   4.745   1.734  0.1161 -0.8510 -0.1330
 7356TIP3    H222033   6.783   4.727   1.586 -0.4582 -0.5675 -0.0704
 7357TIP3   OH222034   2.969   1.063   2.736 -0.2408  0.0773  0.4276
 7357TIP3    H122035   2.925   1.101   2.660  1.2038 -2.0518 -1.5880
 7357TIP3    H222036   2.922   0.981   2.752 -0.5398  0.5046  1.9148
 7358TIP3   OH222037   6.451   0.479   1.633 -0.6672 -0.5370 -0.2041
 7358TIP3    H122038   6.454   0.515   1.721 -0.9977 -0.0148 -0.4002
 7358TIP3    H222039   6.536   0.501   1.595 -0.5206 -0.7725 -0.0168
 7359TIP3   OH222040   5.647   2.938   2.327 -0.5160 -0.4527  0.3460
 7359TIP3    H122041   5.570   2.979   2.366  0.1894 -1.1946  2.6784
 7359TIP3    H222042   5.663   2.861   2.381  2.1962 -0.0072  0.3080
 7360TIP3   OH222043   0.549   3.325   0.602  0.4862 -0.7099 -0.4261
 7360TIP3    H122044   0.468   3.355   0.643 -0.3593  0.7181 -2.9004
 7360TIP3    H222045   0.542   3.229   0.603 -0.2175 -0.6703  1.2564
 7361TIP3   OH222046   1.869   2.009   1.463 -0.3967 -0.6011  0.3994
 7361TIP3    H122047   1.845   1.918   1.446  1.6207 -1.1007 -0.0242
 7361TIP3    H222048   1.788   2.058   1.447 -1.8200 -2.3788  1.6084
 7362TIP3   OH222049   1.755   0.949   5.565  0.6539 -0.2080  0.3631
 7362TIP3    H122050   1.775   1.033   5.524  2.0905 -0.4946  0.4210
 7362TIP3    H222051   1.702   0.971   5.642  0.3984  0.5690 -0.0289
 7363TIP3   OH222052   6.062   2.856   3.593  0.3282 -0.0833 -0.3265
 7363TIP3    H122053   6.145   2.867   3.640  1.0450 -0.8214 -1.3657
 7363TIP3    H222054   6.073   2.908   3.514 -0.1634 -0.2475 -0.5028
 7364TIP3   OH222055   0.331   6.149   0.592  0.5604 -0.0043  0.3282
 7364TIP3    H122056   0.255   6.165   0.649 -0.2715 -1.2041 -0.4078
 7364TIP3    H222057   0.293   6.128   0.507  1.6894 -1.2732  0.1043
 7365TIP3   OH222058   3.947   4.429   1.135  0.0823  0.0039 -0.1121
 7365TIP3    H122059   3.957   4.382   1.218  0.0038 -0.3398 -0.2934
 7365TIP3    H222060   3.853   4.439   1.124  0.1394  1.8099  0.8037
 7366TIP3   OH222061   4.505   2.459   5.178  0.4979 -0.0363  0.2566
 7366TIP3    H122062   4.479   2.528   5.116  1.5721 -0.3385 -0.5524
 7366TIP3    H222063   4.422   2.420   5.206 -0.0739  0.9608  0.0094
 7367TIP3   OH222064   0.298   4.183   3.169  0.1286 -0.1649  0.4085
 7367TIP3    H122065   0.386   4.181   3.130  0.2611 -0.1863  0.7073
 7367TIP3    H222066   0.304   4.249   3.238 -0.2342  0.2020  0.0940
 7368TIP3   OH222067   2.740   5.897   4.824  0.3612 -0.1021 -0.0699
 7368TIP3    H122068   2.757   5.941   4.741  1.5394 -0.7956 -0.2093
 7368TIP3    H222069   2.714   5.808   4.800 -1.7438  0.3635  0.2250
 7369TIP3   OH222070   3.213   2.016   4.365 -0.0194  0.3598  0.4473
 7369TIP3    H122071   3.188   2.103   4.396  0.6713  1.1549 -1.0791
 7369TIP3    H222072   3.149   1.996   4.296  0.9615  0.5373 -0.5455
 7370TIP3   OH222073   2.098   2.341   0.633  0.3547 -0.4758 -0.0455
 7370TIP3    H122074   2.039   2.357   0.559  0.3414  1.3365  0.3015
 7370TIP3    H222075   2.099   2.246   0.644 -0.5122 -0.7009 -1.6610
 7371TIP3   OH222076   2.249   3.088   2.580  0.2108  0.0167 -0.3443
 7371TIP3    H122077   2.236   3.058   2.490  0.5075 -0.2539 -0.2962
 7371TIP3    H222078   2.164   3.076   2.622  0.2570 -0.4973 -0.3975
 7372TIP3   OH222079   3.873   5.206   5.593 -0.6251  0.4229 -0.3759
 7372TIP3    H122080   3.945   5.230   5.535 -0.6830 -0.2481 -0.7377
 7372TIP3    H222081   3.890   5.253   5.675  0.2478  0.2337 -0.4474
 7373TIP3   OH222082   7.210   4.957   2.084  0.4333  0.0230 -0.4403
 7373TIP3    H122083   7.267   4.982   2.011  1.4362 -0.2317  0.2345
 7373TIP3    H222084   7.126   4.997   2.063  1.3561  2.0220 -0.5360
 7374TIP3   OH222085   2.925   5.425   3.922 -0.1157 -0.0837  0.2587
 7374TIP3    H122086   2.854   5.400   3.863 -1.7081  0.4452  1.8553
 7374TIP3    H222087   2.929   5.520   3.916  0.2300 -0.0865  0.4199
 7375TIP3   OH222088   5.317   1.563   5.515 -0.0949  0.7233  0.2751
 7375TIP3    H122089   5.343   1.645   5.472  2.8068  1.1373  2.4601
 7375TIP3    H222090   5.377   1.497   5.480  0.1407  0.4069  1.2241
 7376TIP3   OH222091   5.877   2.099   0.225  0.1680  0.1058  0.0399
 7376TIP3    H122092   5.926   2.020   0.249  0.7858  0.3562 -0.3539
 7376TIP3    H222093   5.862   2.144   0.308 -0.6881 -0.6947  0.3347
 7377TIP3   OH222094   6.565   4.230   5.104 -0.1575  0.5054  0.4767
 7377TIP3    H122095   6.607   4.144   5.109 -1.1960 -0.0425  0.0839
 7377TIP3    H222096   6.627   4.284   5.054  0.0434 -0.3113 -0.1812
 7378TIP3   OH222097   1.115   4.861   2.650 -0.2590 -0.2528 -0.2023
 7378TIP3    H122098   1.125   4.768   2.630  0.1157 -0.4238  0.7121
 7378TIP3    H222099   1.160   4.872   2.734  1.7852  1.2067 -1.3947
 7379TIP3   OH222100   4.628   1.775   3.625  0.6727 -0.7800 -0.1174
 7379TIP3    H122101   4.535   1.780   3.649  0.9535  0.4363  0.8158
 7379TIP3    H222102   4.631   1.801   3.534  0.3624  2.0057  0.5808
 7380TIP3   OH222103   0.054   5.036   4.904  0.1950  0.2436  0.5307
 7380TIP3    H122104   0.044   5.034   4.999 -0.2920 -0.0098  0.4796
 7380TIP3    H222105   0.010   5.117   4.877  1.8671  1.2501  0.6728
 7381TIP3   OH222106   0.785   4.535   4.255 -0.0917  0.0318  0.5236
 7381TIP3    H122107   0.796   4.587   4.175  1.2164  0.1869  0.7788
 7381TIP3    H222108   0.705   4.567   4.295  0.5784  1.7282  0.5691
 7382TIP3   OH222109   3.981   3.316   4.376  0.5214  0.1541  0.5876
 7382TIP3    H122110   4.031   3.266   4.440  0.5478 -0.3720  0.1644
 7382TIP3    H222111   4.041   3.382   4.344  0.5846  0.2611  0.9194
 7383TIP3   OH222112   0.149   1.191   5.131  0.5207 -0.2815  0.1402
 7383TIP3    H122113   0.090   1.246   5.181  0.3421  1.7676 -2.1412
 7383TIP3    H222114   0.094   1.151   5.064  1.5106  1.1153 -1.5848
 7384TIP3   OH222115   1.497   3.133   5.544 -0.3193 -0.1054  0.0211
 7384TIP3    H122116   1.431   3.099   5.604 -1.4227  0.5687 -0.7608
 7384TIP3    H222117   1.446   3.178   5.476  0.9812  1.1029 -0.2018
 7385TIP3   OH222118   6.319   2.636   3.013 -0.0901 -0.2866 -0.6417
 7385TIP3    H122119   6.313   2.634   3.108 -0.4664 -0.0933 -0.6570
 7385TIP3    H222120   6.361   2.719   2.993 -1.2336  0.3064 -0.6868
 7386TIP3   OH222121   3.432   5.639   3.291  0.0712 -0.5224 -0.3730
 7386TIP3    H122122   3.525   5.648   3.270 -0.1160 -0.7642 -1.3275
 7386TIP3    H222123   3.402   5.729   3.303  0.0907 -0.3378 -1.5994
 7387TIP3   OH222124   4.059   5.790   4.712  0.6359 -0.0236  0.2911
 7387TIP3    H122125   4.014   5.731   4.772  0.4136 -0.3114 -0.1537
 7387TIP3    H222126   3.992   5.853   4.686  0.4313 -0.5600 -0.5130
 7388TIP3   OH222127   1.914   5.417   1.867  0.0582 -0.3188 -0.0847
 7388TIP3    H122128   1.877   5.459   1.945 -0.6497  1.2039 -1.1961
 7388TIP3    H222129   2.004   5.450   1.863 -0.0460 -0.0362 -0.1493
 7389TIP3   OH222130   1.663   5.455   5.389  0.0146  0.4119 -0.0749
 7389TIP3    H122131   1.569   5.446   5.405 -0.0461 -0.0381 -0.6533
 7389TIP3    H222132   1.678   5.406   5.308  0.7823  0.3057  0.1277
 7390TIP3   OH222133   3.885   0.132   5.765  0.0648  0.1888 -0.3451
 7390TIP3    H122134   3.961   0.099   5.812  0.5246 -0.4386 -1.4985
 7390TIP3    H222135   3.894   0.227   5.768  0.6881  0.1244 -0.1436
 7391TIP3   OH222136   3.825   6.261   0.598 -0.5044 -0.0024  0.1108
 7391TIP3    H122137   3.870   6.295   0.521 -0.1658 -1.9164 -0.6129
 7391TIP3    H222138   3.837   6.327   0.666  0.1936  1.1950 -1.1408
 7392TIP3   OH222139   4.621   0.790   5.118 -0.4772 -0.7671  1.0541
 7392TIP3    H122140   4.695   0.826   5.167  0.7811  0.3872 -1.4825
 7392TIP3    H222141   4.647   0.701   5.096  0.5101 -0.1824 -0.3189
 7393TIP3   OH222142   7.186   1.947   4.386 -0.1189  0.2532  0.0637
 7393TIP3    H122143   7.234   1.933   4.468 -0.2050  1.1386  0.2746
 7393TIP3    H222144   7.155   1.860   4.361  2.5588 -0.5704 -0.6854
 7394TIP3   OH222145   0.436   3.254   0.187  0.2165 -0.1582  0.5213
 7394TIP3    H122146   0.371   3.210   0.243  0.2717  0.1887  0.8593
 7394TIP3    H222147   0.515   3.258   0.241  0.3168  0.0416  0.3591
 7395TIP3   OH222148   5.977   1.410   2.728  0.1598  0.1563  0.2017
 7395TIP3    H122149   5.995   1.417   2.634  2.7988  1.4465  0.7049
 7395TIP3    H222150   5.887   1.442   2.738  0.1086  0.7685 -1.8019
 7396TIP3   OH222151   3.874   4.695   5.703 -0.3165 -0.4117 -0.8530
 7396TIP3    H122152   3.861   4.629   5.635 -0.9363 -0.0209 -1.1199
 7396TIP3    H222153   3.930   4.761   5.662  0.8251 -1.0535 -0.3865
 7397TIP3   OH222154   4.804   6.774   0.739  0.0840  0.8559 -0.4382
 7397TIP3    H122155   4.828   6.756   0.830  0.0734  0.3856 -0.5303
 7397TIP3    H222156   4.873   6.734   0.687  0.1910  1.2903 -0.6339
 7398TIP3   OH222157   0.650   3.248   3.549 -0.7870  0.3819 -0.8242
 7398TIP3    H122158   0.739   3.251   3.512 -1.1667  1.5425 -1.6990
 7398TIP3    H222159   0.592   3.260   3.474 -1.6376  1.0363 -0.0924
 7399TIP3   OH222160   2.831   4.628   1.968  0.4517  0.6784 -0.6660
 7399TIP3    H122161   2.737   4.639   1.951  0.6423  1.1792 -1.4791
 7399TIP3    H222162   2.868   4.715   1.950  1.5148 -0.2464 -3.5799
 7400TIP3   OH222163   4.256   4.935   3.792  0.5870 -0.2000 -0.5843
 7400TIP3    H122164   4.176   4.988   3.782  0.4574 -0.4130 -0.6844
 7400TIP3    H222165   4.310   4.986   3.852  0.8485  0.4817 -1.3799
 7401TIP3   OH222166   6.354   4.538   0.457 -0.9012 -0.3461 -0.4317
 7401TIP3    H122167   6.330   4.571   0.544 -1.1395  0.2204 -0.7045
 7401TIP3    H222168   6.447   4.559   0.448 -0.7848 -0.7412 -0.1679
 7402TIP3   OH222169   5.186   3.298   0.716  0.0787 -0.1373 -0.1402
 7402TIP3    H122170   5.202   3.260   0.630  0.3203 -0.4899  0.0598
 7402TIP3    H222171   5.152   3.226   0.769 -1.2514  0.3642 -0.2742
 7403TIP3   OH222172   2.295   2.746   0.369  0.2674 -0.4576 -0.6266
 7403TIP3    H122173   2.374   2.755   0.424  0.3912  0.6825 -0.9639
 7403TIP3    H222174   2.249   2.829   0.381 -1.4986 -1.5418  0.4587
 7404TIP3   OH222175   1.380   2.378   2.609 -0.6747  0.3233 -0.0429
 7404TIP3    H122176   1.385   2.286   2.637  1.6513  0.8930  1.7180
 7404TIP3    H222177   1.463   2.393   2.563 -1.0124  1.5473 -0.2788
 7405TIP3   OH222178   3.286   0.225   4.580 -0.0469  0.2938  0.0591
 7405TIP3    H122179   3.277   0.252   4.488  0.3361  0.0496 -0.0501
 7405TIP3    H222180   3.236   0.144   4.586  0.0610  0.2266  0.0329
 7406TIP3   OH222181   6.073   6.501   2.050  0.3272 -0.2049  0.0256
 7406TIP3    H122182   6.164   6.505   2.080  0.4455  1.9105 -0.4725
 7406TIP3    H222183   6.079   6.484   1.956  0.3589  2.2849 -0.4763
 7407TIP3   OH222184   3.514   1.041   1.626  0.3277  0.1348 -0.6233
 7407TIP3    H122185   3.423   1.011   1.625  0.6248 -0.8162 -1.0857
 7407TIP3    H222186   3.564   0.964   1.653  0.9894  0.6829 -0.2532
 7408TIP3   OH222187   4.342   1.243   1.058  0.6661 -0.3535  0.5619
 7408TIP3    H122188   4.413   1.238   0.994 -0.0005 -0.1798 -0.2192
 7408TIP3    H222189   4.375   1.302   1.126  1.1698 -0.0513  0.0710
 7409TIP3   OH222190   1.784   6.262   3.816 -0.3131 -0.3291  0.6215
 7409TIP3    H122191   1.815   6.187   3.866 -2.0108 -0.9975  0.7625
 7409TIP3    H222192   1.721   6.305   3.874 -1.6968 -0.6396 -0.5876
 7410TIP3   OH222193   4.450   4.313   1.444 -0.0462  0.0502  0.0508
 7410TIP3    H122194   4.388   4.267   1.501 -0.7269 -0.0430 -0.7506
 7410TIP3    H222195   4.482   4.246   1.384 -0.2562  0.3968 -0.4565
 7411TIP3   OH222196   5.080   5.868   5.304 -0.0124  0.6626 -0.5610
 7411TIP3    H122197   5.150   5.912   5.255 -0.4051  1.1141 -0.7270
 7411TIP3    H222198   5.123   5.835   5.382  0.2271  1.6710 -0.2546
 7412TIP3   OH222199   1.093   3.574   4.957 -0.7641 -0.1116 -0.8154
 7412TIP3    H122200   1.002   3.585   4.984 -0.0788  2.1409  0.8397
 7412TIP3    H222201   1.134   3.528   5.029 -0.2794  0.1581 -0.9192
 7413TIP3   OH222202   6.599   2.633   4.455 -0.2563 -0.0834  0.1010
 7413TIP3    H122203   6.622   2.632   4.547  0.3424  0.0807 -0.0415
 7413TIP3    H222204   6.646   2.708   4.419 -0.1120 -0.4201 -0.4275
 7414TIP3   OH222205   0.751   1.316   4.383  0.6987  0.0821 -0.1080
 7414TIP3    H122206   0.663   1.344   4.359  0.5101 -0.7370 -0.3925
 7414TIP3    H222207   0.800   1.398   4.393 -0.4955  0.6279  1.7088
 7415TIP3   OH222208   2.254   4.833   2.980 -0.4131 -0.2291 -0.0546
 7415TIP3    H122209   2.291   4.804   3.063 -0.2151  0.7802  0.2207
 7415TIP3    H222210   2.277   4.925   2.974 -1.6736  0.0698 -0.5644
 7416TIP3   OH222211   5.357   2.206   4.213 -0.1606  0.4051  0.1043
 7416TIP3    H122212   5.313   2.161   4.285 -0.2444  1.1927  0.5681
 7416TIP3    H222213   5.304   2.286   4.200 -0.4403  0.0342 -1.1699
 7417TIP3   OH222214   5.398   3.759   3.816  0.1517  0.3509  0.2757
 7417TIP3    H122215   5.407   3.846   3.778  0.2164  1.0922  1.8955
 7417TIP3    H222216   5.381   3.775   3.909  0.3182 -1.3672  0.6427
 7418TIP3   OH222217   1.633   1.842   3.299  0.4245  0.0208 -0.5310
 7418TIP3    H122218   1.675   1.890   3.227  2.6715 -0.3706  0.4311
 7418TIP3    H222219   1.704   1.826   3.362 -0.8245 -2.1283  0.4620
 7419TIP3   OH222220   0.113   0.586   2.769  0.3974 -0.3207 -0.0056
 7419TIP3    H122221   0.195   0.622   2.801  0.1870  1.6697 -1.5208
 7419TIP3    H222222   0.077   0.538   2.844  0.6447  2.7823  2.2771
 7420TIP3   OH222223   4.808   1.521   1.179  0.0156  0.0928 -0.0614
 7420TIP3    H122224   4.780   1.457   1.114 -0.3154 -0.6312  0.7665
 7420TIP3    H222225   4.726   1.555   1.215  0.1977  0.1960  0.2585
 7421TIP3   OH222226   5.395   6.605   1.970 -0.7269 -0.1420 -0.3385
 7421TIP3    H122227   5.352   6.568   1.893 -1.8472  1.3632 -0.4948
 7421TIP3    H222228   5.417   6.695   1.944  0.6850 -0.2249  0.4566
 7422TIP3   OH222229   7.114   1.377   0.773 -0.0299 -0.5173 -0.8720
 7422TIP3    H122230   7.210   1.378   0.776 -0.0536 -0.2213  1.1097
 7422TIP3    H222231   7.092   1.416   0.688  1.5870  0.8605 -0.7010
 7423TIP3   OH222232   2.339   0.659   0.790  0.5616 -0.5949 -0.0567
 7423TIP3    H122233   2.423   0.700   0.770  0.0589  0.2345 -0.5195
 7423TIP3    H222234   2.303   0.633   0.705 -0.0657 -0.1019  0.0496
 7424TIP3   OH222235   4.435   1.119   0.417  0.5133  0.0300  0.0393
 7424TIP3    H122236   4.445   1.197   0.362 -1.3541  0.5874  0.4379
 7424TIP3    H222237   4.351   1.082   0.391  0.7672 -1.1142  0.7866
 7425TIP3   OH222238   4.867   2.234   3.956 -0.3847 -0.2765  0.2412
 7425TIP3    H122239   4.909   2.246   3.871  0.6835 -0.2201  0.7621
 7425TIP3    H222240   4.828   2.319   3.976  0.9945  0.2903  0.6555
 7426TIP3   OH222241   5.851   0.568   2.486  0.2235  0.1044 -0.0226
 7426TIP3    H122242   5.868   0.638   2.422 -0.5140  0.8487  0.5678
 7426TIP3    H222243   5.759   0.580   2.510 -0.0038 -1.2776 -0.1319
 7427TIP3   OH222244   5.906   3.786   0.729  0.0751  0.2769  0.1106
 7427TIP3    H122245   5.888   3.834   0.648 -0.7196  0.0126  0.1239
 7427TIP3    H222246   5.868   3.699   0.714  0.0034  0.1980  0.7375
 7428TIP3   OH222247   3.693   3.408   5.426  0.0534  0.1675 -0.2004
 7428TIP3    H122248   3.654   3.437   5.344 -0.6276  0.1872  0.1262
 7428TIP3    H222249   3.713   3.316   5.413 -2.2362 -0.4747  0.3952
 7429TIP3   OH222250   4.784   6.105   3.581 -0.1062 -0.3612 -0.0289
 7429TIP3    H122251   4.845   6.093   3.509  0.3204 -1.9202  0.5556
 7429TIP3    H222252   4.796   6.028   3.637 -2.1518 -0.4088  0.4415
 7430TIP3   OH222253   6.056   3.021   2.410 -0.2199  0.7520  0.0013
 7430TIP3    H122254   6.030   3.000   2.499 -2.8387  2.2185 -0.3092
 7430TIP3    H222255   6.053   2.937   2.364  1.1320 -0.0153  1.2409
 7431TIP3   OH222256   0.159   1.494   3.469 -0.0638  0.4020  0.0508
 7431TIP3    H122257   0.140   1.440   3.392 -0.1380 -0.7323  0.8401
 7431TIP3    H222258   0.254   1.490   3.477 -0.0577  0.5093  0.0310
 7432TIP3   OH222259   0.283   5.518   1.660  0.5329  0.0358  0.3316
 7432TIP3    H122260   0.269   5.607   1.692  0.2238  0.1814 -0.1857
 7432TIP3    H222261   0.265   5.462   1.735 -1.4919  0.2968  0.0949
 7433TIP3   OH222262   1.138   2.215   4.827  0.3022 -0.0286  0.1310
 7433TIP3    H122263   1.055   2.257   4.806  0.7248  0.6782 -0.1344
 7433TIP3    H222264   1.205   2.274   4.792  0.9067 -0.8124 -0.0675
 7434TIP3   OH222265   1.045   0.848   4.200 -0.3979  0.6080 -0.2097
 7434TIP3    H122266   0.992   0.795   4.141  0.7499  0.2585 -0.9531
 7434TIP3    H222267   0.996   0.930   4.210 -0.6360  0.6633 -1.6285
 7435TIP3   OH222268   6.834   5.526   5.225 -0.6165  0.2365  0.5128
 7435TIP3    H122269   6.852   5.490   5.312 -0.1177  0.8089  0.6516
 7435TIP3    H222270   6.754   5.481   5.196 -1.2052  0.5627  1.5685
 7436TIP3   OH222271   3.067   4.539   3.919 -0.2735 -0.5727 -0.0496
 7436TIP3    H122272   3.064   4.530   3.824  0.2706  2.3600 -0.4599
 7436TIP3    H222273   2.988   4.588   3.941 -0.7478 -1.8318  1.1245
 7437TIP3   OH222274   0.872   1.233   5.524 -0.0336  0.1800  0.0094
 7437TIP3    H122275   0.809   1.284   5.473  1.6796  1.2271 -1.1462
 7437TIP3    H222276   0.944   1.215   5.464  0.1594 -2.2809  0.8510
 7438TIP3   OH222277   5.742   1.534   2.711  0.4118  0.5365 -0.2042
 7438TIP3    H122278   5.660   1.539   2.663 -0.4085 -0.2867  1.0606
 7438TIP3    H222279   5.784   1.619   2.697 -1.4889  1.6522  0.5629
 7439TIP3   OH222280   2.278   2.638   3.987  0.3102  0.1983  0.6952
 7439TIP3    H122281   2.271   2.698   3.913  0.3605 -0.5442  0.0798
 7439TIP3    H222282   2.370   2.640   4.011  0.3397  0.2341  0.5759
 7440TIP3   OH222283   4.139   2.659   0.713 -0.1798 -0.1674 -0.1042
 7440TIP3    H122284   4.164   2.691   0.800  1.5848 -1.4010 -0.0894
 7440TIP3    H222285   4.096   2.575   0.730 -0.7000  0.0416 -0.3772
 7441TIP3   OH222286   2.681   5.235   4.007  0.1796  0.3890 -0.6543
 7441TIP3    H122287   2.601   5.249   4.057 -0.5882  0.4628 -1.8904
 7441TIP3    H222288   2.751   5.255   4.070 -0.7160 -0.9286  0.8326
 7442TIP3   OH222289   5.909   4.442   5.596  0.1488 -0.0576 -0.2907
 7442TIP3    H122290   5.814   4.432   5.581 -0.0612 -1.1542  1.5278
 7442TIP3    H222291   5.917   4.524   5.644 -0.1866 -1.1325  1.7018
 7443TIP3   OH222292   2.915   3.950   4.732 -0.0946 -0.5031 -0.6519
 7443TIP3    H122293   2.893   3.919   4.820  0.9520  2.5441  0.8155
 7443TIP3    H222294   3.002   3.913   4.715 -0.2254 -0.9614 -0.3485
 7444TIP3   OH222295   2.028   1.896   3.294  0.1615 -0.4030 -0.4493
 7444TIP3    H122296   1.954   1.888   3.355  1.2218  0.4659  1.0190
 7444TIP3    H222297   2.023   1.987   3.263  0.3312 -0.4879 -0.7277
 7445TIP3   OH222298   5.939   2.971   5.731 -0.0713 -0.2911  0.6762
 7445TIP3    H122299   5.846   2.951   5.716  0.2901 -1.0963 -0.6198
 7445TIP3    H222300   5.986   2.895   5.698  1.0878  0.3108  0.8763
 7446TIP3   OH222301   1.581   1.503   4.208  0.5060 -0.3030  0.3526
 7446TIP3    H122302   1.639   1.474   4.279 -0.8613 -1.8369  0.9092
 7446TIP3    H222303   1.638   1.554   4.150  2.3736 -1.5365  0.9927
 7447TIP3   OH222304   0.437   4.709   3.194  0.0425 -0.1286  0.0480
 7447TIP3    H122305   0.376   4.753   3.253  0.3511 -1.0978  1.1127
 7447TIP3    H222306   0.522   4.718   3.237  0.2527 -0.9515 -0.1861
 7448TIP3   OH222307   0.406   2.505   3.761 -0.0728 -0.1144 -0.0083
 7448TIP3    H122308   0.451   2.456   3.830  0.1457 -1.1299 -0.8494
 7448TIP3    H222309   0.313   2.495   3.781 -0.0380 -1.0406 -0.2609
 7449TIP3   OH222310   4.383   2.205   4.829 -0.0402  0.3249  0.1280
 7449TIP3    H122311   4.304   2.203   4.884  0.6048 -0.0001  1.0574
 7449TIP3    H222312   4.454   2.227   4.889  0.6868 -0.0713 -0.5639
 7450TIP3   OH222313   2.323   6.781   0.408  0.2523 -0.0389  0.3156
 7450TIP3    H122314   2.345   6.715   0.473  1.2814  2.1383  2.3218
 7450TIP3    H222315   2.408   6.818   0.381 -0.2733  0.2998 -0.9919
 7451TIP3   OH222316   7.053   4.207   3.963  0.2057 -0.4380  0.3508
 7451TIP3    H122317   7.104   4.217   4.044  1.8938 -0.5805 -0.6618
 7451TIP3    H222318   7.000   4.129   3.978  2.6500 -2.1961  0.2583
 7452TIP3   OH222319   6.705   3.172   1.335 -0.1484  0.4965 -0.2216
 7452TIP3    H122320   6.699   3.077   1.330  0.2172  0.5117 -4.5872
 7452TIP3    H222321   6.614   3.202   1.335 -0.2679  0.1393 -0.4591
 7453TIP3   OH222322   5.289   5.749   0.904 -0.1480 -0.5602 -0.3216
 7453TIP3    H122323   5.335   5.833   0.906 -0.4786 -0.3751  1.7646
 7453TIP3    H222324   5.356   5.686   0.879  1.1809 -0.1996  2.0269
 7454TIP3   OH222325   2.694   4.145   2.531 -0.4266  0.0232 -0.0965
 7454TIP3    H122326   2.613   4.165   2.578 -0.9474 -0.8271 -0.6187
 7454TIP3    H222327   2.746   4.225   2.538 -0.6972  0.0827  1.4935
 7455TIP3   OH222328   2.331   6.092   1.871 -0.1769 -0.0643 -0.4862
 7455TIP3    H122329   2.261   6.084   1.807 -0.6476  0.9030 -0.0987
 7455TIP3    H222330   2.345   6.002   1.901 -0.7369 -0.3686 -1.0995
 7456TIP3   OH222331   4.637   1.084   5.604  1.2795  0.2987 -0.1703
 7456TIP3    H122332   4.599   0.997   5.595 -1.1816  1.3109 -0.6039
 7456TIP3    H222333   4.709   1.085   5.541  0.5169 -1.0298 -1.1310
 7457TIP3   OH222334   3.918   3.872   3.273  0.2818 -0.1735 -0.2095
 7457TIP3    H122335   3.902   3.823   3.192 -0.8722 -0.9052  0.4376
 7457TIP3    H222336   3.878   3.957   3.257 -0.0789 -0.3679 -0.3466
 7458TIP3   OH222337   2.727   0.578   1.964  0.2260 -0.1189  0.7794
 7458TIP3    H122338   2.677   0.527   1.901  0.7762  0.1062  0.1568
 7458TIP3    H222339   2.685   0.559   2.048 -2.2474  1.6018  0.0642
 7459TIP3   OH222340   4.907   5.833   2.173 -0.4335 -0.1086 -0.0033
 7459TIP3    H122341   4.855   5.906   2.141  0.8050  0.3694 -1.0047
 7459TIP3    H222342   4.933   5.785   2.094 -1.1790 -1.6334  0.6203
 7460TIP3   OH222343   4.469   3.626   1.191 -0.5090  0.0435 -0.2865
 7460TIP3    H122344   4.480   3.579   1.273  0.4778 -1.1789 -1.0906
 7460TIP3    H222345   4.375   3.622   1.174 -0.5987 -0.5394  0.2950
 7461TIP3   OH222346   2.889   4.545   0.633 -0.0921 -0.3939 -0.2670
 7461TIP3    H122347   2.871   4.608   0.702 -1.0544 -1.3599  0.3937
 7461TIP3    H222348   2.899   4.598   0.554 -2.8694  0.4884 -0.1225
 7462TIP3   OH222349   4.548   2.383   3.902  0.8132  0.0800  0.3278
 7462TIP3    H122350   4.549   2.429   3.818 -3.4453 -0.4270 -0.2278
 7462TIP3    H222351   4.597   2.440   3.961  2.5804  1.2347 -2.0923
 7463TIP3   OH222352   4.450   1.112   1.495 -0.0326  0.3248 -0.0648
 7463TIP3    H122353   4.464   1.087   1.403  1.2177  1.2625 -0.1483
 7463TIP3    H222354   4.457   1.207   1.496 -2.5278  0.5668  0.6224
 7464TIP3   OH222355   3.106   4.624   4.855  0.3779 -0.0590 -0.1633
 7464TIP3    H122356   3.011   4.638   4.845 -0.1038 -2.8605 -0.2637
 7464TIP3    H222357   3.146   4.697   4.809 -1.7436  0.5296 -1.1951
 7465TIP3   OH222358   2.250   1.855   1.766  0.4492 -0.0434 -0.0954
 7465TIP3    H122359   2.321   1.916   1.787  0.1681 -0.6482  3.0848
 7465TIP3    H222360   2.289   1.768   1.774 -0.3744 -0.3571  0.6909
 7466TIP3   OH222361   3.096   3.698   4.675 -0.3293 -0.3920 -0.4178
 7466TIP3    H122362   3.178   3.721   4.632  0.2122 -4.2008 -1.8203
 7466TIP3    H222363   3.033   3.688   4.603 -0.8354 -1.6668  0.1628
 7467TIP3   OH222364   0.868   3.638   5.090 -0.4637 -0.1124 -0.0693
 7467TIP3    H122365   0.845   3.728   5.113 -1.1827  0.4757 -2.8209
 7467TIP3    H222366   0.783   3.596   5.074 -0.0321 -0.6516 -0.9653
 7468TIP3   OH222367   6.669   0.808   5.761  0.5897 -0.2199  0.2998
 7468TIP3    H122368   6.652   0.725   5.715  0.2571 -0.0365  0.0912
 7468TIP3    H222369   6.764   0.817   5.758  0.6273 -0.5797  0.2942
 7469TIP3   OH222370   6.000   4.513   3.400 -0.2728  0.2512 -0.3656
 7469TIP3    H122371   6.047   4.438   3.438  0.5303  0.0872 -1.6235
 7469TIP3    H222372   6.041   4.526   3.315 -1.2054  1.3859 -0.6637
 7470TIP3   OH222373   1.261   6.524   2.848  0.3176  0.1362  0.3447
 7470TIP3    H122374   1.302   6.539   2.763  3.4083  1.2472  1.8583
 7470TIP3    H222375   1.208   6.602   2.864  0.5674  0.4076 -0.1271
 7471TIP3   OH222376   4.996   2.961   3.616 -0.0530  0.5652  0.7974
 7471TIP3    H122377   4.992   2.892   3.682 -0.2607  1.0997  1.3539
 7471TIP3    H222378   4.905   2.977   3.592 -0.0619  1.1418  1.2009
 7472TIP3   OH222379   2.337   0.502   0.104  0.6874 -0.0729  0.1734
 7472TIP3    H122380   2.266   0.558   0.133  0.2314 -0.2661 -0.5520
 7472TIP3    H222381   2.393   0.492   0.181  1.5329  2.4683 -0.0061
 7473TIP3   OH222382   2.117   5.741   0.649 -0.1948  0.5945 -0.1065
 7473TIP3    H122383   2.037   5.734   0.702 -1.0072  0.4037 -1.3263
 7473TIP3    H222384   2.112   5.827   0.609 -0.3528  0.1513 -1.0607
 7474TIP3   OH222385   3.485   4.593   4.789  0.0731 -0.2216 -0.2483
 7474TIP3    H122386   3.419   4.657   4.815 -1.4940 -1.4471 -0.9980
 7474TIP3    H222387   3.514   4.553   4.871 -0.5824 -0.0928  0.0507
 7475TIP3   OH222388   3.587   2.162   5.331  0.7473  0.3651  0.2626
 7475TIP3    H122389   3.607   2.202   5.247  0.2994 -1.8894 -0.9941
 7475TIP3    H222390   3.622   2.074   5.325 -2.1344 -0.9755  1.1020
 7476TIP3   OH222391   0.200   4.130   0.289 -0.2576 -0.5961 -0.1544
 7476TIP3    H122392   0.202   4.224   0.275 -0.2065 -0.5652  0.0505
 7476TIP3    H222393   0.251   4.117   0.370  0.5627 -0.8912 -0.7035
 7477TIP3   OH222394   0.446   4.353   5.051  0.1324 -0.0508  0.4593
 7477TIP3    H122395   0.355   4.382   5.041 -0.5125 -2.0012  0.3295
 7477TIP3    H222396   0.492   4.392   4.977 -1.1225 -0.9424 -0.8417
 7478TIP3   OH222397   0.759   0.973   2.050 -0.9932 -0.0592  0.9304
 7478TIP3    H122398   0.688   0.930   2.098 -1.6013  1.1861  1.1932
 7478TIP3    H222399   0.755   1.064   2.078  1.2943 -0.1060  1.6361
 7479TIP3   OH222400   2.333   6.364   3.473 -0.2044  0.7389 -0.3914
 7479TIP3    H122401   2.253   6.386   3.426 -0.2755 -0.2805 -0.7712
 7479TIP3    H222402   2.404   6.401   3.421 -0.3368  0.3432 -0.8528
 7480TIP3   OH222403   7.082   3.434   5.493  0.1929 -0.0525  0.5684
 7480TIP3    H122404   7.105   3.525   5.515 -0.6965  0.6756 -1.2650
 7480TIP3    H222405   7.068   3.436   5.398  0.5469 -2.2180  0.4240
 7481TIP3   OH222406   3.457   5.409   0.327  0.7885 -0.4222 -0.9494
 7481TIP3    H122407   3.541   5.437   0.290  0.2616  0.1277 -1.7666
 7481TIP3    H222408   3.430   5.483   0.382  1.3956 -1.0886  0.2883
 7482TIP3   OH222409   5.801   0.214   2.464  0.2121 -0.1281  0.0363
 7482TIP3    H122410   5.831   0.151   2.398  0.9076  0.0678  0.1692
 7482TIP3    H222411   5.867   0.282   2.465 -0.8308  0.9208 -0.5166
 7483TIP3   OH222412   5.515   4.016   0.491 -0.3806  0.1648 -0.0942
 7483TIP3    H122413   5.533   3.974   0.575 -0.4806  1.7384  0.7415
 7483TIP3    H222414   5.468   3.949   0.441  0.5714 -1.1629  0.6915
 7484TIP3   OH222415   4.732   0.541   5.084 -0.3557 -0.5518  0.3182
 7484TIP3    H122416   4.683   0.496   5.015 -2.0830  1.3729  0.1771
 7484TIP3    H222417   4.742   0.476   5.152 -2.0708 -1.4240 -0.1909
 7485TIP3   OH222418   6.037   6.608   0.662  0.5240 -0.3685  0.5623
 7485TIP3    H122419   6.007   6.546   0.729  0.2540  0.2989  1.0679
 7485TIP3    H222420   6.097   6.666   0.708  0.2451  0.1698  0.2520
 7486TIP3   OH222421   3.254   0.385   1.828 -0.1000 -0.1217  0.0981
 7486TIP3    H122422   3.267   0.406   1.921 -0.1449 -0.0050  0.0786
 7486TIP3    H222423   3.161   0.399   1.813 -0.1007 -0.1826  0.0454
 7487TIP3   OH222424   1.925   3.405   4.782  0.0978 -0.4460  0.3045
 7487TIP3    H122425   2.020   3.395   4.786  0.3790  1.5491 -0.2936
 7487TIP3    H222426   1.908   3.437   4.694 -1.1000 -0.4339  0.5245
 7488TIP3   OH222427   5.533   6.192   5.164 -0.0587  0.5169 -0.1144
 7488TIP3    H122428   5.551   6.278   5.202 -0.9770  0.5661  0.2562
 7488TIP3    H222429   5.440   6.196   5.139 -0.0866 -0.3224 -0.1893
 7489TIP3   OH222430   2.077   3.758   4.080  0.1968  0.1336 -0.1516
 7489TIP3    H122431   2.051   3.794   3.995  0.8919  0.2349 -0.3300
 7489TIP3    H222432   2.172   3.772   4.083 -0.1122  2.5053  1.7226
 7490TIP3   OH222433   4.357   5.747   3.318  0.2061  0.0612 -0.1900
 7490TIP3    H122434   4.377   5.672   3.374  1.8582  0.4777 -0.1818
 7490TIP3    H222435   4.386   5.823   3.369  1.6487  0.4583 -1.5322
 7491TIP3   OH222436   0.826   4.749   4.051  0.3437 -0.1763  0.2775
 7491TIP3    H122437   0.899   4.810   4.044  1.3704 -1.0988  2.0397
 7491TIP3    H222438   0.751   4.803   4.076  0.8162  0.5793  0.0754
 7492TIP3   OH222439   5.362   4.460   0.650  0.5061  0.4435 -0.2733
 7492TIP3    H122440   5.311   4.481   0.729 -1.6138  0.9594 -1.6992
 7492TIP3    H222441   5.364   4.364   0.649 -1.1729  0.3789 -0.5813
 7493TIP3   OH222442   6.016   2.276   3.983 -0.0939 -0.1420 -0.3389
 7493TIP3    H122443   6.106   2.296   4.009 -0.8305  1.3220  1.2752
 7493TIP3    H222444   5.980   2.359   3.953 -0.9557 -0.6773 -0.8321
 7494TIP3   OH222445   1.147   0.063   1.460 -0.1911 -0.2343  0.0956
 7494TIP3    H122446   1.169   0.076   1.368 -0.8802 -0.9096 -0.1810
 7494TIP3    H222447   1.209  -0.003   1.490 -2.7252 -3.4824 -1.1583
 7495TIP3   OH222448   6.912   5.318   3.157  0.0136  0.3998 -0.1505
 7495TIP3    H122449   6.881   5.392   3.105 -2.4217  0.3233  1.0443
 7495TIP3    H222450   6.952   5.358   3.234 -0.7439  0.5337  0.1920
 7496TIP3   OH222451   3.554   1.768   2.277  0.2984  0.5517  0.2544
 7496TIP3    H122452   3.533   1.856   2.245 -1.8540 -0.1279 -0.3732
 7496TIP3    H222453   3.614   1.733   2.211  1.2850  1.5692  0.5813
 7497TIP3   OH222454   0.492   4.292   4.504  0.0435 -0.1561 -0.6658
 7497TIP3    H122455   0.564   4.261   4.449  0.8474  0.2271  0.1321
 7497TIP3    H222456   0.416   4.294   4.446  0.9825  0.8296 -1.9117
 7498TIP3   OH222457   4.857   4.791   3.307 -0.2640 -0.0526  0.0244
 7498TIP3    H122458   4.937   4.805   3.358 -1.9850  1.3033  2.5991
 7498TIP3    H222459   4.825   4.706   3.336  0.2084 -0.5975 -1.0087
 7499TIP3   OH222460   1.462   0.637   0.250  0.0424 -0.0520 -0.9308
 7499TIP3    H122461   1.419   0.560   0.289  0.5532  1.2328  2.5532
 7499TIP3    H222462   1.548   0.606   0.223  0.3894 -0.6798  0.7869
 7500TIP3   OH222463   6.868   5.641   0.700  0.4984 -0.5430  0.0239
 7500TIP3    H122464   6.858   5.546   0.708  0.6814 -0.6175 -0.5843
 7500TIP3    H222465   6.944   5.653   0.644 -0.8337 -0.0892 -1.7816
 7501TIP3   OH222466   1.026   5.335   2.171 -0.2133  0.7434 -1.1612
 7501TIP3    H122467   1.078   5.414   2.163 -0.3797  1.0195  0.1949
 7501TIP3    H222468   1.064   5.274   2.108  1.5743  1.0415 -0.4238
 7502TIP3   OH222469   2.540   3.654   0.465 -0.2187  0.0961  0.3564
 7502TIP3    H122470   2.550   3.746   0.442 -0.2151 -0.5915 -2.8507
 7502TIP3    H222471   2.627   3.616   0.447 -1.0442 -1.0428 -1.5637
 7503TIP3   OH222472   5.539   5.938   3.591 -0.5274 -0.6426 -0.1912
 7503TIP3    H122473   5.498   5.911   3.672  2.6024 -0.2975  1.6831
 7503TIP3    H222474   5.611   5.876   3.578  1.3423  1.4483 -0.5580
 7504TIP3   OH222475   2.818   3.565   4.780 -0.1541  0.7241 -0.0951
 7504TIP3    H122476   2.814   3.616   4.699  2.2303  1.0592 -0.0683
 7504TIP3    H222477   2.882   3.612   4.834  0.1521 -0.8579  0.9672
 7505TIP3   OH222478   0.312   2.840   0.326 -0.1329 -0.5406  0.0444
 7505TIP3    H122479   0.382   2.775   0.336  0.1888 -0.2100 -0.0555
 7505TIP3    H222480   0.343   2.899   0.258  1.1571  1.7703  2.4853
 7506TIP3   OH222481   5.325   0.986   0.768 -0.6750  0.0504 -0.3065
 7506TIP3    H122482   5.322   1.075   0.802 -0.0216  0.5417 -1.4801
 7506TIP3    H222483   5.390   0.941   0.822  1.7499  1.3272 -1.9849
 7507TIP3   OH222484   5.067   4.439   4.006 -0.0269  0.0319  0.1524
 7507TIP3    H122485   5.007   4.375   4.043 -2.0200  2.2322  1.0232
 7507TIP3    H222486   5.129   4.388   3.954 -1.3141 -2.5601  1.0224
 7508TIP3   OH222487   6.703   6.216   4.123  0.1361  0.6331  0.3607
 7508TIP3    H122488   6.671   6.138   4.078  0.0472  0.5016  0.6514
 7508TIP3    H222489   6.796   6.200   4.135 -0.1844 -0.2421  2.0300
 7509TIP3   OH222490   1.467   0.906   1.765 -0.0159 -0.1094  0.2253
 7509TIP3    H122491   1.457   0.824   1.717 -0.5578  0.6044 -0.9280
 7509TIP3    H222492   1.562   0.921   1.767  0.0249 -0.1993 -0.5598
 7510TIP3   OH222493   4.524   4.695   3.811  0.5079  0.1338  0.4148
 7510TIP3    H122494   4.578   4.772   3.825 -0.1898  0.3044  2.6155
 7510TIP3    H222495   4.455   4.702   3.877  0.8027 -2.7016  1.1542
 7511TIP3   OH222496   3.940   4.372   3.706 -0.0984  0.0140 -0.2036
 7511TIP3    H122497   3.958   4.454   3.752  2.0460 -0.9258  0.7810
 7511TIP3    H222498   3.988   4.306   3.756  0.5782 -1.4068 -2.5817
 7512TIP3   OH222499   5.147   2.630   5.893  0.4654  0.1224 -0.9757
 7512TIP3    H122500   5.218   2.599   5.838  2.9178  1.4647  1.2063
 7512TIP3    H222501   5.117   2.711   5.851  2.0851  0.9548 -0.6221
 7513TIP3   OH222502   6.270   1.160   0.174  0.2585  0.3894  0.1920
 7513TIP3    H122503   6.224   1.145   0.092 -0.1084  0.5495  0.3663
 7513TIP3    H222504   6.303   1.249   0.168  0.1950  0.4161  0.2340
 7514TIP3   OH222505   5.443   6.026   1.185  0.2337  0.3055  0.0926
 7514TIP3    H122506   5.461   6.118   1.205  3.7842  0.5235 -2.8577
 7514TIP3    H222507   5.527   5.982   1.200 -1.4226 -2.6050  1.6538
 7515TIP3   OH222508   7.100   4.268   2.637 -0.1819  0.0528 -0.3514
 7515TIP3    H122509   7.059   4.288   2.553  0.9013 -1.3263 -1.2518
 7515TIP3    H222510   7.192   4.287   2.624  0.1001 -0.7886  0.3021
 7516TIP3   OH222511   0.424   3.786   2.719  0.5019  0.5708 -0.1119
 7516TIP3    H122512   0.447   3.879   2.713  1.1124  0.4087 -0.3304
 7516TIP3    H222513   0.346   3.777   2.664 -0.4148  1.2175  1.0182
 7517TIP3   OH222514   3.297   5.231   0.956  0.2956 -0.0845 -0.1429
 7517TIP3    H122515   3.273   5.254   1.046 -1.5934 -0.2857 -0.5408
 7517TIP3    H222516   3.329   5.141   0.962 -1.1476 -0.6020  0.1651
 7518TIP3   OH222517   7.071   5.596   5.428  0.0469  0.0623 -0.2326
 7518TIP3    H122518   7.083   5.625   5.337 -0.3491  0.1510 -0.2566
 7518TIP3    H222519   7.156   5.561   5.453 -0.2324 -1.2887 -1.1038
 7519TIP3   OH222520   6.324   4.132   1.829  0.2185  0.0988  0.2229
 7519TIP3    H122521   6.235   4.114   1.860  0.3881  0.6432  1.0423
 7519TIP3    H222522   6.321   4.222   1.797  0.4192  0.0354  0.0204
 7520TIP3   OH222523   5.354   5.835   2.632  0.2117 -0.2898 -0.4943
 7520TIP3    H122524   5.341   5.772   2.561 -2.1816  1.0959 -1.3803
 7520TIP3    H222525   5.305   5.799   2.705 -2.8550  1.2916 -1.5776
 7521TIP3   OH222526   5.800   0.167   4.884 -0.5559 -0.6033  0.0550
 7521TIP3    H122527   5.877   0.207   4.926 -1.1241 -1.4764  2.0663
 7521TIP3    H222528   5.810   0.073   4.900 -1.2072 -0.9011 -1.1510
 7522TIP3   OH222529   3.968   0.815   0.332  0.1659 -0.0103 -0.1648
 7522TIP3    H122530   3.920   0.733   0.336  1.0900 -0.5299  0.8920
 7522TIP3    H222531   3.996   0.822   0.241 -0.8434 -0.3071 -0.5100
 7523TIP3   OH222532   5.025   3.759   0.871 -0.2587  0.1318 -0.5062
 7523TIP3    H122533   5.043   3.687   0.932  1.0804  1.1780  0.3954
 7523TIP3    H222534   4.936   3.786   0.893 -0.8109 -1.2667 -0.9020
 7524TIP3   OH222535   4.622   2.893   3.142  0.1269  0.8322  0.2843
 7524TIP3    H122536   4.707   2.897   3.187 -0.2247 -1.4790  1.2791
 7524TIP3    H222537   4.558   2.886   3.212 -0.8979  2.1828 -0.4768
 7525TIP3   OH222538   2.913   3.280   3.601 -0.4521 -0.2332 -0.2842
 7525TIP3    H122539   2.877   3.273   3.690 -1.8918  2.3252 -0.5735
 7525TIP3    H222540   2.958   3.364   3.600  2.4996 -1.6860 -1.0851
 7526TIP3   OH222541   2.915   4.668   2.661 -0.3783  0.1719  0.2677
 7526TIP3    H122542   2.981   4.716   2.611 -1.3592  1.3525  0.0893
 7526TIP3    H222543   2.831   4.698   2.627 -1.0544 -1.7976  0.0266
 7527TIP3   OH222544   3.587   6.377   4.266 -0.7767  0.1636  0.2205
 7527TIP3    H122545   3.608   6.340   4.180  0.5416 -1.3083  1.1198
 7527TIP3    H222546   3.624   6.465   4.265 -0.6215  0.0952 -0.6557
 7528TIP3   OH222547   4.076   5.997   1.189 -0.1524 -0.8456  0.1423
 7528TIP3    H122548   3.983   6.019   1.179  0.1286 -0.3110 -1.5483
 7528TIP3    H222549   4.122   6.079   1.172  0.6478 -1.0361  1.2606
 7529TIP3   OH222550   7.095   3.129   5.277 -0.5696 -0.1080 -0.5342
 7529TIP3    H122551   7.151   3.200   5.245 -0.6659 -0.2222 -0.9733
 7529TIP3    H222552   7.128   3.051   5.233  0.2092 -0.5239  0.7528
 7530TIP3   OH222553   4.792   0.638   3.318 -0.8497  0.2579  0.2245
 7530TIP3    H122554   4.879   0.601   3.307 -1.5547 -0.9875 -1.7518
 7530TIP3    H222555   4.755   0.639   3.230 -2.6671  1.1821  0.9479
 7531TIP3   OH222556   5.417   2.665   1.110  0.5983  0.2846 -0.2067
 7531TIP3    H122557   5.351   2.668   1.040 -1.1730 -2.6042  1.1055
 7531TIP3    H222558   5.499   2.690   1.067 -0.4911 -0.7573 -3.2145
 7532TIP3   OH222559   1.730   5.884   2.867  0.2304  0.2226  0.1850
 7532TIP3    H122560   1.824   5.874   2.878  0.0576 -0.5228  0.9785
 7532TIP3    H222561   1.721   5.922   2.779  1.2018 -0.8091 -0.3790
 7533TIP3   OH222562   1.240   6.465   1.856  0.0196 -0.0161  0.0288
 7533TIP3    H122563   1.284   6.529   1.912  1.3646 -1.0479  0.2111
 7533TIP3    H222564   1.223   6.512   1.775 -0.8707  1.1503  0.8535
 7534TIP3   OH222565   4.268   6.375   3.118 -0.6712 -0.4198  0.3410
 7534TIP3    H122566   4.260   6.424   3.036 -3.2756  0.0950  0.8268
 7534TIP3    H222567   4.346   6.412   3.160 -0.8720  1.2641 -0.6692
 7535TIP3   OH222568   3.875   0.580   1.799  0.1467  0.1422  0.5405
 7535TIP3    H122569   3.955   0.530   1.811 -1.4213 -2.4421  0.9668
 7535TIP3    H222570   3.875   0.603   1.706  0.0660 -2.3468 -0.1424
 7536TIP3   OH222571   1.659   1.797   4.357  0.4829 -0.1920 -0.6565
 7536TIP3    H122572   1.722   1.727   4.372 -1.2368 -1.5750  0.5810
 7536TIP3    H222573   1.624   1.817   4.444 -3.7909 -2.5443 -1.5184
 7537TIP3   OH222574   5.476   4.208   4.051 -0.4804 -0.0464  0.2976
 7537TIP3    H122575   5.448   4.287   4.004 -0.2269  0.3734  0.8545
 7537TIP3    H222576   5.493   4.237   4.140 -3.4514 -1.2762  1.4078
 7538TIP3   OH222577   3.229   1.026   2.854  0.2121 -0.1857  0.3195
 7538TIP3    H122578   3.173   1.080   2.910  0.8519  1.0941 -0.2298
 7538TIP3    H222579   3.168   0.987   2.791  0.0484  3.1027 -1.8212
 7539TIP3   OH222580   4.534   2.550   2.481  0.1578 -0.0250  0.2201
 7539TIP3    H122581   4.444   2.564   2.451  0.8165 -0.6268 -2.3560
 7539TIP3    H222582   4.557   2.629   2.528 -1.4171  0.5343  0.1107
 7540TIP3   OH222583   3.308   3.939   3.960  0.0148 -0.0460 -0.6213
 7540TIP3    H122584   3.286   3.884   3.884  1.4438  0.8940 -1.7606
 7540TIP3    H222585   3.398   3.968   3.944 -0.4452  2.0587  0.2698
 7541TIP3   OH222586   2.023   2.519   4.660  0.4462 -0.3721 -0.0830
 7541TIP3    H122587   2.023   2.582   4.589  0.6691 -0.4657 -0.1657
 7541TIP3    H222588   1.992   2.438   4.620  0.5843 -0.4284 -0.0757
 7542TIP3   OH222589   6.798   2.262   1.912 -0.0716 -0.2055 -0.3696
 7542TIP3    H122590   6.775   2.282   1.821  0.6835 -0.7111 -0.6860
 7542TIP3    H222591   6.871   2.320   1.932 -0.0743 -0.2722 -0.1630
 7543TIP3   OH222592   6.178   2.771   0.710  0.0770 -0.0701  0.3888
 7543TIP3    H122593   6.257   2.757   0.762  0.6289 -1.5139 -0.7635
 7543TIP3    H222594   6.196   2.728   0.626 -1.5457  0.4473 -0.2747
 7544TIP3   OH222595   1.906   2.830   1.865 -0.4483 -0.1883 -0.2914
 7544TIP3    H122596   1.922   2.925   1.863  0.1875 -0.2486 -3.3745
 7544TIP3    H222597   1.961   2.795   1.795 -0.5209 -2.9073  0.8762
 7545TIP3   OH222598   0.997   2.561   2.986  0.3119 -0.1582 -0.0887
 7545TIP3    H122599   1.057   2.596   2.919 -0.4660  0.0602 -0.6953
 7545TIP3    H222600   0.914   2.606   2.969  0.0709 -0.1833  0.9699
 7546TIP3   OH222601   3.993   2.909   3.397 -0.2883  0.2232  0.4670
 7546TIP3    H122602   4.026   2.839   3.340  1.1302  2.7907 -2.1377
 7546TIP3    H222603   4.071   2.952   3.431 -1.0965  1.0531  1.3240
 7547TIP3   OH222604   4.648   2.695   2.958 -0.0088  0.2647 -0.0942
 7547TIP3    H122605   4.644   2.771   3.016  0.1561  0.4652 -0.3405
 7547TIP3    H222606   4.714   2.719   2.893 -2.0691  1.1755 -1.9750
 7548TIP3   OH222607   6.489   2.831   0.439 -0.4556  0.3797 -0.0720
 7548TIP3    H122608   6.510   2.822   0.532  1.4158  2.2549 -0.2524
 7548TIP3    H222609   6.522   2.750   0.399  1.4812  0.8319  0.5005
 7549TIP3   OH222610   1.464   6.510   4.874  0.3052  0.0087 -0.1211
 7549TIP3    H122611   1.377   6.545   4.857  0.1402 -0.4616 -0.2435
 7549TIP3    H222612   1.486   6.544   4.961  0.5051  1.1149 -0.5824
 7550TIP3   OH222613   6.932   2.923   1.914 -0.1491  0.1574 -0.0380
 7550TIP3    H122614   6.928   2.828   1.904 -2.2332  0.3341 -1.6063
 7550TIP3    H222615   6.863   2.943   1.977 -0.8248  0.7338 -0.9350
 7551TIP3   OH222616   0.094   2.020   3.131  0.0788 -0.1682  0.3525
 7551TIP3    H122617   0.065   1.974   3.052 -0.2790 -0.8004  0.8399
 7551TIP3    H222618   0.094   1.952   3.199 -1.3772  0.7337  1.3069
 7552TIP3   OH222619   3.925   1.505   3.576 -0.0917  0.5838 -0.2821
 7552TIP3    H122620   3.891   1.439   3.516  0.3919 -1.0665  1.1662
 7552TIP3    H222621   4.020   1.494   3.573 -0.0188  1.0031  0.1980
 7553TIP3   OH222622   4.370   4.982   5.183  0.5260 -0.1527 -0.3151
 7553TIP3    H122623   4.442   5.019   5.234  1.1258 -0.5228 -0.8699
 7553TIP3    H222624   4.330   4.918   5.242 -0.9676  1.7998  0.9081
 7554TIP3   OH222625   4.129   0.539   3.763  0.1633 -0.1812 -0.2436
 7554TIP3    H122626   4.075   0.527   3.841 -1.3130  0.0977 -1.1907
 7554TIP3    H222627   4.067   0.547   3.691  1.5112 -1.7131 -1.6588
 7555TIP3   OH222628   1.403   1.211   0.935 -0.0443  0.3372 -0.5125
 7555TIP3    H122629   1.317   1.219   0.975 -0.5286 -0.4517 -1.3484
 7555TIP3    H222630   1.422   1.117   0.937  1.4772  0.6182  1.0045
 7556TIP3   OH222631   5.277   3.637   1.960 -0.7883  0.1887  0.6859
 7556TIP3    H122632   5.218   3.700   1.919  0.7190  0.1309 -1.7519
 7556TIP3    H222633   5.219   3.580   2.012 -2.9632 -0.1014 -1.8417
 7557TIP3   OH222634   2.576   4.618   4.879 -0.1413 -0.1022 -0.2132
 7557TIP3    H122635   2.537   4.657   4.801  2.0124  0.7241 -0.9560
 7557TIP3    H222636   2.512   4.635   4.949 -0.9251  1.5078 -1.2610
 7558TIP3   OH222637   5.939   5.170   3.580 -0.6564  0.6670  0.0781
 7558TIP3    H122638   5.936   5.112   3.656  1.1891  2.1907  1.4027
 7558TIP3    H222639   5.849   5.197   3.566 -1.6338 -2.4858 -0.6693
 7559TIP3   OH222640   7.147   2.520   1.706  0.4148 -0.0886  0.0267
 7559TIP3    H122641   7.167   2.439   1.752  2.0789 -0.1975 -0.8061
 7559TIP3    H222642   7.125   2.492   1.617  1.5869  0.3813 -0.4326
 7560TIP3   OH222643   5.217   0.700   0.796  0.2143 -0.4757  0.0323
 7560TIP3    H122644   5.133   0.744   0.809  0.4879  0.0181  0.1538
 7560TIP3    H222645   5.282   0.768   0.812  0.7078 -1.3035  1.7792
 7561TIP3   OH222646   5.956   4.966   2.358  0.2562 -0.4001 -0.1227
 7561TIP3    H122647   5.891   4.942   2.424  0.1413  1.3096  0.4369
 7561TIP3    H222648   6.037   4.979   2.407  0.3686  0.0949 -0.4293
 7562TIP3   OH222649   5.410   1.147   4.385 -0.3480  0.4865 -0.2277
 7562TIP3    H122650   5.380   1.216   4.445  3.0388 -0.1208  2.4826
 7562TIP3    H222651   5.371   1.067   4.419 -0.3267  0.4379 -0.3169
 7563TIP3   OH222652   6.491   3.315   1.040 -0.3492  0.2591 -0.2655
 7563TIP3    H122653   6.534   3.396   1.013 -0.0118 -0.2094 -1.2063
 7563TIP3    H222654   6.434   3.292   0.966 -1.6890  0.4787  0.6584
 7564TIP3   OH222655   5.478   0.794   1.655  0.3784 -0.0317 -0.1804
 7564TIP3    H122656   5.492   0.883   1.687 -0.4055 -0.3750  1.1759
 7564TIP3    H222657   5.386   0.791   1.629  0.4246 -0.4105 -0.3093
 7565TIP3   OH222658   7.120   1.380   2.224 -0.4557  0.4280  0.3070
 7565TIP3    H122659   7.027   1.366   2.242 -0.2851 -1.6496 -0.1508
 7565TIP3    H222660   7.140   1.317   2.154  1.2368  1.0230  0.2189
 7566TIP3   OH222661   4.302   3.806   5.303 -0.1136 -0.2486  0.2834
 7566TIP3    H122662   4.303   3.783   5.211  1.1572  1.9665 -0.3523
 7566TIP3    H222663   4.286   3.724   5.349 -2.4915 -1.1391 -1.9359
 7567TIP3   OH222664   0.739   6.587   4.454  0.4277 -0.6085  0.1857
 7567TIP3    H122665   0.644   6.578   4.457  0.5833 -2.4537  1.4658
 7567TIP3    H222666   0.772   6.504   4.490  2.4840  0.9510  2.1877
 7568TIP3   OH222667   6.292   4.132   0.040 -0.4178 -0.1121  0.4268
 7568TIP3    H122668   6.249   4.050   0.062 -1.3133  0.3425  0.4004
 7568TIP3    H222669   6.230   4.200   0.065  0.6357  0.6041  1.2256
 7569TIP3   OH222670   4.063   4.953   5.665  0.3337  0.4878 -0.1614
 7569TIP3    H122671   4.035   5.043   5.647  3.1303  1.5717  0.3812
 7569TIP3    H222672   4.120   4.931   5.591 -0.4907 -0.9800 -0.3984
 7570TIP3   OH222673   0.920   5.126   5.484  0.2435  0.3480 -0.2907
 7570TIP3    H122674   0.976   5.082   5.420  0.9223  0.2892  0.3267
 7570TIP3    H222675   0.928   5.219   5.463 -0.4015  0.2558 -0.9709
 7571TIP3   OH222676   1.927   3.879   1.059  0.1849 -0.1423 -0.6486
 7571TIP3    H122677   1.995   3.824   1.021 -1.0308 -1.9535 -0.3187
 7571TIP3    H222678   1.953   3.889   1.151  0.0983 -0.6840 -0.5642
 7572TIP3   OH222679   6.935   4.991   4.197 -0.3686 -0.0571 -0.1290
 7572TIP3    H122680   7.010   4.984   4.256 -0.3765  0.1867 -0.0882
 7572TIP3    H222681   6.886   4.910   4.211  0.2673 -0.5486 -0.6888
 7573TIP3   OH222682   0.059   3.348   2.421 -0.1319  0.3630 -0.4701
 7573TIP3    H122683   0.028   3.257   2.422  0.6879  0.0821 -0.1083
 7573TIP3    H222684   0.136   3.348   2.478  1.7547  0.6189 -2.8861
 7574TIP3   OH222685   2.752   4.178   5.712 -0.9894  0.6684 -0.0474
 7574TIP3    H122686   2.688   4.113   5.740 -0.2287 -1.1581 -2.2686
 7574TIP3    H222687   2.764   4.161   5.619  0.5449  2.9033 -0.3317
 7575TIP3   OH222688   0.110   1.931   2.569  0.0747  0.1764 -0.2794
 7575TIP3    H122689   0.110   2.007   2.511 -0.8289 -0.5906 -1.3319
 7575TIP3    H222690   0.202   1.913   2.585  0.3071  1.5795  0.1344
 7576TIP3   OH222691   3.649   4.958   4.810 -0.2140 -0.4625  0.0064
 7576TIP3    H122692   3.642   5.037   4.755 -0.4441 -0.0129  0.6693
 7576TIP3    H222693   3.725   4.912   4.775 -0.2324 -0.0812 -0.5594
 7577TIP3   OH222694   5.560   2.202   2.843  0.0818 -0.4342 -0.1210
 7577TIP3    H122695   5.494   2.227   2.908 -0.5524 -0.5847 -0.6907
 7577TIP3    H222696   5.603   2.284   2.820  0.1090 -0.3357  0.2714
 7578TIP3   OH222697   2.939   3.998   2.357 -0.2021  0.0438 -0.6286
 7578TIP3    H122698   3.030   4.021   2.339 -0.1386  0.2816 -0.0312
 7578TIP3    H222699   2.925   4.025   2.448 -1.0108  0.4614 -0.8631
 7579TIP3   OH222700   4.504   5.924   0.935  0.1540  0.9115  0.0339
 7579TIP3    H122701   4.526   5.831   0.924 -0.2013  0.6517  1.3049
 7579TIP3    H222702   4.567   5.971   0.880  0.0970 -0.0980 -0.9248
 7580TIP3   OH222703   1.677   2.385   0.384 -0.4833 -0.0724  0.0206
 7580TIP3    H122704   1.596   2.334   0.391 -1.3402  1.1618 -0.5466
 7580TIP3    H222705   1.742   2.333   0.432 -1.1953 -1.8891 -0.8829
 7581TIP3   OH222706   0.991   4.473   0.862 -0.2329  0.0912  0.4342
 7581TIP3    H122707   0.897   4.473   0.844  0.0544 -0.2110 -1.2288
 7581TIP3    H222708   1.015   4.380   0.864 -0.5147 -0.0870  4.4260
 7582TIP3   OH222709   2.201   4.045   5.172 -0.1944  0.2263  0.1225
 7582TIP3    H122710   2.251   4.123   5.147 -0.9779  0.6074 -0.2777
 7582TIP3    H222711   2.265   3.990   5.218  1.7546 -1.0895 -3.7082
 7583TIP3   OH222712   5.002   4.814   5.445  0.1989 -0.3492  0.5087
 7583TIP3    H122713   4.969   4.780   5.528 -0.9927 -0.1824  0.1235
 7583TIP3    H222714   5.000   4.740   5.385 -1.4507  0.1047 -0.0591
 7584TIP3   OH222715   0.255   4.624   3.561 -0.3277 -0.1518  0.6151
 7584TIP3    H122716   0.329   4.683   3.574 -0.2657 -0.4253  1.6855
 7584TIP3    H222717   0.198   4.640   3.637 -1.1990 -0.1789 -0.0253
 7585TIP3   OH222718   4.779   4.299   5.233  0.1863  0.4389  0.4215
 7585TIP3    H122719   4.780   4.357   5.157 -2.8083 -0.3239 -0.3442
 7585TIP3    H222720   4.839   4.339   5.296  0.7445  2.5094 -1.3376
 7586TIP3   OH222721   1.442   4.289   4.975  0.4097  0.1051  0.3886
 7586TIP3    H122722   1.487   4.212   4.940  0.5688 -0.6116  2.0734
 7586TIP3    H222723   1.355   4.286   4.934  1.0667  0.1762 -1.0807
 7587TIP3   OH222724   0.348   0.709   2.876  0.2725 -0.2085  0.5747
 7587TIP3    H122725   0.439   0.686   2.858  0.5333  0.4056  1.0728
 7587TIP3    H222726   0.351   0.754   2.960 -0.3972  0.4231  0.2716
 7588TIP3   OH222727   3.727   4.216   2.948 -0.0753  0.6892  0.3587
 7588TIP3    H122728   3.796   4.220   2.882 -3.1157 -0.6319 -3.2552
 7588TIP3    H222729   3.738   4.295   3.001  3.4299  1.0551 -0.7194
 7589TIP3   OH222730   2.164   2.037   4.148  0.0481  0.1129 -0.3462
 7589TIP3    H122731   2.144   1.960   4.202  1.0307 -0.6776 -1.0655
 7589TIP3    H222732   2.080   2.082   4.138 -0.1527  0.3141  1.8523
 7590TIP3   OH222733   4.830   0.578   0.723 -0.5401  0.1226  0.2850
 7590TIP3    H122734   4.836   0.584   0.628  0.3990  0.3444  0.3527
 7590TIP3    H222735   4.783   0.495   0.738  0.1082 -0.3754 -0.3517
 7591TIP3   OH222736   3.856   6.427   3.601  0.3695 -0.1667  0.4936
 7591TIP3    H122737   3.937   6.390   3.567 -0.7517 -0.2976 -2.3106
 7591TIP3    H222738   3.832   6.370   3.675  2.7559 -0.0971  1.3993
 7592TIP3   OH222739   3.058   5.326   5.247 -0.2498 -0.3798  0.2171
 7592TIP3    H122740   3.121   5.254   5.237  1.0613  0.7322  0.1968
 7592TIP3    H222741   3.035   5.326   5.339 -0.3979 -0.9380  0.1812
 7593TIP3   OH222742   1.510   1.597   4.642 -0.0816 -0.7684 -0.1969
 7593TIP3    H122743   1.433   1.572   4.693  0.5351 -3.0308 -0.2796
 7593TIP3    H222744   1.584   1.581   4.700  0.3811  1.5654 -0.0493
 7594TIP3   OH222745   1.776   0.504   3.106  0.2588  0.2113  0.2267
 7594TIP3    H122746   1.683   0.485   3.091  1.0547 -2.7340 -1.7653
 7594TIP3    H222747   1.776   0.591   3.147 -3.4020 -0.1279  1.3528
 7595TIP3   OH222748   3.116   2.594   5.621 -0.2329  0.4957  0.4957
 7595TIP3    H122749   3.192   2.651   5.606  0.2991  0.5585  2.9020
 7595TIP3    H222750   3.044   2.636   5.573  0.7769  1.6260 -0.0837
 7596TIP3   OH222751   2.603   6.218   0.729 -0.1504  0.1132  0.3764
 7596TIP3    H122752   2.693   6.244   0.745  0.0480 -0.5050  0.2828
 7596TIP3    H222753   2.607   6.123   0.716 -0.5950  0.2804 -1.1732
 7597TIP3   OH222754   0.818   1.383   2.433 -0.4299  0.0804 -0.4585
 7597TIP3    H122755   0.802   1.292   2.457 -0.9911 -0.0176 -1.1557
 7597TIP3    H222756   0.909   1.399   2.456 -1.0231  0.1446  2.1217
 7598TIP3   OH222757   0.807   2.734   5.051  0.2375 -0.4533  0.2397
 7598TIP3    H122758   0.748   2.803   5.021  0.9462  0.0153 -0.0925
 7598TIP3    H222759   0.866   2.777   5.113 -0.6118 -1.2141  1.6081
 7599TIP3   OH222760   1.507   1.825   5.543  0.4888  0.1344 -0.9053
 7599TIP3    H122761   1.496   1.830   5.449  1.7707  1.4047 -1.0246
 7599TIP3    H222762   1.579   1.762   5.556 -0.3502 -0.8055 -0.6983
 7600TIP3   OH222763   3.992   5.714   0.684  0.0227  0.5246 -0.5310
 7600TIP3    H122764   3.994   5.805   0.712 -1.3158  0.8355 -1.3731
 7600TIP3    H222765   4.040   5.667   0.753 -0.9031  1.6130  0.9084
 7601TIP3   OH222766   3.606   0.764   0.484  0.0096 -0.4171  0.1000
 7601TIP3    H122767   3.516   0.794   0.471  0.3444  0.7369  0.3844
 7601TIP3    H222768   3.607   0.677   0.444 -1.6604 -1.1644  1.5609
 7602TIP3   OH222769   2.528   2.556   3.037  0.4106 -0.3982  0.3839
 7602TIP3    H122770   2.536   2.539   2.944 -1.0246 -0.3585  0.2386
 7602TIP3    H222771   2.435   2.546   3.056  0.6938 -0.5076  1.8344
 7603TIP3   OH222772   5.666   1.540   1.275 -0.2726  0.2388 -0.0533
 7603TIP3    H122773   5.759   1.555   1.294 -0.4225  0.7876  0.2543
 7603TIP3    H222774   5.620   1.611   1.320 -0.7872  0.4193 -0.8462
 7604TIP3   OH222775   6.498   1.517   2.539 -0.5183 -0.5697 -0.2202
 7604TIP3    H122776   6.566   1.463   2.579 -0.3027 -1.3371 -1.5444
 7604TIP3    H222777   6.444   1.547   2.612  0.5286 -0.9494  0.7286
 7605TIP3   OH222778   2.878   1.022   3.885  0.2043  0.0565 -0.1610
 7605TIP3    H122779   2.868   0.930   3.861  0.2967  0.3474 -1.3835
 7605TIP3    H222780   2.970   1.040   3.872  0.8249 -0.3643  2.7920
 7606TIP3   OH222781   1.317   4.019   4.467  1.1531 -0.1245 -0.4166
 7606TIP3    H122782   1.394   4.076   4.475  1.7239 -0.8924 -0.2714
 7606TIP3    H222783   1.311   4.000   4.373  1.4248 -0.4379 -0.3724
 7607TIP3   OH222784   6.644   0.047   1.906  0.2890 -0.1505 -0.3898
 7607TIP3    H122785   6.645   0.022   1.813  0.2270  0.4897 -0.5678
 7607TIP3    H222786   6.653   0.142   1.905 -3.1436  0.3046  0.0647
 7608TIP3   OH222787   6.536   1.797   4.491 -0.3257  0.4050 -0.0757
 7608TIP3    H122788   6.583   1.713   4.497  1.1723  1.1491 -0.8435
 7608TIP3    H222789   6.444   1.773   4.505  0.1792 -1.2006  0.8365
 7609TIP3   OH222790   3.232   3.833   2.814 -0.1977  0.6385 -0.2430
 7609TIP3    H122791   3.241   3.926   2.790  1.9689  0.3708 -0.6191
 7609TIP3    H222792   3.321   3.805   2.836 -0.9055 -1.2196  0.4260
 7610TIP3   OH222793   0.500   1.638   3.275  0.3935  0.0846 -0.4771
 7610TIP3    H122794   0.585   1.642   3.231 -0.2581  0.9617 -1.7151
 7610TIP3    H222795   0.482   1.544   3.282  1.4699 -0.1174 -0.1480
 7611TIP3   OH222796   4.581   2.132   5.491 -0.2104 -0.0824  0.2890
 7611TIP3    H122797   4.616   2.220   5.504 -0.2663 -0.1501  0.9551
 7611TIP3    H222798   4.630   2.097   5.417 -0.2960  0.5635 -0.0819
 7612TIP3   OH222799   5.380   0.222   3.273  0.7035  0.3759  0.2531
 7612TIP3    H122800   5.285   0.213   3.260  0.2679  0.4720  2.8876
 7612TIP3    H222801   5.415   0.135   3.252 -0.0088  0.1949 -0.2358
 7613TIP3   OH222802   1.418   6.322   2.584  0.1594  0.2064 -0.1839
 7613TIP3    H122803   1.338   6.281   2.616  1.1293 -1.8590 -0.2229
 7613TIP3    H222804   1.452   6.372   2.658 -1.1929  1.2250 -0.2131
 7614TIP3   OH222805   6.583   3.678   0.508 -0.5236 -0.5350 -0.4524
 7614TIP3    H122806   6.531   3.612   0.554 -1.0283 -0.2451 -0.6113
 7614TIP3    H222807   6.638   3.627   0.448 -0.0862 -0.8924  0.2351
 7615TIP3   OH222808   5.084   3.663   4.992 -0.3496 -0.9168 -0.2183
 7615TIP3    H122809   5.179   3.668   4.985 -0.4410 -0.7786 -1.8035
 7615TIP3    H222810   5.060   3.736   5.049  0.3118  0.8166 -2.0354
 7616TIP3   OH222811   2.032   4.837   4.981 -1.1805  0.8478  0.5318
 7616TIP3    H122812   2.070   4.923   4.968  1.6251 -0.2246  1.0363
 7616TIP3    H222813   2.021   4.830   5.076  1.6811 -0.4786  0.8437
 7617TIP3   OH222814   5.308   2.399   1.261 -0.3021 -0.5066  0.1809
 7617TIP3    H122815   5.221   2.417   1.297 -0.6017  0.1178 -0.8114
 7617TIP3    H222816   5.343   2.485   1.238 -0.3404 -0.8976 -1.4682
 7618TIP3   OH222817   3.195   4.396   2.479  0.3693  0.4899  0.4380
 7618TIP3    H122818   3.212   4.340   2.403  1.0135 -2.3884  2.5466
 7618TIP3    H222819   3.281   4.429   2.504  0.1746  1.3296  0.0476
 7619TIP3   OH222820   3.638   2.892   2.324  0.2709  0.5584 -0.1937
 7619TIP3    H122821   3.558   2.928   2.360 -0.2097  0.5594 -1.2176
 7619TIP3    H222822   3.609   2.822   2.266  1.1887 -1.5305  1.7533
 7620TIP3   OH222823   2.495   4.462   1.412 -0.0688  0.2976  0.1058
 7620TIP3    H122824   2.404   4.443   1.437 -0.1240  0.8985  0.3756
 7620TIP3    H222825   2.491   4.547   1.368  0.1860 -0.2546 -1.0246
 7621TIP3   OH222826   6.130   5.624   3.906  0.3286  0.1537 -0.4849
 7621TIP3    H122827   6.091   5.712   3.899 -0.9455 -0.2644  0.9635
 7621TIP3    H222828   6.212   5.631   3.858 -0.1553  1.9012 -1.1386
 7622TIP3   OH222829   0.485   5.634   1.911 -0.1099 -0.3253 -0.0814
 7622TIP3    H122830   0.394   5.640   1.939  0.1996 -3.0615  1.9551
 7622TIP3    H222831   0.536   5.652   1.990  1.0879 -0.1825 -0.8584
 7623TIP3   OH222832   4.669   4.204   3.459 -0.0544 -0.1846  0.3514
 7623TIP3    H122833   4.619   4.283   3.478 -1.4492 -0.9067 -0.1544
 7623TIP3    H222834   4.712   4.182   3.542  2.5083  2.4982 -0.1323
 7624TIP3   OH222835   0.946   4.386   3.474 -0.0352  0.2645  0.4106
 7624TIP3    H122836   0.919   4.478   3.482 -0.6242  0.1500 -0.2054
 7624TIP3    H222837   0.927   4.349   3.560  1.4366  1.0150  1.1110
 7625TIP3   OH222838   4.000   5.656   2.301  0.6341 -0.0100 -0.0182
 7625TIP3    H122839   4.083   5.700   2.321  0.9749  0.8332 -2.8243
 7625TIP3    H222840   3.936   5.701   2.356  1.2782  2.8761 -1.4302
 7626TIP3   OH222841   3.057   4.924   5.259 -0.4761  0.2979 -0.3175
 7626TIP3    H122842   3.023   4.921   5.170  0.4326 -0.1723 -0.6526
 7626TIP3    H222843   3.133   4.982   5.255 -0.1622 -0.0795  0.0555
 7627TIP3   OH222844   5.974   2.816   0.903 -0.3875 -0.5873 -0.1900
 7627TIP3    H122845   6.015   2.829   0.988 -0.9296 -0.3602  0.0407
 7627TIP3    H222846   6.037   2.763   0.854  0.3593  0.1031  0.0088
 7628TIP3   OH222847   3.021   0.884   5.694 -0.0048  0.5132  0.0186
 7628TIP3    H122848   3.012   0.911   5.602 -0.7249 -1.7160 -0.6408
 7628TIP3    H222849   2.931   0.884   5.727 -0.3582 -2.6838 -0.6036
 7629TIP3   OH222850   4.443   4.872   1.641 -0.0101  0.2346  0.0294
 7629TIP3    H122851   4.511   4.859   1.575  0.1919 -2.9546  0.7134
 7629TIP3    H222852   4.488   4.912   1.715 -0.1573  3.4515 -1.4060
 7630TIP3   OH222853   6.209   0.719   2.179 -0.1846  0.4625  0.4469
 7630TIP3    H122854   6.195   0.743   2.270 -0.1618 -1.0455  0.8707
 7630TIP3    H222855   6.300   0.743   2.161  0.3815 -0.8748  1.3850
 7631TIP3   OH222856   2.112   5.746   2.099 -0.0893  0.3542  0.4077
 7631TIP3    H122857   2.139   5.654   2.092  2.8894  1.1406  0.3752
 7631TIP3    H222858   2.057   5.761   2.022  1.8441 -0.6741 -1.2812
 7632TIP3   OH222859   6.353   1.682   4.022 -0.2028  0.2476 -0.4836
 7632TIP3    H122860   6.375   1.618   3.955 -1.6828 -0.9285  0.1084
 7632TIP3    H222861   6.335   1.763   3.973 -0.4480 -0.3732 -1.4313
 7633TIP3   OH222862   3.132   2.473   3.835 -0.0602 -0.4888 -0.0652
 7633TIP3    H122863   3.200   2.518   3.786  0.8206  0.1714  1.6840
 7633TIP3    H222864   3.061   2.536   3.841  0.3095 -0.1221  0.5247
 7634TIP3   OH222865   1.028   2.454   4.083 -0.3081 -0.3246  0.2679
 7634TIP3    H122866   1.096   2.464   4.016  0.5595  1.1142  1.2746
 7634TIP3    H222867   0.990   2.368   4.067  0.3787 -0.3267 -1.5879
 7635TIP3   OH222868   7.045   6.083   4.724  0.1625 -0.0437  0.2858
 7635TIP3    H122869   7.094   6.010   4.686  2.3711  1.0662  0.8551
 7635TIP3    H222870   7.111   6.150   4.742 -1.6737  1.8103  0.5153
 7636TIP3   OH222871   5.076   5.090   5.417 -0.8947  0.0732  0.5495
 7636TIP3    H122872   5.042   5.001   5.407  1.3798 -1.0550  2.0530
 7636TIP3    H222873   5.137   5.100   5.344 -0.6282  0.1476  0.7847
 7637TIP3   OH222874   6.531   2.880   5.792  0.6701  0.0420 -0.1435
 7637TIP3    H122875   6.439   2.860   5.804  1.1086 -1.1812  1.5209
 7637TIP3    H222876   6.550   2.854   5.702  0.1146 -2.8838  0.4961
 7638TIP3   OH222877   0.052   6.130   3.583 -0.8092  0.6302  0.8525
 7638TIP3    H122878   0.029   6.166   3.498  0.4248  0.4037  0.4014
 7638TIP3    H222879  -0.032   6.114   3.626 -1.4239  1.9971  0.2183
 7639TIP3   OH222880   6.133   5.556   5.253  0.5080 -0.1282  0.0413
 7639TIP3    H122881   6.066   5.534   5.189 -0.3969  0.6689  0.6897
 7639TIP3    H222882   6.129   5.651   5.260  0.7120 -0.1845  1.1439
 7640TIP3   OH222883   1.584   5.942   4.770 -0.0270  0.7431  0.0512
 7640TIP3    H122884   1.578   6.037   4.787 -0.5848  0.6644  0.3412
 7640TIP3    H222885   1.675   5.920   4.790 -0.2664  0.9458  1.5550
 7641TIP3   OH222886   0.946   5.837   3.871 -0.1671 -0.1113  0.1120
 7641TIP3    H122887   0.876   5.867   3.813 -0.4347 -0.8007  0.0700
 7641TIP3    H222888   0.905   5.768   3.924  1.1900 -2.5635 -1.8447
 7642TIP3   OH222889   1.400   3.614   1.663  0.2494 -0.9631  0.5047
 7642TIP3    H122890   1.325   3.643   1.714 -0.1899 -0.6913 -0.2859
 7642TIP3    H222891   1.409   3.679   1.593  1.0827 -1.1146  0.4577
 7643TIP3   OH222892   6.374   0.293   1.428 -0.2579  0.6910 -0.3109
 7643TIP3    H122893   6.418   0.336   1.502  0.1292  0.3391 -0.3332
 7643TIP3    H222894   6.396   0.348   1.353  1.1811 -0.1260 -0.5378
 7644TIP3   OH222895   3.714   5.227   2.498 -0.2995 -0.1190  0.1270
 7644TIP3    H122896   3.638   5.222   2.555 -0.4915  0.2816 -0.0851
 7644TIP3    H222897   3.755   5.311   2.520 -2.4888  1.9627 -2.8784
 7645TIP3   OH222898   4.921   5.585   1.971 -0.2879 -0.0966  0.1959
 7645TIP3    H122899   5.011   5.577   2.001 -0.2819 -0.0626  0.1870
 7645TIP3    H222900   4.889   5.495   1.964 -0.3974 -0.0932  0.6321
 7646TIP3   OH222901   4.178   6.277   1.262  0.7664  0.0628  0.0195
 7646TIP3    H122902   4.131   6.346   1.310  0.5960  0.7835 -1.1470
 7646TIP3    H222903   4.221   6.226   1.331 -0.0823  0.6003  0.9903
 7647TIP3   OH222904   1.633   3.982   4.970  0.3040  0.3647  0.2693
 7647TIP3    H122905   1.558   3.935   5.006 -0.3123  1.6803  0.7485
 7647TIP3    H222906   1.660   4.042   5.040  2.0443 -0.3113  0.2498
 7648TIP3   OH222907   5.563   1.170   3.681 -0.5870 -0.5461  0.6312
 7648TIP3    H122908   5.515   1.136   3.606 -2.6196  3.0982  0.0430
 7648TIP3    H222909   5.496   1.207   3.738  1.1607  0.0170  2.4455
 7649TIP3   OH222910   0.343   1.363   2.896  0.1073  0.0265 -0.2807
 7649TIP3    H122911   0.305   1.281   2.865  2.3075 -0.5881 -1.6131
 7649TIP3    H222912   0.372   1.344   2.985 -1.0991 -0.0154  0.1200
 7650TIP3   OH222913   1.624   6.719   3.377 -0.1545 -0.2727 -0.6721
 7650TIP3    H122914   1.584   6.756   3.456 -0.0339  0.1799 -0.8184
 7650TIP3    H222915   1.713   6.695   3.404 -0.0854 -0.0422 -0.6859
 7651TIP3   OH222916   1.383   6.235   3.822 -0.1277  0.6497 -0.2525
 7651TIP3    H122917   1.301   6.186   3.831 -1.4031  2.3917 -1.5340
 7651TIP3    H222918   1.432   6.188   3.755 -0.0469 -0.4173  0.5313
 7652TIP3   OH222919   6.832   3.100   5.131 -0.1069 -0.0484 -0.6592
 7652TIP3    H122920   6.920   3.138   5.138  0.1037 -0.3850 -1.3929
 7652TIP3    H222921   6.774   3.167   5.166  0.1633  1.2812 -2.6320
 7653TIP3   OH222922   0.157   5.669   4.551 -0.1052 -0.2090  0.5085
 7653TIP3    H122923   0.198   5.586   4.575  1.0273  0.4842  1.0915
 7653TIP3    H222924   0.066   5.661   4.580  0.1621 -0.9998  1.1726
 7654TIP3   OH222925   3.506   5.235   1.197 -0.4478  0.7664  0.2112
 7654TIP3    H122926   3.560   5.255   1.121  0.3992  0.3229  0.6886
 7654TIP3    H222927   3.548   5.281   1.269 -1.4524  1.4774  0.3663
 7655TIP3   OH222928   0.339   6.344   5.185 -0.5520 -0.8331 -0.1749
 7655TIP3    H122929   0.273   6.277   5.167  1.9299 -3.9569  1.2267
 7655TIP3    H222930   0.374   6.320   5.271  0.6839  2.1978  0.2875
 7656TIP3   OH222931   5.125   0.035   4.464  0.1194  0.7285 -0.0051
 7656TIP3    H122932   5.089  -0.049   4.436  0.8712  0.4219 -0.0782
 7656TIP3    H222933   5.119   0.090   4.386 -1.6527  1.2059  0.4097
 7657TIP3   OH222934   4.023   4.675   5.030  0.0986 -0.5857  0.3502
 7657TIP3    H122935   4.054   4.589   5.002 -1.1074 -1.1988  0.8420
 7657TIP3    H222936   3.928   4.668   5.030 -0.0464  0.8849  0.0155
 7658TIP3   OH222937   1.225   2.435   3.864 -0.0672  0.5984  0.0826
 7658TIP3    H122938   1.231   2.344   3.896 -1.9640  0.8207  1.2525
 7658TIP3    H222939   1.221   2.426   3.769  1.6050 -0.3952  0.0607
 7659TIP3   OH222940   5.701   2.856   5.230 -0.0959  0.3617 -0.2579
 7659TIP3    H122941   5.609   2.830   5.242  0.0938  0.1213  0.8566
 7659TIP3    H222942   5.696   2.947   5.201 -0.6997  1.1583  2.0792
 7660TIP3   OH222943   4.413   4.585   1.696  0.1260  0.1461  0.0429
 7660TIP3    H122944   4.407   4.588   1.601  0.8305 -0.0211 -0.0121
 7660TIP3    H222945   4.374   4.667   1.725  1.2338  0.8770 -0.4697
 7661TIP3   OH222946   2.045   4.146   1.043 -0.0566 -0.0914 -0.1873
 7661TIP3    H122947   2.070   4.132   1.135 -0.1423 -0.2898 -0.1918
 7661TIP3    H222948   1.997   4.066   1.020 -1.1187  0.4867 -0.0308
 7662TIP3   OH222949   2.119  -0.016   5.795 -0.4576  0.8403 -0.5492
 7662TIP3    H122950   2.140   0.077   5.781 -0.9723  0.8407 -1.3760
 7662TIP3    H222951   2.031  -0.014   5.834 -0.2979  0.7083 -0.1760
 7663TIP3   OH222952   5.503   5.366   3.267 -0.6756 -0.1544 -0.0415
 7663TIP3    H122953   5.498   5.457   3.239 -0.0119  0.7439  2.4837
 7663TIP3    H222954   5.433   5.358   3.333  1.2699 -0.4811  2.1063
 7664TIP3   OH222955   0.531   1.254   2.031  0.2187 -0.4880  0.5315
 7664TIP3    H122956   0.522   1.175   1.977 -0.6053 -1.5501  2.1464
 7664TIP3    H222957   0.498   1.325   1.976 -0.8305 -1.5642 -0.2658
 7665TIP3   OH222958   2.504   1.447   0.577  0.9772  0.2727  0.7249
 7665TIP3    H122959   2.453   1.460   0.656 -0.6228 -1.0151 -0.0339
 7665TIP3    H222960   2.469   1.366   0.539  1.9644  0.6448 -1.0876
 7666TIP3   OH222961   5.811   3.030   3.587 -0.2223  0.1673 -0.0282
 7666TIP3    H122962   5.887   3.085   3.571 -0.3709  1.2193  2.3524
 7666TIP3    H222963   5.783   3.054   3.676 -3.7456  0.3738 -1.0396
 7667TIP3   OH222964   5.367   0.355   5.736 -0.5084  0.0114 -0.1708
 7667TIP3    H122965   5.321   0.392   5.811  1.4387 -0.0274  1.1147
 7667TIP3    H222966   5.331   0.266   5.728 -2.2229  0.7087 -0.6613
 7668TIP3   OH222967   4.840   1.146   1.210 -0.1137  0.0573  0.2969
 7668TIP3    H122968   4.783   1.097   1.269  2.0694 -3.3012 -0.1213
 7668TIP3    H222969   4.815   1.116   1.122  0.6632  0.3867 -0.0459
 7669TIP3   OH222970   3.583   5.653   4.937 -0.3186 -0.2207 -0.2427
 7669TIP3    H122971   3.602   5.570   4.980  0.0810  0.0386  0.0954
 7669TIP3    H222972   3.489   5.664   4.946 -0.1863  0.0888  1.0820
 7670TIP3   OH222973   6.036   5.964   1.398 -0.4372  0.1006 -0.1302
 7670TIP3    H122974   5.995   5.880   1.418  0.0734 -0.1157  0.0369
 7670TIP3    H222975   6.111   5.968   1.457  0.0009  0.3134 -0.6948
 7671TIP3   OH222976   3.620   6.508   3.466  0.8437  0.1569  0.0868
 7671TIP3    H122977   3.705   6.471   3.491  1.4387  1.4955  0.1284
 7671TIP3    H222978   3.590   6.452   3.394  1.6087 -0.5300  0.2899
 7672TIP3   OH222979   1.332   4.150   2.979 -0.1801  0.1247 -0.0101
 7672TIP3    H122980   1.323   4.231   3.029 -0.8536  0.4965 -0.7180
 7672TIP3    H222981   1.422   4.149   2.949  0.9133 -1.1249  2.9155
 7673TIP3   OH222982   1.659   4.951   3.218  0.7311 -0.3057 -0.3361
 7673TIP3    H122983   1.670   4.856   3.215 -0.5424 -0.4626 -0.5766
 7673TIP3    H222984   1.696   4.982   3.135 -0.5051 -0.7994 -1.0982
 7674TIP3   OH222985   2.263   0.183   1.855 -0.0888  0.2188  0.4945
 7674TIP3    H122986   2.215   0.263   1.876 -0.4423 -0.3757  2.0534
 7674TIP3    H222987   2.201   0.112   1.871  0.4252 -0.4194 -0.2559
 7675TIP3   OH222988   5.976   1.417   4.811 -0.1125  0.0400 -0.2155
 7675TIP3    H122989   5.935   1.449   4.891 -1.9682 -1.8214 -0.3325
 7675TIP3    H222990   6.014   1.333   4.836  0.1287 -0.1199 -1.0896
 7676TIP3   OH222991   6.273   3.477   5.607  0.4656  0.4537 -0.5422
 7676TIP3    H122992   6.350   3.432   5.642  0.2813  0.0416 -0.6703
 7676TIP3    H222993   6.214   3.407   5.579 -1.0360  0.7175  1.7828
 7677TIP3   OH222994   1.969   5.654   3.227  0.4109 -0.0534  0.1876
 7677TIP3    H122995   1.975   5.619   3.138  1.2024  0.4252  0.0402
 7677TIP3    H222996   1.919   5.589   3.275 -0.5467 -0.0339 -0.7463
 7678TIP3   OH222997   1.240   3.157   4.953  0.2235 -0.3664  0.3881
 7678TIP3    H122998   1.270   3.182   4.866  0.4672 -0.6430  0.3883
 7678TIP3    H222999   1.321   3.141   5.002  0.0855 -0.4045  0.6050
 7679TIP3   OH223000   1.965   4.469   4.457 -0.6346  0.0108  0.2802
 7679TIP3    H123001   2.055   4.435   4.458 -0.1830  0.8799 -2.2689
 7679TIP3    H223002   1.912   4.395   4.487  0.7466 -1.3753 -0.4915
 7680TIP3   OH223003   2.629   2.437   4.585  0.4077 -0.3049  0.4763
 7680TIP3    H123004   2.590   2.420   4.499  0.3871  0.1994  0.3864
 7680TIP3    H223005   2.588   2.373   4.643 -0.4945  0.1625  0.3667
 7681TIP3   OH223006   1.050   4.398   1.431  0.1803  0.4102 -0.5529
 7681TIP3    H123007   1.090   4.474   1.473  0.2280 -0.0496  0.2708
 7681TIP3    H223008   1.021   4.429   1.346  1.4992  0.9744 -0.8162
 7682TIP3   OH223009   1.172   2.636   5.533 -0.1484  0.7360  0.3881
 7682TIP3    H123010   1.242   2.595   5.483  0.1543  0.1501  1.2594
 7682TIP3    H223011   1.118   2.680   5.468  1.0682  1.2638 -0.2880
 7683TIP3   OH223012   6.955   4.612   2.479 -0.1706  0.3062 -0.8585
 7683TIP3    H123013   6.984   4.618   2.570 -0.0854 -0.0144 -0.8608
 7683TIP3    H223014   6.860   4.596   2.485 -0.1663  0.2920 -0.8247
 7684TIP3   OH223015   5.860   1.801   0.817 -0.3418 -0.1871 -0.8109
 7684TIP3    H123016   5.956   1.796   0.822 -0.3494  0.6829  1.2000
 7684TIP3    H223017   5.834   1.723   0.768  1.2359 -2.2762  1.4088
 7685TIP3   OH223018   3.284   4.622   1.670 -0.1450 -0.0370 -0.1121
 7685TIP3    H123019   3.293   4.699   1.613 -0.2448 -0.0343 -0.1242
 7685TIP3    H223020   3.215   4.570   1.630  0.1249 -0.2790 -0.2655
 7686TIP3   OH223021   0.014   0.725   0.634  0.2236 -0.4928 -0.1217
 7686TIP3    H123022   0.099   0.752   0.601  0.7369 -1.9254 -0.0471
 7686TIP3    H223023   0.029   0.705   0.726 -0.4782  0.4011  0.2007
 7687TIP3   OH223024   4.922   1.839   4.828 -0.1085 -0.0719 -0.6354
 7687TIP3    H123025   4.963   1.763   4.869 -0.0340  0.9061  1.2031
 7687TIP3    H223026   4.950   1.913   4.881 -1.4723  1.0451 -1.4070
 7688TIP3   OH223027   5.070   5.414   4.463  0.4097  0.1512 -0.2460
 7688TIP3    H123028   5.033   5.423   4.375 -0.1287 -1.0100 -0.1484
 7688TIP3    H223029   5.041   5.493   4.509 -0.0014  0.3643 -0.8609
 7689TIP3   OH223030   3.502   1.970   1.681  0.1207 -0.0705 -0.2932
 7689TIP3    H123031   3.409   1.995   1.685  0.4489  1.3341 -0.9853
 7689TIP3    H223032   3.518   1.950   1.589  0.3124 -1.2092 -0.0344
 7690TIP3   OH223033   1.961   1.365   2.395 -0.1886  0.0579  0.7258
 7690TIP3    H123034   1.904   1.342   2.321 -0.7127  0.9514  0.8373
 7690TIP3    H223035   1.929   1.310   2.467  1.0366 -1.6428  0.0459
 7691TIP3   OH223036   6.642   3.835   2.009 -0.3005  0.1876  0.3621
 7691TIP3    H123037   6.702   3.909   2.004 -1.1466  0.7863 -1.8493
 7691TIP3    H223038   6.693   3.760   1.979 -0.5353  0.6493 -1.2740
 7692TIP3   OH223039   1.166   5.521   1.904 -0.0383 -0.1961 -0.7739
 7692TIP3    H123040   1.203   5.463   1.971  0.4139 -1.4107 -2.0324
 7692TIP3    H223041   1.086   5.477   1.876 -1.5419  1.5043  0.6203
 7693TIP3   OH223042   3.319   0.558   1.153 -0.1675  0.5729  0.0106
 7693TIP3    H123043   3.406   0.591   1.131  1.0533 -2.6172 -0.5365
 7693TIP3    H223044   3.322   0.543   1.248 -0.0171  0.1841 -0.0559
 7694TIP3   OH223045   5.012   0.168   5.608 -0.3055 -0.4675  0.2926
 7694TIP3    H123046   4.929   0.121   5.601 -0.8212  0.6191 -1.3521
 7694TIP3    H223047   4.999   0.249   5.558  1.6190 -0.0890  0.3137
 7695TIP3   OH223048   2.608   4.277   4.524  0.1997  0.4834  0.2587
 7695TIP3    H123049   2.577   4.190   4.545  1.9396  0.0852  1.3883
 7695TIP3    H223050   2.538   4.316   4.472 -1.2918 -0.9995  1.0758
 7696TIP3   OH223051   0.641   0.069   5.400  0.1682 -0.0811 -0.3470
 7696TIP3    H123052   0.711   0.100   5.457 -0.4855 -0.2006  0.5540
 7696TIP3    H223053   0.561   0.081   5.452 -0.4468 -0.2130 -1.2382
 7697TIP3   OH223054   2.606   2.966   1.144 -0.1894 -0.1772  0.4895
 7697TIP3    H123055   2.530   2.966   1.203 -1.5445 -0.7561 -1.1641
 7697TIP3    H223056   2.613   3.057   1.115  0.2538  0.0346  1.2255
 7698TIP3   OH223057   0.291   4.034   0.543  0.1914  0.2876  0.3915
 7698TIP3    H123058   0.362   3.972   0.531 -0.5689 -0.6895  0.7761
 7698TIP3    H223059   0.219   3.981   0.578 -0.9635  1.1122 -0.6770
 7699TIP3   OH223060   1.387   6.726   4.337 -0.0745 -0.7220 -0.3371
 7699TIP3    H123061   1.373   6.684   4.422 -1.2737 -2.1376 -1.1929
 7699TIP3    H223062   1.305   6.772   4.320  1.1917  2.1172  0.5676
 7700TIP3   OH223063   5.476   1.570   4.813  0.5698  0.2241  0.1864
 7700TIP3    H123064   5.554   1.533   4.771  0.4955  0.0309  0.2199
 7700TIP3    H223065   5.445   1.501   4.872 -0.5510 -0.3196 -0.9804
 7701TIP3   OH223066   4.913   6.552   4.775 -0.1559 -0.2382 -0.3140
 7701TIP3    H123067   4.818   6.558   4.766 -0.3497 -1.0942  0.8892
 7701TIP3    H223068   4.947   6.610   4.708 -1.5478  0.9637 -0.0270
 7702TIP3   OH223069   2.365   4.980   1.708 -0.1929 -0.2471 -0.3730
 7702TIP3    H123070   2.410   5.025   1.636  0.7104  1.7083  1.3049
 7702TIP3    H223071   2.332   4.899   1.669  0.1957  0.7554 -2.9752
 7703TIP3   OH223072   4.513   1.447   2.669  0.6968 -0.2774  0.1964
 7703TIP3    H123073   4.426   1.478   2.696  1.2282  3.0101 -1.3876
 7703TIP3    H223074   4.496   1.361   2.630 -2.4677  1.4317 -2.7648
 7704TIP3   OH223075   4.892   6.569   3.747  0.1770 -0.3150  1.0014
 7704TIP3    H123076   4.914   6.491   3.696 -0.3544 -0.4561  0.9790
 7704TIP3    H223077   4.908   6.642   3.687 -0.6572 -0.4912  0.5485
 7705TIP3   OH223078   0.848   5.150   1.902 -0.8386 -0.4593  0.5272
 7705TIP3    H123079   0.825   5.116   1.989 -2.4925 -0.4930  0.0945
 7705TIP3    H223080   0.904   5.082   1.864 -0.3669 -0.5949  1.4336
 7706TIP3   OH223081   6.096   4.878   5.327  0.0358 -0.5995 -0.1230
 7706TIP3    H123082   6.070   4.961   5.286 -0.8151 -0.9076 -0.2173
 7706TIP3    H223083   6.185   4.863   5.296  0.4348  0.5976  0.3919
 7707TIP3   OH223084   1.651   4.444   2.990 -0.7029 -0.3020 -0.1876
 7707TIP3    H123085   1.701   4.502   2.932 -1.9442 -0.3818 -1.3951
 7707TIP3    H223086   1.715   4.380   3.021  0.1148  0.0954 -1.0018
 7708TIP3   OH223087   2.473   0.150   3.572  0.0576  0.1052 -0.3511
 7708TIP3    H123088   2.505   0.106   3.493  3.5408  0.8451  0.5086
 7708TIP3    H223089   2.450   0.238   3.543 -0.6131 -0.2246 -0.8592
 7709TIP3   OH223090   3.609   3.291   4.049 -0.0562  0.5150  0.2463
 7709TIP3    H123091   3.652   3.354   3.991 -1.0482  1.6539  0.7181
 7709TIP3    H223092   3.679   3.257   4.104  0.2705  2.4003  1.0663
 7710TIP3   OH223093   1.489   4.687   3.022 -0.0570  0.8055 -0.1065
 7710TIP3    H123094   1.436   4.706   3.099  1.5516  2.3654  0.6929
 7710TIP3    H223095   1.488   4.592   3.014 -2.6275  0.7677  0.0808
 7711TIP3   OH223096   0.273   1.735   1.106  0.4678 -0.3879 -0.0004
 7711TIP3    H123097   0.288   1.700   1.194 -0.0803 -1.0092 -0.1503
 7711TIP3    H223098   0.349   1.792   1.090  0.5781 -0.2747  0.8640
 7712TIP3   OH223099   5.537   3.246   4.962  0.8266 -0.3677 -0.2690
 7712TIP3    H123100   5.453   3.232   5.006  1.0540 -1.1561 -0.0793
 7712TIP3    H223101   5.597   3.186   5.006  1.0844 -1.0899 -1.5755
 7713TIP3   OH223102   3.278   5.182   3.120 -0.1026  0.3344 -0.0411
 7713TIP3    H123103   3.309   5.268   3.092 -1.6190  0.6272 -0.9386
 7713TIP3    H223104   3.355   5.126   3.113  1.3776  1.9191  2.2068
 7714TIP3   OH223105   7.016   6.011   3.689 -0.2263  0.4272  0.3827
 7714TIP3    H123106   6.981   5.939   3.637 -0.4532  0.7107  0.1417
 7714TIP3    H223107   7.021   5.976   3.778  0.4982 -0.1714  0.1162
 7715TIP3   OH223108   5.053   6.678   5.243  0.4375 -0.3387 -0.8027
 7715TIP3    H123109   5.116   6.742   5.211  2.6166 -1.9362  0.0189
 7715TIP3    H223110   4.977   6.729   5.271  1.3178  1.6605 -1.9212
 7716TIP3   OH223111   0.717   2.058   0.003  0.2777 -0.2777  0.4083
 7716TIP3    H123112   0.685   2.129   0.059  0.3478  1.1093 -1.2360
 7716TIP3    H223113   0.639   2.008  -0.018 -0.0410  0.2380  0.3328
 7717TIP3   OH223114   0.865   4.175   2.773  0.3925 -0.0234  0.2564
 7717TIP3    H123115   0.860   4.153   2.866 -0.6601  1.5854  0.6282
 7717TIP3    H223116   0.792   4.236   2.759  0.3305 -0.4841 -1.6985
 7718TIP3   OH223117   1.539   0.491   3.457  0.0796 -0.6857  0.4961
 7718TIP3    H123118   1.501   0.578   3.461  0.8221 -0.3799  1.1074
 7718TIP3    H223119   1.500   0.445   3.532 -1.3350 -1.3317 -0.5731
 7719TIP3   OH223120   5.496   1.971   3.860  0.6878  0.0003 -0.0435
 7719TIP3    H123121   5.483   1.947   3.951 -1.7891  0.9478 -0.0727
 7719TIP3    H223122   5.465   1.896   3.810  1.4472 -0.2659 -0.1292
 7720TIP3   OH223123   0.914   0.292   2.532  0.6367  0.1504  0.1460
 7720TIP3    H123124   0.846   0.326   2.474  1.6334 -0.3065 -1.3517
 7720TIP3    H223125   0.892   0.200   2.543  0.6291  0.1608  0.2151
 7721TIP3   OH223126   4.086   0.727   4.185  0.5428  0.5006  0.1586
 7721TIP3    H123127   4.117   0.694   4.269  1.0972  0.8219  0.0819
 7721TIP3    H223128   4.095   0.822   4.191  3.5739  0.4448 -1.3659
 7722TIP3   OH223129   0.226   5.699   5.086 -0.1671  0.0113 -0.6270
 7722TIP3    H123130   0.218   5.747   5.004 -1.0455 -0.4296 -0.8137
 7722TIP3    H223131   0.268   5.616   5.062 -1.1670 -0.4654 -0.7908
 7723TIP3   OH223132   2.749   5.904   1.641 -0.0874 -0.3897  0.4749
 7723TIP3    H123133   2.786   5.857   1.716  1.6012  1.1641  0.6780
 7723TIP3    H223134   2.796   5.987   1.638 -0.0980 -0.3791 -2.3083
 7724TIP3   OH223135   4.787   5.908   1.495 -0.6107  0.2861  0.0916
 7724TIP3    H123136   4.770   5.961   1.417  0.1068 -0.8550 -0.8633
 7724TIP3    H223137   4.704   5.864   1.512 -0.6189  0.1092 -0.3798
 7725TIP3   OH223138   0.430   3.432   2.310 -0.0757 -0.0518 -0.2152
 7725TIP3    H123139   0.425   3.386   2.227 -1.0146 -0.9799  0.3315
 7725TIP3    H223140   0.503   3.493   2.299 -1.1629  0.9531 -2.2378
 7726TIP3   OH223141   4.692   0.606   1.815  0.0064  0.0728 -0.0064
 7726TIP3    H123142   4.777   0.562   1.810  0.4314  0.8859 -0.0612
 7726TIP3    H223143   4.648   0.582   1.733 -0.1859 -1.0783  0.4217
 7727TIP3   OH223144   0.779   3.413   2.581  0.1599 -0.1576  0.3687
 7727TIP3    H123145   0.733   3.480   2.529 -0.2671  0.1575  1.1378
 7727TIP3    H223146   0.726   3.334   2.571  1.5301 -0.8885 -1.8853
 7728TIP3   OH223147   1.533   5.280   0.389  0.3919  0.3274  0.0447
 7728TIP3    H123148   1.557   5.189   0.376 -0.1206  0.4029 -1.7673
 7728TIP3    H223149   1.611   5.321   0.425  0.7672 -0.7273  0.4554
 7729TIP3   OH223150   5.349   2.250   1.971  0.0651 -0.1618  0.2397
 7729TIP3    H123151   5.401   2.171   1.976 -1.6957 -1.3129  1.7917
 7729TIP3    H223152   5.372   2.300   2.050 -0.7497 -0.4459  0.6783
 7730TIP3   OH223153   3.503   3.323   3.731 -0.1373 -0.1212 -0.2001
 7730TIP3    H123154   3.582   3.370   3.759 -1.9050  1.5900  2.3989
 7730TIP3    H223155   3.520   3.232   3.753  1.1940  0.1682  0.0804
 7731TIP3   OH223156   2.091   6.598   0.969  0.2676  0.6314 -0.1475
 7731TIP3    H123157   2.092   6.502   0.976  0.9793  0.6725  0.4439
 7731TIP3    H223158   2.065   6.615   0.879  0.7195 -0.1370 -0.4319
 7732TIP3   OH223159   5.569   5.639   5.190  0.1150  0.0602 -0.3191
 7732TIP3    H123160   5.544   5.694   5.264  1.2351  0.2090 -0.0335
 7732TIP3    H223161   5.556   5.695   5.113  0.2497  0.3824 -0.1119
 7733TIP3   OH223162   6.336   4.507   2.625  0.3584 -0.0914 -0.2246
 7733TIP3    H123163   6.408   4.484   2.683 -0.4997  0.5977  1.1396
 7733TIP3    H223164   6.257   4.490   2.676 -0.4100  0.9695 -1.0118
 7734TIP3   OH223165   6.932   2.541   0.349 -0.6591 -0.5048  0.3349
 7734TIP3    H123166   6.919   2.472   0.285  0.0003  1.3619 -1.9618
 7734TIP3    H223167   7.002   2.509   0.405 -1.2725 -2.2044  0.2045
 7735TIP3   OH223168   4.892   0.984   4.347 -0.3138 -0.3501 -0.1325
 7735TIP3    H123169   4.844   1.064   4.367 -3.0712 -2.1994  1.3938
 7735TIP3    H223170   4.906   0.986   4.252 -1.3919  1.3561 -0.2776
 7736TIP3   OH223171   3.737   6.507   5.677  0.4360 -0.2469  0.4313
 7736TIP3    H123172   3.659   6.560   5.693 -0.2304 -0.2510 -2.2570
 7736TIP3    H223173   3.706   6.433   5.624  2.0905 -0.8192  0.1900
 7737TIP3   OH223174   0.513   4.693   5.526 -0.5003  0.3721 -0.1418
 7737TIP3    H123175   0.483   4.602   5.519  1.3194 -0.2163 -1.0636
 7737TIP3    H223176   0.469   4.738   5.454 -1.7261  0.3338  0.5638
 7738TIP3   OH223177   7.161   0.950   2.215  0.6443 -0.0528  0.1438
 7738TIP3    H123178   7.151   1.002   2.295 -1.6711 -0.7769  0.3979
 7738TIP3    H223179   7.159   1.015   2.144  0.2104  0.4116  0.5685
 7739TIP3   OH223180   4.584   3.598   0.139  0.3684  0.2479  0.6469
 7739TIP3    H123181   4.627   3.639   0.214  1.3892  0.5362 -0.0713
 7739TIP3    H223182   4.656   3.574   0.081 -0.3129 -1.1292  0.3285
 7740TIP3   OH223183   1.435   6.378   0.393  0.0263  0.6319  0.0058
 7740TIP3    H123184   1.530   6.393   0.396  0.0398  0.4586  1.7772
 7740TIP3    H223185   1.397   6.464   0.414 -0.2718  0.9517 -1.7000
 7741TIP3   OH223186   2.098   5.102   4.962  0.3790 -0.0694  0.2932
 7741TIP3    H123187   2.144   5.166   4.907 -0.4134  0.6721  0.4675
 7741TIP3    H223188   2.156   5.089   5.037  0.1518  1.1667  0.7138
 7742TIP3   OH223189   2.058   4.585   1.781  0.6344 -0.0647  0.4373
 7742TIP3    H123190   2.005   4.566   1.858  1.6474 -1.5106  0.8376
 7742TIP3    H223191   2.133   4.526   1.789  2.1515  1.6691 -0.2602
 7743TIP3   OH223192   1.712   5.517   5.778 -0.0840  0.8335 -0.5068
 7743TIP3    H123193   1.730   5.550   5.690 -1.0495  0.2599 -0.9345
 7743TIP3    H223194   1.796   5.486   5.810 -0.2628 -2.3068 -2.6502
 7744TIP3   OH223195   5.250   5.250   1.288  0.3844  0.3175 -0.2801
 7744TIP3    H123196   5.212   5.287   1.367  0.7888 -1.0801  0.6067
 7744TIP3    H223197   5.344   5.267   1.296  0.7063 -1.5528  0.5820
 7745TIP3   OH223198   7.167   3.190   4.502 -0.0243  0.2402 -0.2407
 7745TIP3    H123199   7.131   3.152   4.582  0.8367  0.6449  0.3554
 7745TIP3    H223200   7.135   3.134   4.432 -0.2139 -0.5328  0.4548
 7746TIP3   OH223201   7.098   1.240   2.616  0.1269  0.3571 -0.2837
 7746TIP3    H123202   7.017   1.199   2.647 -0.1757  0.6077 -0.7239
 7746TIP3    H223203   7.162   1.169   2.613 -0.0721  0.1622  0.0886
 7747TIP3   OH223204   0.100   0.053   4.117 -0.0421 -0.1216  0.0012
 7747TIP3    H123205   0.062  -0.030   4.087  0.6974 -0.5497  0.2362
 7747TIP3    H223206   0.194   0.037   4.121  0.2229  1.0555 -0.9562
 7748TIP3   OH223207   7.226   1.027   5.592  0.3670  0.3953 -0.0460
 7748TIP3    H123208   7.140   1.017   5.552  0.5798 -1.2181 -0.1619
 7748TIP3    H223209   7.215   1.097   5.656 -0.6908  1.1002 -0.9636
 7749TIP3   OH223210   3.052   4.818   4.088  0.3220 -0.0418 -0.2103
 7749TIP3    H123211   3.057   4.739   4.141  2.5507  0.0032 -0.2871
 7749TIP3    H223212   3.129   4.815   4.032 -1.5423  0.2669 -3.0117
 7750TIP3   OH223213   4.276   1.833   3.585  0.0479  0.2631  0.2265
 7750TIP3    H123214   4.307   1.755   3.630 -0.5608 -0.2069 -0.1492
 7750TIP3    H223215   4.203   1.802   3.532 -1.9848  1.5236  2.1023
 7751TIP3   OH223216   5.658   0.865   1.890 -0.5834  0.2413 -0.1085
 7751TIP3    H123217   5.634   0.954   1.916  1.6724 -0.1028  3.9743
 7751TIP3    H223218   5.739   0.876   1.840  0.3094  0.5037  1.3421
 7752TIP3   OH223219   7.172   0.470   5.661 -0.0831 -0.2322  0.2395
 7752TIP3    H123220   7.163   0.561   5.634  0.1222  0.1528  1.3978
 7752TIP3    H223221   7.111   0.422   5.605 -1.8141  0.9127  1.0390
 7753TIP3   OH223222   6.835   5.749   3.922 -0.3801  0.1999 -0.1364
 7753TIP3    H123223   6.884   5.677   3.882  0.0485 -0.6877  1.8559
 7753TIP3    H223224   6.838   5.731   4.016  1.4860  3.8546  0.7184
 7754TIP3   OH223225   2.137   5.861   1.040  0.5347  0.2919  0.4169
 7754TIP3    H123226   2.075   5.887   0.972 -1.0033 -0.7411  1.3783
 7754TIP3    H223227   2.223   5.871   0.999 -0.3719 -1.6754 -2.2127
 7755TIP3   OH223228   4.189   1.005   0.974  0.1791  0.0450 -0.5275
 7755TIP3    H123229   4.224   0.920   1.001 -2.9628 -0.9189  1.0367
 7755TIP3    H223230   4.263   1.065   0.979  2.6499 -2.6361 -2.2328
 7756TIP3   OH223231   1.149   3.592   1.538 -0.0545  0.3067 -0.3208
 7756TIP3    H123232   1.165   3.498   1.530  0.4152  0.2237  1.1975
 7756TIP3    H223233   1.076   3.599   1.599  0.4263  0.9320  0.2042
 7757TIP3   OH223234   0.448   3.142   3.365  0.9840 -0.8852 -0.2218
 7757TIP3    H123235   0.400   3.220   3.338  2.0116 -0.0319  0.3136
 7757TIP3    H223236   0.527   3.142   3.311  1.8197 -0.5821  0.9619
 7758TIP3   OH223237   4.815   4.935   0.083  0.7432 -0.4210  0.3800
 7758TIP3    H123238   4.747   4.869   0.067  0.8473 -0.4056 -0.1420
 7758TIP3    H223239   4.776   5.017   0.052  0.9288 -0.3794  0.2581
 7759TIP3   OH223240   2.128   6.525   4.837 -0.3209  0.1237 -0.1118
 7759TIP3    H123241   2.198   6.582   4.870 -1.7831  0.8733  1.8842
 7759TIP3    H223242   2.099   6.476   4.914 -1.0088 -1.2634 -1.2138
 7760TIP3   OH223243   0.019   5.338   0.476  0.4619 -0.0523  0.0776
 7760TIP3    H123244   0.009   5.409   0.412  1.1596  0.7488  0.8180
 7760TIP3    H223245   0.112   5.314   0.470  0.2514 -0.8516 -0.0969
 7761TIP3   OH223246   7.110   6.837   0.199 -0.7307 -0.1690 -0.0367
 7761TIP3    H123247   7.181   6.773   0.188 -0.1879  0.3617  0.3181
 7761TIP3    H223248   7.033   6.784   0.220  0.0311 -0.6337  1.7730
 7762TIP3   OH223249   3.970   3.844   3.949 -0.3106 -0.4281  0.4286
 7762TIP3    H123250   3.902   3.781   3.925  0.5629 -1.2029 -0.0775
 7762TIP3    H223251   4.053   3.798   3.933  0.3749  1.0366 -0.5488
 7763TIP3   OH223252   3.900   0.834   5.370  0.5208 -0.9419 -0.0693
 7763TIP3    H123253   3.959   0.835   5.445  2.1762 -1.0516 -1.3137
 7763TIP3    H223254   3.910   0.746   5.333  1.3017 -0.2717 -1.5636
 7764TIP3   OH223255   6.806   5.940   1.662 -0.2620 -0.2519 -0.6437
 7764TIP3    H123256   6.824   5.944   1.756 -1.6566 -1.8920 -0.2512
 7764TIP3    H223257   6.737   6.005   1.648  1.6033  1.7708 -1.0610
 7765TIP3   OH223258   2.601   0.509   1.269 -0.3115 -0.8748  0.5624
 7765TIP3    H123259   2.531   0.482   1.209 -2.8319  1.1687  2.3733
 7765TIP3    H223260   2.597   0.444   1.340  0.6585 -1.5643  0.0165
 7766TIP3   OH223261   3.023   1.664   3.901 -0.2543  0.4286  0.1846
 7766TIP3    H123262   3.060   1.737   3.949  1.0632  0.9092 -1.4619
 7766TIP3    H223263   3.011   1.697   3.812 -2.2595 -0.5256  0.0232
 7767TIP3   OH223264   2.571   5.570   1.198  0.4234  0.0290  0.1379
 7767TIP3    H123265   2.553   5.477   1.183  0.6863 -0.2884  1.6025
 7767TIP3    H223266   2.486   5.613   1.186  0.2084 -0.4573 -0.1255
 7768TIP3   OH223267   3.411   3.082   2.375  0.5353 -0.5812  0.3149
 7768TIP3    H123268   3.473   3.114   2.310 -0.0780  1.4652  0.6524
 7768TIP3    H223269   3.336   3.142   2.368  0.2833 -0.5150  2.6074
 7769TIP3   OH223270   5.818   1.770   2.475 -0.4599  0.1232 -0.1213
 7769TIP3    H123271   5.908   1.777   2.443  0.1851 -0.8227  1.3874
 7769TIP3    H223272   5.786   1.688   2.439 -0.6220  0.2928 -0.3739
 7770TIP3   OH223273   0.789   6.675   1.432 -0.2066 -0.5055 -0.7932
 7770TIP3    H123274   0.863   6.620   1.457  0.9735  1.3743  0.0835
 7770TIP3    H223275   0.714   6.634   1.475  0.6923 -1.1754  0.2141
 7771TIP3   OH223276   6.885   0.832   3.692  0.1018 -0.4155  0.1697
 7771TIP3    H123277   6.940   0.790   3.758  0.7325  0.0754 -0.0300
 7771TIP3    H223278   6.944   0.894   3.648 -0.4516 -0.3352 -0.4721
 7772TIP3   OH223279   5.277   1.614   1.456 -0.0226  0.4547  0.3586
 7772TIP3    H123280   5.207   1.563   1.416  1.0292 -0.7675  0.0010
 7772TIP3    H223281   5.285   1.580   1.545 -0.7341  1.4906  0.8326
 7773TIP3   OH223282   1.149   1.252   1.093 -0.0043 -0.1838  0.4685
 7773TIP3    H123283   1.079   1.313   1.116  1.0886  0.2062  3.2418
 7773TIP3    H223284   1.108   1.188   1.035 -2.5394  0.2828  1.6317
 7774TIP3   OH223285   3.712   6.018   0.297  0.3859 -0.3858  0.1348
 7774TIP3    H123286   3.717   6.112   0.314  2.3600 -0.5048  0.4115
 7774TIP3    H223287   3.797   5.995   0.258  0.2679 -2.1877  0.8082
 7775TIP3   OH223288   3.759   5.657   1.000  0.4173  0.4982  0.5308
 7775TIP3    H123289   3.672   5.668   1.039 -0.1412 -0.2077 -0.4734
 7775TIP3    H223290   3.812   5.724   1.042 -0.8105  1.4687  0.6051
 7776TIP3   OH223291   4.790   4.852   4.379  0.1257  0.1481  0.2378
 7776TIP3    H123292   4.845   4.912   4.430 -0.2854  0.6620  0.0735
 7776TIP3    H223293   4.794   4.770   4.429  1.2046  0.1094  0.1250
 7777TIP3   OH223294   1.286   6.476   2.279 -0.4491 -0.0286 -0.0905
 7777TIP3    H123295   1.301   6.570   2.283 -0.6583 -0.0300  3.4120
 7777TIP3    H223296   1.246   6.454   2.363  1.4223 -3.5407  0.0627
 7778TIP3   OH223297   7.050   2.210   3.358 -0.0637  0.2194 -0.1723
 7778TIP3    H123298   6.976   2.160   3.322 -1.1054  2.1067 -0.7799
 7778TIP3    H223299   7.105   2.229   3.283 -0.8383  1.8386 -0.3803
 7779TIP3   OH223300   3.575   1.313   5.778  0.1484 -1.1285  0.1909
 7779TIP3    H123301   3.566   1.292   5.684  1.6624 -0.9125 -0.0236
 7779TIP3    H223302   3.534   1.399   5.787  1.3387 -0.4382 -0.6081
 7780TIP3   OH223303   1.672   3.243   5.217 -0.2179 -0.2073  0.0612
 7780TIP3    H123304   1.725   3.305   5.167  0.5694 -0.6298  0.3517
 7780TIP3    H223305   1.695   3.261   5.308  0.6123 -1.4523  0.1073
 7781TIP3   OH223306   6.332   2.501   1.713  0.4018  0.0020 -0.4488
 7781TIP3    H123307   6.384   2.424   1.737  1.4610  0.6373 -0.6248
 7781TIP3    H223308   6.309   2.488   1.621  0.0326 -0.4020 -0.2990
 7782TIP3   OH223309   6.430   5.124   1.571 -0.2737 -0.3198  0.0114
 7782TIP3    H123310   6.409   5.203   1.620  0.5129 -0.7137  1.0027
 7782TIP3    H223311   6.518   5.099   1.601  0.2861 -0.5166 -1.6602
 7783TIP3   OH223312   3.709   3.307   4.489  0.6351 -0.0798  0.7260
 7783TIP3    H123313   3.690   3.216   4.510 -0.9049 -0.1330 -0.7368
 7783TIP3    H223314   3.792   3.305   4.442  0.5443 -0.7449  0.5885
 7784TIP3   OH223315   3.819   0.546   0.864 -0.5368 -0.0153  0.3953
 7784TIP3    H123316   3.826   0.451   0.878 -0.6060 -0.0808  0.0111
 7784TIP3    H223317   3.729   0.560   0.834  0.2078 -0.2080 -2.2024
 7785TIP3   OH223318   5.589   6.247   1.584 -0.4693  0.0412  0.7562
 7785TIP3    H123319   5.550   6.299   1.655  1.6582  1.6916  0.8145
 7785TIP3    H223320   5.541   6.164   1.587 -0.2704 -0.1358  4.3814
 7786TIP3   OH223321   5.095   2.766   4.746  0.1639 -0.1580 -0.1175
 7786TIP3    H123322   5.100   2.680   4.703  2.4066  0.5265 -1.4223
 7786TIP3    H223323   5.186   2.793   4.754 -0.4388  1.5887  1.3874
 7787TIP3   OH223324   3.199   2.739   1.536 -0.2530 -0.0453  0.1705
 7787TIP3    H123325   3.163   2.719   1.450 -1.5240 -0.4722  0.7693
 7787TIP3    H223326   3.132   2.792   1.578  0.9385  1.3189  0.4304
 7788TIP3   OH223327   4.759   3.161   2.389  0.4737 -0.0511 -0.0490
 7788TIP3    H123328   4.705   3.151   2.310 -0.9795  0.2014  0.8630
 7788TIP3    H223329   4.758   3.074   2.429  0.0406  0.1443  0.3818
 7789TIP3   OH223330   0.325   6.527   2.046 -0.5559 -0.3178 -0.1604
 7789TIP3    H123331   0.323   6.616   2.012 -0.7201 -0.5201 -0.6969
 7789TIP3    H223332   0.236   6.510   2.077 -1.1539 -1.0419 -2.0876
 7790TIP3   OH223333   6.963   3.765   5.184 -0.4953 -0.1537  0.2704
 7790TIP3    H123334   7.032   3.702   5.205 -0.0379  0.7691  1.7535
 7790TIP3    H223335   6.990   3.845   5.229 -1.9832  0.5620 -0.0461
 7791TIP3   OH223336   6.559   3.273   3.980  0.1416  0.6337  0.5427
 7791TIP3    H123337   6.505   3.244   4.054  0.3596  0.8005  0.7676
 7791TIP3    H223338   6.506   3.340   3.937  0.7162  1.7619  1.5515
 7792TIP3   OH223339   6.367   2.537   5.836 -0.0391  0.2363  0.3560
 7792TIP3    H123340   6.449   2.519   5.790  0.9640  0.6583  1.9102
 7792TIP3    H223341   6.302   2.481   5.793  0.9596  0.2195 -1.1817
 7793TIP3   OH223342   2.770   4.050   0.766 -0.0670  0.2012  0.1586
 7793TIP3    H123343   2.763   3.968   0.814 -1.0275 -0.7140 -1.4684
 7793TIP3    H223344   2.684   4.091   0.776  0.2582  0.8151  0.5664
 7794TIP3   OH223345   3.103   0.890   4.125  0.0287 -0.4212  0.0022
 7794TIP3    H123346   3.051   0.840   4.062  0.4562 -0.1329 -0.5897
 7794TIP3    H223347   3.141   0.961   4.074  0.4032 -0.1933  0.5840
 7795TIP3   OH223348   2.721   3.321   1.880 -0.3392  0.2821 -0.2292
 7795TIP3    H123349   2.651   3.313   1.945  0.9767  0.6966  1.3155
 7795TIP3    H223350   2.767   3.237   1.885 -0.1513  0.3653 -0.5284
 7796TIP3   OH223351   5.814   1.209   0.174  0.0452  0.3994  0.1113
 7796TIP3    H123352   5.855   1.292   0.147 -1.7756  1.6483  1.0311
 7796TIP3    H223353   5.775   1.227   0.259  0.1571 -1.6219  0.6468
 7797TIP3   OH223354   3.764   3.318   1.292 -0.3429  0.1480 -0.3895
 7797TIP3    H123355   3.789   3.409   1.309 -0.7122 -0.1623  2.2611
 7797TIP3    H223356   3.842   3.267   1.315 -0.2263 -0.2533 -1.6076
 7798TIP3   OH223357   3.238   0.683   2.979  0.0047  0.0166 -0.0107
 7798TIP3    H123358   3.218   0.677   3.073 -1.3789 -4.2691 -0.3452
 7798TIP3    H223359   3.167   0.736   2.942  0.7445  2.0423  1.2824
 7799TIP3   OH223360   4.391   5.142   1.137 -0.2908  0.1968 -0.1040
 7799TIP3    H123361   4.330   5.167   1.068 -0.3866  0.9240  0.2365
 7799TIP3    H223362   4.341   5.149   1.218 -0.6241 -2.1112 -0.0596
 7800TIP3   OH223363   4.807   4.935   5.277 -0.3106  0.2181 -0.4296
 7800TIP3    H123364   4.775   4.887   5.201  0.4549 -1.2985  0.1751
 7800TIP3    H223365   4.809   4.870   5.348  2.0587  0.7665  0.0738
 7801TIP3   OH223366   3.415   3.633   3.657 -0.1512  0.2804 -0.4157
 7801TIP3    H123367   3.413   3.564   3.723 -0.8903 -0.0172 -0.7374
 7801TIP3    H223368   3.506   3.636   3.628  0.5121  1.3133  1.5313
 7802TIP3   OH223369   5.957   1.521   5.855 -0.2003 -0.0333 -0.1649
 7802TIP3    H123370   5.947   1.616   5.855  0.4077  0.0458 -1.0275
 7802TIP3    H223371   5.963   1.497   5.947 -4.4259  0.2650  0.3548
 7803TIP3   OH223372   1.942   2.778   5.020 -0.0136 -0.4227 -0.2705
 7803TIP3    H123373   1.874   2.844   5.011  0.1944  0.0006  1.0281
 7803TIP3    H223374   1.894   2.697   5.040 -0.2683 -0.7008 -1.8770
 7804TIP3   OH223375   3.150   5.178   2.308 -0.4292  0.1296  0.1390
 7804TIP3    H123376   3.228   5.228   2.332 -1.2273  0.8948  1.2658
 7804TIP3    H223377   3.181   5.088   2.299  0.6255  0.4610  0.2973
 7805TIP3   OH223378   0.939   6.081   2.852 -0.2971  0.0626 -0.6370
 7805TIP3    H123379   1.001   6.142   2.892 -1.8437 -0.2515  2.5334
 7805TIP3    H223380   0.941   6.102   2.759  1.3100  2.9997 -0.0515
 7806TIP3   OH223381   0.547   3.137   1.633 -0.0745  0.3003  0.3137
 7806TIP3    H123382   0.639   3.145   1.660 -0.0382 -0.3969  0.4183
 7806TIP3    H223383   0.501   3.112   1.712  0.0315 -1.7497 -0.2031
 7807TIP3   OH223384   4.510   6.558   2.445 -0.3981 -0.0113 -0.0965
 7807TIP3    H123385   4.539   6.487   2.502  1.0848 -0.1665 -0.9865
 7807TIP3    H223386   4.553   6.540   2.361 -1.6778  0.7918 -0.9642
 7808TIP3   OH223387   1.207   0.773   1.082 -0.0560  0.3016 -0.3346
 7808TIP3    H123388   1.297   0.755   1.107 -0.5203  0.7339  1.7855
 7808TIP3    H223389   1.200   0.868   1.081 -0.6180  0.2700  0.0533
 7809TIP3   OH223390   2.123   0.702   2.619 -0.4864 -0.2291  0.1290
 7809TIP3    H123391   2.149   0.642   2.690  1.5511 -0.9083 -1.0920
 7809TIP3    H223392   2.063   0.764   2.660 -0.6759 -1.5982  2.0394
 7810TIP3   OH223393   6.817   3.037   0.809  0.0640  0.4132  0.0796
 7810TIP3    H123394   6.877   3.091   0.758 -0.6556  0.7264 -0.4488
 7810TIP3    H223395   6.791   3.094   0.882 -0.5161  0.7180 -0.3525
 7811TIP3   OH223396   6.102   2.591   5.281 -0.0169 -0.8135 -0.4087
 7811TIP3    H123397   6.013   2.625   5.293  0.8217  0.9257  1.6031
 7811TIP3    H223398   6.103   2.555   5.193 -2.1632  0.9209 -1.2268
 7812TIP3   OH223399   4.280   1.120   3.055 -0.0040  0.0268  0.4026
 7812TIP3    H123400   4.370   1.140   3.082  0.4955 -0.4994 -0.7799
 7812TIP3    H223401   4.269   1.169   2.973 -0.3886 -0.8396 -0.0711
 7813TIP3   OH223402   5.157   5.954   0.416 -0.3081 -0.4256 -0.2878
 7813TIP3    H123403   5.159   6.000   0.332  3.1660 -0.6245 -0.4690
 7813TIP3    H223404   5.138   6.022   0.480 -3.0761 -0.2790 -1.1513
 7814TIP3   OH223405   6.883   3.744   1.886  0.3977  0.0930  0.2010
 7814TIP3    H123406   6.932   3.755   1.968  0.5412  1.9441 -0.1059
 7814TIP3    H223407   6.875   3.832   1.850 -3.5507  0.0151  0.4535
 7815TIP3   OH223408   2.845   4.182   4.877 -0.2814  0.1494 -0.0990
 7815TIP3    H123409   2.916   4.243   4.857 -0.5705  0.1279 -1.2240
 7815TIP3    H223410   2.859   4.108   4.818 -1.0806  0.0227 -0.1368
 7816TIP3   OH223411   5.637   0.300   2.873 -0.2235  0.7358  0.1774
 7816TIP3    H123412   5.608   0.351   2.949  1.1584 -0.0743  1.2949
 7816TIP3    H223413   5.723   0.336   2.851  0.2877 -0.3733  0.3046
 7817TIP3   OH223414   3.381   5.289   5.703 -0.4129 -0.4488 -0.3808
 7817TIP3    H123415   3.363   5.195   5.712  0.0660 -0.5119 -0.0576
 7817TIP3    H223416   3.318   5.331   5.760 -0.4789 -0.5883 -0.3510
 7818TIP3   OH223417   3.359   1.260   0.452  0.2882  0.0750 -0.8029
 7818TIP3    H123418   3.319   1.173   0.443  0.4051  0.1113 -1.8967
 7818TIP3    H223419   3.289   1.316   0.485 -0.2583 -0.1085 -1.6095
 7819TIP3   OH223420   4.932   0.909   2.935 -0.3789  0.0106  0.3388
 7819TIP3    H123421   5.001   0.844   2.921 -1.2459 -1.2994  1.8150
 7819TIP3    H223422   4.949   0.944   3.022 -0.5473  1.0413 -0.0203
 7820TIP3   OH223423   3.549   3.466   5.171  0.1390 -0.1149 -0.0729
 7820TIP3    H123424   3.576   3.379   5.143  0.2825 -0.0982  0.0098
 7820TIP3    H223425   3.569   3.523   5.097  3.7133  0.5308  1.1771
 7821TIP3   OH223426   6.466   5.005   4.844 -0.0229  0.1303 -0.4325
 7821TIP3    H123427   6.494   5.043   4.761 -0.2708 -1.1971 -1.1484
 7821TIP3    H223428   6.454   4.912   4.826 -2.2334  0.1537  0.5288
 7822TIP3   OH223429   2.514   3.641   4.873  0.1287 -0.0622  0.0479
 7822TIP3    H123430   2.486   3.663   4.961  0.6517  1.2549 -0.0987
 7822TIP3    H223431   2.610   3.651   4.874  0.1249  0.1533 -0.7077
 7823TIP3   OH223432   5.201   5.907   1.221 -0.0351 -0.6297  0.6987
 7823TIP3    H123433   5.294   5.918   1.238  0.0410  0.0384 -0.0905
 7823TIP3    H223434   5.169   5.995   1.202 -0.8064 -0.8670  0.8598
 7824TIP3   OH223435   6.849   4.681   5.696 -0.1590  0.3231  0.5770
 7824TIP3    H123436   6.902   4.629   5.636  0.1202  1.3996 -0.1305
 7824TIP3    H223437   6.807   4.747   5.641 -2.3979 -0.5821  1.0808
 7825TIP3   OH223438   2.504   2.618   3.710 -0.0849  0.2605 -0.2606
 7825TIP3    H123439   2.511   2.524   3.726 -1.2985  0.2879  0.5626
 7825TIP3    H223440   2.505   2.627   3.615 -0.6755 -0.6536 -0.3648
 7826TIP3   OH223441   2.007   1.164   4.912  0.1975 -0.7630  0.0746
 7826TIP3    H123442   1.942   1.118   4.965 -0.9458  0.2142 -0.4498
 7826TIP3    H223443   1.968   1.170   4.825  1.7420 -1.7015 -0.7373
 7827TIP3   OH223444   0.537   0.634   4.113 -0.1284  0.4397 -0.0048
 7827TIP3    H123445   0.464   0.644   4.052 -1.6988  0.5890  1.8065
 7827TIP3    H223446   0.518   0.553   4.160  1.2123  0.1645  0.0945
 7828TIP3   OH223447   4.086   0.480   4.936 -0.1961 -0.3137 -0.3487
 7828TIP3    H123448   4.076   0.567   4.974 -2.8045 -1.5532  2.1414
 7828TIP3    H223449   4.151   0.436   4.991 -0.8533 -0.7865  0.0512
 7829TIP3   OH223450   4.889   2.286   2.218  0.3930 -0.0539  0.4696
 7829TIP3    H123451   4.950   2.263   2.288  1.1033  0.3475 -0.0078
 7829TIP3    H223452   4.834   2.208   2.207  0.2189 -0.0869  1.5238
 7830TIP3   OH223453   4.697   3.627   3.004 -0.0596 -0.2582  0.2115
 7830TIP3    H123454   4.771   3.603   3.059 -0.4200 -1.2616  0.2758
 7830TIP3    H223455   4.642   3.549   3.003 -1.0919  0.4561  0.1237
 7831TIP3   OH223456   4.185   6.197   4.251 -0.0222  0.6315  0.9992
 7831TIP3    H123457   4.143   6.182   4.166  1.1550 -0.3500  0.5729
 7831TIP3    H223458   4.112   6.218   4.309 -1.1488 -0.9921  0.2735
 7832TIP3   OH223459   0.988   6.627   1.927  0.2448  0.0030  0.5655
 7832TIP3    H123460   0.997   6.721   1.912 -0.6769  0.0592  0.2812
 7832TIP3    H223461   0.959   6.592   1.843  4.0801 -1.1421 -0.4809
 7833TIP3   OH223462   4.600   3.704   2.714 -0.0048  0.0666 -0.1956
 7833TIP3    H123463   4.685   3.660   2.722 -0.1328 -0.2336 -0.4796
 7833TIP3    H223464   4.550   3.649   2.654  0.0611  0.9227 -1.0726
 7834TIP3   OH223465   6.578   1.139   2.654  0.5989  0.1424 -0.4175
 7834TIP3    H123466   6.543   1.069   2.709  1.3436  1.3879  1.7736
 7834TIP3    H223467   6.506   1.201   2.645  1.3050  1.4215  1.8655
 7835TIP3   OH223468   1.721   2.056   1.171  0.6162 -0.0833  0.1234
 7835TIP3    H123469   1.793   1.995   1.187  0.6484 -0.6359 -1.8589
 7835TIP3    H223470   1.701   2.045   1.078 -0.1547  2.1232 -0.0144
 7836TIP3   OH223471   2.810   1.561   0.875  0.2706  0.4145  0.0216
 7836TIP3    H123472   2.883   1.623   0.875  0.0890  0.6343  0.3900
 7836TIP3    H223473   2.734   1.614   0.899 -0.0588  0.2368 -0.6299
 7837TIP3   OH223474   5.614   6.682   2.813  0.4027 -0.0265 -0.2006
 7837TIP3    H123475   5.675   6.644   2.876  1.1734  0.5441 -0.5884
 7837TIP3    H223476   5.533   6.696   2.863  0.9780  0.3331  0.6459
 7838TIP3   OH223477   2.587   2.440   5.397  0.0612  0.3212 -0.0731
 7838TIP3    H123478   2.625   2.469   5.480 -3.4766 -0.0934  1.8968
 7838TIP3    H223479   2.519   2.505   5.378 -2.5031 -2.1785  0.0675
 7839TIP3   OH223480   2.632   6.266   5.280  0.1298 -0.0015 -0.2109
 7839TIP3    H123481   2.706   6.271   5.340 -0.7454  0.8907  0.8364
 7839TIP3    H223482   2.604   6.356   5.269 -0.6242 -0.3031 -0.8238
 7840TIP3   OH223483   5.133   1.139   2.472  0.4717 -0.0872  0.4126
 7840TIP3    H123484   5.155   1.207   2.535 -0.8595 -0.2325  1.0725
 7840TIP3    H223485   5.037   1.139   2.469  0.4892  0.5285 -2.3068
 7841TIP3   OH223486   4.597   2.862   5.021  0.0780 -0.1715 -0.1988
 7841TIP3    H123487   4.549   2.933   4.978 -0.4914  0.6401  1.7065
 7841TIP3    H223488   4.684   2.899   5.038  0.8272 -1.0085 -1.9423
 7842TIP3   OH223489   5.611   0.886   5.800 -0.0245 -0.0224  0.0453
 7842TIP3    H123490   5.575   0.798   5.810  1.7800 -0.6925  1.1789
 7842TIP3    H223491   5.578   0.935   5.876 -0.2140 -0.0163 -0.0408
 7843TIP3   OH223492   2.290   5.978   2.820 -0.4462 -0.0330  0.4796
 7843TIP3    H123493   2.276   5.909   2.756 -1.3180  1.4328 -0.9677
 7843TIP3    H223494   2.338   6.046   2.773 -1.8793  1.4589  1.0943
 7844TIP3   OH223495   3.798   1.444   0.310  0.1063  0.1803  0.1455
 7844TIP3    H123496   3.806   1.523   0.363  0.7297  0.6130 -0.5556
 7844TIP3    H223497   3.865   1.454   0.242 -1.2131  0.0638 -1.2280
 7845TIP3   OH223498   4.775   6.563   4.396  0.1848  0.5446  0.2788
 7845TIP3    H123499   4.862   6.571   4.359 -0.1115  0.2225 -0.4904
 7845TIP3    H223500   4.769   6.472   4.425  1.1346  1.2443  2.9886
 7846TIP3   OH223501   5.711   6.176   1.907  0.3905  0.1490  0.4597
 7846TIP3    H123502   5.696   6.129   1.825  0.5857 -1.8042  1.4863
 7846TIP3    H223503   5.633   6.230   1.918  0.2785  0.3133 -0.8938
 7847TIP3   OH223504   6.820   5.323   4.915 -0.3070 -0.2728  0.1120
 7847TIP3    H123505   6.870   5.403   4.926 -0.2700 -0.3153  0.2576
 7847TIP3    H223506   6.755   5.325   4.986 -0.2439 -0.4166  0.1745
 7848TIP3   OH223507   3.298   6.318   4.017 -0.6472  0.1704 -0.3472
 7848TIP3    H123508   3.390   6.291   4.005  0.1542  0.9578  3.1208
 7848TIP3    H223509   3.248   6.243   3.986  1.3396 -2.1801  1.6514
 7849TIP3   OH223510   2.186   3.768   1.954 -0.4232 -0.4736 -0.4752
 7849TIP3    H123511   2.107   3.772   2.007  0.5144  0.4540  0.9393
 7849TIP3    H223512   2.185   3.680   1.915 -1.1269 -1.2369  1.1718
 7850TIP3   OH223513   0.836   1.373   1.420  0.4445 -0.5498  0.3277
 7850TIP3    H123514   0.778   1.305   1.385 -0.3142  0.1480  0.1775
 7850TIP3    H223515   0.795   1.398   1.503  0.6507 -0.2064  0.3265
 7851TIP3   OH223516   0.461   5.755   0.571  0.2280  0.0986 -0.3990
 7851TIP3    H123517   0.517   5.803   0.632  0.3738 -0.4057 -0.1286
 7851TIP3    H223518   0.372   5.782   0.594  0.3254  0.4656 -0.4494
 7852TIP3   OH223519   7.137   1.390   5.506  0.0820 -0.8867  0.0675
 7852TIP3    H123520   7.073   1.461   5.515  0.4757 -0.2457 -1.7243
 7852TIP3    H223521   7.105   1.338   5.432  1.5269 -0.6364 -0.7690
 7853TIP3   OH223522   5.381   0.595   4.214 -0.3327  0.2042 -0.4019
 7853TIP3    H123523   5.419   0.508   4.227 -0.8679  0.3024  2.5541
 7853TIP3    H223524   5.308   0.580   4.153 -0.6346 -1.5177  0.3138
 7854TIP3   OH223525   3.987   2.870   5.588 -0.4551  0.2178  0.1258
 7854TIP3    H123526   3.970   2.776   5.590 -0.0710 -0.0103 -2.7341
 7854TIP3    H223527   4.017   2.887   5.498  0.4984  2.9084  0.8570
 7855TIP3   OH223528   1.199   3.540   0.761  0.5872 -0.5012  0.9071
 7855TIP3    H123529   1.195   3.450   0.794  0.6465 -0.5249  0.8483
 7855TIP3    H223530   1.126   3.585   0.805 -0.6363 -1.0407 -0.4739
 7856TIP3   OH223531   0.967   2.837   0.774  0.1849  0.1406  0.1123
 7856TIP3    H123532   0.946   2.816   0.865  0.4760  3.3976  1.0610
 7856TIP3    H223533   0.885   2.823   0.727 -0.4340  0.0009  1.1916
 7857TIP3   OH223534   0.656   2.226   0.765 -0.3076  0.6798  0.0719
 7857TIP3    H123535   0.610   2.240   0.848 -3.0572  2.1255 -1.5636
 7857TIP3    H223536   0.715   2.301   0.757  0.5413  0.1382  1.0103
 7858TIP3   OH223537   5.415   0.256   3.835 -0.3968 -1.0133  0.7768
 7858TIP3    H123538   5.413   0.217   3.747  2.1988 -1.6286  0.9139
 7858TIP3    H223539   5.503   0.239   3.867 -0.2020  2.0050  2.2493
 7859TIP3   OH223540   1.460   5.630   0.281 -0.0666 -0.1859  0.4397
 7859TIP3    H123541   1.501   5.568   0.220 -0.4040 -0.2867  0.3154
 7859TIP3    H223542   1.370   5.637   0.251 -0.0395  0.3443  0.4697
 7860TIP3   OH223543   3.022   2.652   2.736  0.1635 -0.4888 -0.2128
 7860TIP3    H123544   2.958   2.635   2.805  0.4465 -1.3266 -0.1438
 7860TIP3    H223545   2.969   2.665   2.657 -0.0872 -1.5616 -0.2359
 7861TIP3   OH223546   0.066   2.317   3.183  0.6150 -0.3804 -0.1408
 7861TIP3    H123547   0.092   2.229   3.156 -0.8897 -0.6026 -1.0165
 7861TIP3    H223548   0.006   2.346   3.114  3.1867  2.4798 -1.4024
 7862TIP3   OH223549   4.059   3.186   4.672 -0.3234  0.1529  0.3293
 7862TIP3    H123550   3.971   3.174   4.707  0.3065 -1.4696  1.5072
 7862TIP3    H223551   4.072   3.112   4.613  1.2896 -1.5342  2.5791
 7863TIP3   OH223552   3.702   2.500   2.596  0.2480  0.3669 -0.3211
 7863TIP3    H123553   3.727   2.415   2.562  1.0599  1.0968 -1.6133
 7863TIP3    H223554   3.758   2.563   2.550 -0.1626  1.5887  0.7607
 7864TIP3   OH223555   1.402   1.823   2.835 -0.2508 -0.0792  0.3256
 7864TIP3    H123556   1.453   1.872   2.770  0.5362  0.0311  1.0153
 7864TIP3    H223557   1.419   1.867   2.918 -1.3452 -0.1428  0.6059
 7865TIP3   OH223558   3.762   6.478   3.099  0.4985  0.2113  0.8439
 7865TIP3    H123559   3.844   6.524   3.117  1.1984 -0.8757  0.5838
 7865TIP3    H223560   3.751   6.486   3.004  0.0101  0.8040  0.9438
 7866TIP3   OH223561   5.533   3.287   4.653  0.0176 -0.8283  0.0381
 7866TIP3    H123562   5.590   3.329   4.717  0.8953 -1.0729 -0.5592
 7866TIP3    H223563   5.485   3.221   4.703 -0.0635 -0.3134  0.6398
 7867TIP3   OH223564   2.970   2.607   3.510  0.1755  0.0300 -0.5294
 7867TIP3    H123565   2.887   2.582   3.470 -0.5019  0.0972  0.7875
 7867TIP3    H223566   2.954   2.696   3.542  0.3671 -0.3987  0.7760
 7868TIP3   OH223567   5.803   3.138   2.411  0.0630 -0.0336 -0.5729
 7868TIP3    H123568   5.750   3.075   2.363  0.5486 -1.6164  0.8906
 7868TIP3    H223569   5.892   3.105   2.404  0.5022  1.1107 -0.7060
 7869TIP3   OH223570   4.897   0.824   3.828 -0.2465  0.2874  0.1105
 7869TIP3    H123571   4.911   0.756   3.895  1.5464  0.1338 -0.3573
 7869TIP3    H223572   4.878   0.775   3.748 -0.4996  0.3958  0.1053
 7870TIP3   OH223573   4.588   0.463   1.568 -0.1128  0.4783 -0.2833
 7870TIP3    H123574   4.657   0.397   1.577  0.0639  0.7138  0.0832
 7870TIP3    H223575   4.534   0.430   1.496  0.9293  0.7796 -1.2320
 7871TIP3   OH223576   2.781   6.011   0.392 -0.0959 -0.3914  0.3513
 7871TIP3    H123577   2.849   6.043   0.451  2.7089 -1.5850 -1.9294
 7871TIP3    H223578   2.761   6.085   0.335  0.5342 -0.4549  0.0354
 7872TIP3   OH223579   1.250   2.849   5.277 -0.0782  0.3541  0.2680
 7872TIP3    H123580   1.299   2.830   5.197 -1.6362 -2.7866 -0.1106
 7872TIP3    H223581   1.305   2.910   5.325  2.3248  0.0213 -1.8389
 7873TIP3   OH223582   5.473   0.341   1.523 -0.0915 -0.0879 -0.0900
 7873TIP3    H123583   5.423   0.420   1.504 -1.7588 -1.0953 -0.0760
 7873TIP3    H223584   5.551   0.349   1.469 -0.2986  1.4768 -0.2166
 7874TIP3   OH223585   3.438   1.014   1.168 -0.2508 -0.1757 -0.4701
 7874TIP3    H123586   3.408   0.945   1.227  0.5290 -0.7216 -0.6940
 7874TIP3    H223587   3.358   1.060   1.142 -0.6408 -0.0865  0.7965
 7875TIP3   OH223588   1.380   5.927   5.161  0.1801  0.0017 -0.2633
 7875TIP3    H123589   1.330   5.861   5.113 -2.0514  0.0787  1.7881
 7875TIP3    H223590   1.338   6.010   5.138 -0.9175  0.0403  1.7112
 7876TIP3   OH223591   3.922   1.659   2.278 -0.6742 -0.0947  0.4616
 7876TIP3    H123592   3.845   1.605   2.296 -1.3220  0.0766 -1.5516
 7876TIP3    H223593   3.976   1.606   2.219 -0.5590  0.8272 -0.2833
 7877TIP3   OH223594   2.597   1.074   0.597 -0.1307  0.8671  0.2082
 7877TIP3    H123595   2.588   0.989   0.554 -1.6625  1.5849 -1.0140
 7877TIP3    H223596   2.508   1.110   0.599  0.6810  3.2016 -0.9836
 7878TIP3   OH223597   3.032   2.151   4.087  0.3122 -0.0999  0.9839
 7878TIP3    H123598   3.040   2.173   3.994  0.3401 -0.5216  0.8856
 7878TIP3    H223599   3.089   2.214   4.131  0.5818 -0.1312  0.6821
 7879TIP3   OH223600   6.303   5.510   3.457 -0.1185  0.2700  0.4008
 7879TIP3    H123601   6.231   5.468   3.504 -1.1203 -0.2486 -1.5169
 7879TIP3    H223602   6.372   5.444   3.454 -0.1551  0.2061  0.8438
 7880TIP3   OH223603   2.783   0.775   2.478 -1.0342 -0.0618 -0.2112
 7880TIP3    H123604   2.843   0.849   2.475 -1.4485  0.3562  1.1970
 7880TIP3    H223605   2.700   0.810   2.446 -0.7304 -0.4691 -1.5136
 7881TIP3   OH223606   5.537   6.117   4.842 -0.6471 -0.1294 -0.1124
 7881TIP3    H123607   5.458   6.163   4.869  0.3345  0.4481  1.9874
 7881TIP3    H223608   5.608   6.159   4.891  0.9928 -0.5997 -1.9470
 7882TIP3   OH223609   1.949   4.784   4.446 -0.6357  0.5383 -0.0407
 7882TIP3    H123610   1.992   4.801   4.530  0.4571 -2.1826  0.0392
 7882TIP3    H223611   1.970   4.693   4.426 -2.3128  0.5898 -2.4526
 7883TIP3   OH223612   1.914   6.121   4.521 -0.0541  0.1879  0.0156
 7883TIP3    H123613   1.922   6.216   4.522 -0.5854  0.2528  1.7581
 7883TIP3    H223614   1.965   6.093   4.446 -1.1134  1.9482 -1.4363
 7884TIP3   OH223615   4.132   2.054   4.946  0.0383 -0.4460  0.2061
 7884TIP3    H123616   4.054   2.085   4.901  1.4374  1.6778 -0.9614
 7884TIP3    H223617   4.170   1.990   4.887  0.6352  0.6125 -0.5868
 7885TIP3   OH223618   3.012   1.606   1.188  0.3040  0.1882 -0.4492
 7885TIP3    H123619   3.068   1.641   1.119  1.0132  0.9073  0.4625
 7885TIP3    H223620   3.021   1.511   1.181  0.6752  0.2639 -1.0920
 7886TIP3   OH223621   6.333   3.596   2.148  0.2298  0.5549 -0.0549
 7886TIP3    H123622   6.253   3.553   2.177 -0.1797  0.4417 -1.3026
 7886TIP3    H223623   6.370   3.537   2.082  2.7223 -0.6828  2.2284
 7887TIP3   OH223624   2.055   1.746   5.476  0.2839 -0.5774  0.4334
 7887TIP3    H123625   2.007   1.676   5.521 -1.8052  0.4634 -0.0215
 7887TIP3    H223626   1.999   1.769   5.401  1.6746  0.5301 -0.3185
 7888TIP3   OH223627   0.725   4.462   0.790  0.1186 -0.2487  0.0176
 7888TIP3    H123628   0.684   4.378   0.770 -1.0791  0.3150  0.0154
 7888TIP3    H223629   0.674   4.497   0.863  2.5314 -0.8984  2.1759
 7889TIP3   OH223630   1.096   5.639   5.439  0.2126  0.5981  0.5330
 7889TIP3    H123631   1.059   5.672   5.358 -0.5155  0.9860  1.0158
 7889TIP3    H223632   1.078   5.707   5.504  0.6641  0.2360  1.0549
 7890TIP3   OH223633   0.274   5.769   1.343 -0.0558  0.0152  0.4333
 7890TIP3    H123634   0.194   5.755   1.393 -0.4892 -0.3478 -0.3303
 7890TIP3    H223635   0.278   5.694   1.283  0.2400  0.6180 -0.3254
 7891TIP3   OH223636   1.842   0.403   4.884 -0.6812  0.0688 -0.2576
 7891TIP3    H123637   1.938   0.408   4.891 -0.5417  0.2693 -1.9525
 7891TIP3    H223638   1.811   0.475   4.940  0.2688  1.5600 -1.5657
 7892TIP3   OH223639   1.881   2.980   0.504  0.6461  0.3304  0.2628
 7892TIP3    H123640   1.810   3.041   0.484  0.4280  0.3198  0.9920
 7892TIP3    H223641   1.838   2.894   0.505  0.7310  0.2904  0.3993
 7893TIP3   OH223642   6.276   5.583   0.756  0.0213  0.0930 -0.2881
 7893TIP3    H123643   6.274   5.654   0.820  2.9964  1.4035 -1.4302
 7893TIP3    H223644   6.235   5.621   0.678 -0.7919 -0.4147 -0.1180
 7894TIP3   OH223645   2.095   6.659   2.742 -0.3351 -0.0241  0.2206
 7894TIP3    H123646   2.185   6.627   2.733 -0.4827 -0.3048 -0.2673
 7894TIP3    H223647   2.042   6.598   2.691 -0.8527 -0.0816  0.8224
 7895TIP3   OH223648   3.429   0.499   4.966  0.0166 -0.1005  0.1242
 7895TIP3    H123649   3.385   0.466   4.888 -1.0810 -0.3278  0.8191
 7895TIP3    H223650   3.387   0.583   4.984  0.6420  0.2120  0.1683
 7896TIP3   OH223651   0.716   5.606   1.370  0.0531 -0.1919 -1.4243
 7896TIP3    H123652   0.788   5.624   1.430 -1.8333  0.5759  0.7373
 7896TIP3    H223653   0.669   5.533   1.410 -0.9252 -0.0684 -2.3158
 7897TIP3   OH223654   0.181   6.122   5.115 -0.5844  0.0169 -0.3508
 7897TIP3    H123655   0.096   6.091   5.086 -1.2418 -0.6296  2.0489
 7897TIP3    H223656   0.218   6.048   5.164  2.2649 -0.4457 -2.8436
 7898TIP3   OH223657   1.301   4.482   5.832  0.0751  0.2730  0.3793
 7898TIP3    H123658   1.362   4.439   5.772  0.0177 -0.4324  0.8074
 7898TIP3    H223659   1.238   4.525   5.774 -0.0844 -0.5433 -0.0859
 7899TIP3   OH223660   0.380   3.964   0.878  0.4351  0.5102 -0.0629
 7899TIP3    H123661   0.337   3.940   0.960 -0.0138 -1.1008 -0.7354
 7899TIP3    H223662   0.323   4.032   0.841  1.3916  2.3375  1.5669
 7900TIP3   OH223663   2.041   3.282   0.989  0.1531 -0.0371 -0.3075
 7900TIP3    H123664   1.989   3.230   0.927 -1.5128  0.8220  0.2817
 7900TIP3    H223665   2.016   3.249   1.075 -0.1300  1.0049  0.0261
 7901TIP3   OH223666   5.867   5.842   5.254  1.0204  0.0296  0.6327
 7901TIP3    H123667   5.961   5.853   5.242  0.9562  0.9443  0.9058
 7901TIP3    H223668   5.828   5.907   5.196  0.5760  0.1117  1.0155
 7902TIP3   OH223669   2.039   5.693   1.671 -0.4081 -0.2740  0.3634
 7902TIP3    H123670   2.117   5.741   1.644  0.0451 -1.3166 -0.2654
 7902TIP3    H223671   2.072   5.626   1.730 -0.8511 -0.5871  0.2610
 7903TIP3   OH223672   6.544   1.876   2.739 -0.6218 -0.1846 -0.0611
 7903TIP3    H123673   6.484   1.950   2.729 -1.4294 -0.4257  2.4160
 7903TIP3    H223674   6.487   1.800   2.755  0.2513 -1.1488 -1.2774
 7904TIP3   OH223675   2.085   4.837   5.647 -0.4555  0.2391 -0.1665
 7904TIP3    H123676   2.161   4.806   5.696 -0.8128 -0.1273  0.1639
 7904TIP3    H223677   2.051   4.910   5.698 -0.7929 -0.1054  0.1131
 7905TIP3   OH223678   3.361   4.963   1.833 -0.2141  0.0837  0.1064
 7905TIP3    H123679   3.451   4.931   1.840 -0.2948  0.1502  1.7547
 7905TIP3    H223680   3.355   5.032   1.899 -1.3033  0.5245 -0.4251
 7906TIP3   OH223681   3.140   2.019   0.475  0.3594 -0.4271 -0.2929
 7906TIP3    H123682   3.205   1.972   0.528  0.0466 -0.0276  0.4488
 7906TIP3    H223683   3.060   2.016   0.526  0.5848  1.8293  0.2923
 7907TIP3   OH223684   6.362   5.497   5.095  0.2457 -0.1167 -0.5772
 7907TIP3    H123685   6.283   5.502   5.150  0.1787  2.7367 -0.7714
 7907TIP3    H223686   6.328   5.481   5.007 -0.0496  0.1476 -0.5154
 7908TIP3   OH223687   1.575   1.571   5.867 -0.4163  0.1126 -0.0383
 7908TIP3    H123688   1.492   1.562   5.821 -0.1908 -3.2218 -0.0295
 7908TIP3    H223689   1.557   1.544   5.957  1.1393 -4.0926 -0.7618
 7909TIP3   OH223690   3.214   6.161   4.997  0.1706 -0.2464 -0.3241
 7909TIP3    H123691   3.274   6.235   4.995 -0.7495  0.5241 -0.1328
 7909TIP3    H223692   3.262   6.092   5.043  0.8735  0.3779 -0.1108
 7910TIP3   OH223693   6.743   4.369   2.636 -0.7927 -0.0421 -0.2168
 7910TIP3    H123694   6.722   4.377   2.543  1.9301  3.4772 -0.7137
 7910TIP3    H223695   6.710   4.450   2.675  0.3214 -0.3151  1.3782
 7911TIP3   OH223696   1.086   2.260   0.933  0.1415 -0.0698  1.1915
 7911TIP3    H123697   1.083   2.165   0.917  2.4904 -0.0778  0.5306
 7911TIP3    H223698   1.162   2.273   0.988  0.2558  1.5167  0.7055
 7912TIP3   OH223699   0.580   4.968   2.642  0.4388  0.0056 -0.0369
 7912TIP3    H123700   0.656   5.004   2.687 -0.2969 -0.1829  1.4196
 7912TIP3    H223701   0.511   5.033   2.657  0.0513 -0.2916 -0.5036
 7913TIP3   OH223702   2.236   5.557   1.050  0.0160  0.1547  0.0942
 7913TIP3    H123703   2.217   5.518   1.135  0.5449 -1.5691 -0.5489
 7913TIP3    H223704   2.177   5.633   1.046 -0.4240 -0.0521  1.7465
 7914TIP3   OH223705   1.472   2.239   5.323 -0.6703  0.5954 -0.2455
 7914TIP3    H123706   1.554   2.257   5.278 -0.8680 -1.1425 -1.3889
 7914TIP3    H223707   1.494   2.177   5.392 -0.8912  0.8473  0.0605
 7915TIP3   OH223708   2.200   2.072   0.224 -0.6432 -0.1401  0.0625
 7915TIP3    H123709   2.140   2.144   0.204 -1.8833 -0.6382  1.7248
 7915TIP3    H223710   2.275   2.086   0.166 -1.5006  1.6207 -0.7043
 7916TIP3   OH223711   2.807   2.636   2.899  0.0470 -0.0426  0.5585
 7916TIP3    H123712   2.769   2.721   2.878  1.4766  0.4325 -0.1996
 7916TIP3    H223713   2.856   2.650   2.980 -0.1125 -0.2758  0.6991
 7917TIP3   OH223714   6.970   0.957   4.675  0.2760 -0.3316  0.2813
 7917TIP3    H123715   7.017   1.023   4.725 -0.2693 -0.9190  1.6249
 7917TIP3    H223716   6.897   1.004   4.636  0.2513 -0.0123  0.7052
 7918TIP3   OH223717   5.885   0.697   2.223 -0.0980 -0.6313  0.2967
 7918TIP3    H123718   5.808   0.701   2.165 -0.1842  0.3136  0.4615
 7918TIP3    H223719   5.951   0.750   2.178  1.1146 -2.8744 -0.7449
 7919TIP3   OH223720   4.955   0.568   3.977  0.5547 -0.1967 -0.3052
 7919TIP3    H123721   4.894   0.515   3.926  1.4996 -2.0168  0.3572
 7919TIP3    H223722   5.031   0.511   3.990  1.0823  0.8356  1.5719
 7920TIP3   OH223723   4.867   3.130   3.292 -0.4657 -0.0700 -0.2212
 7920TIP3    H123724   4.911   3.215   3.298 -2.0118  0.8905 -1.6024
 7920TIP3    H223725   4.922   3.071   3.344  3.2431  0.6926 -2.8808
 7921TIP3   OH223726   6.630   3.225   3.629 -0.1988 -0.0868  0.3010
 7921TIP3    H123727   6.658   3.225   3.721 -0.3051  1.1266  0.3482
 7921TIP3    H223728   6.587   3.140   3.617  1.3921 -1.0250  0.8772
 7922TIP3   OH223729   5.395   0.629   4.685  0.2012  0.2592 -0.0279
 7922TIP3    H123730   5.405   0.560   4.619  1.2121  0.4430 -0.0754
 7922TIP3    H223731   5.300   0.644   4.689  0.1508  1.0839 -2.3287
 7923TIP3   OH223732   2.407   1.385   0.823  0.1095 -0.4186 -0.1621
 7923TIP3    H123733   2.431   1.391   0.915 -0.2940  0.7991 -0.1195
 7923TIP3    H223734   2.316   1.357   0.824 -0.8382  2.3732 -0.0486
 7924TIP3   OH223735   4.829   1.804   0.639 -0.2362 -0.0469  0.2452
 7924TIP3    H123736   4.923   1.825   0.635 -0.3423  0.5351  0.6748
 7924TIP3    H223737   4.820   1.748   0.717 -0.1379 -0.7352 -0.2255
 7925TIP3   OH223738   3.125   4.149   4.477  0.1558 -0.7046  0.0611
 7925TIP3    H123739   3.195   4.098   4.435 -0.1054 -0.5738 -0.5348
 7925TIP3    H223740   3.045   4.102   4.454 -0.0143 -0.4704  0.1773
 7926TIP3   OH223741   1.913   2.290   4.536 -0.8567 -0.1726 -0.1297
 7926TIP3    H123742   1.824   2.275   4.503 -0.9275 -0.4459  0.1810
 7926TIP3    H223743   1.951   2.202   4.543 -1.2505 -0.2296  1.6555
 7927TIP3   OH223744   0.354   0.248   1.681 -0.3504 -0.2770  0.2580
 7927TIP3    H123745   0.265   0.285   1.675  0.2758  1.3322  0.4881
 7927TIP3    H223746   0.354   0.176   1.617 -1.9542 -0.6311  0.5989
 7928TIP3   OH223747   6.281   5.916   3.296 -0.0724 -0.3783 -0.1370
 7928TIP3    H123748   6.355   5.891   3.240  1.1648 -0.2529  1.3788
 7928TIP3    H223749   6.322   5.952   3.375 -1.7070 -2.1069  1.5846
 7929TIP3   OH223750   1.036   0.860   2.976  0.5621  0.4491  0.0213
 7929TIP3    H123751   1.091   0.844   3.053 -0.5518 -0.3353  0.6753
 7929TIP3    H223752   1.076   0.936   2.934  0.6411  1.4909  1.8870
 7930TIP3   OH223753   2.826   0.958   3.132 -1.1022  0.0180  0.5403
 7930TIP3    H123754   2.768   1.000   3.068 -0.1620  0.2260 -0.2061
 7930TIP3    H223755   2.864   1.031   3.182  1.1337  0.2205 -1.2740
 7931TIP3   OH223756   2.834   2.029   2.234  0.1880 -0.3638  0.2843
 7931TIP3    H123757   2.923   1.994   2.245  0.9279  1.2535 -0.2384
 7931TIP3    H223758   2.818   2.024   2.140  0.2506  0.5454  0.2207
 7932TIP3   OH223759   4.051   5.819   1.871 -0.1013 -0.1614 -0.5043
 7932TIP3    H123760   4.086   5.908   1.866  0.2637 -0.2559  0.1978
 7932TIP3    H223761   4.002   5.807   1.790 -0.0368  0.6304 -0.6637
 7933TIP3   OH223762   2.204   1.947   5.256 -0.3167 -0.4860 -0.4634
 7933TIP3    H123763   2.274   1.928   5.194 -0.5360 -3.0826 -0.0376
 7933TIP3    H223764   2.125   1.914   5.214 -0.5579 -1.7511  0.8854
 7934TIP3   OH223765   3.635   3.199   5.200  0.1118  0.0542  0.1548
 7934TIP3    H123766   3.656   3.107   5.182 -0.6298  0.0142 -0.5528
 7934TIP3    H223767   3.542   3.199   5.223 -1.0124  1.0372 -3.6570
 7935TIP3   OH223768   4.778   1.115   0.584  0.0410  0.0896 -0.0778
 7935TIP3    H123769   4.695   1.071   0.604 -0.1127  0.0148 -0.8751
 7935TIP3    H223770   4.823   1.056   0.523 -0.1863  1.0495 -1.2090
 7936TIP3   OH223771   5.246   3.592   1.222  0.3179 -0.1237  0.8490
 7936TIP3    H123772   5.240   3.598   1.126 -2.3221 -0.2055  0.9234
 7936TIP3    H223773   5.262   3.499   1.239  0.3379 -0.1877  0.4940
 7937TIP3   OH223774   2.038   4.093   0.459 -0.7948  0.2433  0.3210
 7937TIP3    H123775   1.945   4.093   0.435 -0.4024  1.3452 -1.4384
 7937TIP3    H223776   2.040   4.065   0.550 -2.9632  1.5116  0.8236
 7938TIP3   OH223777   1.827   6.362   5.594 -0.0390  0.3449 -0.3473
 7938TIP3    H123778   1.793   6.434   5.541 -0.1926  1.9389  1.7501
 7938TIP3    H223779   1.901   6.400   5.641 -0.1419 -0.8433  0.8508
 7939TIP3   OH223780   5.707   4.321   4.767  0.0575 -0.4825  0.7513
 7939TIP3    H123781   5.654   4.248   4.798 -1.0703 -0.4739 -1.0158
 7939TIP3    H223782   5.797   4.288   4.767 -0.1890 -1.1805  1.8605
 7940TIP3   OH223783   3.370   0.328   0.972  0.1408  0.2765 -0.5286
 7940TIP3    H123784   3.279   0.321   1.003  0.0172  1.6183 -0.5245
 7940TIP3    H223785   3.420   0.349   1.051  0.8338 -2.5742 -0.1095
 7941TIP3   OH223786   1.072   3.814   4.214 -0.4938  0.1057  0.2941
 7941TIP3    H123787   1.006   3.880   4.190 -0.3656  0.4521  0.8890
 7941TIP3    H223788   1.050   3.789   4.304 -0.4385 -0.5495  0.1315
 7942TIP3   OH223789   5.072   5.021   3.537  0.2181  0.0467  0.1223
 7942TIP3    H123790   4.986   5.062   3.528 -0.3312 -0.2646  3.0821
 7942TIP3    H223791   5.077   4.993   3.628  3.5375  0.1924  0.1348
 7943TIP3   OH223792   1.801   5.329   1.631  0.3755 -0.3577 -0.4899
 7943TIP3    H123793   1.840   5.323   1.718 -1.0111 -1.2702  0.0856
 7943TIP3    H223794   1.835   5.412   1.596 -0.4437  0.9548  1.6142
 7944TIP3   OH223795   3.118   0.223   3.343 -0.7719 -0.5620  0.3007
 7944TIP3    H123796   3.194   0.187   3.390 -0.4535 -0.5452 -0.1902
 7944TIP3    H223797   3.144   0.221   3.251 -0.6409  1.1543  0.2732
 7945TIP3   OH223798   5.434   5.191   1.733  0.4801 -0.3879 -0.2654
 7945TIP3    H123799   5.526   5.207   1.753  0.4744 -0.7248  0.0501
 7945TIP3    H223800   5.424   5.096   1.739 -0.3182 -0.2335  1.6519
 7946TIP3   OH223801   1.146   2.464   0.128  0.0649  0.0109 -0.3127
 7946TIP3    H123802   1.106   2.434   0.209 -1.5327  1.5291 -0.4940
 7946TIP3    H223803   1.117   2.554   0.117  1.5920  0.4033 -1.7404
 7947TIP3   OH223804   2.899   4.006   0.467 -0.1354 -0.3087 -0.0895
 7947TIP3    H123805   2.956   3.958   0.407  0.9345  0.4536  0.2813
 7947TIP3    H223806   2.816   4.014   0.420  0.4823 -0.2725 -1.2161
 7948TIP3   OH223807   4.965   4.763   3.037 -0.1972  0.0291  0.1675
 7948TIP3    H123808   5.015   4.721   3.107 -1.3462 -2.5218 -0.4154
 7948TIP3    H223809   4.876   4.771   3.073 -0.8342 -1.4473 -0.9910
 7949TIP3   OH223810   4.812   1.292   3.865  0.4787 -0.4215 -0.4239
 7949TIP3    H123811   4.891   1.306   3.918  1.4782 -0.8865 -1.7212
 7949TIP3    H223812   4.835   1.218   3.808 -1.9965 -2.6847  1.2495
 7950TIP3   OH223813   0.448   0.173   4.084 -0.4260  0.7281  0.6892
 7950TIP3    H123814   0.537   0.197   4.056 -0.3837  0.0837  0.2480
 7950TIP3    H223815   0.432   0.226   4.161  0.0881  1.3531  0.3767
 7951TIP3   OH223816   1.313   5.090   2.881  0.1366 -0.1279  0.3223
 7951TIP3    H123817   1.268   5.006   2.868  0.1469  0.1920 -2.4611
 7951TIP3    H223818   1.253   5.155   2.843  0.8327  0.9247  0.9772
 7952TIP3   OH223819   1.990   5.498   5.004  0.6970  0.3998 -0.0232
 7952TIP3    H123820   1.896   5.480   5.010  0.9723 -0.5366  3.0497
 7952TIP3    H223821   1.997   5.593   5.015  0.1832  0.2188  2.2707
 7953TIP3   OH223822   6.608   3.817   4.082 -0.1465 -0.1569  0.0022
 7953TIP3    H123823   6.653   3.867   4.015 -1.1925 -0.1339 -0.6988
 7953TIP3    H223824   6.520   3.854   4.085  0.0935  0.4018  1.9722
 7954TIP3   OH223825   7.171   5.662   3.894  0.1093 -0.4005  0.1614
 7954TIP3    H123826   7.229   5.588   3.877  1.2677  0.4358  0.3436
 7954TIP3    H223827   7.167   5.709   3.810 -1.3507 -1.1318 -0.2142
 7955TIP3   OH223828   2.118   3.268   2.921 -0.3513 -0.3648  0.1695
 7955TIP3    H123829   2.118   3.341   2.983 -0.1979  0.5640 -0.8738
 7955TIP3    H223830   2.111   3.310   2.835 -2.8390 -1.6949 -0.3835
 7956TIP3   OH223831   0.169   5.533   0.610 -0.0237  0.3318  0.2593
 7956TIP3    H123832   0.091   5.484   0.640 -1.3126  1.2496 -1.4448
 7956TIP3    H223833   0.181   5.600   0.677 -2.3451  1.8180 -0.6605
 7957TIP3   OH223834   1.182   6.630   4.870 -0.0016 -0.1666 -0.3596
 7957TIP3    H123835   1.099   6.585   4.887 -0.4711  0.3026 -1.3347
 7957TIP3    H223836   1.159   6.723   4.867  0.0016 -0.1580 -3.3190
 7958TIP3   OH223837   2.256   1.823   4.655 -0.4790  0.2694  0.6357
 7958TIP3    H123838   2.215   1.750   4.702 -1.7227  0.8773  0.5601
 7958TIP3    H223839   2.298   1.783   4.579 -0.4965 -0.4475  0.9926
 7959TIP3   OH223840   2.072   0.416   3.630  0.1047  0.5564  0.1934
 7959TIP3    H123841   2.090   0.346   3.567 -0.8220  0.3466  0.1365
 7959TIP3    H223842   1.999   0.464   3.590 -1.0443 -0.0637  1.4530
 7960TIP3   OH223843   1.057   1.346   4.208  0.1564 -0.3298  0.2965
 7960TIP3    H123844   1.147   1.321   4.228 -0.2077 -1.2824  0.7757
 7960TIP3    H223845   1.032   1.404   4.280  0.6972  0.7482 -0.3494
 7961TIP3   OH223846   0.489   2.007   4.886 -0.2575  0.0335 -0.1287
 7961TIP3    H123847   0.491   2.085   4.831  1.5749  1.8204  2.2836
 7961TIP3    H223848   0.565   1.956   4.859  1.1168  1.3070  1.1840
 7962TIP3   OH223849   6.581   4.797   2.141  0.1670 -0.0934  0.1715
 7962TIP3    H123850   6.513   4.744   2.183 -0.3053  0.4225  0.0735
 7962TIP3    H223851   6.534   4.873   2.107  0.5480 -0.4617 -1.2305
 7963TIP3   OH223852   0.114   1.859   0.903 -0.2272  0.1374 -0.7210
 7963TIP3    H123853   0.142   1.820   0.986  0.3956  0.7637 -0.6252
 7963TIP3    H223854   0.143   1.796   0.837  1.1136  0.5931 -0.5945
 7964TIP3   OH223855   5.501   5.409   3.870 -0.2352  0.2789 -0.1695
 7964TIP3    H123856   5.593   5.392   3.889 -0.9945 -2.2212  1.9081
 7964TIP3    H223857   5.463   5.432   3.955 -1.9035 -1.0257 -0.5023
 7965TIP3   OH223858   1.910   5.929   1.492  0.0596  0.1736 -0.6219
 7965TIP3    H123859   1.944   5.879   1.418 -0.8512 -0.9440 -0.3097
 7965TIP3    H223860   1.909   5.867   1.564  0.4074  1.0979  0.2059
 7966TIP3   OH223861   2.167   1.079   3.493 -0.1735 -0.4292  0.5067
 7966TIP3    H123862   2.093   1.020   3.501  0.4559 -1.1477  1.2263
 7966TIP3    H223863   2.241   1.030   3.527  1.2587 -0.8338 -2.7651
 7967TIP3   OH223864   7.077   5.641   0.524 -0.2283 -0.2607  0.6294
 7967TIP3    H123865   7.043   5.599   0.445 -1.7608 -2.3760  2.3015
 7967TIP3    H223866   7.160   5.598   0.541 -0.7329 -1.0806  1.0959
 7968TIP3   OH223867   6.986   3.210   1.109 -0.6340 -0.4111  0.3719
 7968TIP3    H123868   7.034   3.172   1.036 -2.5802 -0.4353 -0.9802
 7968TIP3    H223869   6.929   3.276   1.069  0.7535  2.1569  2.3245
 7969TIP3   OH223870   2.727   3.811   4.597  0.5150 -0.1548 -0.0078
 7969TIP3    H123871   2.757   3.808   4.506 -0.5023  1.4707 -0.4327
 7969TIP3    H223872   2.790   3.868   4.642  0.0595  0.4279 -0.0987
 7970TIP3   OH223873   4.672   5.745   3.857 -0.3746 -0.7904  0.3281
 7970TIP3    H123874   4.601   5.783   3.806  1.0312  1.7100  0.0622
 7970TIP3    H223875   4.718   5.687   3.796 -0.5587 -0.2584 -0.3172
 7971TIP3   OH223876   1.352   4.800   4.823 -0.0838 -0.3394  0.2009
 7971TIP3    H123877   1.280   4.793   4.760 -1.3943 -0.4860  1.6717
 7971TIP3    H223878   1.310   4.801   4.908  1.6926 -0.7263  1.1302
 7972TIP3   OH223879   6.368   1.745   2.905  0.1403  0.1464 -0.0226
 7972TIP3    H123880   6.314   1.800   2.848 -0.6161 -0.1695  0.3808
 7972TIP3    H223881   6.347   1.655   2.879  0.1228  0.0098  0.4601
 7973TIP3   OH223882   4.346   5.908   1.597 -0.2534  0.3874  0.5314
 7973TIP3    H123883   4.302   5.831   1.633 -0.6483 -0.8458 -2.3831
 7973TIP3    H223884   4.435   5.878   1.578 -0.0441  1.0110  0.5090
 7974TIP3   OH223885   3.215   1.048   2.235  0.2826  0.4272 -0.2464
 7974TIP3    H123886   3.262   1.046   2.152 -1.4271  0.6537 -1.2823
 7974TIP3    H223887   3.190   0.957   2.252 -0.6851  0.5678 -0.8152
 7975TIP3   OH223888   3.586   5.900   1.172  0.0034 -0.3653 -0.1790
 7975TIP3    H123889   3.622   5.900   1.083  0.2820 -1.3240 -0.0830
 7975TIP3    H223890   3.527   5.975   1.174 -0.9881 -1.0550 -1.5820
 7976TIP3   OH223891   5.031   6.595   0.188  0.4209  0.2065 -0.1805
 7976TIP3    H123892   4.948   6.637   0.164 -0.3851 -1.2546 -0.0791
 7976TIP3    H223893   5.006   6.508   0.218  1.9488 -0.0318  0.5119
 7977TIP3   OH223894   0.107   0.359   1.616  0.2195  0.7702 -0.5475
 7977TIP3    H123895   0.026   0.330   1.657  0.0700  0.0346 -1.3377
 7977TIP3    H223896   0.079   0.401   1.534  0.6902 -0.8162 -1.5742
 7978TIP3   OH223897   2.345   5.308   1.701 -0.5426 -0.4238  0.1298
 7978TIP3    H123898   2.354   5.286   1.609 -0.0026 -0.3481  0.1635
 7978TIP3    H223899   2.381   5.233   1.748  0.4527  0.1264  0.2594
 7979TIP3   OH223900   4.608   5.316   3.871 -0.0311  0.0954 -0.9434
 7979TIP3    H123901   4.617   5.298   3.964  0.1128 -2.1623 -1.3332
 7979TIP3    H223902   4.571   5.236   3.834  1.2641  0.3670 -3.0483
 7980TIP3   OH223903   0.655   2.297   5.668  0.6411 -0.3670 -0.0644
 7980TIP3    H123904   0.565   2.325   5.684  1.0807  0.1334  1.8429
 7980TIP3    H223905   0.680   2.340   5.586 -1.4017 -1.9628 -1.6321
 7981TIP3   OH223906   2.896   4.939   0.645  0.5391 -0.3554 -0.3759
 7981TIP3    H123907   2.839   4.934   0.569 -1.1133 -1.9980  0.8608
 7981TIP3    H223908   2.837   4.955   0.719  1.8345 -0.7273  0.7971
 7982TIP3   OH223909   2.510   0.107   4.358 -0.1349  0.2777 -0.1854
 7982TIP3    H123910   2.525   0.067   4.273 -1.6194 -0.7728  0.0025
 7982TIP3    H223911   2.596   0.137   4.387  0.5738 -0.4001 -1.5333
 7983TIP3   OH223912   1.173   6.244   0.139  0.5827 -0.0685 -0.5610
 7983TIP3    H123913   1.180   6.157   0.100 -1.2471 -0.0142 -1.0779
 7983TIP3    H223914   1.178   6.304   0.064  0.7009  0.2200 -0.3243
 7984TIP3   OH223915   4.261   1.753   1.482  0.0838 -0.1671 -0.4147
 7984TIP3    H123916   4.338   1.699   1.499  0.9259  1.1250  0.0480
 7984TIP3    H223917   4.296   1.828   1.433 -1.1610 -0.3688 -1.6556
 7985TIP3   OH223918   1.119   3.530   5.336 -0.6694 -0.0516 -0.3455
 7985TIP3    H123919   1.036   3.552   5.295 -0.9931  0.8219  0.7310
 7985TIP3    H223920   1.149   3.452   5.290 -1.4015  0.4186 -1.6802
 7986TIP3   OH223921   0.899   0.769   5.093 -0.4952  0.9214 -0.5891
 7986TIP3    H123922   0.888   0.797   5.002  0.0572  1.0387 -0.6266
 7986TIP3    H223923   0.985   0.803   5.118 -1.5729  2.9148  0.7220
 7987TIP3   OH223924   3.655   4.997   4.045 -0.3381 -0.1223  0.4466
 7987TIP3    H123925   3.588   5.043   3.995 -0.4661 -0.1085  0.6262
 7987TIP3    H223926   3.738   5.022   4.004 -0.4195  0.1180  0.4250
 7988TIP3   OH223927   3.209   3.775   0.607 -0.3755 -0.0407  0.3136
 7988TIP3    H123928   3.303   3.765   0.618 -0.0313  1.5792 -0.7290
 7988TIP3    H223929   3.186   3.713   0.537 -0.0516 -0.2952  0.4309
 7989TIP3   OH223930   7.113   6.438   3.709 -0.3768 -0.8136  0.1748
 7989TIP3    H123931   7.201   6.449   3.743 -0.8632  0.2537  1.1527
 7989TIP3    H223932   7.075   6.526   3.711 -1.5061 -1.2705 -0.0959
 7990TIP3   OH223933   0.229   1.582   5.663  0.1194  0.4148  0.1288
 7990TIP3    H123934   0.161   1.624   5.716  0.3432  0.9992 -0.0284
 7990TIP3    H223935   0.277   1.526   5.724 -0.8234 -0.4017  0.1303
 7991TIP3   OH223936   6.760   2.439   5.022 -0.2173 -0.0133  0.3667
 7991TIP3    H123937   6.748   2.379   5.095 -0.7228  1.9794  2.0242
 7991TIP3    H223938   6.688   2.502   5.030 -0.3160  0.2526 -1.8996
 7992TIP3   OH223939   4.411   6.274   0.179 -0.3546 -0.1259 -0.8016
 7992TIP3    H123940   4.372   6.214   0.242  0.2174  0.5303  0.1980
 7992TIP3    H223941   4.498   6.239   0.163  0.1852  0.7151  0.2048
 7993TIP3   OH223942   2.069   5.804   5.071  0.0565 -0.5403 -0.4495
 7993TIP3    H123943   2.113   5.888   5.061 -1.8932  0.5383 -0.4248
 7993TIP3    H223944   2.106   5.766   5.151 -0.4814  1.2734  0.7206
 7994TIP3   OH223945   3.097   0.471   3.234 -0.3436  0.1977  0.6068
 7994TIP3    H123946   3.032   0.427   3.289  0.7490  0.5769  2.2711
 7994TIP3    H223947   3.159   0.509   3.296  1.2660  0.1772 -0.9180
 7995TIP3   OH223948   6.578   2.446   4.250 -0.4430 -0.3934  0.7097
 7995TIP3    H123949   6.579   2.502   4.328  2.7639 -1.1811  1.3721
 7995TIP3    H223950   6.649   2.480   4.196 -0.0887 -2.2576 -0.0633
 7996TIP3   OH223951   1.860   0.963   3.182 -0.5439  0.0701 -0.8554
 7996TIP3    H123952   1.845   1.040   3.237  3.1562  0.2680  0.1356
 7996TIP3    H223953   1.804   0.895   3.220  0.2679  0.8009  1.8437
 7997TIP3   OH223954   5.597   3.269   4.003  0.0754  0.0835 -0.2531
 7997TIP3    H123955   5.565   3.256   4.092  0.4258 -0.1663 -0.1608
 7997TIP3    H223956   5.529   3.320   3.960 -0.4047 -0.3775 -0.0410
 7998TIP3   OH223957   3.140   4.366   4.648 -0.0431 -0.0848  0.0682
 7998TIP3    H123958   3.230   4.398   4.650  0.2726 -0.8635 -0.7630
 7998TIP3    H223959   3.142   4.295   4.584 -0.8980 -1.1497  1.1756
 7999TIP3   OH223960   6.140   3.644   3.733 -0.2712 -0.1317  0.3821
 7999TIP3    H123961   6.118   3.735   3.714  0.0202 -0.1045  0.1724
 7999TIP3    H223962   6.083   3.620   3.806  1.0741  0.8414  1.8158
 8000TIP3   OH223963   5.612   0.222   1.787  0.2804  0.2294 -0.1999
 8000TIP3    H123964   5.707   0.237   1.789  0.4898 -0.9792 -0.0707
 8000TIP3    H223965   5.584   0.259   1.704  1.1806 -0.9799 -1.0838
 8001TIP3   OH223966   4.066   6.300   3.290 -0.4842  0.5489 -0.0390
 8001TIP3    H123967   4.092   6.348   3.369  0.9751  0.5012 -0.4568
 8001TIP3    H223968   4.133   6.324   3.225 -1.0714 -0.2218 -0.9509
 8002TIP3   OH223969   5.045   5.413   3.478 -0.1947 -0.7880  0.9609
 8002TIP3    H123970   5.004   5.328   3.464 -0.2803 -0.5913 -0.0110
 8002TIP3    H223971   4.995   5.474   3.424  1.2509 -0.5209 -0.1588
 8003TIP3   OH223972   4.263   5.746   2.165 -0.0011  0.3151 -0.3964
 8003TIP3    H123973   4.326   5.786   2.104 -1.4629  2.5190 -0.5813
 8003TIP3    H223974   4.212   5.820   2.197 -1.3903 -1.2103  1.0530
 8004TIP3   OH223975   0.279   0.609   4.462 -0.2646 -0.3515  0.1578
 8004TIP3    H123976   0.218   0.682   4.469 -0.7843 -0.6836 -0.8176
 8004TIP3    H223977   0.271   0.578   4.372 -1.0884 -2.4955  0.8914
 8005TIP3   OH223978   6.387   5.146   1.302  0.1581 -0.0879  0.6495
 8005TIP3    H123979   6.294   5.138   1.322  0.1945  1.1097  1.3559
 8005TIP3    H223980   6.432   5.120   1.383  0.5006 -1.6552  0.0098
 8006TIP3   OH223981   0.138   1.267   3.252  0.7604  0.9213  0.0330
 8006TIP3    H123982   0.097   1.242   3.170 -0.9910  1.2571  0.7539
 8006TIP3    H223983   0.151   1.185   3.299 -0.6200  0.9115  0.4482
 8007TIP3   OH223984   4.827   3.232   2.020 -0.1607  0.1620 -0.2901
 8007TIP3    H123985   4.742   3.259   2.053  0.1062 -1.8953  2.3692
 8007TIP3    H223986   4.808   3.172   1.948 -1.1192 -1.8772  1.5659
 8008TIP3   OH223987   1.163   0.269   0.002  0.2243 -0.4000 -0.1038
 8008TIP3    H123988   1.081   0.242   0.044  0.8428 -0.1777  1.2874
 8008TIP3    H223989   1.195   0.190  -0.041 -1.0361 -0.3313 -1.2621
 8009TIP3   OH223990   1.278   3.036   2.252 -0.1909 -0.4615 -0.1726
 8009TIP3    H123991   1.325   2.968   2.204 -1.7248 -0.3880 -1.8467
 8009TIP3    H223992   1.347   3.096   2.282  0.8747 -0.8836 -1.6894
 8010TIP3   OH223993   5.187   5.773   1.703 -0.7289 -0.2011  0.1963
 8010TIP3    H123994   5.149   5.685   1.694 -0.6995 -0.0883 -1.3128
 8010TIP3    H223995   5.174   5.813   1.617 -1.5094  1.5909  1.1077
 8011TIP3   OH223996   5.677   0.353   4.309 -0.4176  0.1651  0.4115
 8011TIP3    H123997   5.621   0.414   4.357  0.8075 -0.4013  2.7352
 8011TIP3    H223998   5.762   0.397   4.303 -0.3327 -0.1072 -0.5751
 8012TIP3   OH223999   1.359   1.086   4.694  0.3813  0.2551 -0.0721
 8012TIP3    H124000   1.372   1.055   4.604  1.9658  1.6863 -0.3869
 8012TIP3    H224001   1.265   1.075   4.709  0.3251 -1.5096 -1.3071
 8013TIP3   OH224002   4.389   4.597   3.586 -0.3362  0.0060 -0.5978
 8013TIP3    H124003   4.451   4.625   3.654  0.9528  1.1219 -2.1545
 8013TIP3    H224004   4.352   4.678   3.553 -1.0697 -0.5363 -1.1306
 8014TIP3   OH224005   5.422   4.088   1.723  0.1280 -0.5345  0.4579
 8014TIP3    H124006   5.378   4.111   1.805 -2.1456 -0.9894 -0.5600
 8014TIP3    H224007   5.473   4.165   1.701 -0.9482  0.4346  1.2095
 8015TIP3   OH224008   3.524   1.027   5.578  0.0176 -0.3499  0.3074
 8015TIP3    H124009   3.532   1.123   5.582 -0.7801 -0.3124  1.5481
 8015TIP3    H224010   3.583   1.001   5.507 -0.0919  1.0947 -0.3503
 8016TIP3   OH224011   1.399   4.400   2.688 -0.2874 -0.4850  0.3581
 8016TIP3    H124012   1.372   4.309   2.694 -0.7307 -0.6022 -2.3680
 8016TIP3    H224013   1.495   4.397   2.687 -0.1600 -0.5929  3.2233
 8017TIP3   OH224014   3.426   5.326   1.473 -0.3460 -0.2075 -0.0196
 8017TIP3    H124015   3.449   5.249   1.526  1.6183  1.0625  1.1156
 8017TIP3    H224016   3.339   5.350   1.504 -1.3411 -2.3356 -0.9237
 8018TIP3   OH224017   5.863   0.359   3.371  0.0600 -0.1915  0.0913
 8018TIP3    H124018   5.826   0.271   3.365 -1.9210  0.6424 -0.7187
 8018TIP3    H224019   5.927   0.353   3.442 -1.3677 -1.8394  1.3390
 8019TIP3   OH224020   0.382   1.497   0.692  0.6239  0.8124  0.4037
 8019TIP3    H124021   0.428   1.540   0.764 -0.8630 -0.4906  2.2430
 8019TIP3    H224022   0.356   1.567   0.633  0.6370  2.1118  1.8964
 8020TIP3   OH224023   2.246   2.237   2.664 -0.3629  0.0672  0.7079
 8020TIP3    H124024   2.157   2.249   2.699 -0.3751 -1.5901  1.3445
 8020TIP3    H224025   2.240   2.159   2.609  0.6774 -0.0168  0.6958
 8021TIP3   OH224026   4.728   4.067   3.699 -0.2980  0.1466  0.4776
 8021TIP3    H124027   4.822   4.083   3.705 -0.1858  0.2669 -1.1975
 8021TIP3    H224028   4.718   3.974   3.720  0.3333 -0.1071 -0.2708
 8022TIP3   OH224029   1.916   0.275   3.149 -0.1793  0.8318 -0.3754
 8022TIP3    H124030   1.887   0.360   3.117  1.6264  2.8486  2.8927
 8022TIP3    H224031   1.840   0.241   3.197 -0.4506  1.2937 -0.4699
 8023TIP3   OH224032   2.562   1.407   4.511  0.4969  0.3733 -0.0924
 8023TIP3    H124033   2.632   1.458   4.552  0.9750 -0.3913  0.0577
 8023TIP3    H224034   2.598   1.379   4.427  0.2611  0.2290 -0.1459
 8024TIP3   OH224035   3.946   2.797   2.281 -0.0752  0.5040 -0.8306
 8024TIP3    H124036   4.041   2.803   2.273  0.2038 -1.1476  0.6610
 8024TIP3    H224037   3.916   2.887   2.288  1.5652  0.9849  0.3847
 8025TIP3   OH224038   4.935   1.558   1.656  0.2497  0.1368 -0.3438
 8025TIP3    H124039   5.022   1.550   1.696  0.3767  0.1345 -0.6169
 8025TIP3    H224040   4.934   1.490   1.589  0.5428  1.0269 -1.2651
 8026TIP3   OH224041   0.050   3.307   0.547 -0.0280  0.4174  0.6874
 8026TIP3    H124042   0.104   3.230   0.527  0.3112  0.6783  0.5901
 8026TIP3    H224043   0.006   3.327   0.464 -0.4363  0.0829  0.8183
 8027TIP3   OH224044   1.702   2.742   2.388 -0.2220 -0.2303 -0.2730
 8027TIP3    H124045   1.708   2.774   2.298 -1.9665 -0.1931 -0.4227
 8027TIP3    H224046   1.610   2.716   2.397  0.5780 -3.0820  0.5591
 8028TIP3   OH224047   7.077   3.133   2.598 -0.3264  0.1878  0.2956
 8028TIP3    H124048   7.167   3.106   2.577 -0.7386 -0.6961 -0.3790
 8028TIP3    H224049   7.045   3.064   2.656 -1.2491 -0.5935 -1.0996
 8029TIP3   OH224050   3.690   1.141   2.022  1.0530  0.1532  0.4981
 8029TIP3    H124051   3.662   1.137   1.930  3.3242  1.0340 -0.3172
 8029TIP3    H224052   3.683   1.051   2.053 -1.0164  0.0664 -0.0845
 8030TIP3   OH224053   6.762   1.052   2.446  0.1485  0.0451 -0.8465
 8030TIP3    H124054   6.712   0.971   2.449  0.0117  0.1312 -0.7605
 8030TIP3    H224055   6.715   1.111   2.505 -0.0139  0.3359 -1.2659
 8031TIP3   OH224056   4.865   3.683   3.938  0.1285 -0.1075  0.0996
 8031TIP3    H124057   4.888   3.740   3.865 -0.9814 -1.5662 -1.4725
 8031TIP3    H224058   4.778   3.651   3.916  0.7274 -2.4407  0.8578
 8032TIP3   OH224059   5.457   5.734   1.735 -0.5253 -0.2568 -0.2040
 8032TIP3    H124060   5.371   5.746   1.775  0.0189  1.5105  0.5145
 8032TIP3    H224061   5.454   5.645   1.700 -2.6308 -0.2547 -0.1817
 8033TIP3   OH224062   0.615   5.110   1.531  0.0323 -0.1558 -0.5460
 8033TIP3    H124063   0.589   5.200   1.554 -1.3087 -0.9764  1.4032
 8033TIP3    H224064   0.538   5.073   1.489  0.1457 -0.7552 -0.2414
 8034TIP3   OH224065   3.932   0.999   0.830 -0.6533  0.0871  0.7148
 8034TIP3    H124066   3.895   1.086   0.819 -0.6139  0.1393  0.9992
 8034TIP3    H224067   4.020   1.014   0.863 -0.3490 -0.0341 -0.0126
 8035TIP3   OH224068   6.569   4.496   1.161  0.3635  0.5220  0.3273
 8035TIP3    H124069   6.584   4.411   1.203 -0.7675  0.0617 -0.1548
 8035TIP3    H224070   6.502   4.538   1.215 -0.8293  0.0823 -0.7423
 8036TIP3   OH224071   5.112   3.544   5.564  0.1718  0.0927  0.0085
 8036TIP3    H124072   5.037   3.498   5.602  0.1057 -0.4965 -0.8115
 8036TIP3    H224073   5.179   3.476   5.555  1.0242  0.7340  1.2751
 8037TIP3   OH224074   6.076   6.004   4.939  0.1788 -0.1501  0.2048
 8037TIP3    H124075   6.160   6.036   4.906  0.1720  0.2319  0.5517
 8037TIP3    H224076   6.011   6.041   4.878  0.3826 -1.9508 -1.1677
 8038TIP3   OH224077   0.938   5.386   5.406 -0.3055  0.4654 -0.1661
 8038TIP3    H124078   0.999   5.405   5.335  0.1098 -1.4048 -0.3716
 8038TIP3    H224079   0.977   5.426   5.483 -0.1830  1.5402 -0.7735
 8039TIP3   OH224080   7.063   5.655   4.144 -0.0591  0.0385 -0.4545
 8039TIP3    H124081   7.096   5.659   4.055 -0.7069 -0.2874 -0.7168
 8039TIP3    H224082   6.974   5.620   4.135  1.0022 -3.2558  0.5631
 8040TIP3   OH224083   3.143   1.091   3.888  0.3704  0.2024 -0.2217
 8040TIP3    H124084   3.229   1.106   3.928 -0.2322  0.9514  0.8697
 8040TIP3    H224085   3.116   1.177   3.856  0.4250 -0.2146 -1.4236
 8041TIP3   OH224086   2.511   1.028   4.227 -0.2757  0.5076 -0.6155
 8041TIP3    H124087   2.555   0.960   4.278 -0.7534  2.1206  2.1277
 8041TIP3    H224088   2.582   1.079   4.188  0.1802  0.5937  0.3161
 8042TIP3   OH224089   6.983   5.886   2.229 -0.4921  0.7491 -0.2320
 8042TIP3    H124090   6.991   5.981   2.239 -0.4362  0.7989 -0.7702
 8042TIP3    H224091   6.922   5.875   2.156 -0.8337  0.3706  0.1065
 8043TIP3   OH224092   5.566   4.125   4.900 -0.7517 -0.0858 -0.7152
 8043TIP3    H124093   5.484   4.128   4.949 -1.4786  1.8499 -1.8990
 8043TIP3    H224094   5.559   4.047   4.845 -0.4924 -1.5421  1.2312
 8044TIP3   OH224095   3.233   3.611   1.370 -0.3528  0.4379  0.3136
 8044TIP3    H124096   3.293   3.652   1.308  1.2394 -1.5468  0.4699
 8044TIP3    H224097   3.218   3.679   1.436 -0.6908  1.9807 -1.2576
 8045TIP3   OH224098   2.396   6.286   5.137 -0.1340  0.0076  0.1083
 8045TIP3    H124099   2.449   6.226   5.188 -0.1503 -0.7532 -0.7473
 8045TIP3    H224100   2.402   6.254   5.047 -0.7687  0.8322 -0.2516
 8046TIP3   OH224101   2.529   3.515   3.155 -0.2179 -0.0209  0.4181
 8046TIP3    H124102   2.594   3.581   3.182 -0.9857  1.7356 -1.7249
 8046TIP3    H224103   2.451   3.536   3.206 -0.8742  1.6631 -1.1793
 8047TIP3   OH224104   3.059   1.181   4.781  0.3848 -0.0231  0.0843
 8047TIP3    H124105   3.091   1.218   4.699  1.3350  0.3706  0.6227
 8047TIP3    H224106   2.964   1.191   4.776  0.3699 -0.5756 -1.2293
 8048TIP3   OH224107   2.142   3.156   2.215 -0.0282 -0.2600  0.0663
 8048TIP3    H124108   2.224   3.123   2.251 -0.6808  0.2433  2.1468
 8048TIP3    H224109   2.079   3.086   2.229 -0.5088  0.3026  0.8328
 8049TIP3   OH224110   4.849   2.696   3.929 -0.8649  0.1115 -0.3960
 8049TIP3    H124111   4.860   2.732   4.018  1.5153  0.7455 -0.8688
 8049TIP3    H224112   4.780   2.749   3.890 -0.6906  1.0414  0.5077
 8050TIP3   OH224113   0.266   3.939   5.147 -0.9544 -0.0764 -0.2081
 8050TIP3    H124114   0.312   3.931   5.231  1.3304 -1.7514 -1.5074
 8050TIP3    H224115   0.313   4.007   5.100  0.7427 -2.2107 -1.7866
 8051TIP3   OH224116   3.391   2.425   4.500  0.9408 -0.2710  0.3653
 8051TIP3    H124117   3.417   2.334   4.490 -0.9779 -0.9510  1.2038
 8051TIP3    H224118   3.427   2.451   4.584  0.7825 -0.5184  0.5108
 8052TIP3   OH224119   4.783   3.753   0.338 -0.5201  0.1080 -0.6075
 8052TIP3    H124120   4.690   3.770   0.320 -0.9620 -0.5377  0.9119
 8052TIP3    H224121   4.812   3.829   0.388 -1.2592 -1.2874  2.1212
 8053TIP3   OH224122   5.314   2.229   3.857 -0.6746  0.1698 -0.1475
 8053TIP3    H124123   5.357   2.195   3.779  0.2106  1.5463 -0.2987
 8053TIP3    H224124   5.364   2.193   3.930 -1.0815 -0.5719 -0.2304
 8054TIP3   OH224125   6.614   4.841   4.662  0.3398  0.1919  0.4331
 8054TIP3    H124126   6.626   4.746   4.656 -0.7055 -0.0153  1.2454
 8054TIP3    H224127   6.547   4.861   4.598  0.2148  0.3100  0.6006
 8055TIP3   OH224128   6.152   3.785   4.512 -0.1138 -0.0066 -0.5151
 8055TIP3    H124129   6.141   3.800   4.606  1.4265 -0.8554 -0.1842
 8055TIP3    H224130   6.187   3.697   4.505 -2.2588 -0.8256 -2.0389
 8056TIP3   OH224131   7.133   0.408   3.891 -0.2598 -0.1619  0.2687
 8056TIP3    H124132   7.130   0.344   3.820  0.5562  1.0314 -0.9043
 8056TIP3    H224133   7.042   0.433   3.905 -0.3586  0.3619 -1.1285
 8057TIP3   OH224134   6.858   1.338   2.317 -0.3382  0.4273  0.1861
 8057TIP3    H124135   6.768   1.310   2.302 -0.1967  0.3244 -0.5078
 8057TIP3    H224136   6.854   1.388   2.399 -0.8688 -0.2975  0.6140
 8058TIP3   OH224137   6.627   1.998   5.591 -0.2383  0.4988 -0.4681
 8058TIP3    H124138   6.596   1.953   5.512 -0.7169  0.4051 -0.2326
 8058TIP3    H224139   6.722   2.000   5.581 -0.1642 -0.8722 -0.3367
 8059TIP3   OH224140   5.790   3.784   3.131  0.1707 -0.1228  0.5342
 8059TIP3    H124141   5.861   3.823   3.080  0.2606  0.3309  1.0008
 8059TIP3    H224142   5.833   3.716   3.183  0.3010  0.2890  0.9683
 8060TIP3   OH224143   0.927   2.970   4.340 -0.2119 -0.3829  0.1929
 8060TIP3    H124144   0.894   2.938   4.424 -0.9364 -1.0617 -0.3363
 8060TIP3    H224145   1.019   2.989   4.356 -0.5268  0.3070  1.3652
 8061TIP3   OH224146   1.497   1.096   5.643  0.2184  0.3801  0.4079
 8061TIP3    H124147   1.449   1.014   5.657 -2.0493  1.5555  0.0814
 8061TIP3    H224148   1.487   1.113   5.550 -1.3574  2.1341  0.8435
 8062TIP3   OH224149   6.633   1.758   2.300 -0.3235  0.4037 -0.2516
 8062TIP3    H124150   6.683   1.811   2.361  0.4828 -0.9402  0.2845
 8062TIP3    H224151   6.557   1.729   2.351  0.3170 -0.6651  0.1150
 8063TIP3   OH224152   3.580   3.958   3.887  0.1355 -0.2021  0.1195
 8063TIP3    H124153   3.550   4.006   3.810  0.3904 -1.6218 -0.9056
 8063TIP3    H224154   3.644   4.016   3.928 -1.8770  1.6793  0.7672
 8064TIP3   OH224155   2.698   5.644   2.951 -0.0793  0.3120  0.2948
 8064TIP3    H124156   2.762   5.651   2.880 -0.5537  0.8412 -0.0905
 8064TIP3    H224157   2.740   5.687   3.025  0.4522 -0.3138  0.3707
 8065TIP3   OH224158   4.735   3.783   3.682  0.3057 -0.0019  0.0153
 8065TIP3    H124159   4.765   3.719   3.617 -0.8589  0.2173 -0.7585
 8065TIP3    H224160   4.666   3.737   3.730  1.7392 -0.4842  1.7571
 8066TIP3   OH224161   3.690   2.846   2.030 -0.2939 -0.5854 -0.3838
 8066TIP3    H124162   3.758   2.868   1.966 -1.4087  0.6105 -1.1807
 8066TIP3    H224163   3.714   2.895   2.109  0.1487 -0.7530 -0.4070
 8067TIP3   OH224164   2.851   0.401   0.966 -0.1353  0.2027  0.7028
 8067TIP3    H124165   2.927   0.438   1.012  1.7176 -0.8170 -1.3306
 8067TIP3    H224166   2.823   0.471   0.907  2.0896 -0.7807 -1.6872
 8068TIP3   OH224167   4.357   3.431   5.020 -0.0985 -0.1944 -0.0293
 8068TIP3    H124168   4.300   3.449   4.945  1.5076 -0.9402 -1.5033
 8068TIP3    H224169   4.404   3.513   5.035  0.1237 -0.2630 -0.3423
 8069TIP3   OH224170   6.341   6.293   1.777 -0.3468  0.5072 -0.5720
 8069TIP3    H124171   6.397   6.323   1.849  1.7721  0.2783 -2.0418
 8069TIP3    H224172   6.282   6.230   1.818 -0.0009  1.2552  1.1758
 8070TIP3   OH224173   5.220   4.957   0.759 -0.4310 -0.3955  0.1750
 8070TIP3    H124174   5.155   5.008   0.712 -2.7343 -3.9485 -0.8517
 8070TIP3    H224175   5.182   4.945   0.846 -0.6918 -1.5960 -0.0892
 8071TIP3   OH224176   4.587   5.340   2.645  0.2956 -0.3535 -0.4042
 8071TIP3    H124177   4.562   5.420   2.690 -0.3608  0.7198 -2.5357
 8071TIP3    H224178   4.641   5.370   2.571  0.1487 -1.8798 -1.1667
 8072TIP3   OH224179   0.512   2.652   2.176 -0.3971  0.0826  0.3174
 8072TIP3    H124180   0.550   2.571   2.210  0.3934  0.4598  0.3446
 8072TIP3    H224181   0.441   2.673   2.237 -0.7201 -0.6721  0.2129
 8073TIP3   OH224182   4.933   1.497   0.313  0.0547  0.1343 -0.0335
 8073TIP3    H124183   4.936   1.554   0.237 -2.2820  0.2143 -0.1312
 8073TIP3    H224184   4.992   1.425   0.291 -2.1528 -1.0069 -2.9680
 8074TIP3   OH224185   5.106   2.975   3.965  0.1998  0.1965  0.1451
 8074TIP3    H124186   5.142   3.064   3.974 -0.0026  0.2523  0.4336
 8074TIP3    H224187   5.121   2.935   4.050  0.2684 -0.0399  0.0217
 8075TIP3   OH224188   0.983   3.058   4.763  0.2835 -0.1577  0.7386
 8075TIP3    H124189   0.965   3.144   4.726  0.7165 -0.3345  0.1085
 8075TIP3    H224190   0.988   3.000   4.688  0.7622 -0.5934  1.0995
 8076TIP3   OH224191   4.604   2.844   3.820 -0.3939 -0.2449 -0.1521
 8076TIP3    H124192   4.606   2.940   3.822  1.0698 -0.2251 -0.9519
 8076TIP3    H224193   4.547   2.823   3.746 -1.3816 -0.0247  0.5257
 8077TIP3   OH224194   4.116   1.932   5.775 -0.3502  0.3364 -0.5682
 8077TIP3    H124195   4.180   2.000   5.795 -0.1389 -0.0540  0.1547
 8077TIP3    H224196   4.033   1.977   5.770 -0.1673  0.6944 -0.3969
 8078TIP3   OH224197   2.790   6.010   2.629  0.1749 -0.0916  0.2733
 8078TIP3    H124198   2.716   5.954   2.609  2.1889 -3.1044  0.5746
 8078TIP3    H224199   2.757   6.072   2.695 -2.3332 -0.4481 -0.5570
 8079TIP3   OH224200   0.225   4.778   5.228  0.1377  0.3755 -0.2871
 8079TIP3    H124201   0.187   4.749   5.311 -0.7236  1.7481 -0.1853
 8079TIP3    H224202   0.165   4.844   5.195  1.0162  0.6080 -1.4998
 8080TIP3   OH224203   4.340   4.163   0.480 -0.0477 -0.2465  0.6289
 8080TIP3    H124204   4.295   4.137   0.399  0.2901 -1.0413  0.6864
 8080TIP3    H224205   4.369   4.253   0.463  1.4507 -0.9309 -0.7917
 8081TIP3   OH224206   4.057   1.922   1.242  0.1403  0.3771 -0.1392
 8081TIP3    H124207   4.091   1.975   1.313  2.1190 -1.2684  0.2360
 8081TIP3    H224208   4.119   1.933   1.170  0.7103 -1.4537  0.0032
 8082TIP3   OH224209   4.838   0.941   2.142 -0.1624  0.2100 -0.1968
 8082TIP3    H124210   4.765   0.989   2.104 -1.9042 -2.4633 -0.4828
 8082TIP3    H224211   4.818   0.938   2.236 -0.5796 -0.7364 -0.3089
 8083TIP3   OH224212   0.185   1.301   0.193 -0.6797 -0.2855 -0.1118
 8083TIP3    H124213   0.144   1.297   0.279 -0.7685  1.5329 -0.0436
 8083TIP3    H224214   0.238   1.381   0.195  0.6698 -1.1113 -1.1652
 8084TIP3   OH224215   1.669   0.728   1.153 -0.3069  0.4686 -0.9193
 8084TIP3    H124216   1.585   0.690   1.127 -0.6259  1.4724 -1.3765
 8084TIP3    H224217   1.700   0.775   1.076 -1.3070  3.5592  0.4108
 8085TIP3   OH224218   4.457   4.998   4.559  0.4682 -0.2036 -0.1650
 8085TIP3    H124219   4.521   5.039   4.617 -1.0187  1.2765  0.5345
 8085TIP3    H224220   4.426   5.069   4.504 -1.3252 -0.6159  0.2525
 8086TIP3   OH224221   0.537   4.719   4.179  0.4961 -0.3728  0.1517
 8086TIP3    H124222   0.545   4.689   4.270  2.0650 -2.0746 -0.4693
 8086TIP3    H224223   0.472   4.661   4.140  2.6797 -2.3800 -0.7508
 8087TIP3   OH224224   2.872   6.126   2.064 -1.1026  0.0739  0.7394
 8087TIP3    H124225   2.936   6.061   2.036 -0.9323  0.8988 -0.9182
 8087TIP3    H224226   2.800   6.118   2.001 -0.1840  2.7983 -0.8440
 8088TIP3   OH224227   1.311   1.479   3.638  0.5950 -0.7225  0.3923
 8088TIP3    H124228   1.369   1.555   3.627 -2.9939  1.9413 -2.6247
 8088TIP3    H224229   1.361   1.406   3.601  2.1952  1.3154 -1.7884
 8089TIP3   OH224230   5.844   6.232   1.640  0.1717 -0.6956 -0.2971
 8089TIP3    H124231   5.771   6.246   1.580 -0.5654 -1.0135  0.4998
 8089TIP3    H224232   5.883   6.319   1.652  0.1938 -0.5935 -1.0416
 8090TIP3   OH224233   3.919   3.077   2.297 -0.4688  0.5421 -0.3310
 8090TIP3    H124234   3.989   3.136   2.270  0.5700 -0.6320 -0.3149
 8090TIP3    H224235   3.905   3.097   2.389  0.0421  0.6224 -0.2651
 8091TIP3   OH224236   1.889   2.522   0.255 -0.4511 -0.3637  0.1763
 8091TIP3    H124237   1.925   2.561   0.335 -2.1163 -0.9998  1.2955
 8091TIP3    H224238   1.816   2.467   0.286  1.0621 -3.5475 -1.3929
 8092TIP3   OH224239   0.588   3.864   1.647 -0.0585  0.1718  0.6704
 8092TIP3    H124240   0.562   3.776   1.675 -2.0411  0.4322 -0.1846
 8092TIP3    H224241   0.667   3.883   1.697  0.3651 -2.0629  0.9249
 8093TIP3   OH224242   6.998   2.588   0.958  0.4601  0.9866 -0.1119
 8093TIP3    H124243   6.910   2.621   0.940  0.9451  0.6017 -4.1219
 8093TIP3    H224244   7.055   2.662   0.936  1.2362  0.7066  0.8968
 8094TIP3   OH224245   0.137   5.446   4.042 -0.2732 -0.1317  0.0933
 8094TIP3    H124246   0.105   5.468   4.130  0.8986  0.9454  0.2637
 8094TIP3    H224247   0.192   5.520   4.016 -0.8314 -0.2886 -1.6888
 8095TIP3   OH224248   5.365   5.611   2.419 -0.2995  0.0016 -0.0141
 8095TIP3    H124249   5.290   5.576   2.371 -0.8319  0.5493  0.4024
 8095TIP3    H224250   5.405   5.535   2.459 -0.3960 -0.3473 -0.5706
 8096TIP3   OH224251   4.453   1.346   5.714 -0.2191 -0.1439  0.1640
 8096TIP3    H124252   4.451   1.327   5.620 -1.9443 -0.1549  0.1587
 8096TIP3    H224253   4.392   1.419   5.724  0.4654  0.3038  1.1968
 8097TIP3   OH224254   1.673   0.748   0.086  0.0428 -0.0099 -0.4214
 8097TIP3    H124255   1.754   0.767   0.132  0.4610  1.2004 -1.6072
 8097TIP3    H224256   1.604   0.767   0.150  0.6549 -1.6147  0.7937
 8098TIP3   OH224257   2.418   3.049   2.784 -0.3341  0.7485  0.1972
 8098TIP3    H124258   2.458   3.132   2.808  0.0486  1.6272 -2.9741
 8098TIP3    H224259   2.366   3.069   2.706 -2.7330 -1.4317  1.0798
 8099TIP3   OH224260   3.093   6.331   3.497  0.2413 -0.2142  0.1824
 8099TIP3    H124261   3.068   6.293   3.413  0.3124  0.2781 -0.0661
 8099TIP3    H224262   3.010   6.345   3.543  0.2980 -2.7018  1.2087
 8100TIP3   OH224263   6.927   5.528   3.773  0.5505 -0.1961  0.1089
 8100TIP3    H124264   6.842   5.518   3.730 -0.4480  1.7127  1.4855
 8100TIP3    H224265   6.990   5.501   3.707 -0.9789  1.2048 -2.0768
 8101TIP3   OH224266   3.558   6.366   1.382  0.0113 -0.1617 -0.3322
 8101TIP3    H124267   3.591   6.286   1.423  1.3168  0.3168 -0.4072
 8101TIP3    H224268   3.486   6.393   1.439 -1.4361 -2.1364 -1.0833
 8102TIP3   OH224269   0.130   5.978   1.045 -0.0087 -0.1670 -0.4954
 8102TIP3    H124270   0.193   5.913   1.013  0.6689  0.6725 -0.9161
 8102TIP3    H224271   0.156   5.994   1.136  2.0689  2.0429 -1.3695
 8103TIP3   OH224272   4.157   4.832   2.363 -0.5441 -0.2828 -0.4718
 8103TIP3    H124273   4.143   4.767   2.432  1.7467  1.8255  2.2431
 8103TIP3    H224274   4.226   4.793   2.308  1.1955 -0.0545  1.4295
 8104TIP3   OH224275   4.159   0.685   4.470  0.0257  0.3168 -0.6582
 8104TIP3    H124276   4.108   0.665   4.549  0.7991 -2.2966 -0.7063
 8104TIP3    H224277   4.247   0.702   4.503  0.5287 -1.5352 -0.9372
 8105TIP3   OH224278   3.783   4.064   1.508  0.1284  0.2607 -0.1447
 8105TIP3    H124279   3.743   4.027   1.587 -0.2326  0.8912 -0.0274
 8105TIP3    H224280   3.718   4.127   1.476  0.2947  0.0424 -0.9202
 8106TIP3   OH224281   6.330   3.897   0.484  0.1832  0.3552  0.2757
 8106TIP3    H124282   6.293   3.865   0.566  0.3504  2.3247  1.1700
 8106TIP3    H224283   6.418   3.927   0.508  1.3251 -1.5743 -1.2236
 8107TIP3   OH224284   0.829   2.076   1.453 -0.1775  0.5864 -0.0581
 8107TIP3    H124285   0.858   2.127   1.378  0.1251  0.3749 -0.0843
 8107TIP3    H224286   0.909   2.040   1.491 -0.2857  1.0042  0.5952
 8108TIP3   OH224287   1.538   4.680   2.649  0.6506 -0.3779 -0.0743
 8108TIP3    H124288   1.536   4.595   2.606  1.1754 -1.0910  1.2575
 8108TIP3    H224289   1.605   4.672   2.717 -1.1087  0.1933  1.8564
 8109TIP3   OH224290   6.629   2.759   2.925 -0.4107 -0.0301 -0.8977
 8109TIP3    H124291   6.563   2.769   2.857 -1.7914  1.2349  0.5511
 8109TIP3    H224292   6.653   2.666   2.921 -1.6790 -0.3458 -1.9859
 8110TIP3   OH224293   5.651   0.688   2.988 -0.0649 -0.0778 -0.2736
 8110TIP3    H124294   5.703   0.609   2.980 -1.1379 -0.9874  1.0781
 8110TIP3    H224295   5.700   0.755   2.942  1.8199 -1.0971  0.1696
 8111TIP3   OH224296   5.134   5.244   1.052 -0.1818 -0.1765 -0.2064
 8111TIP3    H124297   5.157   5.238   1.145  1.1620 -1.1563 -0.5671
 8111TIP3    H224298   5.145   5.337   1.031  0.4097 -0.0984  0.4053
 8112TIP3   OH224299   6.882   1.638   2.205 -0.0037  0.1358 -0.0096
 8112TIP3    H124300   6.878   1.589   2.287 -0.6443 -0.4952 -0.3993
 8112TIP3    H224301   6.796   1.681   2.199 -0.1616 -0.2487 -0.5959
 8113TIP3   OH224302   0.531   0.831   2.192 -0.0863  0.3791  0.5166
 8113TIP3    H124303   0.541   0.768   2.120  0.0587 -0.2673  1.0865
 8113TIP3    H224304   0.438   0.829   2.213  0.1202 -0.6786  1.4246
 8114TIP3   OH224305   2.517   2.835   0.519  0.4241  0.3827  0.2769
 8114TIP3    H124306   2.496   2.924   0.492 -0.1925  0.0218 -0.4873
 8114TIP3    H224307   2.602   2.817   0.480  1.1945  1.0952  1.5661
 8115TIP3   OH224308   5.038   1.452   2.176 -0.0200  0.5953  0.3509
 8115TIP3    H124309   4.987   1.396   2.235 -0.8002  0.7200 -0.1904
 8115TIP3    H224310   5.052   1.398   2.098 -1.3937  1.3702 -0.4679
 8116TIP3   OH224311   1.960   5.947   0.839  0.3029 -0.4295  0.6697
 8116TIP3    H124312   1.864   5.940   0.841  0.1399 -0.8415 -2.7893
 8116TIP3    H224313   1.977   6.015   0.774  2.3914 -0.0020  1.6036
 8117TIP3   OH224314   6.255   2.369   2.463 -0.0825  0.0124 -0.0192
 8117TIP3    H124315   6.320   2.328   2.406 -1.4745 -2.6006  0.1093
 8117TIP3    H224316   6.203   2.424   2.404  1.7994  1.6807 -0.2115
 8118TIP3   OH224317   2.289   2.936   5.226  0.1156 -0.2116  0.4136
 8118TIP3    H124318   2.260   3.003   5.164  1.4291  1.0765  1.1275
 8118TIP3    H224319   2.223   2.938   5.295 -0.4619 -0.4670 -0.1261
 8119TIP3   OH224320   1.135   3.357   1.959 -0.5753 -0.9686  0.1218
 8119TIP3    H124321   1.083   3.408   2.021 -0.6125 -2.5512  1.4654
 8119TIP3    H224322   1.111   3.266   1.977  1.0140 -1.6016 -0.7571
 8120TIP3   OH224323   1.010   0.502   1.135 -0.4721 -0.6617 -0.3518
 8120TIP3    H124324   1.070   0.464   1.200  0.3910  0.0581 -0.7068
 8120TIP3    H224325   0.932   0.525   1.185 -0.1087 -0.7964  0.2927
 8121TIP3   OH224326   1.096   5.371   5.163  0.2435  0.5407  0.8816
 8121TIP3    H124327   1.018   5.420   5.138 -0.4541 -0.9387 -0.0003
 8121TIP3    H224328   1.167   5.412   5.113 -0.1171  1.3163  0.9881
 8122TIP3   OH224329   6.107   3.786   5.313  0.4867  0.1014 -0.8254
 8122TIP3    H124330   6.099   3.876   5.281  1.2634  0.0312 -1.2435
 8122TIP3    H224331   6.166   3.744   5.250  2.1775 -0.0163  0.7636
 8123TIP3   OH224332   5.063   3.769   0.590  0.6165  0.3482  0.1859
 8123TIP3    H124333   5.051   3.764   0.685  2.0085 -1.3398  0.3094
 8123TIP3    H224334   5.158   3.773   0.579  0.5576 -1.1942 -1.1723
 8124TIP3   OH224335   2.092   2.552   3.287 -0.2489 -0.0597  0.1679
 8124TIP3    H124336   2.089   2.633   3.338 -0.7265 -1.0588  1.8415
 8124TIP3    H224337   2.102   2.483   3.354 -3.7226 -1.6986 -0.7984
 8125TIP3   OH224338   6.457   5.000   4.072 -0.1409 -0.4613 -0.0225
 8125TIP3    H124339   6.396   5.067   4.102 -0.3930 -0.6502 -0.1033
 8125TIP3    H224340   6.445   4.927   4.133  0.2807 -0.3573  0.1879
 8126TIP3   OH224341   5.080   2.583   2.911  0.0103  1.0454  0.2386
 8126TIP3    H124342   5.084   2.513   2.845 -1.7094 -0.4978  1.6478
 8126TIP3    H224343   5.012   2.642   2.879 -0.7090  0.3843  0.5165
 8127TIP3   OH224344   1.366   3.978   4.834  0.0593  0.5398  0.2100
 8127TIP3    H124345   1.351   3.930   4.915  0.2503  0.2751  0.0906
 8127TIP3    H224346   1.320   4.061   4.846  0.8025  0.8639  0.9380
 8128TIP3   OH224347   6.388   1.515   0.723  0.3026  0.2785  0.1429
 8128TIP3    H124348   6.354   1.550   0.641  1.2600  0.4943 -0.1787
 8128TIP3    H224349   6.351   1.427   0.729  1.9777 -0.6184 -1.6727
 8129TIP3   OH224350   3.689   4.638   2.940 -0.1227  0.1075 -0.4933
 8129TIP3    H124351   3.598   4.664   2.930 -0.7882 -2.5961 -2.5948
 8129TIP3    H224352   3.738   4.699   2.885 -0.5473  1.7967  0.9268
 8130TIP3   OH224353   0.572   2.568   3.551  0.1893  0.4844 -0.2491
 8130TIP3    H124354   0.516   2.537   3.621 -0.4421  0.3289 -0.8133
 8130TIP3    H224355   0.660   2.541   3.577  0.3026  2.3645  1.5711
 8131TIP3   OH224356   4.037   6.068   3.761  0.1611 -0.0651 -0.6614
 8131TIP3    H124357   3.969   6.054   3.695  0.4315  1.1473 -1.2343
 8131TIP3    H224358   4.004   6.024   3.839 -0.7433 -0.4743 -1.2618
 8132TIP3   OH224359   4.760   6.003   2.842 -0.3887  0.3892 -0.5923
 8132TIP3    H124360   4.709   6.008   2.761 -0.1465  0.8579 -0.7151
 8132TIP3    H224361   4.717   6.065   2.901 -0.0632  0.6547 -0.6366
 8133TIP3   OH224362   3.701   4.360   3.343 -0.3642  0.1987  0.0453
 8133TIP3    H124363   3.658   4.293   3.290 -0.0536 -0.8623  1.0888
 8133TIP3    H224364   3.769   4.396   3.287 -2.4411  1.8364 -1.6217
 8134TIP3   OH224365   5.284   2.243   2.976 -0.3629  0.7562  0.3645
 8134TIP3    H124366   5.243   2.285   3.052 -2.6202  0.7172 -0.7639
 8134TIP3    H224367   5.235   2.161   2.964  0.5456  0.3314 -0.6125
 8135TIP3   OH224368   0.609   5.211   4.472  0.8068 -0.4828 -0.1289
 8135TIP3    H124369   0.559   5.293   4.468  0.5998 -0.4956  1.6826
 8135TIP3    H224370   0.699   5.237   4.454  1.0572  0.5003  2.2131
 8136TIP3   OH224371   2.044   4.393   0.651  0.5518 -0.1695  0.1013
 8136TIP3    H124372   1.959   4.408   0.691 -0.1793 -1.4289 -0.8958
 8136TIP3    H224373   2.027   4.394   0.557  1.4086 -1.5345 -0.1055
 8137TIP3   OH224374   5.744   0.598   5.581 -0.3428 -0.4158 -0.3338
 8137TIP3    H124375   5.818   0.644   5.621  0.3113 -0.8781 -0.9797
 8137TIP3    H224376   5.749   0.621   5.488 -0.8427 -0.6806 -0.4312
 8138TIP3   OH224377   5.986   5.091   5.121  0.2172 -0.6006  0.1308
 8138TIP3    H124378   6.067   5.118   5.077  0.6469 -1.6219  0.2561
 8138TIP3    H224379   5.992   5.129   5.208  0.0248  0.2593 -0.2191
 8139TIP3   OH224380   6.578   1.432   4.942  0.0633 -0.2437  0.1830
 8139TIP3    H124381   6.607   1.515   4.981 -2.2548  0.9303 -0.4280
 8139TIP3    H224382   6.485   1.445   4.925 -0.5009 -3.2080  0.5838
 8140TIP3   OH224383   3.063   5.627   5.372 -0.1227 -0.6118 -0.4167
 8140TIP3    H124384   3.053   5.536   5.398 -0.0431 -0.9685 -1.5943
 8140TIP3    H224385   2.976   5.665   5.385 -0.3273 -1.0226 -0.5618
 8141TIP3   OH224386   6.034   2.719   5.617  0.2381  0.2502  0.0577
 8141TIP3    H124387   5.962   2.706   5.555  0.5112  0.6192 -0.3504
 8141TIP3    H224388   6.113   2.709   5.564  0.5081 -0.7414  0.6232
 8142TIP3   OH224389   0.976   2.542   2.405 -0.5530 -0.2322 -0.5843
 8142TIP3    H124390   0.965   2.479   2.334  2.4234 -1.2265 -0.3057
 8142TIP3    H224391   1.023   2.615   2.365  0.7208 -0.5902  0.2123
 8143TIP3   OH224392   3.222   2.282   1.126  0.0113 -0.1978 -0.5423
 8143TIP3    H124393   3.202   2.281   1.219 -1.1689  0.3556 -0.7715
 8143TIP3    H224394   3.164   2.349   1.089  0.6138 -0.2497 -1.6390
 8144TIP3   OH224395   0.075   0.445   2.294 -0.1364  0.5820  0.1537
 8144TIP3    H124396   0.155   0.498   2.299 -0.3084  0.9427 -0.7406
 8144TIP3    H224397   0.006   0.502   2.329 -0.4831  1.3266 -1.6129
 8145TIP3   OH224398   6.709   0.033   0.042  1.0506 -0.2995 -0.1100
 8145TIP3    H124399   6.727   0.091   0.115 -1.9776 -1.6800  1.9276
 8145TIP3    H224400   6.641   0.078  -0.008  0.4078 -0.9910  0.1223
 8146TIP3   OH224401   0.572   5.356   0.054 -0.1387  0.4382  0.0214
 8146TIP3    H124402   0.506   5.315   0.109  1.6098  0.3467  2.2005
 8146TIP3    H224403   0.569   5.449   0.076 -0.1342  0.5734 -0.5252
 8147TIP3   OH224404   3.579   0.348   5.724  0.0308  0.6324  0.6111
 8147TIP3    H124405   3.550   0.330   5.634 -0.5896  1.2420  0.6840
 8147TIP3    H224406   3.672   0.371   5.715  0.0614  0.3567  0.1706
 8148TIP3   OH224407   2.142   1.801   0.267  0.6333 -0.2687  0.2934
 8148TIP3    H124408   2.175   1.888   0.247 -0.4077  0.3186  1.0540
 8148TIP3    H224409   2.164   1.787   0.359 -3.3402  1.2556  1.7119
 8149TIP3   OH224410   4.032   5.406   5.691  0.4922 -0.0516  0.2290
 8149TIP3    H124411   3.978   5.435   5.617 -0.4509  0.9091  1.2587
 8149TIP3    H224412   4.089   5.481   5.710  0.8343 -0.3521  0.3984
 8150TIP3   OH224413   1.683   0.432   4.415 -0.6123  0.2931  0.2373
 8150TIP3    H124414   1.701   0.409   4.506  1.3618  0.5690 -0.0389
 8150TIP3    H224415   1.680   0.349   4.369 -1.0102  0.1916  0.4371
 8151TIP3   OH224416   6.595   5.357   0.379 -0.7566  0.2196  0.2050
 8151TIP3    H124417   6.537   5.302   0.432 -2.3501 -1.0654 -2.6720
 8151TIP3    H224418   6.621   5.302   0.305  0.9938  2.0559 -0.6460
 8152TIP3   OH224419   5.655   5.913   4.749  0.6950 -0.3928 -0.2594
 8152TIP3    H124420   5.580   5.964   4.780  0.8658 -0.7626  0.7954
 8152TIP3    H224421   5.725   5.977   4.742  1.4052 -0.7010  2.7822
 8153TIP3   OH224422   2.954   4.024   1.186 -0.4222  0.5973 -0.3312
 8153TIP3    H124423   2.969   3.953   1.249 -0.2078  0.7938 -0.1600
 8153TIP3    H224424   2.859   4.033   1.183 -0.4412  0.4723 -0.1608
 8154TIP3   OH224425   5.635   4.002   0.735  0.6362 -0.7607 -0.1927
 8154TIP3    H124426   5.662   4.093   0.720 -1.7158 -0.0190 -0.3976
 8154TIP3    H224427   5.573   4.007   0.807 -0.7924 -1.9324 -1.2685
 8155TIP3   OH224428   3.785   5.440   1.883 -0.0503  0.4898 -0.0922
 8155TIP3    H124429   3.866   5.473   1.922  0.4923 -0.4658 -0.3708
 8155TIP3    H224430   3.801   5.347   1.870 -1.5457  0.0842  0.7121
 8156TIP3   OH224431   6.721   6.560   0.415 -0.2595 -0.2557  0.0361
 8156TIP3    H124432   6.719   6.467   0.434  0.1264 -0.4096 -0.6498
 8156TIP3    H224433   6.648   6.574   0.354  1.0406 -0.5345 -1.6476
 8157TIP3   OH224434   0.708   5.311   3.608 -0.0626  0.4055  0.2933
 8157TIP3    H124435   0.704   5.226   3.650  0.3507  0.4400  0.4048
 8157TIP3    H224436   0.686   5.374   3.677 -0.6218  0.3771  0.1502
 8158TIP3   OH224437   6.896   1.529   0.201 -0.2923  0.5326  0.8018
 8158TIP3    H124438   6.907   1.587   0.277  1.5630  1.8659 -0.4027
 8158TIP3    H224439   6.921   1.443   0.234 -0.5801  0.8761  1.9733
 8159TIP3   OH224440   0.290   4.460   4.349  0.0142 -0.2729 -0.3563
 8159TIP3    H124441   0.196   4.474   4.360 -0.3207 -0.7564 -2.2869
 8159TIP3    H224442   0.311   4.500   4.265  2.1091  2.2227  1.2140
 8160TIP3   OH224443   5.975   4.907   1.337 -0.1860 -1.1190  0.2254
 8160TIP3    H124444   6.045   4.892   1.274  0.4861  0.0224  0.6753
 8160TIP3    H224445   6.000   4.986   1.383 -2.3637  0.0244 -0.4117
 8161TIP3   OH224446   2.239   1.748   3.431 -0.0346  0.1545  0.3059
 8161TIP3    H124447   2.266   1.716   3.345 -0.8283 -1.3381  0.5917
 8161TIP3    H224448   2.177   1.818   3.411  0.4731  0.4405 -0.3250
 8162TIP3   OH224449   4.858   3.606   1.990 -0.2807 -0.2593 -0.2531
 8162TIP3    H124450   4.790   3.621   1.924 -0.6577 -0.7554  0.0124
 8162TIP3    H224451   4.813   3.560   2.060  0.3743 -0.7512 -0.1482
 8163TIP3   OH224452   3.887   2.356   3.019 -0.3314 -0.1438 -0.2909
 8163TIP3    H124453   3.855   2.415   2.950  1.1743 -0.3894 -1.2222
 8163TIP3    H224454   3.980   2.375   3.026 -0.3588 -0.4652  1.3671
 8164TIP3   OH224455   0.548   4.518   3.438 -0.1867 -0.4036 -0.5614
 8164TIP3    H124456   0.495   4.466   3.378 -0.4091 -0.2713 -0.4811
 8164TIP3    H224457   0.594   4.454   3.492 -0.5680 -0.5188 -0.3683
 8165TIP3   OH224458   2.368   1.240   0.454  0.1609  0.0221 -0.1441
 8165TIP3    H124459   2.294   1.179   0.453  1.1184 -1.3114 -2.9051
 8165TIP3    H224460   2.338   1.315   0.403  0.4488 -0.2012 -0.6503
 8166TIP3   OH224461   5.665   4.062   3.911 -0.2863  0.0699  0.6331
 8166TIP3    H124462   5.761   4.063   3.916 -0.2737  1.4578  0.4252
 8166TIP3    H224463   5.637   4.132   3.970 -0.9573  2.5860 -2.3956
 8167TIP3   OH224464   1.167   0.623   3.830 -0.3468  0.2535 -0.3036
 8167TIP3    H124465   1.154   0.641   3.737  2.1845 -0.3691 -0.8589
 8167TIP3    H224466   1.250   0.667   3.852 -0.0330 -0.9742  1.2097
 8168TIP3   OH224467   2.437   1.890   5.077  0.2236  0.1051  0.7438
 8168TIP3    H124468   2.437   1.820   5.011  1.7953  0.1636  0.6500
 8168TIP3    H224469   2.499   1.860   5.144  1.2152  1.5484  0.5199
 8169TIP3   OH224470   0.472   1.937   1.057 -0.4805  0.4955 -0.3362
 8169TIP3    H124471   0.440   1.984   0.980 -1.2856  1.5645  0.6147
 8169TIP3    H224472   0.468   2.002   1.128  0.3253 -0.4347  0.5870
 8170TIP3   OH224473   1.279   6.681   3.591 -0.4179 -0.1356  0.4624
 8170TIP3    H124474   1.274   6.701   3.497  0.4846  1.2017  0.6726
 8170TIP3    H224475   1.336   6.605   3.596 -0.2295 -0.0353 -0.0586
 8171TIP3   OH224476   3.575   1.139   2.434 -0.7057  0.4425 -0.0781
 8171TIP3    H124477   3.621   1.198   2.493  0.9259 -1.6095  0.8531
 8171TIP3    H224478   3.528   1.078   2.492  1.0045 -1.6846 -0.7827
 8172TIP3   OH224479   0.842   6.230   1.807 -0.4452 -0.7714 -0.1484
 8172TIP3    H124480   0.917   6.209   1.750  0.9071  2.1564  0.3961
 8172TIP3    H224481   0.866   6.192   1.892  0.7060  0.5549  0.1510
 8173TIP3   OH224482   3.342   3.665   1.797  0.4506  0.2481 -0.4169
 8173TIP3    H124483   3.312   3.622   1.877 -1.1503 -0.1904 -1.2197
 8173TIP3    H224484   3.407   3.728   1.827  0.4471 -0.4386  1.1387
 8174TIP3   OH224485   3.215   0.554   3.661  0.1819 -0.0997  0.1797
 8174TIP3    H124486   3.210   0.510   3.746  0.3140 -0.5119 -0.0192
 8174TIP3    H224487   3.126   0.583   3.643 -0.1244 -1.2280 -0.1698
 8175TIP3   OH224488   6.981   2.549   3.666  0.7664  0.5462  0.0252
 8175TIP3    H124489   7.056   2.587   3.710  0.6838  0.4314  0.2690
 8175TIP3    H224490   6.905   2.582   3.715  0.7470 -1.2296  1.2987
 8176TIP3   OH224491   2.599   0.738   0.479  0.0262  0.2073 -0.5472
 8176TIP3    H124492   2.625   0.776   0.395 -0.2278  2.0658  0.1783
 8176TIP3    H224493   2.504   0.752   0.483 -0.2438 -1.3999 -0.6629
 8177TIP3   OH224494   6.575   0.807   1.168  0.1592  0.3514  0.1724
 8177TIP3    H124495   6.521   0.759   1.230 -0.4406 -0.7129 -1.1273
 8177TIP3    H224496   6.540   0.896   1.168 -0.2374  0.1958  0.8793
 8178TIP3   OH224497   6.164   1.409   2.956 -0.1170  0.4021 -0.5794
 8178TIP3    H124498   6.109   1.410   2.878  0.1441 -1.1167 -0.8008
 8178TIP3    H224499   6.159   1.320   2.989 -0.3829  1.0599  1.2873
 8179TIP3   OH224500   6.078   2.127   0.858  0.7815 -0.2603  0.4278
 8179TIP3    H124501   6.104   2.069   0.929  1.3237 -0.5623 -0.0114
 8179TIP3    H224502   6.012   2.185   0.897  1.1337 -0.3663  1.1893
 8180TIP3   OH224503   4.758   0.289   1.297 -0.0945 -0.0734  0.2535
 8180TIP3    H124504   4.713   0.238   1.365 -0.1943  0.0566  0.2845
 8180TIP3    H224505   4.812   0.225   1.251 -1.7363 -0.6185 -1.0289
 8181TIP3   OH224506   4.390   5.361   0.554 -0.2404 -0.2564  0.2098
 8181TIP3    H124507   4.394   5.399   0.466  1.3561 -0.3218  0.2180
 8181TIP3    H224508   4.462   5.299   0.556  0.2512  0.3203  1.8183
 8182TIP3   OH224509   4.208   3.527   5.795 -0.4784 -0.8255  0.1634
 8182TIP3    H124510   4.303   3.541   5.800 -0.6376  0.2391  0.4623
 8182TIP3    H224511   4.170   3.612   5.817 -1.5146 -1.3229  0.3631
 8183TIP3   OH224512   1.158   5.212   1.963  0.3882 -0.1499 -0.0838
 8183TIP3    H124513   1.101   5.228   1.888 -0.3352  1.0936  0.6932
 8183TIP3    H224514   1.247   5.215   1.928  0.0674  0.5108 -0.8757
 8184TIP3   OH224515   6.842   3.466   4.270 -0.0151  0.0074 -0.0729
 8184TIP3    H124516   6.853   3.372   4.283  2.6110  0.5555  2.7350
 8184TIP3    H224517   6.765   3.488   4.322 -0.3300 -0.4992 -0.3149
 8185TIP3   OH224518   4.991   4.725   1.387  0.1762 -0.1852 -0.1288
 8185TIP3    H124519   4.936   4.661   1.432 -0.3249  0.4222  0.1366
 8185TIP3    H224520   5.064   4.740   1.447  0.8431 -1.2677 -0.6411
 8186TIP3   OH224521   4.841   2.066   2.856  0.2892 -0.1716 -0.2718
 8186TIP3    H124522   4.863   1.999   2.790 -1.3659 -0.4123 -0.6113
 8186TIP3    H224523   4.835   2.017   2.938 -0.3895 -0.3614 -0.4286
 8187TIP3   OH224524   4.521   0.383   2.265 -0.2696  0.1003 -0.1829
 8187TIP3    H124525   4.579   0.323   2.313  0.7812 -0.0237 -1.5408
 8187TIP3    H224526   4.477   0.327   2.201 -2.2928  0.1098  1.1176
 8188TIP3   OH224527   0.566   2.680   5.791  0.1525  0.2022  0.3165
 8188TIP3    H124528   0.475   2.652   5.786  0.1914  0.1328 -0.0074
 8188TIP3    H224529   0.586   2.677   5.885 -0.1764  0.2172  0.3886
 8189TIP3   OH224530   0.185   3.812   0.309 -0.4382  0.5466  0.1358
 8189TIP3    H124531   0.178   3.896   0.263 -0.0110  1.3042  1.4211
 8189TIP3    H224532   0.157   3.831   0.398 -2.7738 -1.2297 -0.1198
 8190TIP3   OH224533   1.206   5.714   5.049  1.2338  0.2168  0.5123
 8190TIP3    H124534   1.157   5.737   5.128  2.0161  1.2373  0.7276
 8190TIP3    H224535   1.141   5.717   4.979  0.8992  1.1920  0.8457
 8191TIP3   OH224536   2.230   5.820   2.602  0.2937 -0.0894 -0.2216
 8191TIP3    H124537   2.210   5.736   2.644 -1.9115  1.3856  1.8976
 8191TIP3    H224538   2.218   5.803   2.508  0.2166 -2.1970  0.1158
 8192TIP3   OH224539   3.365   3.982   3.527  0.0358  0.7622  0.0132
 8192TIP3    H124540   3.344   3.923   3.599  2.7868 -1.1960 -0.6395
 8192TIP3    H224541   3.420   4.050   3.567 -0.5618  1.1581  0.1838
 8193TIP3   OH224542   5.938   5.915   2.013  0.0996 -0.2037 -0.2867
 8193TIP3    H124543   5.916   6.008   2.003 -0.2833 -0.2260  0.3222
 8193TIP3    H224544   5.866   5.869   1.971  0.6763 -0.2198 -1.2839
 8194TIP3   OH224545   5.708   1.970   3.642  0.2604  0.0716  0.0865
 8194TIP3    H124546   5.792   2.001   3.608 -0.1602  0.0586 -0.9712
 8194TIP3    H224547   5.723   1.962   3.737  1.3102  0.5029 -0.0274
 8195TIP3   OH224548   6.441   4.935   0.955 -0.0025  0.1940  0.2414
 8195TIP3    H124549   6.473   5.022   0.979 -1.8579  1.0090 -0.0728
 8195TIP3    H224550   6.347   4.947   0.943 -0.0482 -1.4743 -1.5457
 8196TIP3   OH224551   2.037   2.413   4.325 -0.2950  0.0512 -0.7165
 8196TIP3    H124552   1.998   2.358   4.393  0.0773  1.2065  0.4886
 8196TIP3    H224553   1.968   2.424   4.260 -0.6039 -1.2263 -0.6216
 8197TIP3   OH224554   1.085   1.580   2.160 -0.2144 -0.2603 -0.4573
 8197TIP3    H124555   1.137   1.503   2.137  0.9387  0.4803 -0.3853
 8197TIP3    H224556   1.131   1.620   2.234 -0.6580  0.6389 -0.6462
 8198TIP3   OH224557   6.291   1.464   4.488  0.0553  0.2037 -0.1955
 8198TIP3    H124558   6.327   1.377   4.508  1.4398  1.0952  1.4356
 8198TIP3    H224559   6.257   1.495   4.572  2.3420  2.4381  0.0197
 8199TIP3   OH224560   4.626   6.312   4.526 -0.7719  0.0993 -0.3005
 8199TIP3    H124561   4.587   6.316   4.439 -1.5291  0.4637  0.0421
 8199TIP3    H224562   4.565   6.258   4.577 -0.7093  0.4656  0.1751
 8200TIP3   OH224563   3.358   0.274   2.390  0.3283 -0.1513 -0.2323
 8200TIP3    H124564   3.396   0.324   2.462  0.6281  0.0908 -0.5610
 8200TIP3    H224565   3.266   0.301   2.388  0.5270  0.5187 -0.5187
 8201TIP3   OH224566   5.032   3.322   4.711  0.3718  0.0402  0.0706
 8201TIP3    H124567   5.074   3.408   4.714 -0.7142  0.5895 -0.0434
 8201TIP3    H224568   4.976   3.325   4.633 -1.3847  0.0533  1.2848
 8202TIP3   OH224569   2.857   5.335   5.751 -0.1429 -0.2152 -0.2235
 8202TIP3    H124570   2.803   5.315   5.828  0.7734  1.4228  0.9010
 8202TIP3    H224571   2.807   5.401   5.703  0.4556  0.7145  0.3979
 8203TIP3   OH224572   1.536   4.555   2.197 -0.1960  0.4608 -0.0909
 8203TIP3    H124573   1.576   4.472   2.173 -1.4912 -0.2170  0.0062
 8203TIP3    H224574   1.597   4.593   2.260  0.1933 -0.6431  0.2245
 8204TIP3   OH224575   2.334   0.231   4.502 -0.1288 -0.2426  0.5402
 8204TIP3    H124576   2.383   0.299   4.550 -0.8847  0.0779  0.8761
 8204TIP3    H224577   2.396   0.199   4.436  0.9488 -0.6865  1.7172
 8205TIP3   OH224578   2.386   0.796   2.864 -0.3802 -0.0641 -0.2047
 8205TIP3    H124579   2.371   0.879   2.819  0.7460  0.0769 -0.3648
 8205TIP3    H224580   2.412   0.821   2.953 -1.2139 -0.2915  0.1041
 8206TIP3   OH224581   4.961   4.699   1.853  0.3141 -0.0381 -0.5648
 8206TIP3    H124582   4.925   4.610   1.850  1.8719 -0.7336 -0.0493
 8206TIP3    H224583   4.988   4.710   1.944 -0.0254  1.0539 -0.5858
 8207TIP3   OH224584   3.709   5.295   4.362 -0.4601 -0.0877  0.3582
 8207TIP3    H124585   3.651   5.368   4.342  0.4394 -0.0333 -2.4742
 8207TIP3    H224586   3.710   5.242   4.283 -0.4022 -2.7816  2.0142
 8208TIP3   OH224587   0.679   3.242   5.842 -0.4718  0.1316 -0.0644
 8208TIP3    H124588   0.671   3.175   5.775 -0.9151 -2.1925  2.1361
 8208TIP3    H224589   0.606   3.301   5.826 -2.1686 -1.8709 -0.1431
 8209TIP3   OH224590   3.613   6.066   2.688  0.4653  0.4776  0.3979
 8209TIP3    H124591   3.643   6.112   2.766  0.2730  2.5847 -0.6917
 8209TIP3    H224592   3.599   6.135   2.623  1.0061 -1.2188 -1.6520
 8210TIP3   OH224593   6.353   4.721   2.863  0.0434  0.4742  0.0748
 8210TIP3    H124594   6.319   4.725   2.773  1.5901  1.1585 -0.5155
 8210TIP3    H224595   6.431   4.665   2.856 -0.5024 -0.4825  1.2495
 8211TIP3   OH224596   4.521   4.625   5.243  0.4337  0.0377  0.1204
 8211TIP3    H124597   4.465   4.683   5.190  1.5145  0.3516 -0.7121
 8211TIP3    H224598   4.470   4.545   5.251  1.2382 -1.1300 -3.8527
 8212TIP3   OH224599   1.864   3.000   1.103  0.2633  0.9129  0.4293
 8212TIP3    H124600   1.877   3.080   1.051 -0.1307  0.5010 -0.3199
 8212TIP3    H224601   1.945   2.950   1.089  0.3229  0.9792  0.5356
 8213TIP3   OH224602   1.872   4.679   5.254  0.3049 -0.2665 -0.7488
 8213TIP3    H124603   1.854   4.618   5.325  0.9599 -0.8724 -1.0905
 8213TIP3    H224604   1.855   4.765   5.291  0.2605 -0.5983  0.0179
 8214TIP3   OH224605   1.942   2.529   3.721 -0.0593  0.0133 -0.3692
 8214TIP3    H124606   1.849   2.550   3.736  0.0096  0.1984 -0.1815
 8214TIP3    H224607   1.972   2.494   3.805  0.2247  0.6521 -0.1927
 8215TIP3   OH224608   7.059   3.180   1.909  0.5417 -0.1032  0.2611
 8215TIP3    H124609   6.991   3.114   1.921  1.1642 -1.0543 -1.0879
 8215TIP3    H224610   7.019   3.262   1.937 -0.1975 -1.0502  2.1393
 8216TIP3   OH224611   4.938   5.963   3.811 -0.2492  0.0994  0.0195
 8216TIP3    H124612   4.996   6.035   3.785 -1.4812  0.3897 -2.2575
 8216TIP3    H224613   4.983   5.920   3.883  2.0751  1.2094 -0.6696
 8217TIP3   OH224614   0.184   6.096   0.352 -0.1343  0.0206  0.1362
 8217TIP3    H124615   0.099   6.128   0.383 -0.4592 -1.0847  0.4341
 8217TIP3    H224616   0.167   6.066   0.263 -0.4117 -1.5104  0.6789
 8218TIP3   OH224617   5.202   5.004   0.081  0.1862 -0.4109 -0.1470
 8218TIP3    H124618   5.193   5.099   0.081  2.4834 -0.1367  0.4011
 8218TIP3    H224619   5.205   4.981   0.174 -0.3629 -1.0554 -0.2774
 8219TIP3   OH224620   5.220   1.661   2.229  0.4754 -0.0149  0.0194
 8219TIP3    H124621   5.303   1.647   2.184  0.1062  0.4987 -0.8519
 8219TIP3    H224622   5.166   1.587   2.203 -0.0053  0.6851 -1.0620
 8220TIP3   OH224623   5.615   1.710   3.710 -0.4946 -0.0787  0.6417
 8220TIP3    H124624   5.531   1.748   3.733  0.0984  3.5602 -2.2447
 8220TIP3    H224625   5.680   1.765   3.754  0.4092 -0.7758  0.2381
 8221TIP3   OH224626   4.240   2.439   0.976  0.2681 -0.1106 -0.1965
 8221TIP3    H124627   4.208   2.529   0.967  1.4934  0.1974 -2.2514
 8221TIP3    H224628   4.165   2.390   1.009 -1.0550  1.3049 -0.9715
 8222TIP3   OH224629   0.098   6.418   2.235 -0.2400  0.2305 -0.1687
 8222TIP3    H124630   0.100   6.482   2.306  0.3279  0.7979 -0.6852
 8222TIP3    H224631   0.010   6.380   2.239 -0.0919 -0.0262  1.0799
 8223TIP3   OH224632   2.395   3.785   3.567  0.2747  0.6093 -0.3726
 8223TIP3    H124633   2.365   3.802   3.478 -1.0987 -1.3822 -0.3635
 8223TIP3    H224634   2.351   3.851   3.620  0.3161  1.1881 -1.0508
 8224TIP3   OH224635   5.789   1.117   3.521  0.5734 -0.1811  0.0314
 8224TIP3    H124636   5.719   1.119   3.586  0.4531  0.7891 -0.1073
 8224TIP3    H224637   5.774   1.036   3.472  0.8424 -1.0821  1.3838
 8225TIP3   OH224638   3.649   4.935   5.559  0.4846 -0.4368 -0.2055
 8225TIP3    H124639   3.738   4.947   5.527  0.7888  2.5653  1.3950
 8225TIP3    H224640   3.625   4.847   5.531  4.0620 -1.5067 -0.4107
 8226TIP3   OH224641   2.949   5.926   0.895  0.2362  0.5944  0.2765
 8226TIP3    H124642   2.958   5.935   0.800  2.1083 -1.7226  0.1400
 8226TIP3    H224643   2.967   5.833   0.912 -1.8528  0.5328  2.7386
 8227TIP3   OH224644   1.454   4.784   2.390 -0.0991  0.5622  0.7528
 8227TIP3    H124645   1.517   4.847   2.356 -0.5229  0.1307 -0.9197
 8227TIP3    H224646   1.488   4.760   2.477  1.4533  1.1154  0.3277
 8228TIP3   OH224647   5.972   5.952   1.044 -0.1453 -0.0966 -0.7970
 8228TIP3    H124648   6.039   5.899   1.000  1.2940  1.3779 -0.5076
 8228TIP3    H224649   6.001   5.958   1.135 -0.5361  0.7680 -0.7161
 8229TIP3   OH224650   5.392   6.308   0.891  0.1641 -0.3372  0.2870
 8229TIP3    H124651   5.333   6.236   0.910  0.6253 -1.1173 -1.0640
 8229TIP3    H224652   5.475   6.266   0.866  0.3514  0.6163 -0.8186
 8230TIP3   OH224653   0.935   0.160   0.120  0.2690 -0.1961 -0.0127
 8230TIP3    H124654   0.974   0.147   0.207 -0.8540  1.1623  0.7281
 8230TIP3    H224655   0.880   0.083   0.107  0.1156 -0.2065  0.6617
 8231TIP3   OH224656   5.673   2.107   2.236  0.4135 -0.2914 -0.1309
 8231TIP3    H124657   5.681   2.123   2.330  1.2117  2.1686 -0.5512
 8231TIP3    H224658   5.756   2.067   2.211 -1.0112 -4.2278  0.6555
 8232TIP3   OH224659   3.467   3.726   2.925  0.2056  0.1057 -0.4122
 8232TIP3    H124660   3.542   3.778   2.899  0.9367 -0.5890  0.2299
 8232TIP3    H224661   3.477   3.643   2.878  1.5240 -1.1492  1.8764
 8233TIP3   OH224662   7.064   2.439   3.054 -0.2384 -0.1918 -0.2488
 8233TIP3    H124663   7.052   2.438   2.959 -0.6312 -0.7994 -0.2030
 8233TIP3    H224664   7.002   2.505   3.085  0.4966  0.6199 -0.4802
 8234TIP3   OH224665   1.338   0.142   3.409 -0.0558  0.2094  0.1120
 8234TIP3    H124666   1.426   0.106   3.398 -0.2079 -0.1339 -0.0110
 8234TIP3    H224667   1.281   0.066   3.406 -0.2656  0.2878  1.4611
 8235TIP3   OH224668   0.209   3.751   1.872 -0.0272  0.2818  0.4027
 8235TIP3    H124669   0.190   3.840   1.900 -1.0076 -0.2517  1.5390
 8235TIP3    H224670   0.128   3.703   1.888  0.1126 -0.5884 -1.2615
 8236TIP3   OH224671   1.941   3.706   0.115  0.2302 -0.1251  0.3559
 8236TIP3    H124672   2.036   3.694   0.124  0.4389  0.4546 -0.8162
 8236TIP3    H224673   1.915   3.641   0.050  0.0651  0.6319 -0.3438
 8237TIP3   OH224674   1.108   3.642   0.236  0.1050  0.4573  0.5027
 8237TIP3    H124675   1.148   3.577   0.295 -0.0934  0.4575  0.6436
 8237TIP3    H224676   1.148   3.725   0.260  1.1347  0.2295 -0.4011
 8238TIP3   OH224677   4.747   1.656   3.841  0.0314  0.2517  0.0680
 8238TIP3    H124678   4.690   1.687   3.911 -0.5211 -1.4519  0.4236
 8238TIP3    H224679   4.722   1.707   3.765 -1.3847  0.1425  0.4354
 8239TIP3   OH224680   2.661   5.740   3.221  0.0700 -0.4799 -0.3976
 8239TIP3    H124681   2.746   5.738   3.264 -0.4124  0.7976  0.6868
 8239TIP3    H224682   2.597   5.748   3.292 -0.7575  1.4959 -1.2656
 8240TIP3   OH224683   1.076   3.985   4.592  0.0056 -0.0705 -0.0824
 8240TIP3    H124684   1.075   3.941   4.676 -0.3466  0.6177  0.2867
 8240TIP3    H224685   1.168   3.986   4.566  0.2603  0.5985  0.7829
 8241TIP3   OH224686   2.058   1.905   0.847 -0.0311 -0.9293 -0.2883
 8241TIP3    H124687   2.039   1.828   0.793 -2.7037 -0.4916 -0.0823
 8241TIP3    H224688   2.043   1.876   0.936 -1.0179 -0.1958 -0.2067
 8242TIP3   OH224689   3.103   5.206   3.924  0.1768  0.5188 -0.2900
 8242TIP3    H124690   3.043   5.133   3.938  1.1919 -0.1260  0.9409
 8242TIP3    H224691   3.047   5.283   3.923 -0.8943 -0.2504 -1.4404
 8243TIP3   OH224692   5.622   1.539   3.955  0.6414  0.1877  0.0857
 8243TIP3    H124693   5.696   1.479   3.946  0.3355 -0.1214 -0.4036
 8243TIP3    H224694   5.626   1.593   3.876 -0.9159 -1.2512 -1.0332
 8244TIP3   OH224695   6.393   6.035   1.468 -0.6816  0.3496 -0.1256
 8244TIP3    H124696   6.459   5.972   1.442  2.1117  3.3512 -1.0251
 8244TIP3    H224697   6.414   6.055   1.560 -2.0124 -0.5029  0.3893
 8245TIP3   OH224698   1.003   3.098   2.363 -0.0813  0.2243  1.1976
 8245TIP3    H124699   1.094   3.074   2.348 -0.2643  0.1267  0.1603
 8245TIP3    H224700   0.964   3.100   2.275 -0.7334  1.6605  1.4973
 8246TIP3   OH224701   0.698   1.802   5.887 -0.0776  0.0468  0.3825
 8246TIP3    H124702   0.707   1.891   5.852  2.7187  0.8153  2.6155
 8246TIP3    H224703   0.710   1.745   5.812 -1.7613  1.5187 -1.0833
 8247TIP3   OH224704   2.823   0.104   5.496  0.1266 -0.0436 -0.0101
 8247TIP3    H124705   2.890   0.108   5.564  1.3466  1.5102 -1.2319
 8247TIP3    H224706   2.741   0.095   5.544  1.0664 -0.3358  1.5960
 8248TIP3   OH224707   5.542   2.549   3.569 -0.0894  0.0668  0.1422
 8248TIP3    H124708   5.567   2.625   3.516  0.7681  0.0112  0.4604
 8248TIP3    H224709   5.501   2.587   3.647  1.0296  0.2433  0.6609
 8249TIP3   OH224710   2.273   4.971   3.827  0.1272 -0.2685 -0.3340
 8249TIP3    H124711   2.308   4.890   3.789 -0.4387 -0.5973 -0.1486
 8249TIP3    H224712   2.339   4.997   3.891  0.0008 -0.9274  0.0673
 8250TIP3   OH224713   2.245   4.399   1.507  0.4939  0.4389 -0.5299
 8250TIP3    H124714   2.160   4.434   1.481 -0.3080 -0.1155  1.2348
 8250TIP3    H224715   2.224   4.327   1.566  2.2002  1.1353  1.0092
 8251TIP3   OH224716   0.162   5.371   2.667 -0.4028  0.3740  0.2572
 8251TIP3    H124717   0.239   5.426   2.676  0.7493 -1.3057  1.2783
 8251TIP3    H224718   0.172   5.329   2.582  1.1176 -1.6270  1.3456
 8252TIP3   OH224719   3.914   4.978   1.598 -0.4512  0.6522 -0.4209
 8252TIP3    H124720   3.972   4.918   1.646  1.0071  1.1418 -1.5085
 8252TIP3    H224721   3.829   4.934   1.598  0.0875 -0.4467  0.5625
 8253TIP3   OH224722   5.673   6.080   4.423  0.2884  0.1041 -0.1919
 8253TIP3    H124723   5.735   6.093   4.495  1.0922 -0.5277 -0.7484
 8253TIP3    H224724   5.588   6.103   4.460  0.9042  1.4227  0.4730
 8254TIP3   OH224725   4.181   3.772   1.499 -0.0385  0.1145 -0.1216
 8254TIP3    H124726   4.238   3.763   1.575  2.1055  2.1607 -1.3518
 8254TIP3    H224727   4.102   3.813   1.533 -0.0974 -1.1041  1.3355
 8255TIP3   OH224728   2.104   6.309   0.996  0.6551 -0.0182 -0.0185
 8255TIP3    H124729   2.179   6.273   0.949 -0.2423 -2.3458  0.2097
 8255TIP3    H224730   2.032   6.304   0.934  0.3300  0.6951  0.2907
 8256TIP3   OH224731   4.354   2.767   4.271  0.3100  0.2603 -0.3940
 8256TIP3    H124732   4.396   2.814   4.344 -1.3473 -0.3778  1.0427
 8256TIP3    H224733   4.413   2.780   4.197  1.2660  2.2911  0.6488
 8257TIP3   OH224734   0.386   6.037   1.563  0.0122  0.4126  0.0585
 8257TIP3    H124735   0.434   6.028   1.645  0.5169  1.9506 -0.0241
 8257TIP3    H224736   0.387   6.132   1.546 -1.3926  0.2790 -0.9379
 8258TIP3   OH224737   2.975   1.663   2.807 -0.3763 -0.4245  0.0908
 8258TIP3    H124738   3.048   1.668   2.868  0.7602 -0.7088 -1.1775
 8258TIP3    H224739   2.902   1.704   2.853  1.5058  3.3470  0.1238
 8259TIP3   OH224740   3.411   5.955   5.389 -0.2906 -0.1826 -0.0733
 8259TIP3    H124741   3.431   6.016   5.318 -1.3550  1.1911  0.7625
 8259TIP3    H224742   3.371   5.880   5.346 -1.2079  0.7597 -0.9198
 8260TIP3   OH224743   7.159   2.559   3.352 -0.5641 -0.0085 -0.2106
 8260TIP3    H124744   7.232   2.540   3.293  0.2111  3.1803 -0.4450
 8260TIP3    H224745   7.091   2.595   3.295 -0.6702  0.9582  0.4963
 8261TIP3   OH224746   7.104   4.919   3.686 -0.0266  0.7161 -0.0526
 8261TIP3    H124747   7.156   4.995   3.712 -0.0749  0.8360 -0.3015
 8261TIP3    H224748   7.099   4.925   3.591 -0.8270  0.9220 -0.0018
 8262TIP3   OH224749   6.610   2.823   5.316 -0.1101  0.2436  0.6198
 8262TIP3    H124750   6.644   2.841   5.404 -0.5187 -0.9814  1.0488
 8262TIP3    H224751   6.535   2.882   5.307  0.6788  1.2783  0.5765
 8263TIP3   OH224752   4.386   4.124   1.000  0.5731 -0.5398 -0.4092
 8263TIP3    H124753   4.312   4.185   1.008  0.7509 -0.6137  3.4189
 8263TIP3    H224754   4.356   4.060   0.935 -2.5558 -0.2381  0.5449
 8264TIP3   OH224755   0.392   0.881   5.513 -0.0972  0.3235 -0.3103
 8264TIP3    H124756   0.406   0.968   5.477 -0.2291 -0.8139 -3.3754
 8264TIP3    H224757   0.463   0.827   5.476  1.6335 -0.4570  3.6120
 8265TIP3   OH224758   6.889   5.798   3.542 -0.5840 -0.1809 -0.0163
 8265TIP3    H124759   6.963   5.740   3.525 -0.7747  0.0982 -2.1258
 8265TIP3    H224760   6.812   5.741   3.540 -0.4600 -0.5101  2.4212
 8266TIP3   OH224761   0.891   0.896   5.567  0.4846 -0.1594 -0.3265
 8266TIP3    H124762   0.927   0.967   5.621  0.8645 -1.2402  0.9145
 8266TIP3    H224763   0.803   0.882   5.602 -0.2057  0.7508 -1.6437
 8267TIP3   OH224764   2.754   5.058   1.996  0.3770  0.0760  0.1200
 8267TIP3    H124765   2.739   4.989   2.061  0.3383  0.3827  0.4370
 8267TIP3    H224766   2.835   5.031   1.952  0.3335 -0.2006  0.2035
 8268TIP3   OH224767   3.594   3.401   1.114 -0.1386 -0.2469  0.2892
 8268TIP3    H124768   3.649   3.368   1.185 -0.1146 -0.0749  0.3525
 8268TIP3    H224769   3.606   3.339   1.043 -1.6102 -1.5046  1.0540
 8269TIP3   OH224770   1.775   0.744   5.874  0.8571  0.2491  0.2634
 8269TIP3    H124771   1.716   0.819   5.884  0.6707 -0.0036  1.1542
 8269TIP3    H224772   1.718   0.670   5.856  1.1015  0.4564 -1.6466
 8270TIP3   OH224773   6.454   3.731   2.745 -0.2847  0.0663  0.6827
 8270TIP3    H124774   6.441   3.765   2.834 -1.3909 -0.2186  0.6547
 8270TIP3    H224775   6.481   3.640   2.758 -2.8348 -0.7692  0.7761
 8271TIP3   OH224776   0.064   5.248   5.661 -0.2846 -0.1278 -0.0807
 8271TIP3    H124777   0.132   5.226   5.598 -1.8419  1.9606 -2.6539
 8271TIP3    H224778   0.024   5.163   5.683  1.5951 -1.1130 -0.2431
 8272TIP3   OH224779   0.198   0.613   1.751 -0.5239  0.4565 -0.1899
 8272TIP3    H124780   0.169   0.530   1.712  3.1040 -1.3949  0.6640
 8272TIP3    H224781   0.203   0.673   1.676 -2.4416 -0.2406 -0.9579
 8273TIP3   OH224782   3.014   3.704   3.835 -0.3991  0.6813 -0.2009
 8273TIP3    H124783   2.948   3.767   3.865  0.7424  1.0509  1.7145
 8273TIP3    H224784   3.053   3.670   3.916  2.2592  1.0464 -1.2290
 8274TIP3   OH224785   2.392   3.937   2.356 -0.1185  0.0600 -0.4079
 8274TIP3    H124786   2.398   3.976   2.443 -0.0347 -0.6610 -0.0850
 8274TIP3    H224787   2.328   3.867   2.364 -0.2502  0.1061 -0.9751
 8275TIP3   OH224788   3.768   0.446   0.575  0.1327  0.2233  0.7259
 8275TIP3    H124789   3.857   0.431   0.606 -0.5207 -2.4091  1.5271
 8275TIP3    H224790   3.727   0.360   0.575 -2.3541  1.3151  0.1115
 8276TIP3   OH224791   1.984   4.769   2.353 -0.4188 -0.5428  0.0478
 8276TIP3    H124792   2.045   4.765   2.427 -0.8219 -0.8740  0.3601
 8276TIP3    H224793   1.913   4.825   2.383  0.8013  1.7747 -1.1157
 8277TIP3   OH224794   2.880   5.221   4.454  0.0729  0.3790  0.1004
 8277TIP3    H124795   2.971   5.190   4.457 -0.6486 -1.8199  1.3592
 8277TIP3    H224796   2.886   5.315   4.469  2.0567  0.0887  1.4463
 8278TIP3   OH224797   5.310   0.248   5.180  0.9514  0.0309 -0.0268
 8278TIP3    H124798   5.401   0.252   5.153  0.8257 -1.0986 -0.6707
 8278TIP3    H224799   5.276   0.336   5.162  1.8932  0.4474  0.1807
 8279TIP3   OH224800   0.168   1.973   5.846  0.2714 -1.2009  0.0202
 8279TIP3    H124801   0.140   1.888   5.812  0.2052 -2.2636  2.4974
 8279TIP3    H224802   0.264   1.971   5.837  0.2439 -1.3919 -0.2514
 8280TIP3   OH224803   5.597   4.013   0.118  0.0465  0.4562  0.1198
 8280TIP3    H124804   5.540   3.937   0.105 -1.3616  1.3660  0.6377
 8280TIP3    H224805   5.666   3.981   0.176  0.8962 -1.0402 -1.6087
 8281TIP3   OH224806   1.044   5.112   1.302 -1.0335  0.3743  0.7956
 8281TIP3    H124807   0.971   5.108   1.239 -1.0744  1.9314  0.7165
 8281TIP3    H224808   1.051   5.204   1.325  2.5367  0.7932 -1.1388
 8282TIP3   OH224809   2.618   0.706   0.040  0.0007 -0.0495  0.1047
 8282TIP3    H124810   2.669   0.650   0.098  1.7178  0.1853 -1.0875
 8282TIP3    H224811   2.576   0.645  -0.021 -2.4150 -0.3558  1.9340
 8283TIP3   OH224812   1.568   3.192   3.379  0.1243 -0.2764  0.2263
 8283TIP3    H124813   1.482   3.163   3.407  0.3352 -0.6876  0.4655
 8283TIP3    H224814   1.628   3.125   3.412  0.7310  0.8838  1.6256
 8284TIP3   OH224815   1.454   6.587   5.687  0.0286 -0.7752  0.3414
 8284TIP3    H124816   1.419   6.573   5.600 -2.0727  0.5846  0.9066
 8284TIP3    H224817   1.377   6.593   5.744  1.2821 -0.3984  2.1004
 8285TIP3   OH224818   3.295   1.741   2.436  0.3975 -0.1864 -0.2501
 8285TIP3    H124819   3.285   1.833   2.462 -2.0508 -0.7022  0.9342
 8285TIP3    H224820   3.362   1.743   2.368  1.3044  2.3009  0.6006
 8286TIP3   OH224821   2.967   0.788   2.944 -0.1751  0.1637 -0.0479
 8286TIP3    H124822   2.917   0.838   3.009 -0.2711  0.1269 -0.0934
 8286TIP3    H224823   2.964   0.698   2.975  0.6748  0.3002  0.4651
 8287TIP3   OH224824   1.708   6.429   0.451 -0.1494 -0.2644 -0.3908
 8287TIP3    H124825   1.766   6.505   0.457 -1.3847  0.8776 -1.9500
 8287TIP3    H224826   1.767   6.354   0.451  1.1004  0.6399  1.4453
 8288TIP3   OH224827   4.136   3.569   1.323  0.2546  0.6627 -0.6118
 8288TIP3    H124828   4.160   3.636   1.387 -1.0531  0.9446 -0.3774
 8288TIP3    H224829   4.135   3.487   1.372 -0.8754  0.8975 -0.2018
 8289TIP3   OH224830   2.586   2.917   4.890 -0.0904 -0.0110  0.3488
 8289TIP3    H124831   2.571   2.987   4.954 -2.5780  0.5701 -0.7449
 8289TIP3    H224832   2.545   2.840   4.930  0.1557 -0.1609  0.3154
 8290TIP3   OH224833   2.757   0.897   5.754  0.5653 -0.0213  0.0009
 8290TIP3    H124834   2.721   0.868   5.670 -0.0568 -1.1812  0.6508
 8290TIP3    H224835   2.691   0.958   5.788  2.1097  2.7239 -1.6041
 8291TIP3   OH224836   3.323   0.959   2.008  0.7098  0.3368  0.7865
 8291TIP3    H124837   3.276   1.029   1.962 -0.8887 -2.2157 -1.7592
 8291TIP3    H224838   3.405   0.948   1.959  0.3597 -0.4256  0.3647
 8292TIP3   OH224839   6.527   3.274   4.906 -0.5327 -0.1032 -0.0327
 8292TIP3    H124840   6.600   3.242   4.854 -1.2431 -1.8135 -0.0740
 8292TIP3    H224841   6.526   3.368   4.892  0.5508 -0.2690 -1.4725
 8293TIP3   OH224842   0.229   1.080   2.260 -0.1600  1.1966 -0.0086
 8293TIP3    H124843   0.162   1.104   2.323  0.2617 -2.0461  1.8663
 8293TIP3    H224844   0.306   1.129   2.287 -0.1491  0.3009  1.7396
 8294TIP3   OH224845   6.582   5.789   2.385  0.0928  0.7458 -0.3405
 8294TIP3    H124846   6.648   5.721   2.374  0.3697  1.3223 -2.9430
 8294TIP3    H224847   6.530   5.784   2.304 -1.0568  2.3722  0.2602
 8295TIP3   OH224848   5.506   0.876   0.939  0.2922  0.5260 -0.0372
 8295TIP3    H124849   5.523   0.915   1.024 -1.8469 -2.1187  1.7821
 8295TIP3    H224850   5.583   0.822   0.921  0.7259  1.0519  0.2117
 8296TIP3   OH224851   4.721   6.805   5.809  0.2537 -0.7008  0.4527
 8296TIP3    H124852   4.707   6.766   5.895 -1.3686  0.9692  1.0207
 8296TIP3    H224853   4.722   6.730   5.749  0.4974 -1.8295  1.8142
 8297TIP3   OH224854   6.798   6.670   4.944 -0.3333 -0.5989 -0.1442
 8297TIP3    H124855   6.798   6.663   5.039 -0.0578  0.2453 -0.0670
 8297TIP3    H224856   6.784   6.581   4.912 -3.5655 -0.5104  0.7015
 8298TIP3   OH224857   1.781   3.875   4.771  0.4213 -0.3414 -0.9892
 8298TIP3    H124858   1.861   3.927   4.781  0.0945 -0.0196  0.0667
 8298TIP3    H224859   1.731   3.892   4.851 -1.3297  0.5045 -2.2021
 8299TIP3   OH224860   3.439   3.652   4.893  0.7408  0.0414 -0.9516
 8299TIP3    H124861   3.351   3.636   4.925  1.7217 -1.4698  1.2447
 8299TIP3    H224862   3.451   3.587   4.823 -0.4026  1.3749 -2.4425
 8300TIP3   OH224863   1.003   5.577   3.648  0.7434 -0.3186  0.1080
 8300TIP3    H124864   1.060   5.534   3.711 -0.4567 -2.7907 -0.3373
 8300TIP3    H224865   0.969   5.505   3.594 -1.5801  1.1929 -0.5947
 8301TIP3   OH224866   0.589   3.578   4.939  0.1950  0.0317 -0.7025
 8301TIP3    H124867   0.549   3.519   4.874 -0.6788  0.4533 -0.5679
 8301TIP3    H224868   0.527   3.651   4.945 -0.3871 -0.5786  1.5135
 8302TIP3   OH224869   3.995   5.627   2.692  0.3411 -0.2512 -0.0193
 8302TIP3    H124870   3.983   5.664   2.605  0.6601  0.3698  0.1912
 8302TIP3    H224871   3.945   5.684   2.750  0.0639 -0.7072  0.1980
 8303TIP3   OH224872   5.287   2.097   0.163 -0.0727  0.4540  0.5225
 8303TIP3    H124873   5.276   2.192   0.151 -0.4164  0.4821  1.0065
 8303TIP3    H224874   5.380   2.086   0.182 -0.2628  0.8688  1.8479
 8304TIP3   OH224875   3.076   6.440   2.497  0.3855 -0.1789  0.1902
 8304TIP3    H124876   2.985   6.423   2.520  0.8100 -2.6559  0.2876
 8304TIP3    H224877   3.118   6.354   2.498  1.8172  0.2548 -3.9886
 8305TIP3   OH224878   2.153   2.940   1.321 -0.9207 -0.2438  0.7103
 8305TIP3    H124879   2.106   2.857   1.332  0.0774 -0.9480 -0.1937
 8305TIP3    H224880   2.177   2.943   1.229  1.0738 -0.0543  1.1877
 8306TIP3   OH224881   1.886   4.145   5.448  0.0010  0.1007 -0.2933
 8306TIP3    H124882   1.969   4.112   5.484  0.8203  1.3849 -0.8998
 8306TIP3    H224883   1.876   4.101   5.364  0.0631 -0.0912 -0.1989
 8307TIP3   OH224884   4.368   4.055   2.813  0.2088 -0.0794  0.4479
 8307TIP3    H124885   4.279   4.029   2.837 -0.1592  2.1497  1.7466
 8307TIP3    H224886   4.418   3.974   2.816 -1.9476 -1.6183 -1.4670
 8308TIP3   OH224887   0.187   4.131   1.223 -0.5881  0.3033  0.1369
 8308TIP3    H124888   0.264   4.185   1.242  1.2418 -1.7501 -0.8944
 8308TIP3    H224889   0.176   4.138   1.128 -2.1984  1.1431  0.3494
 8309TIP3   OH224890   5.714   0.723   0.810 -0.0402  0.9104 -0.4286
 8309TIP3    H124891   5.732   0.632   0.784  0.9143  1.1608 -0.6832
 8309TIP3    H224892   5.800   0.765   0.811 -0.5762  2.0966 -1.3619
 8310TIP3   OH224893   0.973   3.891   5.553  0.1568  0.1346 -0.4973
 8310TIP3    H124894   0.981   3.986   5.550  0.7106  0.1357  0.5297
 8310TIP3    H224895   1.058   3.861   5.585  0.1702 -0.7489 -1.3098
 8311TIP3   OH224896   5.530   5.097   2.687 -0.0354  0.2409 -0.4173
 8311TIP3    H124897   5.489   5.026   2.737  0.9118 -1.3434 -1.7430
 8311TIP3    H224898   5.476   5.104   2.608  1.0023 -0.4512 -1.2234
 8312TIP3   OH224899   1.493   5.840   1.058 -0.4130 -0.2346  0.5615
 8312TIP3    H124900   1.422   5.891   1.097 -1.6211 -1.0940 -0.4745
 8312TIP3    H224901   1.537   5.800   1.133 -0.7435  0.6495  1.2428
 8313TIP3   OH224902   3.455   1.570   5.739  0.5362  0.5153  0.1837
 8313TIP3    H124903   3.363   1.592   5.746  0.5067  0.5983 -0.3660
 8313TIP3    H224904   3.475   1.582   5.646  0.6812 -1.0877 -0.0321
 8314TIP3   OH224905   5.964   6.502   3.286 -0.0855  0.8975 -0.1024
 8314TIP3    H124906   6.057   6.480   3.294  0.2173  1.8824 -0.7554
 8314TIP3    H224907   5.919   6.418   3.296  0.7624  0.6354  1.9286
 8315TIP3   OH224908   0.212   2.295   1.110  0.4027  0.3505 -0.7453
 8315TIP3    H124909   0.247   2.251   1.187  0.5576 -0.0692 -1.0548
 8315TIP3    H224910   0.178   2.378   1.143 -2.0526 -0.9505  0.2849
 8316TIP3   OH224911   4.705   4.176   2.956  0.2635 -0.0170  0.3499
 8316TIP3    H124912   4.701   4.082   2.937 -0.7193  0.1397 -0.2527
 8316TIP3    H224913   4.759   4.212   2.886 -0.1063  0.0005  0.0764
 8317TIP3   OH224914   2.204   4.258   3.717 -0.4963  0.4808  0.3450
 8317TIP3    H124915   2.228   4.224   3.631 -3.8298 -0.9262 -0.1708
 8317TIP3    H224916   2.246   4.199   3.779 -0.6610 -0.4595 -0.4135
 8318TIP3   OH224917   0.479   2.802   3.760  0.4825  0.0375  0.3259
 8318TIP3    H124918   0.475   2.824   3.667  2.8900  0.7935  0.3355
 8318TIP3    H224919   0.477   2.706   3.762  2.0119 -0.0408 -0.6522
 8319TIP3   OH224920   0.590   4.090   5.034  0.2521  0.0863 -0.0380
 8319TIP3    H124921   0.592   4.159   5.100  0.9254 -0.9484  1.0640
 8319TIP3    H224922   0.591   4.136   4.950 -0.6629  1.4283  0.6554
 8320TIP3   OH224923   5.823   3.629   2.362 -0.3811  0.7097  0.4263
 8320TIP3    H124924   5.892   3.653   2.300 -0.1212  0.0187  0.4320
 8320TIP3    H224925   5.818   3.533   2.355 -0.5002  0.6445  1.3102
 8321TIP3   OH224926   5.922   4.940   0.758 -0.3414  0.5831  0.1823
 8321TIP3    H124927   5.902   4.994   0.835  0.7324  1.5921 -0.2152
 8321TIP3    H224928   5.843   4.888   0.744 -0.6635  0.5829  1.7973
 8322TIP3   OH224929   4.754   1.230   4.320  0.4786  0.3289 -0.1926
 8322TIP3    H124930   4.711   1.259   4.240 -1.7453  0.4253  0.9640
 8322TIP3    H224931   4.750   1.306   4.378  1.5457  0.0850  0.2176
 8323TIP3   OH224932   0.126   2.676   3.532  0.4656 -0.1676  0.2080
 8323TIP3    H124933   0.052   2.638   3.483  1.0970  0.1885 -1.0615
 8323TIP3    H224934   0.200   2.619   3.511  0.6692 -0.2590  1.1219
 8324TIP3   OH224935   3.685   4.428   1.114 -0.6738  0.4126  0.0304
 8324TIP3    H124936   3.636   4.364   1.063 -0.1705  0.4735 -0.5477
 8324TIP3    H224937   3.637   4.436   1.197  0.1474 -1.9627  0.8193
 8325TIP3   OH224938   5.465   4.896   1.745  0.1744 -0.0751 -0.0458
 8325TIP3    H124939   5.444   4.874   1.654 -0.7315  1.0662 -0.1370
 8325TIP3    H224940   5.542   4.843   1.766  1.8323  1.2839 -2.2229
 8326TIP3   OH224941   3.035   0.733   4.490 -0.1143 -0.3230  0.4884
 8326TIP3    H124942   3.003   0.791   4.559  0.5103  1.4712 -0.6711
 8326TIP3    H224943   2.956   0.708   4.442 -0.4732 -1.0555  1.4350
 8327TIP3   OH224944   3.287   3.068   2.016 -0.9255 -0.0244 -0.5103
 8327TIP3    H124945   3.232   3.104   2.086 -0.2683 -0.1828  0.0965
 8327TIP3    H224946   3.270   2.974   2.017 -0.0439 -0.1919  0.2353
 8328TIP3   OH224947   7.087   2.479   4.080  0.1511 -0.0519  0.7960
 8328TIP3    H124948   7.162   2.419   4.084  1.2513  1.2523  0.3593
 8328TIP3    H224949   7.120   2.560   4.118 -1.0275  0.5764  0.5100
 8329TIP3   OH224950   0.803   4.688   0.117  0.1078 -0.0278  0.4250
 8329TIP3    H124951   0.853   4.744   0.176  1.8854 -1.3096  0.2277
 8329TIP3    H224952   0.796   4.739   0.036  4.0468 -0.8995 -0.7132
 8330TIP3   OH224953   1.454   6.734   5.348  0.1034 -0.4929  0.2146
 8330TIP3    H124954   1.407   6.753   5.430 -0.6186  0.7606 -0.4536
 8330TIP3    H224955   1.400   6.775   5.280  0.7317 -1.4417 -0.8891
 8331TIP3   OH224956   1.755   2.388   2.058  0.2030 -0.2221 -0.3912
 8331TIP3    H124957   1.749   2.356   1.968 -2.0648  3.2160 -1.6634
 8331TIP3    H224958   1.764   2.483   2.049  2.1535  0.0932  3.0571
 8332TIP3   OH224959   4.370   4.750   4.452  0.1245  0.0019 -0.2391
 8332TIP3    H124960   4.340   4.703   4.529 -2.2867  2.2167  0.3283
 8332TIP3    H224961   4.450   4.795   4.480 -0.1720 -0.0249  0.6777
 8333TIP3   OH224962   6.370   2.308   3.537 -0.3206 -0.7512 -0.1617
 8333TIP3    H124963   6.447   2.323   3.482 -1.6275  0.1354 -1.8492
 8333TIP3    H224964   6.319   2.242   3.491 -1.5790  0.2020 -0.1776
 8334TIP3   OH224965   6.813   0.098   0.640  0.1151 -0.1561 -0.3905
 8334TIP3    H124966   6.734   0.129   0.684  0.1711 -0.4158 -0.0967
 8334TIP3    H224967   6.822   0.007   0.670  1.8974  0.5731  1.5969
 8335TIP3   OH224968   6.318   5.206   3.025 -0.0187  0.0461 -0.2664
 8335TIP3    H124969   6.367   5.125   3.031 -1.0820 -0.5463  0.7369
 8335TIP3    H224970   6.365   5.268   3.081  1.3004  0.4289 -1.7276
 8336TIP3   OH224971   3.719   2.273   3.932  0.0930 -0.0343 -0.3391
 8336TIP3    H124972   3.684   2.282   4.021  1.0683 -0.3878  0.0958
 8336TIP3    H224973   3.653   2.221   3.886 -1.2877  1.6308 -0.3549
 8337TIP3   OH224974   4.767   6.348  -0.003 -0.4094  0.1383 -0.8116
 8337TIP3    H124975   4.733   6.301   0.073  2.7838 -0.0391  0.6759
 8337TIP3    H224976   4.701   6.414  -0.022 -2.5462 -1.5432  0.3952
 8338TIP3   OH224977   2.025   4.039   2.365  0.6140 -0.4789 -0.0774
 8338TIP3    H124978   2.075   4.118   2.381  1.1550 -0.9005  0.3745
 8338TIP3    H224979   1.974   4.026   2.446  1.3354 -1.1636  0.2810
 8339TIP3   OH224980   5.031   4.494   2.923 -0.5038  0.3748  0.3072
 8339TIP3    H124981   4.992   4.577   2.952 -1.2301 -0.4855  1.9638
 8339TIP3    H224982   5.102   4.477   2.985 -0.7536 -0.5187  0.3732
 8340TIP3   OH224983   2.136   5.247   0.333 -0.0859 -0.4829  0.0703
 8340TIP3    H124984   2.073   5.313   0.303  0.5835 -0.1365 -0.6069
 8340TIP3    H224985   2.192   5.294   0.395  0.1249 -0.5258 -0.0865
 8341TIP3   OH224986   0.560   4.437   0.378 -0.5273  0.3203  0.6973
 8341TIP3    H124987   0.617   4.510   0.402 -0.1076  0.6222 -1.0949
 8341TIP3    H224988   0.596   4.404   0.296 -1.3765 -1.2031  0.8893
 8342TIP3   OH224989   4.625   2.768   5.289 -0.1590 -0.3057  0.1610
 8342TIP3    H124990   4.704   2.716   5.300  1.8818  2.4738 -0.3131
 8342TIP3    H224991   4.626   2.795   5.197 -0.6566  1.2048  0.5554
 8343TIP3   OH224992   0.467   3.805   0.451  0.2172 -0.2552  0.4204
 8343TIP3    H124993   0.375   3.790   0.427 -0.0348  1.0206  0.5168
 8343TIP3    H224994   0.492   3.726   0.500 -1.0533 -0.3046  1.0400
 8344TIP3   OH224995   1.605   2.325   0.723  0.5801  0.2018 -0.1086
 8344TIP3    H124996   1.658   2.246   0.724 -0.2467 -0.4270 -1.8383
 8344TIP3    H224997   1.587   2.341   0.631 -2.8811 -0.0881  0.3608
 8345TIP3   OH224998   2.412   0.085   2.160 -0.3440  0.1178 -0.0333
 8345TIP3    H124999   2.445   0.146   2.095  1.3509  0.8579  1.4443
 8345TIP3    H225000   2.385   0.008   2.110 -0.8093  1.3384 -1.7512
 8346TIP3   OH225001   4.603   3.193   3.267 -0.3681 -0.0201  0.5346
 8346TIP3    H125002   4.603   3.185   3.171 -0.0021  4.1643 -0.0467
 8346TIP3    H225003   4.690   3.164   3.294  0.2227  0.5195 -0.7045
 8347TIP3   OH225004   0.297   4.829   2.111 -0.4436  0.1970 -0.1538
 8347TIP3    H125005   0.254   4.783   2.183 -1.7833  0.1907 -0.9252
 8347TIP3    H225006   0.323   4.759   2.050  1.5528  0.1097  0.7150
 8348TIP3   OH225007   4.130   0.453   5.668  0.2226  0.0490  0.7583
 8348TIP3    H125008   4.221   0.452   5.698  1.1563  1.3522 -1.7836
 8348TIP3    H225009   4.117   0.368   5.626  1.6795  1.2709 -2.4557
 8349TIP3   OH225010   1.293   4.217   3.838 -0.2770  0.7213  0.4157
 8349TIP3    H125011   1.305   4.122   3.838 -0.3641  0.7077  0.7378
 8349TIP3    H225012   1.373   4.252   3.800  0.0351  0.5530  0.9151
 8350TIP3   OH225013   7.058   3.915   3.897 -0.7090  0.1029 -0.1113
 8350TIP3    H125014   7.015   3.864   3.828  0.2774 -0.4194 -0.3590
 8350TIP3    H225015   7.137   3.950   3.855 -1.3097  1.7693  0.0845
 8351TIP3   OH225016   1.464   2.371   5.844 -0.1687 -0.5570  0.0652
 8351TIP3    H125017   1.438   2.390   5.934 -2.1460 -1.8761 -0.1627
 8351TIP3    H225018   1.425   2.441   5.792  1.1976  0.3557  0.2129
 8352TIP3   OH225019   0.849   2.383   0.145  0.0322 -0.1978 -0.5599
 8352TIP3    H125020   0.916   2.397   0.212 -0.7340  1.1263 -0.0207
 8352TIP3    H225021   0.899   2.366   0.065  1.0513  1.2058 -0.2762
 8353TIP3   OH225022   2.833   5.339   1.741  0.0058 -0.6899  0.0963
 8353TIP3    H125023   2.751   5.388   1.739  2.3448  3.9523  2.2576
 8353TIP3    H225024   2.890   5.385   1.680  2.2013 -1.1435  1.6916
 8354TIP3   OH225025   2.248   0.197   5.255  0.1640  0.5040 -0.3826
 8354TIP3    H125026   2.163   0.166   5.225  0.9535  1.0956 -3.6281
 8354TIP3    H225027   2.235   0.290   5.274 -0.1297  0.3378  0.2680
 8355TIP3   OH225028   2.750   5.504   5.576  0.0222 -0.3871 -0.3143
 8355TIP3    H125029   2.768   5.583   5.525 -1.0280  0.3942  0.4929
 8355TIP3    H225030   2.696   5.450   5.518  1.7584 -1.1268 -1.3483
 8356TIP3   OH225031   4.353   6.217   5.592  0.1525  0.1688 -0.4118
 8356TIP3    H125032   4.278   6.276   5.586 -0.1435 -0.1303  0.2985
 8356TIP3    H225033   4.347   6.179   5.679  0.9594 -0.0942 -0.4654
 8357TIP3   OH225034   4.778   6.377   1.741  0.1024  0.3269  0.4948
 8357TIP3    H125035   4.687   6.354   1.759 -0.4710  1.9511 -0.0803
 8357TIP3    H225036   4.794   6.456   1.793  1.1295  0.1578  0.4577
 8358TIP3   OH225037   6.870   5.145   3.981 -0.0954 -0.7158 -0.0984
 8358TIP3    H125038   6.947   5.203   3.972 -0.4725 -0.2664 -0.4911
 8358TIP3    H225039   6.890   5.091   4.057  0.0900  0.2241  0.5380
 8359TIP3   OH225040   2.749   4.432   4.725  0.2532 -0.3441  0.0154
 8359TIP3    H125041   2.676   4.492   4.739  0.6744  0.2281 -0.1942
 8359TIP3    H225042   2.724   4.383   4.647  1.4176  2.0248 -2.0149
 8360TIP3   OH225043   7.028   3.297   0.032 -0.0954  0.5306  0.0294
 8360TIP3    H125044   7.034   3.214   0.078  1.6675  0.9847  0.6936
 8360TIP3    H225045   6.939   3.327   0.048 -0.9272 -1.4206 -0.6266
 8361TIP3   OH225046   5.682   5.192   5.159  0.0841 -0.4362  0.3907
 8361TIP3    H125047   5.611   5.255   5.170 -0.2084 -0.7583  0.3237
 8361TIP3    H225048   5.714   5.176   5.248  1.4081  1.2452  0.2671
 8362TIP3   OH225049   6.292   6.560   2.954  0.0718 -0.3493  0.3499
 8362TIP3    H125050   6.228   6.617   2.996 -0.3731 -0.9561  0.5179
 8362TIP3    H225051   6.290   6.586   2.862  0.8554  0.8031  0.6426
 8363TIP3   OH225052   2.619   2.262   3.579 -0.4863 -0.3524 -0.6470
 8363TIP3    H125053   2.657   2.206   3.647 -0.6014  1.7520  1.2655
 8363TIP3    H225054   2.695   2.291   3.527  0.0910  0.7296  0.7404
 8364TIP3   OH225055   3.947   1.462   5.882  0.6260  0.3163 -0.4141
 8364TIP3    H125056   4.019   1.511   5.922 -0.7240  2.3248 -0.2828
 8364TIP3    H225057   3.896   1.528   5.835 -1.6063 -0.8569  0.1926
 8365TIP3   OH225058   2.504   0.689   3.625  0.2640 -0.1571  0.1279
 8365TIP3    H125059   2.570   0.628   3.592  1.3942  0.3651  1.3325
 8365TIP3    H225060   2.456   0.640   3.691  1.6546  0.4171  1.6270
 8366TIP3   OH225061   4.018   2.141   2.630 -0.3966 -0.4673 -0.1157
 8366TIP3    H125062   3.951   2.085   2.670  0.3602 -0.7800  0.7477
 8366TIP3    H225063   4.093   2.083   2.619  0.8082  0.6174  1.8799
 8367TIP3   OH225064   0.682   2.318   3.411  0.0237  0.0401 -0.5628
 8367TIP3    H125065   0.644   2.371   3.341 -0.1308 -1.0628 -1.3361
 8367TIP3    H225066   0.620   2.326   3.484 -1.2605 -0.9820 -1.4930
 8368TIP3   OH225067   1.925   1.388   4.752  0.0511 -0.0840  0.0757
 8368TIP3    H125068   1.853   1.450   4.763  1.2295  1.4291 -0.5048
 8368TIP3    H225069   1.956   1.402   4.663  1.5555 -0.1616  0.5605
 8369TIP3   OH225070   6.010   0.199   4.152  0.7258 -0.7355  0.2687
 8369TIP3    H125071   5.969   0.137   4.211  1.3979 -0.2907  1.2443
 8369TIP3    H225072   6.045   0.146   4.081  0.0011 -1.2985  0.3310
 8370TIP3   OH225073   0.947   3.950   0.228 -0.2541  0.5083 -0.0570
 8370TIP3    H125074   0.881   3.883   0.209  1.4186 -1.5837  1.0852
 8370TIP3    H225075   0.972   3.934   0.319  1.9323  1.1137 -0.4949
 8371TIP3   OH225076   1.022   5.265   0.317 -0.4777  0.5698 -0.2813
 8371TIP3    H125077   1.012   5.325   0.243 -2.2604  1.1656  0.3938
 8371TIP3    H225078   1.107   5.287   0.354  0.0004  0.9549 -1.5330
 8372TIP3   OH225079   5.111   3.101   2.151 -0.3354  0.1255 -0.0267
 8372TIP3    H125080   5.037   3.150   2.114  0.9930  1.5018 -1.0031
 8372TIP3    H225081   5.143   3.157   2.223  0.8233  0.4484 -0.7603
 8373TIP3   OH225082   6.527   5.279   5.366  0.3399  0.1724 -0.4305
 8373TIP3    H125083   6.451   5.308   5.416  1.0515  0.4045  0.5367
 8373TIP3    H225084   6.520   5.184   5.364 -1.0945  0.2406 -2.1781
 8374TIP3   OH225085   5.566   3.105   0.115 -1.0929 -0.1697  0.6018
 8374TIP3    H125086   5.557   3.088   0.209  1.5542  0.9939  1.1391
 8374TIP3    H225087   5.630   3.175   0.108 -0.9208 -0.4624 -2.1114
 8375TIP3   OH225088   2.848   0.642   0.787  0.0545  0.6583 -0.7294
 8375TIP3    H125089   2.898   0.687   0.855 -0.9264  0.8528 -0.1072
 8375TIP3    H225090   2.898   0.657   0.707  0.3729  1.8620 -0.3311
 8376TIP3   OH225091   2.823   6.394   0.442 -0.2567  0.1527 -0.1127
 8376TIP3    H125092   2.780   6.363   0.522 -0.1996  2.6352  0.9649
 8376TIP3    H225093   2.768   6.362   0.371 -1.9175  0.2703  1.0634
 8377TIP3   OH225094   4.706   5.635   2.971  0.5705 -0.2187 -0.3561
 8377TIP3    H125095   4.663   5.611   3.053 -0.0361  1.0390 -0.2726
 8377TIP3    H225096   4.673   5.573   2.907  1.1430 -1.2957  0.3494
 8378TIP3   OH225097   4.650   4.801   1.497  0.1635  0.1844 -0.0290
 8378TIP3    H125098   4.632   4.736   1.430 -1.7453  0.6593 -0.0119
 8378TIP3    H225099   4.731   4.770   1.539  0.2219 -1.2390 -1.1329
 8379TIP3   OH225100   3.672   5.882   3.045 -0.2901  0.2920  0.0915
 8379TIP3    H125101   3.714   5.963   3.018 -2.0913  1.2385 -0.0419
 8379TIP3    H225102   3.705   5.866   3.134  2.1869 -0.3816 -0.8695
 8380TIP3   OH225103   7.133   3.583   1.526  0.2303  0.3042 -0.1364
 8380TIP3    H125104   7.071   3.647   1.562  0.3198  0.2479  0.1141
 8380TIP3    H225105   7.123   3.506   1.582 -1.4048 -0.6849 -1.6565
 8381TIP3   OH225106   7.049   1.380   5.848 -0.2198  0.2633  0.5649
 8381TIP3    H125107   7.107   1.323   5.797 -2.9156 -1.8931 -0.3746
 8381TIP3    H225108   7.044   1.460   5.796 -1.6059 -1.2678 -1.8852
 8382TIP3   OH225109   0.233   2.889   3.656 -0.3397 -0.2827 -0.4057
 8382TIP3    H125110   0.215   2.806   3.610  1.2300 -0.8737 -0.0036
 8382TIP3    H225111   0.319   2.876   3.696 -0.2525  1.4119  0.0083
 8383TIP3   OH225112   4.535   0.827   5.642 -0.0542  0.1450 -0.0284
 8383TIP3    H125113   4.614   0.815   5.696  0.7190  1.1451 -0.8912
 8383TIP3    H225114   4.481   0.887   5.692  0.9242  1.5409 -0.5815
 8384TIP3   OH225115   3.034   5.227   1.929  0.0299  0.6087 -0.1664
 8384TIP3    H125116   2.958   5.241   1.873  0.9042 -0.5994 -1.7636
 8384TIP3    H225117   3.020   5.284   2.004 -0.4794  3.5380 -2.3123
 8385TIP3   OH225118   6.463   3.703   5.669 -0.2060  0.9173 -0.6003
 8385TIP3    H125119   6.414   3.682   5.589  1.2912 -0.0068 -1.3221
 8385TIP3    H225120   6.424   3.785   5.699  0.6286  2.5696 -3.5680
 8386TIP3   OH225121   5.647   1.989   0.775 -0.1552 -0.1925  0.2783
 8386TIP3    H125122   5.660   2.009   0.867  0.5749  1.1441 -0.0891
 8386TIP3    H225123   5.718   1.929   0.753  0.3273  0.3570  0.3261
 8387TIP3   OH225124   0.268   4.825   1.275 -0.1148 -0.3856 -0.1784
 8387TIP3    H125125   0.235   4.770   1.346  1.7239 -2.6325 -0.9360
 8387TIP3    H225126   0.252   4.774   1.196  0.6508  0.6910 -1.0528
 8388TIP3   OH225127   0.731   1.772   3.530  0.2159  0.4447  0.0044
 8388TIP3    H125128   0.742   1.861   3.563  0.1348  0.7317 -0.7382
 8388TIP3    H225129   0.784   1.718   3.589  0.8283  1.0680  0.0344
 8389TIP3   OH225130   4.516   0.909   2.516 -0.7064 -0.0165 -0.5458
 8389TIP3    H125131   4.555   0.825   2.543 -0.8110 -0.5181 -1.8920
 8389TIP3    H225132   4.424   0.902   2.541 -0.4780  0.1788  0.3981
 8390TIP3   OH225133   7.105   4.722   2.261 -0.1391 -0.7962  0.5289
 8390TIP3    H125134   7.026   4.691   2.307 -1.2176 -3.3692 -2.6960
 8390TIP3    H225135   7.072   4.784   2.196  0.6438 -0.9562 -0.0362
 8391TIP3   OH225136   2.276   5.282   2.052  0.4357  0.3896 -0.3574
 8391TIP3    H125137   2.332   5.216   2.010 -0.1115  0.1080 -0.6590
 8391TIP3    H225138   2.232   5.235   2.123 -2.0263 -0.3497 -2.2258
 8392TIP3   OH225139   0.710   4.516   5.098  0.9818 -0.4059  0.4219
 8392TIP3    H125140   0.637   4.577   5.084  1.9500  1.2835  2.1219
 8392TIP3    H225141   0.784   4.558   5.054  1.2693 -1.3414 -0.0002
 8393TIP3   OH225142   6.902   3.591   5.739  0.1459  0.4259  0.3392
 8393TIP3    H125143   6.821   3.554   5.706  0.0118  0.2523  0.8466
 8393TIP3    H225144   6.921   3.541   5.818  0.7409  0.4724  0.2337
 8394TIP3   OH225145   5.338   3.632   5.746  0.3724  0.1258  0.2718
 8394TIP3    H125146   5.301   3.592   5.825  0.6641 -1.1722 -0.2146
 8394TIP3    H225147   5.264   3.673   5.702 -0.0714 -0.4345  0.4861
 8395TIP3   OH225148   3.717   1.449   1.333 -0.6241 -0.4750 -0.1375
 8395TIP3    H125149   3.647   1.389   1.360 -0.7168 -0.0408  0.6110
 8395TIP3    H225150   3.671   1.528   1.305 -0.4790 -0.5905 -0.7220
 8396TIP3   OH225151   5.685   2.760   1.742 -0.0706  0.2234 -0.3711
 8396TIP3    H125152   5.693   2.708   1.822 -0.5625 -0.5942 -0.8451
 8396TIP3    H225153   5.647   2.843   1.772  0.1508  0.0870  0.3048
 8397TIP3   OH225154   2.400   0.364   0.673  0.7049  0.6449 -0.1305
 8397TIP3    H125155   2.481   0.408   0.700 -0.2179  2.0558  0.4850
 8397TIP3    H225156   2.338   0.385   0.743  0.1047 -1.4004  0.0161
 8398TIP3   OH225157   3.647   4.035   5.257 -0.7251 -0.2420  0.5940
 8398TIP3    H125158   3.610   4.103   5.201  1.4628 -0.0662 -0.7697
 8398TIP3    H225159   3.665   3.963   5.198  1.1632 -0.2584  1.1178
 8399TIP3   OH225160   2.254   4.681   0.378 -0.4143 -0.1858 -0.1204
 8399TIP3    H125161   2.304   4.748   0.332  1.5534 -0.3114  1.6956
 8399TIP3    H225162   2.248   4.608   0.316  1.9965 -0.2956 -0.3007
 8400TIP3   OH225163   0.075   5.358   4.920  0.1937  0.6595  0.0481
 8400TIP3    H125164   0.132   5.366   4.997  1.1073 -1.1314 -0.3844
 8400TIP3    H225165  -0.014   5.359   4.955  0.6064 -2.0325  1.4103
 8401TIP3   OH225166   1.217   1.806   1.005  0.2451 -0.4008  0.2733
 8401TIP3    H125167   1.257   1.729   1.046 -0.8702 -1.1369  0.0331
 8401TIP3    H225168   1.213   1.871   1.075  0.5328 -0.8204  0.6872
 8402TIP3   OH225169   5.343   0.769   3.489  0.3432 -0.3392  0.0055
 8402TIP3    H125170   5.386   0.692   3.451  1.6885  1.7321 -3.0027
 8402TIP3    H225171   5.262   0.778   3.440  1.0943  1.1731 -1.0208
 8403TIP3   OH225172   4.002   2.570   5.346  0.6594 -0.5854 -0.5425
 8403TIP3    H125173   4.032   2.487   5.383 -1.2050 -0.0966  2.4354
 8403TIP3    H225174   4.072   2.632   5.369  0.8304 -0.8427 -0.3579
 8404TIP3   OH225175   1.679   1.310   2.207  0.2716  0.2489  0.0639
 8404TIP3    H125176   1.628   1.235   2.178  1.2719 -0.2532 -0.4676
 8404TIP3    H225177   1.633   1.344   2.284 -1.6283  0.6913 -1.2183
 8405TIP3   OH225178   0.861   0.051   3.080  0.2370  0.8132  0.2951
 8405TIP3    H125179   0.818  -0.028   3.112 -2.1026  1.7455 -0.3182
 8405TIP3    H225180   0.955   0.032   3.087 -0.2367 -1.9319  0.2620
 8406TIP3   OH225181   5.782   1.558   4.968 -0.0734 -0.4443 -0.3402
 8406TIP3    H125182   5.840   1.605   5.027 -0.0402 -0.8666 -0.0325
 8406TIP3    H225183   5.777   1.613   4.890  1.1456 -0.6377 -0.5736
 8407TIP3   OH225184   1.538   4.129   1.965 -0.1693  0.4223 -0.1074
 8407TIP3    H125185   1.500   4.059   1.911  0.5873  1.0617 -1.5040
 8407TIP3    H225186   1.510   4.210   1.923 -1.2206  1.0114  1.6219
 8408TIP3   OH225187   4.070   0.415   2.886 -0.0171 -0.5172  0.8222
 8408TIP3    H125188   3.994   0.378   2.841  0.1441  0.3922 -0.2505
 8408TIP3    H225189   4.142   0.404   2.824 -0.3571  3.3842 -0.5629
 8409TIP3   OH225190   3.185   4.869   2.941  0.3342 -0.0037  0.0754
 8409TIP3    H125191   3.197   4.799   2.877  1.1132 -2.2589  2.4989
 8409TIP3    H225192   3.270   4.877   2.984  0.1435  2.1958  0.1932
 8410TIP3   OH225193   4.767   3.252   4.195 -0.1008 -0.0427 -0.2673
 8410TIP3    H125194   4.790   3.233   4.286 -3.3735  0.5204  0.7965
 8410TIP3    H225195   4.803   3.340   4.179 -0.0477  0.1126  0.6822
 8411TIP3   OH225196   4.340   5.947   5.818  0.2428 -0.2702  0.3897
 8411TIP3    H125197   4.292   6.005   5.877  0.8098  0.4960  0.1165
 8411TIP3    H225198   4.383   5.884   5.876 -1.3279 -1.1765  0.6178
 8412TIP3   OH225199   3.629   4.810   5.198 -0.8541 -0.0412  0.3626
 8412TIP3    H125200   3.541   4.806   5.233 -1.3070 -0.7861 -0.7971
 8412TIP3    H225201   3.617   4.804   5.103  0.4067  0.3882  0.1600
 8413TIP3   OH225202   5.299   1.930   2.310  0.1160 -0.1472 -0.8219
 8413TIP3    H125203   5.241   1.869   2.266  0.3653 -1.1753  0.2362
 8413TIP3    H225204   5.348   1.877   2.373  0.3355  1.1284  0.1337
 8414TIP3   OH225205   7.091   4.667   4.232  0.0392  0.0035  0.4957
 8414TIP3    H125206   7.133   4.587   4.201  0.4189  0.3139  0.1896
 8414TIP3    H225207   7.116   4.733   4.167  1.4192  0.8396  1.8092
 8415TIP3   OH225208   4.600   3.300   0.199  0.2481  0.0925  0.4863
 8415TIP3    H125209   4.595   3.392   0.173  0.0387  0.2024  0.8999
 8415TIP3    H225210   4.515   3.264   0.176  0.5755 -0.1736 -0.3165
 8416TIP3   OH225211   1.289   4.259   4.093  0.2392 -0.6220 -0.0738
 8416TIP3    H125212   1.270   4.259   3.999  0.7944  0.5933 -0.2019
 8416TIP3    H225213   1.378   4.224   4.100 -0.0737 -1.4115  0.0765
 8417TIP3   OH225214   5.507   4.683   4.923 -0.0090 -0.1702 -0.3089
 8417TIP3    H125215   5.569   4.688   4.851 -1.0394  0.3422 -1.1869
 8417TIP3    H225216   5.503   4.772   4.957  1.1297 -0.5761  0.9848
 8418TIP3   OH225217   3.011   5.493   5.009  0.3155 -0.0427  0.2323
 8418TIP3    H125218   3.002   5.408   4.967 -0.9785 -0.3846  1.1366
 8418TIP3    H225219   3.034   5.473   5.100 -1.8568  0.4244  0.9650
 8419TIP3   OH225220   3.671   1.045   1.046  0.0137  0.6254 -0.0974
 8419TIP3    H125221   3.580   1.040   1.076  0.2809 -0.4306  0.5833
 8419TIP3    H225222   3.694   0.955   1.023  1.2513  0.6531  0.9015
 8420TIP3   OH225223   3.484   3.053   3.741  0.0653 -0.4912  0.2620
 8420TIP3    H125224   3.476   3.029   3.648 -0.9361 -0.7151  0.3933
 8420TIP3    H225225   3.459   2.974   3.788  1.8423 -0.8035  0.7606
 8421TIP3   OH225226   6.052   0.475   4.458 -0.0586 -0.1002 -0.0917
 8421TIP3    H125227   5.984   0.471   4.392 -2.3609 -2.2182  2.1790
 8421TIP3    H225228   6.101   0.394   4.448  0.1377 -0.0257  0.2361
 8422TIP3   OH225229   6.096   1.698   0.732  0.3096 -1.0352  0.5641
 8422TIP3    H125230   6.167   1.679   0.670 -0.5309 -0.7129 -0.5183
 8422TIP3    H225231   6.030   1.631   0.714 -0.0867 -0.7316  0.8936
 8423TIP3   OH225232   3.012   0.660   2.353  0.4204 -0.0079  0.3651
 8423TIP3    H125233   3.100   0.693   2.369 -0.5710  2.3918  1.3678
 8423TIP3    H225234   2.958   0.699   2.422 -1.7842  0.2617 -1.3788
 8424TIP3   OH225235   1.083   1.168   5.041  1.0991  0.1756  0.4038
 8424TIP3    H125236   0.990   1.160   5.063  0.7468 -0.8366 -1.2874
 8424TIP3    H225237   1.123   1.090   5.080  1.2911  0.6746  1.2401
 8425TIP3   OH225238   6.203   4.844   2.001  0.2856 -0.3922 -0.2025
 8425TIP3    H125239   6.119   4.862   2.043  0.5242  1.3193 -0.3912
 8425TIP3    H225240   6.249   4.787   2.062 -0.3126  0.1001  0.7310
 8426TIP3   OH225241   3.065   4.918   4.356  0.7422 -0.0178  0.4659
 8426TIP3    H125242   3.087   5.009   4.375 -1.2692  0.4608  0.7359
 8426TIP3    H225243   3.076   4.910   4.262  0.7443  0.5565  0.4133
 8427TIP3   OH225244   5.940   1.214   1.232 -0.3663 -0.2790 -0.0079
 8427TIP3    H125245   6.028   1.217   1.194 -0.3850 -0.0069 -0.0332
 8427TIP3    H225246   5.935   1.292   1.287 -1.2737  0.7742 -1.5311
 8428TIP3   OH225247   0.073   0.078   4.807 -0.2479  0.3451  0.3905
 8428TIP3    H125248   0.038  -0.001   4.764 -1.2654  2.6370 -3.5010
 8428TIP3    H225249  -0.005   0.126   4.835  0.0007  2.1464 -1.7775
 8429TIP3   OH225250   1.531   3.187   0.848 -0.3564 -0.1887  0.0199
 8429TIP3    H125251   1.591   3.221   0.915  0.6627  1.1704 -1.4884
 8429TIP3    H225252   1.444   3.200   0.886  0.2251 -1.4423  1.9336
 8430TIP3   OH225253   1.671   2.874   2.104 -0.3039 -0.0609  0.0466
 8430TIP3    H125254   1.702   2.953   2.058 -1.8034 -0.0940 -1.0846
 8430TIP3    H225255   1.710   2.801   2.055 -0.3179 -0.0579  0.0309
 8431TIP3   OH225256   0.575   4.313   5.295 -0.3804  0.0768  0.7594
 8431TIP3    H125257   0.668   4.296   5.279 -0.8220 -2.0288  0.0744
 8431TIP3    H225258   0.537   4.324   5.208 -0.9106  0.1034  0.9865
 8432TIP3   OH225259   1.511   2.927   3.279 -0.5289  0.3698 -0.6100
 8432TIP3    H125260   1.442   2.867   3.253 -1.2464  1.6448 -1.8424
 8432TIP3    H225261   1.476   3.014   3.258  0.5707  1.2122  0.8253
 8433TIP3   OH225262   1.996   4.501   3.510  0.0208  0.0897 -0.1187
 8433TIP3    H125263   2.034   4.424   3.468  2.4795  0.2306  1.6724
 8433TIP3    H225264   1.906   4.474   3.531  0.2581 -1.6411 -1.1163
 8434TIP3   OH225265   3.566   4.690   1.036 -0.3565  0.0702 -0.4394
 8434TIP3    H125266   3.647   4.649   1.067  0.5350  3.0258  1.5476
 8434TIP3    H225267   3.596   4.762   0.981 -1.8107 -0.6423 -2.2751
 8435TIP3   OH225268   6.076   0.831   5.803  0.1621 -0.0235  0.5236
 8435TIP3    H125269   6.034   0.763   5.856  0.2169 -1.3320 -1.0188
 8435TIP3    H225270   6.050   0.811   5.713 -0.2400  2.3442  0.0448
 8436TIP3   OH225271   0.984   5.442   4.529 -0.1877  0.4146 -0.5269
 8436TIP3    H125272   1.049   5.511   4.515  1.7204 -1.1918  0.0405
 8436TIP3    H225273   0.969   5.405   4.442  1.3790 -0.6588 -0.3689
 8437TIP3   OH225274   3.409   4.384   4.618  0.3119  0.2938 -0.0137
 8437TIP3    H125275   3.460   4.446   4.669  1.5607  0.0010 -0.8467
 8437TIP3    H225276   3.448   4.299   4.638 -0.4628 -0.0529  0.0389
 8438TIP3   OH225277   5.489   0.695   0.592 -0.4272  0.0199 -0.0959
 8438TIP3    H125278   5.537   0.700   0.675  0.5219 -1.7301 -0.4770
 8438TIP3    H225279   5.549   0.732   0.528 -0.5660  0.0425 -0.2116
 8439TIP3   OH225280   6.217   4.012   5.505 -0.2535 -0.3902  0.1109
 8439TIP3    H125281   6.164   3.948   5.554 -0.1648  1.0565  2.2469
 8439TIP3    H225282   6.155   4.058   5.450 -0.4796 -1.6011 -0.6785
 8440TIP3   OH225283   5.350   0.259   0.271 -0.6738  0.4448 -0.4775
 8440TIP3    H125284   5.414   0.192   0.246 -0.5925 -0.4166  1.7497
 8440TIP3    H225285   5.399   0.341   0.268 -1.1196  0.7667 -4.5780
 8441TIP3   OH225286   6.764   0.582   3.353 -0.1365  0.2485  0.2847
 8441TIP3    H125287   6.771   0.501   3.403  0.8202 -0.2494 -0.6193
 8441TIP3    H225288   6.766   0.651   3.419 -0.4304 -0.4366  1.0267
 8442TIP3   OH225289   4.083   2.145   2.291  0.4030  0.0499 -0.6127
 8442TIP3    H125290   4.003   2.093   2.302  0.3436  0.4395  1.0965
 8442TIP3    H225291   4.052   2.232   2.266  0.1503  0.5760  1.3601
 8443TIP3   OH225292   0.613   1.751   5.345  0.3170 -0.3540  0.0092
 8443TIP3    H125293   0.693   1.774   5.297  0.9065  1.1828  1.5946
 8443TIP3    H225294   0.545   1.805   5.305  0.1061 -1.4141 -1.1206
 8444TIP3   OH225295   7.141   2.604   0.650  0.3966  0.2629  0.1171
 8444TIP3    H125296   7.090   2.661   0.708  0.5247 -1.7837  2.4080
 8444TIP3    H225297   7.174   2.662   0.582 -0.5289  2.6551  1.5786
 8445TIP3   OH225298   3.193   1.597   4.853  0.0206 -0.1974  0.8303
 8445TIP3    H125299   3.217   1.504   4.859 -0.0072 -0.1613  1.6943
 8445TIP3    H225300   3.158   1.617   4.940  0.8618  0.8591  0.9377
 8446TIP3   OH225301   0.534   1.206   0.041  0.2964  0.3255  0.6420
 8446TIP3    H125302   0.504   1.292   0.012 -1.4301 -0.3191  0.4064
 8446TIP3    H225303   0.539   1.154  -0.039 -2.9370 -1.0010  1.1533
 8447TIP3   OH225304   2.638   5.965   0.830 -0.0060 -0.3677  0.5149
 8447TIP3    H125305   2.703   5.896   0.820  1.5504  1.1927 -0.6991
 8447TIP3    H225306   2.659   6.006   0.914  0.7096  0.2347  0.0515
 8448TIP3   OH225307   5.353   5.745   0.384 -0.3200  0.0802  0.0812
 8448TIP3    H125308   5.421   5.775   0.323 -0.4249 -0.7840 -0.4810
 8448TIP3    H225309   5.287   5.814   0.383  0.1799  0.5591  0.0254
 8449TIP3   OH225310   0.440   1.674   4.192  0.2934 -0.5019  0.0372
 8449TIP3    H125311   0.493   1.717   4.126 -0.2752  0.2803  0.0760
 8449TIP3    H225312   0.351   1.676   4.157  0.0273 -0.2985  0.7057
 8450TIP3   OH225313   1.436   4.727   1.387  0.4799 -0.2143 -0.3415
 8450TIP3    H125314   1.489   4.804   1.369  1.6461 -0.8348  0.2898
 8450TIP3    H225315   1.379   4.753   1.459  0.5280  0.1999 -0.4503
 8451TIP3   OH225316   4.933   3.378   3.989 -0.6357  0.1543  0.2155
 8451TIP3    H125317   4.878   3.442   4.034 -1.2296  1.2424 -1.9022
 8451TIP3    H225318   5.022   3.399   4.017 -1.0404  0.1420  1.5925
 8452TIP3   OH225319   7.038   6.495   0.466 -0.1855 -0.3378 -0.2628
 8452TIP3    H125320   6.945   6.500   0.444 -0.9992  2.3499  2.7859
 8452TIP3    H225321   7.039   6.468   0.558  1.9333  0.6539  0.0734
 8453TIP3   OH225322   1.555   4.044   4.645 -0.0696 -0.0151  0.8143
 8453TIP3    H125323   1.608   3.969   4.672 -0.6543 -0.5124  0.6086
 8453TIP3    H225324   1.472   4.032   4.691 -0.6733 -0.2601 -0.2875
 8454TIP3   OH225325   0.633   3.168   4.750  0.1310 -0.6372  0.1442
 8454TIP3    H125326   0.624   3.083   4.792  1.8758 -0.6698  0.5290
 8454TIP3    H225327   0.543   3.192   4.725 -0.3429 -2.8201 -0.5008
 8455TIP3   OH225328   3.712   4.679   3.965  0.1016 -0.6014 -0.8742
 8455TIP3    H125329   3.805   4.687   3.944  1.1493 -0.5652  3.0695
 8455TIP3    H225330   3.681   4.769   3.971  0.2170 -0.5722 -0.7063
 8456TIP3   OH225331   5.129   5.542   2.288  0.1378 -0.3704  0.6373
 8456TIP3    H125332   5.148   5.620   2.236  1.1104 -0.8561  0.2260
 8456TIP3    H225333   5.101   5.477   2.224  0.8634 -0.8220  0.7572
 8457TIP3   OH225334   4.728   6.782   1.323  0.6567  0.1942  0.1106
 8457TIP3    H125335   4.770   6.761   1.407  0.1080 -0.7327  0.1641
 8457TIP3    H225336   4.665   6.711   1.309  1.1018  0.0708 -1.3480
 8458TIP3   OH225337   4.438   1.055   3.760  0.2917  0.2314  0.3552
 8458TIP3    H125338   4.345   1.034   3.756  0.0554  1.4306 -1.6735
 8458TIP3    H225339   4.456   1.068   3.854 -1.9561  1.5478  0.6731
 8459TIP3   OH225340   1.974   4.359   3.794 -0.4689  0.1684 -0.0116
 8459TIP3    H125341   2.058   4.316   3.778 -1.8516 -2.4308 -0.8205
 8459TIP3    H225342   1.911   4.310   3.742 -2.8021  0.8690  1.9634
 8460TIP3   OH225343   0.790   5.920   2.023 -0.1952  0.0161 -0.4994
 8460TIP3    H125344   0.873   5.884   1.995 -0.3314 -1.2509  0.6377
 8460TIP3    H225345   0.813   6.000   2.071  0.6729 -1.6830  2.1441
 8461TIP3   OH225346   5.927   1.808   3.092 -0.0681 -0.0163  0.7335
 8461TIP3    H125347   5.955   1.722   3.124 -0.2820 -0.3955 -0.0928
 8461TIP3    H225348   5.879   1.790   3.011 -0.6761  0.8254  0.8865
 8462TIP3   OH225349   4.375   5.785   3.787 -0.3772  0.0921  0.6090
 8462TIP3    H125350   4.301   5.741   3.828 -0.7429 -0.2389 -0.3715
 8462TIP3    H225351   4.335   5.842   3.721  0.1315  1.3511  1.3440
 8463TIP3   OH225352   2.310   5.265   5.397  0.3133  0.4038 -0.2398
 8463TIP3    H125353   2.326   5.343   5.450 -0.5485 -0.0634  0.7369
 8463TIP3    H225354   2.249   5.295   5.329  0.0148  0.6017  0.1106
 8464TIP3   OH225355   3.188   0.283   0.530  0.4242 -0.1815 -0.3827
 8464TIP3    H125356   3.099   0.268   0.497 -0.0787  1.0172  0.3812
 8464TIP3    H225357   3.244   0.268   0.453 -0.4354 -0.8337 -0.9041
 8465TIP3   OH225358   4.113   3.764   2.370  0.3339 -0.0857 -0.0381
 8465TIP3    H125359   4.061   3.711   2.430  1.8541 -0.2455  1.1787
 8465TIP3    H225360   4.163   3.823   2.426  1.7320 -0.1682 -1.1401
 8466TIP3   OH225361   4.686   4.926   3.903 -0.0664 -0.1241  0.0184
 8466TIP3    H125362   4.745   4.869   3.953 -0.6753  0.2275  1.1858
 8466TIP3    H225363   4.650   4.985   3.969  0.4739  1.5669 -1.1251
 8467TIP3   OH225364   1.945   0.746   4.576 -0.5318  0.6424 -0.0146
 8467TIP3    H125365   1.929   0.654   4.594 -0.1676  0.3344 -1.1838
 8467TIP3    H225366   1.976   0.748   4.485 -0.3442  1.8907  0.0566
 8468TIP3   OH225367   5.349   5.253   2.931  0.3193 -0.3635 -0.3531
 8468TIP3    H125368   5.384   5.342   2.921 -1.7769  0.4936 -0.6366
 8468TIP3    H225369   5.411   5.209   2.989  2.0036  0.9172 -1.0996
 8469TIP3   OH225370   2.157   4.517   0.157  0.2860  0.6314  0.3236
 8469TIP3    H125371   2.240   4.532   0.111  0.3551  1.4034  0.6738
 8469TIP3    H225372   2.090   4.552   0.099  0.1529 -0.3713 -0.1460
 8470TIP3   OH225373   1.703   4.909   4.425  0.1482  0.3028  0.1798
 8470TIP3    H125374   1.796   4.899   4.445  0.1403  3.1967  2.1577
 8470TIP3    H225375   1.661   4.917   4.510 -1.6746  0.8767 -0.7339
 8471TIP3   OH225376   4.765   4.179   4.026 -0.4194 -0.4407 -0.2800
 8471TIP3    H125377   4.673   4.186   4.000 -0.5652  2.0983  0.5858
 8471TIP3    H225378   4.814   4.211   3.951 -0.2584 -1.2840 -0.5428
 8472TIP3   OH225379   5.041   2.881   0.541 -0.2155 -0.1164 -0.4309
 8472TIP3    H125380   5.030   2.976   0.536 -0.2282 -0.1513 -1.3075
 8472TIP3    H225381   5.023   2.860   0.632 -0.1333  0.7329 -0.2030
 8473TIP3   OH225382   2.834   2.733   2.555  0.4287 -0.3760  0.2232
 8473TIP3    H125383   2.847   2.704   2.464 -1.3486 -0.0984 -0.1630
 8473TIP3    H225384   2.764   2.676   2.588 -0.7072  1.1524  0.5702
 8474TIP3   OH225385   5.012   0.423   5.869  0.7052 -0.2671  0.0024
 8474TIP3    H125386   4.961   0.483   5.814 -0.0278 -1.2376 -0.4221
 8474TIP3    H225387   4.946   0.376   5.920  1.2873 -0.4434  0.6063
 8475TIP3   OH225388   5.079   3.432   1.994  0.7196 -0.1430  0.6203
 8475TIP3    H125389   5.009   3.496   1.983  1.4681  0.4545 -1.1065
 8475TIP3    H225390   5.067   3.372   1.920  2.1516  0.1175  0.1515
 8476TIP3   OH225391   4.904   6.254   4.528  0.1301 -0.4019 -0.1530
 8476TIP3    H125392   4.926   6.216   4.442  1.5273 -0.8287  0.3647
 8476TIP3    H225393   4.810   6.274   4.522  0.0726 -0.9661 -1.5738
 8477TIP3   OH225394   5.137   4.432   1.314 -0.6941  0.3476  0.4010
 8477TIP3    H125395   5.049   4.454   1.346  0.1124  0.0287  3.1653
 8477TIP3    H225396   5.176   4.382   1.386  0.4507 -2.9583 -2.2548
 8478TIP3   OH225397   1.909   0.824   4.137 -0.3215  0.4246  0.0239
 8478TIP3    H125398   1.863   0.905   4.156  1.3898  1.8520 -1.5189
 8478TIP3    H225399   1.983   0.823   4.199 -1.1189 -0.7366  1.0112
 8479TIP3   OH225400   1.176   4.161   0.506  0.0080 -0.1069  0.2300
 8479TIP3    H125401   1.127   4.224   0.453  1.1579  1.4132  0.9348
 8479TIP3    H225402   1.191   4.087   0.447 -2.6835 -0.4520 -0.1588
 8480TIP3   OH225403   5.532   1.372   1.825 -0.0316 -0.2259 -0.5838
 8480TIP3    H125404   5.595   1.366   1.754 -0.8181 -2.1568 -1.2095
 8480TIP3    H225405   5.451   1.403   1.784  0.2989  1.6585  0.0969
 8481TIP3   OH225406   1.843   1.925   3.984  0.1432  0.3758 -0.5725
 8481TIP3    H125407   1.870   2.010   4.018  1.4149 -0.3736  0.3769
 8481TIP3    H225408   1.918   1.867   4.002 -1.7029 -1.6114  1.4237
 8482TIP3   OH225409   0.264   3.558   5.587 -0.3303  0.2203  0.2910
 8482TIP3    H125410   0.260   3.652   5.604 -1.0342 -0.0668  1.8394
 8482TIP3    H225411   0.327   3.524   5.650 -1.4896 -0.5876  1.0561
 8483TIP3   OH225412   1.109   0.168   0.798 -0.1060 -0.0389 -0.2878
 8483TIP3    H125413   1.053   0.245   0.798  0.1275  0.1377 -1.1534
 8483TIP3    H225414   1.065   0.105   0.741  1.0889  0.5040 -1.8788
 8484TIP3   OH225415   2.534   3.724   1.221  0.2560 -0.2454 -0.1906
 8484TIP3    H125416   2.573   3.700   1.306  0.0245 -1.0256 -0.2948
 8484TIP3    H225417   2.578   3.805   1.196  0.3123  0.0053  0.6882
 8485TIP3   OH225418   4.337   2.832   0.826  0.0403 -0.2993  0.1541
 8485TIP3    H125419   4.421   2.859   0.789 -0.5607 -0.7879 -1.6760
 8485TIP3    H225420   4.324   2.888   0.902  2.3216 -0.6594  0.8716
 8486TIP3   OH225421   0.929   0.313   4.840  0.3467 -0.2555 -0.4635
 8486TIP3    H125422   0.865   0.295   4.771  0.2336  0.5789 -0.5923
 8486TIP3    H225423   0.888   0.383   4.892 -0.0082 -1.5411  1.0497
 8487TIP3   OH225424   2.950   2.472   1.284 -0.1810 -0.4166  0.1012
 8487TIP3    H125425   2.995   2.536   1.230 -1.2380 -0.4084 -0.8017
 8487TIP3    H225426   3.011   2.454   1.356  0.2814  1.3176  0.1832
 8488TIP3   OH225427   3.973   1.267   5.675  0.3128  0.0320 -0.2493
 8488TIP3    H125428   3.918   1.189   5.673 -0.6555  0.6577  0.7684
 8488TIP3    H225429   3.959   1.304   5.762  0.5914  1.4628 -0.7842
 8489TIP3   OH225430   3.200   3.083   4.053  0.0347 -0.3496 -0.0959
 8489TIP3    H125431   3.128   3.113   4.109  0.0525  0.7308 -0.6247
 8489TIP3    H225432   3.268   3.056   4.115 -0.8972 -1.6139  0.4083
 8490TIP3   OH225433   5.476   2.567   4.985  0.2547 -0.2597 -0.2062
 8490TIP3    H125434   5.446   2.584   5.074  0.9928 -1.1873  0.2370
 8490TIP3    H225435   5.556   2.516   4.996  1.2137  0.8995 -1.3684
 8491TIP3   OH225436   4.146   5.463   0.188 -0.5829 -0.4959  0.0582
 8491TIP3    H125437   4.106   5.459   0.276  0.7369  0.4791  0.7372
 8491TIP3    H225438   4.237   5.437   0.202  0.1310  1.4537 -0.6628
 8492TIP3   OH225439   6.539   4.038   1.667 -0.2779  0.2630 -0.0517
 8492TIP3    H125440   6.515   3.945   1.664  1.2034 -0.1362 -0.8269
 8492TIP3    H225441   6.493   4.072   1.743 -1.9133 -0.7786 -0.5089
 8493TIP3   OH225442   5.408   4.049   3.803  0.0042  0.1174  0.2322
 8493TIP3    H125443   5.497   4.037   3.835  0.7162  0.2207 -1.5837
 8493TIP3    H225444   5.381   4.134   3.838  1.3998  1.0343 -0.8302
 8494TIP3   OH225445   7.191   5.399   1.457 -0.2794  0.5835 -0.0597
 8494TIP3    H125446   7.166   5.309   1.476 -0.8708  0.5982 -0.7155
 8494TIP3    H225447   7.124   5.452   1.501  1.1282  0.8019  1.9650
 8495TIP3   OH225448   4.318   3.205   1.262  0.6460  0.3178  0.6033
 8495TIP3    H125449   4.395   3.259   1.244 -0.1466  1.2987  0.0768
 8495TIP3    H225450   4.334   3.169   1.349  1.6279  0.6399  0.5609
 8496TIP3   OH225451   0.700   2.895   3.865 -0.2638 -0.1819 -0.7334
 8496TIP3    H125452   0.619   2.862   3.828  0.7261 -1.9875 -1.3984
 8496TIP3    H225453   0.762   2.895   3.791  0.6702 -0.0192  0.0312
 8497TIP3   OH225454   2.350   2.073   2.955  0.2509 -0.2324  0.2718
 8497TIP3    H125455   2.341   2.162   2.921 -1.7542  0.1988  1.7571
 8497TIP3    H225456   2.428   2.075   3.010  1.6049 -0.0757 -1.5640
 8498TIP3   OH225457   3.628   4.701   5.775 -0.5489 -0.5485 -0.4822
 8498TIP3    H125458   3.606   4.683   5.684  1.2030  1.7954 -1.4472
 8498TIP3    H225459   3.723   4.691   5.781 -0.6500 -0.9532  1.1868
 8499TIP3   OH225460   2.640   0.450   2.477 -0.0874  0.0591 -0.1633
 8499TIP3    H125461   2.604   0.536   2.501  2.4769  1.6230 -1.4507
 8499TIP3    H225462   2.593   0.425   2.398 -0.2205  0.7509 -0.3097
 8500TIP3   OH225463   5.347   4.674   0.265  0.1342 -0.1619 -0.3561
 8500TIP3    H125464   5.374   4.606   0.204  0.2052  0.1666 -0.6974
 8500TIP3    H225465   5.265   4.708   0.228 -0.9968 -1.4415  0.8987
 8501TIP3   OH225466   6.118   6.402   5.458 -0.3066 -0.4023  0.2994
 8501TIP3    H125467   6.194   6.361   5.498 -0.3589  1.0570  2.0265
 8501TIP3    H225468   6.059   6.330   5.437  0.9519 -1.4287  0.2248
 8502TIP3   OH225469   1.468   6.732   1.138  0.2164  0.2275  0.1438
 8502TIP3    H125470   1.480   6.656   1.195  1.4742  0.1177 -0.2469
 8502TIP3    H225471   1.373   6.736   1.123  0.0884 -0.9612  0.5709
 8503TIP3   OH225472   4.582   0.594   5.536  0.0079  0.0097 -0.2872
 8503TIP3    H125473   4.526   0.531   5.581  1.7550  0.5943  2.9588
 8503TIP3    H225474   4.553   0.680   5.568  1.9590  0.3869  0.6343
 8504TIP3   OH225475   4.741   1.042   3.695  0.4827  0.3422 -0.0756
 8504TIP3    H125476   4.777   0.966   3.741  0.4963  0.5827  0.3112
 8504TIP3    H225477   4.647   1.039   3.714  0.6247  0.9905  0.7764
 8505TIP3   OH225478   3.699  -0.011   3.241 -0.1441 -0.5935 -0.2561
 8505TIP3    H125479   3.703   0.077   3.278 -1.4610 -0.0606 -1.2783
 8505TIP3    H225480   3.757  -0.008   3.165  1.0531 -1.1138  0.6025
 8506TIP3   OH225481   7.041   1.331   1.721 -0.5725  0.0240  0.3010
 8506TIP3    H125482   7.033   1.239   1.695 -0.5437  0.1454 -0.1536
 8506TIP3    H225483   6.955   1.354   1.757 -1.0774  0.2377 -0.9838
 8507TIP3   OH225484   6.816   5.043   5.774  0.2267  0.2161 -0.1194
 8507TIP3    H125485   6.825   5.129   5.731  0.4266  0.9209  1.2690
 8507TIP3    H225486   6.794   4.983   5.703 -0.1810  1.4649 -1.0889
 8508TIP3   OH225487   0.522   5.925   2.044 -0.3924 -0.4966  0.2132
 8508TIP3    H125488   0.618   5.916   2.043 -0.4358 -1.3708  1.6372
 8508TIP3    H225489   0.496   5.908   1.953  0.8651  0.8353 -0.4472
 8509TIP3   OH225490   5.694   3.597   0.628  0.3421 -0.2743 -0.0005
 8509TIP3    H125491   5.647   3.655   0.568 -0.0876 -0.3292  0.2823
 8509TIP3    H225492   5.678   3.509   0.593  2.6462 -0.1473 -1.6238
 8510TIP3   OH225493   4.335   6.566   0.025 -0.2417 -0.3523 -0.6589
 8510TIP3    H125494   4.294   6.651   0.040 -1.4443 -0.6347 -2.1379
 8510TIP3    H225495   4.267   6.512  -0.016  1.3568 -1.0542 -2.5869
 8511TIP3   OH225496   5.769   2.609   1.955 -0.1042 -0.9230  0.1103
 8511TIP3    H125497   5.802   2.560   1.880 -1.0020 -0.4833 -0.6006
 8511TIP3    H225498   5.802   2.562   2.032  0.8704 -1.3492 -0.5618
 8512TIP3   OH225499   7.161   0.739   4.752  0.4687 -0.0754 -0.3665
 8512TIP3    H125500   7.076   0.732   4.795  0.1898  2.1755 -0.4336
 8512TIP3    H225501   7.153   0.814   4.694  2.7317  0.6705  0.1781
 8513TIP3   OH225502   2.779   5.759   0.500  0.1057  0.0543  0.6849
 8513TIP3    H125503   2.780   5.705   0.421 -1.0848  0.3131  0.4671
 8513TIP3    H225504   2.814   5.843   0.472 -0.2175  0.1136  0.4568
 8514TIP3   OH225505   2.192   5.993   1.296  0.8522 -0.0470 -0.1090
 8514TIP3    H125506   2.165   6.084   1.288  2.8888  0.4671 -2.0885
 8514TIP3    H225507   2.201   5.962   1.206 -0.0920 -2.3491  0.5067
 8515TIP3   OH225508   2.765   0.763   3.800 -0.5276 -0.1803  0.2924
 8515TIP3    H125509   2.730   0.829   3.740  1.2168 -0.5580 -1.2508
 8515TIP3    H225510   2.689   0.714   3.829 -1.6855  1.5211  0.2633
 8516TIP3   OH225511   5.539   2.311   0.365  0.2941 -0.2452 -0.0378
 8516TIP3    H125512   5.467   2.359   0.323  1.5478 -0.0810 -2.1082
 8516TIP3    H225513   5.570   2.369   0.434 -0.3433  0.4664 -0.3388
 8517TIP3   OH225514   2.415   4.704   2.702 -0.2934  0.2365  0.2756
 8517TIP3    H125515   2.419   4.797   2.725  1.8725  0.6405 -1.4440
 8517TIP3    H225516   2.439   4.659   2.783 -1.1683  1.1447  1.0775
 8518TIP3   OH225517   3.000   0.092   5.713  0.1980 -0.0489 -0.4931
 8518TIP3    H125518   3.067   0.147   5.753 -1.3627  1.7615 -0.2163
 8518TIP3    H225519   2.969   0.036   5.784 -0.7936  1.3915  0.2683
 8519TIP3   OH225520   3.855   1.963   2.281  0.8510 -0.1450 -0.1659
 8519TIP3    H125521   3.874   1.877   2.243 -1.3479 -0.3707 -0.8674
 8519TIP3    H225522   3.852   2.022   2.206 -1.9691 -0.3137 -0.2877
 8520TIP3   OH225523   1.546   5.337   4.523  0.1559  0.4557 -0.1915
 8520TIP3    H125524   1.516   5.419   4.483  0.8201  1.4140  1.1869
 8520TIP3    H225525   1.574   5.363   4.611  1.6986 -1.0140 -0.2131
 8521TIP3   OH225526   2.187   4.181   1.308  0.2448 -0.0170 -0.1488
 8521TIP3    H125527   2.109   4.196   1.362  0.2154 -1.2059  0.1592
 8521TIP3    H225528   2.253   4.149   1.370 -0.4202 -3.5568 -1.0357
 8522TIP3   OH225529   1.228   0.338   3.586  0.0844 -0.2363  0.0585
 8522TIP3    H125530   1.273   0.286   3.520  0.4193  0.4856 -0.2962
 8522TIP3    H225531   1.298   0.384   3.631 -0.2459  0.3260  0.0030
 8523TIP3   OH225532   0.528   6.355   2.002  0.0149 -0.0234 -0.3926
 8523TIP3    H125533   0.447   6.403   2.017 -1.1963 -1.4243 -2.0810
 8523TIP3    H225534   0.565   6.394   1.922 -0.9583 -1.7468 -1.7602
 8524TIP3   OH225535   5.336   4.417   2.675 -0.1605 -0.0603 -0.5321
 8524TIP3    H125536   5.257   4.389   2.629  0.7311 -2.3988 -0.8118
 8524TIP3    H225537   5.304   4.464   2.752 -1.9398 -2.5055  0.3624
 8525TIP3   OH225538   1.285   5.985   3.327  0.4465  0.0704 -0.2746
 8525TIP3    H125539   1.292   5.992   3.422 -1.7798  2.0775 -0.1669
 8525TIP3    H225540   1.348   6.048   3.294 -0.9942  1.7292  0.0157
 8526TIP3   OH225541   3.659   2.379   1.108  0.0009 -0.9309 -0.0114
 8526TIP3    H125542   3.715   2.377   1.186 -2.5948 -1.3244  1.9577
 8526TIP3    H225543   3.644   2.472   1.091 -2.1697 -0.7821  2.1749
 8527TIP3   OH225544   5.703   0.281   0.332 -0.6753 -0.3025 -0.2489
 8527TIP3    H125545   5.625   0.327   0.362  0.0278  0.7163  0.1086
 8527TIP3    H225546   5.673   0.224   0.262 -1.6119  0.6623 -0.6497
 8528TIP3   OH225547   6.830   1.471   1.225 -0.3164  0.4366 -0.0915
 8528TIP3    H125548   6.741   1.470   1.261  0.5550  1.5657  2.2674
 8528TIP3    H225549   6.878   1.408   1.278 -0.0122 -1.5262 -2.4968
 8529TIP3   OH225550   2.804   0.049   1.631  0.0140 -0.4309  0.3018
 8529TIP3    H125551   2.727   0.051   1.575  0.2866  0.9378 -0.0620
 8529TIP3    H225552   2.870   0.002   1.579  0.2989  0.9203 -0.6225
 8530TIP3   OH225553   0.022   5.274   3.127 -0.6940 -0.1239  0.4303
 8530TIP3    H125554   0.078   5.259   3.051 -1.5831  1.5607 -0.6270
 8530TIP3    H225555   0.000   5.367   3.122 -1.8666 -0.2739  2.0125
 8531TIP3   OH225556   6.433   0.468   0.742  0.6895  0.3002  0.0523
 8531TIP3    H125557   6.476   0.442   0.823 -1.1538 -0.1865  0.9385
 8531TIP3    H225558   6.366   0.531   0.769  0.8104  1.0292 -1.2605
 8532TIP3   OH225559   0.425  -0.023   2.156  0.2014 -0.4859  0.1438
 8532TIP3    H125560   0.440   0.010   2.067 -1.1227  1.3046  0.5175
 8532TIP3    H225561   0.486   0.026   2.211 -1.2910  0.9412  0.6152
 8533TIP3   OH225562   5.614   6.112   0.773  0.3381 -0.0699 -0.3358
 8533TIP3    H125563   5.689   6.162   0.742  0.7503 -0.2286  0.3876
 8533TIP3    H225564   5.652   6.039   0.820 -0.2485  0.7263  1.4511
 8534TIP3   OH225565   0.870   6.344   4.436 -0.1850  0.1948 -0.2269
 8534TIP3    H125566   0.869   6.307   4.348 -0.3168  1.5882 -0.8329
 8534TIP3    H225567   0.854   6.269   4.493 -2.3472 -0.3944 -1.5052
 8535TIP3   OH225568   4.454   0.499   1.243  0.8615  0.4925 -0.1101
 8535TIP3    H125569   4.465   0.478   1.150 -0.0312 -0.3045 -0.0571
 8535TIP3    H225570   4.468   0.416   1.288  0.1499  0.6236  0.3651
 8536TIP3   OH225571   5.273   4.590   0.925  0.4693 -0.0908  0.5544
 8536TIP3    H125572   5.316   4.665   0.884  0.9932  0.0362  1.3028
 8536TIP3    H225573   5.190   4.581   0.879  0.6341  0.6196  0.1043
 8537TIP3   OH225574   1.169   2.519   1.652  0.1181  0.3951 -0.3543
 8537TIP3    H125575   1.193   2.569   1.730  1.0184  0.5052 -0.6793
 8537TIP3    H225576   1.099   2.461   1.680  0.0590  0.8153  0.3938
 8538TIP3   OH225577   4.334   2.272   1.305  0.3217  0.2853  0.6609
 8538TIP3    H125578   4.321   2.309   1.391  0.8167 -0.0047  0.8683
 8538TIP3    H225579   4.429   2.273   1.292  0.4656 -1.8377  1.1212
 8539TIP3   OH225580   4.176   1.320   3.523  0.2221 -0.2932  0.3181
 8539TIP3    H125581   4.229   1.394   3.493 -1.8480  1.2668  0.1959
 8539TIP3    H225582   4.150   1.276   3.442 -0.8112  0.5759  0.1446
 8540TIP3   OH225583   6.283   2.817   5.826  0.0067 -0.2569 -0.1776
 8540TIP3    H125584   6.318   2.731   5.806  1.4051  0.0804  0.6989
 8540TIP3    H225585   6.282   2.821   5.921 -1.0290  0.3220 -0.1942
 8541TIP3   OH225586   0.144   1.729   4.022  0.4728  0.2913 -0.0465
 8541TIP3    H125587   0.052   1.707   4.036  0.1308  0.3199 -2.0038
 8541TIP3    H225588   0.156   1.723   3.927  3.0813 -1.9853  0.2966
 8542TIP3   OH225589   4.280   0.244   3.516 -0.5217  0.2132  0.8784
 8542TIP3    H125590   4.239   0.330   3.503 -2.7555 -0.5715  2.1614
 8542TIP3    H225591   4.334   0.255   3.594  0.2265  0.7475  0.3059
 8543TIP3   OH225592   4.042   6.446   2.299  0.0727 -0.4814 -0.1338
 8543TIP3    H125593   4.127   6.485   2.277  0.5587 -1.3758  0.1088
 8543TIP3    H225594   3.982   6.479   2.232  0.6725 -0.0567 -0.4665
 8544TIP3   OH225595   5.638   5.681   3.834  0.1929  0.2219 -0.3014
 8544TIP3    H125596   5.682   5.732   3.766  0.6699 -0.5495 -0.5837
 8544TIP3    H225597   5.616   5.598   3.792  2.2031 -1.0381  0.9507
 8545TIP3   OH225598   0.010   3.079   0.193 -0.9677 -0.6997 -0.1088
 8545TIP3    H125599  -0.021   3.004   0.142 -0.7120 -0.8559 -0.0330
 8545TIP3    H225600   0.077   3.120   0.137 -1.9967  0.2186 -0.7071
 8546TIP3   OH225601   3.034   2.929   4.497 -0.1154 -0.3370 -0.3204
 8546TIP3    H125602   2.980   2.869   4.445 -0.7488 -0.2014  0.1704
 8546TIP3    H225603   3.028   3.012   4.451 -1.6310  0.0817  0.5842
 8547TIP3   OH225604   6.061   6.512   1.081 -0.2249  0.2328  0.2649
 8547TIP3    H125605   6.155   6.494   1.087 -0.2640  0.5011  2.5009
 8547TIP3    H225606   6.044   6.517   0.987  1.9910  0.1966 -0.2032
 8548TIP3   OH225607   3.242   2.618   3.599 -0.3083  0.0992  0.5140
 8548TIP3    H125608   3.156   2.649   3.571 -0.5034 -1.5577 -0.8590
 8548TIP3    H225609   3.269   2.556   3.532  2.4546  1.3166  0.3162
 8549TIP3   OH225610   6.304   2.886   1.740 -0.2064 -0.5992 -0.0859
 8549TIP3    H125611   6.216   2.851   1.722 -1.0339  2.0315 -1.7705
 8549TIP3    H225612   6.302   2.909   1.833 -1.5436 -0.0587 -0.2158
 8550TIP3   OH225613   0.067   5.956   4.608 -0.0201  0.2351  0.3798
 8550TIP3    H125614   0.067   5.894   4.535 -1.4661  0.9429 -0.2731
 8550TIP3    H225615   0.085   6.041   4.567 -1.0612  0.6735  0.7852
 8551TIP3   OH225616   6.165   2.391   5.462 -0.1325 -0.2272  0.7149
 8551TIP3    H125617   6.141   2.461   5.401  0.4238 -0.2602  0.4534
 8551TIP3    H225618   6.220   2.332   5.410 -1.0899 -1.1940  0.7521
 8552TIP3   OH225619   2.714   5.171   2.818  0.1944 -0.5539  0.8484
 8552TIP3    H125620   2.708   5.122   2.736 -3.4155 -0.5527  0.9532
 8552TIP3    H225621   2.690   5.108   2.885 -2.3901  0.6986  1.2152
 8553TIP3   OH225622   1.229   4.874   0.923  0.1977  0.4272 -0.6671
 8553TIP3    H125623   1.262   4.906   1.007  1.2007  0.5842 -1.1038
 8553TIP3    H225624   1.167   4.941   0.894 -1.0544 -0.1966  0.4823
 8554TIP3   OH225625   4.085   5.989   2.301  0.2575  0.5896 -0.5600
 8554TIP3    H125626   4.002   5.999   2.255  0.0723  1.4798 -0.0674
 8554TIP3    H225627   4.107   6.078   2.330  1.2230  0.3163 -0.4129
 8555TIP3   OH225628   7.214   2.667   2.148  0.5089 -0.5626 -0.4753
 8555TIP3    H125629   7.215   2.676   2.053 -1.4080  0.6064 -0.4484
 8555TIP3    H225630   7.153   2.734   2.178 -0.4940 -2.2124  1.4401
 8556TIP3   OH225631   5.734   4.518   3.557 -0.2397 -1.2224  0.4200
 8556TIP3    H125632   5.756   4.601   3.599 -0.9534 -0.7382 -0.1423
 8556TIP3    H225633   5.748   4.452   3.625  2.4806 -0.9390  0.2417
 8557TIP3   OH225634   0.043   0.594   1.106  0.0634  0.2608  0.0288
 8557TIP3    H125635   0.138   0.590   1.102 -0.0083 -1.2467 -1.0417
 8557TIP3    H225636   0.018   0.655   1.036  0.2330  0.9898  0.5870
 8558TIP3   OH225637   6.363   4.248   5.625 -0.2804 -0.2554  0.3114
 8558TIP3    H125638   6.430   4.193   5.665  0.5988  0.3337 -0.3272
 8558TIP3    H225639   6.314   4.189   5.568 -0.4687 -0.7394  0.9641
 8559TIP3   OH225640   1.276   2.126   5.497 -0.1863  0.0132 -0.0178
 8559TIP3    H125641   1.292   2.185   5.423 -1.0487  0.7370  0.3564
 8559TIP3    H225642   1.364   2.098   5.524  0.4616  2.8766  1.1752
 8560TIP3   OH225643   4.023   6.694   3.749 -0.0987  0.2287 -0.3944
 8560TIP3    H125644   3.965   6.624   3.780  1.1168  0.6136  3.2321
 8560TIP3    H225645   4.107   6.676   3.792  1.4077  1.7792 -2.4981
 8561TIP3   OH225646   4.144   0.156   0.729 -0.2813 -0.1014  0.2348
 8561TIP3    H125647   4.133   0.098   0.653 -1.4441  0.3309  0.0594
 8561TIP3    H225648   4.099   0.111   0.800 -1.2157  0.5919  0.0903
 8562TIP3   OH225649   1.908   6.395   4.504 -0.4036  0.0733 -0.0967
 8562TIP3    H125650   1.968   6.463   4.534 -1.3470  0.2681  1.4264
 8562TIP3    H225651   1.840   6.391   4.571 -0.4022 -2.3700 -0.1481
 8563TIP3   OH225652   0.550   4.996   0.892 -0.1056  0.3535 -0.6518
 8563TIP3    H125653   0.461   5.002   0.858 -0.3799 -0.8833 -0.2140
 8563TIP3    H225654   0.603   5.044   0.828 -0.7126 -1.2617 -2.4604
 8564TIP3   OH225655   1.438   0.577   4.191  0.0395  0.1176 -0.4271
 8564TIP3    H125656   1.399   0.553   4.275 -0.5121 -0.0344 -0.7213
 8564TIP3    H225657   1.523   0.614   4.214 -0.2072  0.3010  0.2155
 8565TIP3   OH225658   7.003   4.605   5.469  0.3118 -0.3987  0.2064
 8565TIP3    H125659   6.974   4.514   5.468  0.6823 -0.5479  1.4570
 8565TIP3    H225660   7.090   4.602   5.508  0.3695  0.4858  0.1756
 8566TIP3   OH225661   3.162   4.139   0.168 -0.4088 -0.1328  0.1128
 8566TIP3    H125662   3.137   4.048   0.183  1.1114 -0.5637  0.1630
 8566TIP3    H225663   3.228   4.135   0.099 -1.5462  1.1047 -1.1148
 8567TIP3   OH225664   2.259   4.035   4.568  0.6039 -0.2306  0.5086
 8567TIP3    H125665   2.332   3.995   4.614 -0.2954 -2.3853  0.1547
 8567TIP3    H225666   2.272   4.011   4.476 -0.5258 -0.6154  0.4381
 8568TIP3   OH225667   1.729   0.718   0.707  0.0844 -0.2984 -0.6217
 8568TIP3    H125668   1.668   0.758   0.645 -1.6759 -0.2301  1.0767
 8568TIP3    H225669   1.731   0.625   0.683 -1.7044 -0.5467  0.0544
 8569TIP3   OH225670   4.101   0.303   5.196  0.2713 -0.0390 -0.1036
 8569TIP3    H125671   4.156   0.268   5.126 -1.1977  0.2248 -1.4573
 8569TIP3    H225672   4.013   0.274   5.173 -0.6198  2.2257  0.2065
 8570TIP3   OH225673   0.420   1.003   1.628  0.1845  0.1729  0.0714
 8570TIP3    H125674   0.382   0.921   1.598  0.4116 -0.0502  0.3814
 8570TIP3    H225675   0.500   1.013   1.576 -0.9785  1.3551 -1.5949
 8571TIP3   OH225676   0.276   6.074   3.391  0.3717 -0.5049  0.0927
 8571TIP3    H125677   0.219   6.102   3.462 -1.0537 -0.4709 -1.0037
 8571TIP3    H225678   0.345   6.141   3.387  0.2991 -0.3492  1.2187
 8572TIP3   OH225679   3.852   2.291   2.249 -0.1765  0.1328 -0.3124
 8572TIP3    H125680   3.846   2.286   2.345  1.4861  0.3962 -0.1652
 8572TIP3    H225681   3.825   2.381   2.228  0.3899  0.3933  0.0248
 8573TIP3   OH225682   6.467   2.571   5.300 -0.5734 -0.1532  0.1421
 8573TIP3    H125683   6.425   2.557   5.215 -1.3217  0.2670  0.4328
 8573TIP3    H225684   6.505   2.659   5.293  1.2692 -0.9491 -0.5178
 8574TIP3   OH225685   6.051   4.092   1.849  0.0634 -0.9002 -0.2647
 8574TIP3    H125686   6.010   4.165   1.804  1.4977  0.7631  0.9869
 8574TIP3    H225687   6.009   4.014   1.813 -0.9253  0.4846 -2.2442
 8575TIP3   OH225688   7.110   6.657   3.927  0.0147 -0.0100  0.0678
 8575TIP3    H125689   7.081   6.710   3.852 -0.2287  0.9340  0.8133
 8575TIP3    H225690   7.133   6.721   3.994  0.1491 -0.8511  0.8391
 8576TIP3   OH225691   2.484   5.172   2.329 -0.7778 -0.4966  0.3132
 8576TIP3    H125692   2.502   5.265   2.344  0.7390 -0.7837  0.4830
 8576TIP3    H225693   2.466   5.138   2.417 -1.1033 -0.4127  0.2803
 8577TIP3   OH225694   0.177   5.227   4.520 -0.0554 -0.6693  0.2610
 8577TIP3    H125695   0.087   5.200   4.502 -0.1324 -0.9746  1.0850
 8577TIP3    H225696   0.169   5.303   4.577  0.2043 -0.1086 -0.4259
 8578TIP3   OH225697   1.746   5.205   3.351  0.4476 -0.2594  0.1417
 8578TIP3    H125698   1.724   5.114   3.332  1.4485 -0.5300  0.2162
 8578TIP3    H225699   1.757   5.207   3.446 -0.9689  0.2720  0.3151
 8579TIP3   OH225700   6.021   2.202   2.804 -0.4013 -0.5747 -0.0378
 8579TIP3    H125701   5.973   2.147   2.741 -1.9378  1.2086 -0.5181
 8579TIP3    H225702   6.009   2.157   2.888 -1.9419 -0.8178 -0.3509
 8580TIP3   OH225703   6.565   0.594   4.380 -0.0849  0.6767 -0.1996
 8580TIP3    H125704   6.540   0.550   4.299  0.8445 -1.0368  0.4008
 8580TIP3    H225705   6.619   0.531   4.427  0.3313  2.0377  1.2662
 8581TIP3   OH225706   3.338   5.095   3.816 -0.3857 -0.2615  0.0787
 8581TIP3    H125707   3.413   5.137   3.775  0.1217 -1.0464  0.1938
 8581TIP3    H225708   3.277   5.167   3.833  0.7832  0.5450  0.9688
 8582TIP3   OH225709   2.871   2.316   2.123  0.2834 -0.3416  0.0259
 8582TIP3    H125710   2.875   2.225   2.154 -1.5491 -0.0460  1.2691
 8582TIP3    H225711   2.852   2.308   2.029  0.9559 -1.2293 -0.0553
 8583TIP3   OH225712   5.963   5.569   0.067 -0.0128  0.4458  0.3812
 8583TIP3    H125713   5.964   5.544  -0.025  0.6321 -0.8318  0.7182
 8583TIP3    H225714   5.881   5.535   0.101  1.3608 -2.4600  1.1154
 8584TIP3   OH225715   4.695   2.401   5.373  0.3430  0.8687 -0.2569
 8584TIP3    H125716   4.754   2.475   5.358  1.3359 -0.1611 -1.7203
 8584TIP3    H225717   4.624   2.413   5.311  0.6380  0.4762 -0.6773
 8585TIP3   OH225718   6.953   3.210   0.624 -0.1319 -0.2963  0.1549
 8585TIP3    H125719   6.948   3.303   0.602  0.8910 -0.1014  0.6631
 8585TIP3    H225720   6.946   3.165   0.540  1.7295  0.3541 -0.4132
 8586TIP3   OH225721   2.741   0.255   4.371  0.6370  0.6438  0.0315
 8586TIP3    H125722   2.789   0.283   4.293  1.0298  0.3490  0.1633
 8586TIP3    H225723   2.809   0.242   4.438  0.5052 -0.7802 -0.0768
 8587TIP3   OH225724   2.595   0.731   5.598 -0.4407  0.2424 -0.6786
 8587TIP3    H125725   2.633   0.709   5.513 -1.2552  1.1252 -1.2927
 8587TIP3    H225726   2.619   0.657   5.655  1.8596  0.5882 -1.1035
 8588TIP3   OH225727   1.864   1.024   1.500  0.3422 -0.2915  0.1118
 8588TIP3    H125728   1.923   0.949   1.490 -0.7230 -1.0371 -0.7707
 8588TIP3    H225729   1.814   1.026   1.418 -1.5857 -0.3266  1.2322
 8589TIP3   OH225730   1.798   2.416   1.773  0.7139 -0.1410  0.3123
 8589TIP3    H125731   1.889   2.394   1.791  0.0939 -1.4868  2.0967
 8589TIP3    H225732   1.765   2.342   1.723  0.0835 -0.6786  1.4854
 8590TIP3   OH225733   1.440   4.846   3.895  0.0078 -0.1947 -0.4494
 8590TIP3    H125734   1.375   4.776   3.902  0.9063 -0.9361  0.7931
 8590TIP3    H225735   1.451   4.858   3.800 -0.5065 -1.4064 -0.6857
 8591TIP3   OH225736   2.369   1.053   2.814 -0.1583 -0.6921 -0.0389
 8591TIP3    H125737   2.326   1.074   2.731 -0.0217 -1.7091 -0.3736
 8591TIP3    H225738   2.375   1.137   2.859 -1.1153 -0.2871 -0.6377
 8592TIP3   OH225739   7.088   6.555   5.261  0.0719  0.3394  0.7506
 8592TIP3    H125740   7.087   6.522   5.351 -0.3797  0.9735  0.9822
 8592TIP3    H225741   7.040   6.489   5.211 -0.9555  0.7042  1.2372
 8593TIP3   OH225742   5.413   5.015   1.105 -0.3845  0.1048 -0.3402
 8593TIP3    H125743   5.349   5.086   1.108 -0.4060  0.0692  0.0097
 8593TIP3    H225744   5.483   5.043   1.164  0.0775  0.2890 -0.9589
 8594TIP3   OH225745   1.129   1.206   3.191  0.4633 -0.6843  0.2444
 8594TIP3    H125746   1.113   1.212   3.285 -0.3048  1.8363  0.0118
 8594TIP3    H225747   1.220   1.234   3.180  1.2063 -2.8606  0.3586
 8595TIP3   OH225748   1.025   3.761   3.362 -0.5976  0.1186  0.1740
 8595TIP3    H125749   1.013   3.679   3.411 -2.4742  0.4381  0.3400
 8595TIP3    H225750   1.095   3.807   3.409 -1.5396 -0.1012  1.9001
 8596TIP3   OH225751   4.515   3.571   4.135 -0.1871  0.2156  0.2947
 8596TIP3    H125752   4.475   3.512   4.072  0.7933 -1.1319  0.8723
 8596TIP3    H225753   4.444   3.628   4.165 -1.0439 -0.3451 -0.6393
 8597TIP3   OH225754   7.138   4.257   3.699  0.4911  0.1758  0.0228
 8597TIP3    H125755   7.162   4.167   3.681 -0.5294  0.0165 -0.6361
 8597TIP3    H225756   7.120   4.259   3.793 -0.3871 -0.5489 -0.1134
 8598TIP3   OH225757   3.952   6.657   3.466 -0.2971  0.8424  0.2859
 8598TIP3    H125758   3.969   6.720   3.535  1.3480  0.6833  0.0676
 8598TIP3    H225759   3.902   6.587   3.508 -0.8739  1.6017  0.8708
 8599TIP3   OH225760   3.208   0.071   0.742  0.5232 -1.0256  0.0173
 8599TIP3    H125761   3.199   0.056   0.836  0.7625 -1.6286 -0.0484
 8599TIP3    H225762   3.209   0.166   0.732 -2.1502 -0.8915  0.3598
 8600TIP3   OH225763   2.591   3.928   4.995  0.0427 -0.3365 -0.1338
 8600TIP3    H125764   2.673   3.977   5.004  1.5902 -2.3834 -1.7050
 8600TIP3    H225765   2.603   3.852   5.052  0.0496 -1.5556 -1.7046
 8601TIP3   OH225766   0.974   1.077   0.043  0.1108 -0.5479 -0.0796
 8601TIP3    H125767   0.924   1.090  -0.038 -0.0879 -0.0121  0.1226
 8601TIP3    H225768   0.907   1.071   0.111  0.2835 -0.8291  0.0652
 8602TIP3   OH225769   4.377   5.252   3.080 -0.1239 -0.5128  0.3303
 8602TIP3    H125770   4.360   5.345   3.096  0.2916 -0.7204  2.2991
 8602TIP3    H225771   4.430   5.250   3.000  1.8917  1.1714  1.5085
 8603TIP3   OH225772   2.409   1.346   4.121 -0.7822  0.3379  0.2079
 8603TIP3    H125773   2.365   1.415   4.171 -2.0752 -2.1386  2.7583
 8603TIP3    H225774   2.492   1.333   4.167 -0.3455  0.4456 -0.5301
 8604TIP3   OH225775   5.448   2.717   5.240 -0.1345 -0.1835  0.2437
 8604TIP3    H125776   5.368   2.743   5.285 -0.3728 -0.2191 -0.1546
 8604TIP3    H225777   5.462   2.626   5.265 -1.3385 -0.8249 -1.2618
 8605TIP3   OH225778   1.110   6.445   5.130  0.6089  0.4257 -0.0980
 8605TIP3    H125779   1.065   6.507   5.188 -0.0333 -1.0024  1.0034
 8605TIP3    H225780   1.053   6.438   5.054  0.0540  0.2624  0.3248
 8606TIP3   OH225781   5.687   3.039   1.843 -0.4562  0.2481  0.6683
 8606TIP3    H125782   5.629   3.109   1.873 -3.9277 -2.2605  0.3394
 8606TIP3    H225783   5.693   2.979   1.917  0.3010 -0.4036  0.0915
 8607TIP3   OH225784   3.011   0.583   5.377 -0.1237  0.2409  0.6962
 8607TIP3    H125785   3.045   0.605   5.463 -0.4763 -1.3663  1.2619
 8607TIP3    H225786   2.959   0.504   5.390 -1.2515  0.6784 -0.7608
 8608TIP3   OH225787   5.037   3.943   2.376  0.2962  0.1647  0.2787
 8608TIP3    H125788   5.047   3.850   2.396  0.9197 -0.2150 -1.5700
 8608TIP3    H225789   5.006   3.983   2.457  1.1119 -1.4689  1.4233
 8609TIP3   OH225790   6.410   2.338   3.247 -0.3691  0.1873  0.0145
 8609TIP3    H125791   6.369   2.328   3.161 -0.8779 -1.1246  0.3828
 8609TIP3    H225792   6.416   2.249   3.281 -2.0688  0.8254  2.2152
 8610TIP3   OH225793   6.446   1.465   3.883 -0.7376  0.0376  0.1307
 8610TIP3    H125794   6.368   1.412   3.904 -0.3202 -0.1184  1.3686
 8610TIP3    H225795   6.509   1.402   3.848 -0.2382 -0.3267  1.6122
 8611TIP3   OH225796   0.772   3.471   2.154  0.1625  0.2083  0.1207
 8611TIP3    H125797   0.729   3.547   2.193  0.1547 -0.0245  0.5676
 8611TIP3    H225798   0.723   3.396   2.186  0.0914  0.0185 -0.4246
 8612TIP3   OH225799   5.538   2.861   3.100 -0.5137 -0.0537 -0.2176
 8612TIP3    H125800   5.478   2.897   3.165 -1.1902 -2.4430  0.5751
 8612TIP3    H225801   5.612   2.923   3.099 -2.5248  2.5295 -0.6362
 8613TIP3   OH225802   1.255   5.767   1.521  0.3394 -0.3972  0.7961
 8613TIP3    H125803   1.220   5.834   1.463  0.2808 -0.6623  0.5214
 8613TIP3    H225804   1.256   5.687   1.468 -1.0604 -0.9825  1.5832
 8614TIP3   OH225805   6.463   2.751   3.454  0.0572  0.6617 -0.7316
 8614TIP3    H125806   6.426   2.674   3.411 -0.4247  1.3205 -1.5450
 8614TIP3    H225807   6.497   2.804   3.382  0.4772  1.1619 -0.1763
 8615TIP3   OH225808   2.736   5.653   5.018 -0.1457  0.6551 -0.2302
 8615TIP3    H125809   2.751   5.744   5.044 -0.3490  0.7091 -0.2992
 8615TIP3    H225810   2.822   5.613   5.020  0.1986  1.2623 -1.7720
 8616TIP3   OH225811   1.975   6.547   3.101  0.0331 -0.4160  0.5597
 8616TIP3    H125812   1.912   6.561   3.030 -0.5182 -1.2092  0.8769
 8616TIP3    H225813   2.006   6.635   3.124 -2.0412  0.1585  1.3631
 8617TIP3   OH225814   0.722   2.955   3.357  0.2267  0.0671 -0.2886
 8617TIP3    H125815   0.762   2.943   3.444 -0.2656 -1.3366 -0.2314
 8617TIP3    H225816   0.744   3.045   3.333 -0.1550  0.7071  1.5716
 8618TIP3   OH225817   0.256   4.267   5.393 -0.1244  0.5879  0.4726
 8618TIP3    H125818   0.342   4.271   5.350 -0.5712 -1.7038 -0.8397
 8618TIP3    H225819   0.246   4.352   5.435  2.5803  1.1016  0.2768
 8619TIP3   OH225820   4.382   0.418   5.796  0.0145 -0.0202  0.6656
 8619TIP3    H125821   4.356   0.343   5.743  2.5772 -1.1407  0.8500
 8619TIP3    H225822   4.477   0.410   5.805  0.3037  2.8917  1.2777
 8620TIP3   OH225823   3.388   1.575   5.451  1.0739 -0.5433  0.4351
 8620TIP3    H125824   3.306   1.608   5.415  0.8779 -0.9157  0.5336
 8620TIP3    H225825   3.443   1.557   5.375  1.3984  0.5437  0.3964
 8621TIP3   OH225826   0.040   0.330   1.063  0.4968  0.7629  0.5642
 8621TIP3    H125827   0.052   0.338   0.968 -0.8908 -1.2160  0.1493
 8621TIP3    H225828   0.026   0.420   1.093 -0.0580  1.3330 -1.2555
 8622TIP3   OH225829   1.086   1.098   4.755 -0.0813 -0.1042 -0.1271
 8622TIP3    H125830   1.082   1.141   4.840 -0.0513 -0.5247  0.0916
 8622TIP3    H225831   1.047   1.160   4.694  1.4984  0.9589 -0.1185
 8623TIP3   OH225832   0.577   3.577   0.329  0.2516  0.0999 -0.6161
 8623TIP3    H125833   0.513   3.644   0.307  1.5710  1.5565 -0.1858
 8623TIP3    H225834   0.600   3.537   0.245  0.0668  0.7619 -0.9856
 8624TIP3   OH225835   1.907   4.388   1.260 -0.1402  0.0529  0.2836
 8624TIP3    H125836   1.999   4.402   1.236 -0.2444 -0.4389 -0.4428
 8624TIP3    H225837   1.908   4.311   1.315 -0.2371 -0.6853 -0.7177
 8625TIP3   OH225838   3.257   3.232   1.765  0.5239  0.4825  0.5225
 8625TIP3    H125839   3.282   3.159   1.708  1.0103  0.8619  0.2389
 8625TIP3    H225840   3.250   3.193   1.852  0.1012 -0.0357  0.2625
 8626TIP3   OH225841   0.202   5.078   3.458  0.7387 -0.1895 -0.0337
 8626TIP3    H125842   0.240   4.990   3.450  0.0765 -0.6891  1.8260
 8626TIP3    H225843   0.115   5.069   3.419  0.4239 -0.5475  0.7379
 8627TIP3   OH225844   7.148   2.839   0.042 -0.4469  0.0423 -0.1245
 8627TIP3    H125845   7.199   2.842  -0.038 -0.5520  0.2975 -0.1810
 8627TIP3    H225846   7.101   2.755   0.037  0.6769 -0.6499  0.3691
 8628TIP3   OH225847   0.504   4.564   0.979  0.4118 -0.1014  0.2677
 8628TIP3    H125848   0.417   4.524   0.977  0.2019  0.2681  1.1663
 8628TIP3    H225849   0.490   4.655   0.953  0.8049 -0.4455 -1.2425
 8629TIP3   OH225850   4.799   0.317   1.656 -0.5213 -0.9971 -0.3234
 8629TIP3    H125851   4.833   0.234   1.623  0.8543 -1.0444  1.1342
 8629TIP3    H225852   4.754   0.295   1.737 -0.0831 -0.3231  0.1152
 8630TIP3   OH225853   2.635   3.684   5.130 -0.4257  0.4663 -0.0232
 8630TIP3    H125854   2.598   3.666   5.216 -1.7789 -0.3878 -0.7608
 8630TIP3    H225855   2.711   3.627   5.124 -1.1710 -0.5455  0.0480
 8631TIP3   OH225856   3.846   5.022   3.037 -0.2245 -0.4792 -0.4170
 8631TIP3    H125857   3.925   4.999   2.989 -0.4508  1.5398 -1.9187
 8631TIP3    H225858   3.794   5.073   2.975 -1.9427 -0.3190  1.0562
 8632TIP3   OH225859   3.649   0.306   2.298  0.2499 -0.0090 -0.4700
 8632TIP3    H125860   3.560   0.339   2.312  0.8165  1.1718  0.5296
 8632TIP3    H225861   3.693   0.375   2.248  0.7620 -0.3486 -0.4977
 8633TIP3   OH225862   6.055   0.384   2.525  0.0273  0.3903  0.6337
 8633TIP3    H125863   5.982   0.443   2.509  0.0041  0.6155  1.5040
 8633TIP3    H225864   6.032   0.339   2.606  1.5337  1.5639  1.7801
 8634TIP3   OH225865   1.438   5.203   3.590  0.0163 -0.5616 -0.1781
 8634TIP3    H125866   1.444   5.222   3.496  1.3901  0.1899  0.0274
 8634TIP3    H225867   1.441   5.107   3.595 -4.2833 -0.9232 -1.0803
 8635TIP3   OH225868   0.939   0.358   0.427  0.1551  0.4452 -0.1069
 8635TIP3    H125869   0.878   0.429   0.406 -0.0487 -0.3469 -2.3565
 8635TIP3    H225870   0.904   0.320   0.507 -1.2325  1.1951 -0.3228
 8636TIP3   OH225871   5.046   1.592   2.455 -0.1510  0.2007 -0.2972
 8636TIP3    H125872   5.079   1.635   2.534  1.6394 -0.1867 -0.7983
 8636TIP3    H225873   5.108   1.617   2.386  0.6855 -2.6937 -0.7313
 8637TIP3   OH225874   4.283   6.571   1.490  0.1874  0.2206 -0.7443
 8637TIP3    H125875   4.292   6.620   1.409  0.6391  0.4845 -0.5329
 8637TIP3    H225876   4.220   6.501   1.469  0.3617  0.2421 -1.3384
 8638TIP3   OH225877   5.173   3.004   1.125 -0.6504  0.1496  0.5767
 8638TIP3    H125878   5.170   2.911   1.146 -2.4661 -0.0612 -0.4329
 8638TIP3    H225879   5.254   3.035   1.165 -0.4138 -1.6854  1.6262
 8639TIP3   OH225880   1.614   5.408   3.774  0.3586  0.6551  0.4033
 8639TIP3    H125881   1.574   5.333   3.730 -1.2141  1.3788  0.5429
 8639TIP3    H225882   1.588   5.484   3.721  1.7362  1.1547  0.3863
 8640TIP3   OH225883   6.527   5.850   1.094 -0.2599  0.2925 -0.1226
 8640TIP3    H125884   6.486   5.925   1.135 -0.3491  0.0114  0.3063
 8640TIP3    H225885   6.604   5.886   1.049  0.0911  0.5408  0.6578
 8641TIP3   OH225886   6.214   2.193   1.309 -0.0360  0.1108  0.1770
 8641TIP3    H125887   6.246   2.108   1.281  0.5628 -0.4204  2.3497
 8641TIP3    H225888   6.177   2.179   1.396 -1.5067  1.7475 -0.1078
 8642TIP3   OH225889   4.085   5.108   4.323 -0.2245  0.4528  0.1536
 8642TIP3    H125890   4.104   5.030   4.375  1.5636 -1.4028 -2.9563
 8642TIP3    H225891   4.007   5.085   4.273  0.4871  0.4708 -1.0116
 8643TIP3   OH225892   5.472   2.013   1.261 -0.2862  0.2821  0.2874
 8643TIP3    H125893   5.411   1.940   1.249  0.9288 -0.8006  0.4952
 8643TIP3    H225894   5.449   2.049   1.347 -0.1937 -0.5490  0.6697
 8644TIP3   OH225895   0.262   2.271   5.870 -0.2405  0.3937  0.5287
 8644TIP3    H125896   0.313   2.190   5.858 -1.0800 -0.3858  2.0064
 8644TIP3    H225897   0.172   2.241   5.877 -0.8644  1.7051 -1.3497
 8645TIP3   OH225898   0.894   5.041   1.589 -0.4117 -0.1494 -0.0384
 8645TIP3    H125899   0.803   5.064   1.570  0.5438  2.7898 -1.7064
 8645TIP3    H225900   0.934   5.026   1.503  0.6703 -1.4811  0.6671
 8646TIP3   OH225901   6.466   5.493   2.657 -0.3900  0.0219  0.0900
 8646TIP3    H125902   6.380   5.454   2.669 -0.6982  0.3944 -0.8319
 8646TIP3    H225903   6.448   5.584   2.634  0.1932 -0.1886 -1.3165
 8647TIP3   OH225904   2.943   4.149   3.833 -0.1624  0.2478  0.2849
 8647TIP3    H125905   2.896   4.087   3.777  0.7862  0.6385 -0.9751
 8647TIP3    H225906   2.963   4.099   3.912 -1.9264 -0.1790  0.5189
 8648TIP3   OH225907   3.096   3.612   2.626  0.4347 -0.5204 -0.8988
 8648TIP3    H125908   3.095   3.667   2.548  0.2204  1.3953  0.3926
 8648TIP3    H225909   3.116   3.672   2.698  2.2175 -2.4794  0.3715
 8649TIP3   OH225910   4.220   2.857   1.745 -0.8760 -0.3846  0.0125
 8649TIP3    H125911   4.177   2.885   1.665 -0.9406  1.1580  0.5513
 8649TIP3    H225912   4.252   2.938   1.785 -0.4735 -1.1582  1.3384
 8650TIP3   OH225913   5.894   3.700   3.540 -0.2273 -0.0128 -0.4957
 8650TIP3    H125914   5.950   3.777   3.535 -0.4843  0.3294  1.2476
 8650TIP3    H225915   5.918   3.647   3.464  1.0051  1.0747 -0.8915
 8651TIP3   OH225916   2.897   1.187   5.812  0.7354 -0.3583 -0.2821
 8651TIP3    H125917   2.932   1.228   5.733 -0.3726 -0.4037 -0.8187
 8651TIP3    H225918   2.973   1.172   5.867  1.4024  0.6282 -0.9025
 8652TIP3   OH225919   4.169   1.418   2.426  0.5320  0.8469  0.0995
 8652TIP3    H125920   4.253   1.462   2.422  0.1723  1.4451 -2.5865
 8652TIP3    H225921   4.158   1.377   2.340 -1.2827 -0.4522  0.8695
 8653TIP3   OH225922   3.399   0.601   0.152  0.0577 -0.0623  0.2859
 8653TIP3    H125923   3.453   0.663   0.104 -0.4948 -0.3202 -0.7093
 8653TIP3    H225924   3.348   0.556   0.084 -1.1150 -0.0922  1.1435
 8654TIP3   OH225925   0.821   1.408   3.940  0.0004  0.3854 -0.4746
 8654TIP3    H125926   0.757   1.363   3.995 -0.0806  0.4122 -0.5462
 8654TIP3    H225927   0.843   1.345   3.872  0.4718  0.1743 -0.1292
 8655TIP3   OH225928   4.518   3.411   3.800  0.7680  0.2016  0.3968
 8655TIP3    H125929   4.427   3.391   3.820  0.3727  0.1274 -1.3992
 8655TIP3    H225930   4.560   3.325   3.791  0.9623  0.2381  0.8726
 8656TIP3   OH225931   0.968   5.991   5.116 -0.5716  0.4507 -0.5613
 8656TIP3    H125932   0.990   6.049   5.190 -2.2018  0.0681  0.2652
 8656TIP3    H225933   1.011   6.032   5.040  1.8309  0.4178  0.6806
 8657TIP3   OH225934   7.022   5.596   1.573  0.0115 -0.2376 -0.0306
 8657TIP3    H125935   7.046   5.614   1.664  0.0025  0.5079 -0.1703
 8657TIP3    H225936   6.933   5.632   1.564 -1.1874 -2.8443  0.4523
 8658TIP3   OH225937   1.481   2.297   3.199  0.8684  0.0114 -0.6867
 8658TIP3    H125938   1.481   2.216   3.250  0.7610  0.1139 -0.5239
 8658TIP3    H225939   1.413   2.283   3.133  1.6813 -0.5236 -1.4489
 8659TIP3   OH225940   1.594   1.788   0.918 -0.5185 -0.8993  0.2638
 8659TIP3    H125941   1.544   1.862   0.884  1.9059  0.7567  0.0786
 8659TIP3    H225942   1.562   1.713   0.867 -2.0194  0.2366 -0.5770
 8660TIP3   OH225943   0.825   6.412   5.290  0.0558 -0.2512 -0.0307
 8660TIP3    H125944   0.861   6.356   5.359 -1.4589 -0.6335  0.4778
 8660TIP3    H225945   0.891   6.480   5.278  1.7186 -1.8055 -0.2968
 8661TIP3   OH225946   3.044   0.301   2.662  0.2544 -0.1995 -0.0957
 8661TIP3    H125947   3.027   0.257   2.578 -1.4365  1.0999 -0.4957
 8661TIP3    H225948   3.100   0.240   2.710 -0.9611 -2.2359 -1.0971
 8662TIP3   OH225949   3.640   0.382   3.046 -0.2831 -0.7168 -0.4625
 8662TIP3    H125950   3.711   0.335   3.002  0.3116 -0.1915 -0.0961
 8662TIP3    H225951   3.685   0.448   3.099 -0.9820 -1.2269  0.8106
 8663TIP3   OH225952   2.021   2.041   4.470 -0.2103 -0.0561 -0.0064
 8663TIP3    H125953   2.024   1.964   4.413 -1.6240 -0.1600  0.0072
 8663TIP3    H225954   2.106   2.044   4.512  0.0486 -1.3144 -0.4026
 8664TIP3   OH225955   0.587   5.930   3.190  0.0103  0.0875 -0.3004
 8664TIP3    H125956   0.636   5.880   3.125 -1.7726 -1.0036 -0.8650
 8664TIP3    H225957   0.654   5.980   3.237  1.4575  0.1696 -2.3160
 8665TIP3   OH225958   2.388   6.673   3.669  0.4500  0.3228  0.3685
 8665TIP3    H125959   2.359   6.745   3.725 -0.5252 -1.5666  2.4409
 8665TIP3    H225960   2.331   6.600   3.692  3.0233 -1.8654  0.2329
 8666TIP3   OH225961   7.142   5.766   0.881 -0.4607 -0.2490  0.1894
 8666TIP3    H125962   7.178   5.854   0.888 -0.9518 -0.0154 -0.2124
 8666TIP3    H225963   7.169   5.736   0.794  1.0901 -1.1234  0.9348
 8667TIP3   OH225964   5.068   1.363   5.636  0.3138  0.5837  0.1314
 8667TIP3    H125965   5.068   1.449   5.595  1.0574  1.0348  1.0530
 8667TIP3    H225966   4.977   1.349   5.662 -0.1474  0.3532 -1.4949
 8668TIP3   OH225967   5.197   5.774   5.503 -0.4106 -0.2306  0.1851
 8668TIP3    H125968   5.149   5.691   5.503  0.4136 -0.7713  2.3014
 8668TIP3    H225969   5.150   5.830   5.564 -0.0919  0.3318 -0.0746
 8669TIP3   OH225970   4.742   0.632   1.051  0.1134  0.4192 -0.3174
 8669TIP3    H125971   4.828   0.591   1.046 -0.3691 -0.9313  1.4167
 8669TIP3    H225972   4.694   0.596   0.976  1.0774  1.3297 -1.4072
 8670TIP3   OH225973   2.147   4.886   5.373 -0.1486  0.5353 -0.0493
 8670TIP3    H125974   2.076   4.870   5.435  0.9709 -0.6439  0.9957
 8670TIP3    H225975   2.223   4.906   5.428  0.1897  2.4947 -1.1657
 8671TIP3   OH225976   6.988   2.108   4.277 -0.6900  0.3583  0.0228
 8671TIP3    H125977   7.038   2.033   4.308 -2.7935 -1.1590 -0.0023
 8671TIP3    H225978   6.985   2.168   4.351 -0.9298 -0.6671  0.8594
 8672TIP3   OH225979   5.405   0.036   4.363  0.1336 -0.0634  0.0724
 8672TIP3    H125980   5.321   0.013   4.403 -0.0119 -1.1317 -0.7864
 8672TIP3    H225981   5.465   0.045   4.436 -0.0773 -2.1657  0.5792
 8673TIP3   OH225982   4.758   2.359   4.801 -0.0540  0.5314  0.5442
 8673TIP3    H125983   4.697   2.319   4.863  1.0075 -0.1714  1.1682
 8673TIP3    H225984   4.843   2.354   4.845  0.5356  1.0348 -0.5145
 8674TIP3   OH225985   2.210   6.273   0.478 -0.0204  0.2898 -0.7339
 8674TIP3    H125986   2.125   6.310   0.454  0.2475  0.7768 -0.9603
 8674TIP3    H225987   2.244   6.333   0.545 -1.4026 -1.8422  2.0654
 8675TIP3   OH225988   0.405   6.415   1.190 -0.0539 -0.0727  0.1764
 8675TIP3    H125989   0.346   6.424   1.265  1.7497 -0.2368  1.6883
 8675TIP3    H225990   0.463   6.343   1.213  0.8701  0.2075 -1.1471
 8676TIP3   OH225991   4.474   1.403   4.347 -0.1821  0.5641  0.1334
 8676TIP3    H125992   4.551   1.422   4.293 -1.3353 -0.5965 -2.0258
 8676TIP3    H225993   4.404   1.456   4.308 -1.4305 -1.5656 -0.6642
 8677TIP3   OH225994   6.758   1.253   3.928  0.1060  0.5162  0.0205
 8677TIP3    H125995   6.704   1.213   3.860 -1.3121  1.9269  0.2528
 8677TIP3    H225996   6.695   1.285   3.993  1.2194  2.0652  0.4042
 8678TIP3   OH225997   6.985   6.150   4.153 -0.3587  0.2571 -0.1337
 8678TIP3    H125998   6.990   6.133   4.248  2.4413 -2.1663 -0.5784
 8678TIP3    H225999   7.037   6.230   4.140 -0.1764  0.2093  0.2851
 8679TIP3   OH226000   2.282   6.043   5.415  0.8410 -0.3579 -0.3582
 8679TIP3    H126001   2.219   5.987   5.460 -0.0551  0.6247 -0.3591
 8679TIP3    H226002   2.320   5.986   5.348  1.0887 -1.4008  0.6255
 8680TIP3   OH226003   3.846   5.175   3.545 -0.2582  0.0215 -0.0329
 8680TIP3    H126004   3.888   5.261   3.536  0.6753 -0.4444 -0.3190
 8680TIP3    H226005   3.782   5.172   3.474 -1.8778  1.3355  1.3168
 8681TIP3   OH226006   5.645   0.298   2.155 -0.2114  0.0857 -0.1375
 8681TIP3    H126007   5.595   0.217   2.152  0.7956 -0.5446 -0.3813
 8681TIP3    H226008   5.603   0.349   2.225 -0.0625 -1.1947  0.9352
 8682TIP3   OH226009   4.555   0.274   3.326  0.1840 -0.5969  0.2612
 8682TIP3    H126010   4.489   0.214   3.361 -2.0338  1.0186 -0.9442
 8682TIP3    H226011   4.537   0.358   3.368  0.1913  0.3418 -1.5015
 8683TIP3   OH226012   3.546   3.969   5.494  0.1243 -0.0985 -0.2319
 8683TIP3    H126013   3.589   3.981   5.409 -2.0404  1.1619 -1.2336
 8683TIP3    H226014   3.526   3.875   5.497 -1.5567  0.1223 -2.1135
 8684TIP3   OH226015   7.048   5.322   2.503  0.2615 -0.0187 -0.2122
 8684TIP3    H126016   7.039   5.291   2.593  2.0642 -2.0583 -0.6535
 8684TIP3    H226017   7.122   5.273   2.468 -0.0475  1.1159 -2.6602
 8685TIP3   OH226018   6.161   0.786   2.430  0.5896  0.1185 -0.2547
 8685TIP3    H126019   6.176   0.699   2.465 -1.6666 -0.7535 -1.2509
 8685TIP3    H226020   6.200   0.845   2.494  0.8050 -1.5509  1.2318
 8686TIP3   OH226021   4.795   2.521   2.700 -0.0740 -0.2382  0.1635
 8686TIP3    H126022   4.736   2.591   2.724  0.8184  0.2783  0.9085
 8686TIP3    H226023   4.813   2.475   2.782  1.4829  0.3547  0.1865
 8687TIP3   OH226024   1.289   0.077   5.709  0.7269 -0.3925 -0.1138
 8687TIP3    H126025   1.309   0.158   5.661 -1.3487 -0.3039 -0.9367
 8687TIP3    H226026   1.230   0.105   5.779  0.4294 -1.1103 -0.0741
 8688TIP3   OH226027   7.057   1.182   3.939  0.3708 -0.0665 -0.0409
 8688TIP3    H126028   6.962   1.187   3.927  0.1519 -0.9759  1.1475
 8688TIP3    H226029   7.081   1.269   3.971 -0.1646 -0.0115  0.2407
 8689TIP3   OH226030   0.153   2.931   1.787  0.0799 -0.4969  0.5683
 8689TIP3    H126031   0.173   2.960   1.875  0.1539  0.3825  0.2693
 8689TIP3    H226032   0.226   2.962   1.734  0.4998 -1.8203  0.3381
 8690TIP3   OH226033   0.827   3.204   2.957 -0.5766 -0.0429 -0.5401
 8690TIP3    H126034   0.737   3.230   2.934 -0.2761 -0.3221 -2.2139
 8690TIP3    H226035   0.872   3.202   2.872  1.3892  1.4774  0.3974
 8691TIP3   OH226036   0.647   4.074   0.056  0.2436  0.3499  0.0932
 8691TIP3    H126037   0.645   4.033  -0.030  1.6796 -1.8278  0.9970
 8691TIP3    H226038   0.598   4.014   0.112  0.1601  1.2266  0.9904
 8692TIP3   OH226039   2.641   2.013   0.172 -0.3780  0.6081  0.1048
 8692TIP3    H126040   2.571   1.956   0.204 -0.7491  1.6771  1.2865
 8692TIP3    H226041   2.696   2.030   0.248  0.4285  0.8420 -0.5096
 8693TIP3   OH226042   2.447   6.564   3.259  0.5717  0.8478  0.1414
 8693TIP3    H126043   2.407   6.540   3.175  0.1642 -0.8820  0.7976
 8693TIP3    H226044   2.375   6.600   3.310 -0.3019 -2.3397  1.3512
 8694TIP3   OH226045   0.758   4.825   1.012  0.1711  0.1428  0.0700
 8694TIP3    H126046   0.675   4.840   0.967  1.1848  0.0018 -1.9647
 8694TIP3    H226047   0.809   4.771   0.952  1.5616 -0.2324  1.5002
 8695TIP3   OH226048   4.771   1.383   0.928  0.4376  0.1188 -0.3190
 8695TIP3    H126049   4.832   1.335   0.873  0.7423 -2.1726  1.8401
 8695TIP3    H226050   4.687   1.339   0.915 -0.8375  2.8857 -2.8338
 8696TIP3   OH226051   6.168   5.839   4.391  0.1305  0.2026 -0.1978
 8696TIP3    H126052   6.239   5.900   4.412  0.6418 -0.6587  0.6585
 8696TIP3    H226053   6.137   5.809   4.476  2.3966 -3.5709 -0.4820
 8697TIP3   OH226054   7.094   2.138   4.960  0.0420 -0.0452 -0.5419
 8697TIP3    H126055   7.160   2.070   4.974  0.6316  0.7556  0.7429
 8697TIP3    H226056   7.093   2.188   5.042 -3.2848 -0.9515  0.1625
 8698TIP3   OH226057   3.946   3.639   4.533  0.2717 -0.3095  0.0626
 8698TIP3    H126058   4.041   3.631   4.524  0.3177 -0.3469  0.5937
 8698TIP3    H226059   3.912   3.589   4.458  0.6556 -1.2716  0.5069
 8699TIP3   OH226060   1.763   5.241   3.915  0.5140  0.3179 -0.1255
 8699TIP3    H126061   1.704   5.315   3.900  0.0380 -0.3249 -1.5557
 8699TIP3    H226062   1.705   5.168   3.935  0.8904 -0.0398 -0.3208
 8700TIP3   OH226063   5.741   2.107   4.495 -0.1973  0.1022 -0.3007
 8700TIP3    H126064   5.675   2.075   4.434 -1.9500  1.4333  0.7984
 8700TIP3    H226065   5.699   2.103   4.581  1.9174 -0.9613  0.7742
 8701TIP3   OH226066   4.711   0.245   4.249 -0.3493 -0.4091 -0.1667
 8701TIP3    H126067   4.792   0.233   4.299  0.5477 -0.9684 -1.6645
 8701TIP3    H226068   4.641   0.224   4.310  0.6661 -0.5180  0.9958
 8702TIP3   OH226069   0.349   3.324   1.569 -0.4037 -0.0472  0.2101
 8702TIP3    H126070   0.417   3.257   1.577  0.6261  0.7253 -1.5777
 8702TIP3    H226071   0.392   3.405   1.596 -0.8214  0.3328 -0.2531
 8703TIP3   OH226072   2.587   4.200   1.300 -0.0384  0.9183  0.1477
 8703TIP3    H126073   2.526   4.140   1.259 -0.3298  1.2308  0.1194
 8703TIP3    H226074   2.534   4.276   1.325  0.2372  0.9718  0.5928
 8704TIP3   OH226075   6.515   0.218   4.307 -0.6826  0.3430 -0.1257
 8704TIP3    H126076   6.560   0.239   4.389 -0.1640 -0.9386 -0.0560
 8704TIP3    H226077   6.515   0.300   4.258  0.4713  0.7206  0.4676
 8705TIP3   OH226078   1.337   4.156   2.563 -0.0296  1.1514 -0.1322
 8705TIP3    H126079   1.266   4.099   2.593  0.3087  1.0576  0.5214
 8705TIP3    H226080   1.305   4.194   2.481  0.2962 -1.0562 -1.3508
 8706TIP3   OH226081   3.093   1.222   4.230 -0.3900 -0.0605 -0.2861
 8706TIP3    H126082   3.093   1.279   4.153  0.0976  1.9242  1.1095
 8706TIP3    H226083   3.183   1.191   4.237 -1.0160 -2.5993 -2.0733
 8707TIP3   OH226084   5.245   6.576   5.027 -0.7407  0.1700  0.0259
 8707TIP3    H126085   5.250   6.665   4.991  0.0460  0.4755  0.8721
 8707TIP3    H226086   5.277   6.584   5.117  0.4740 -1.1768 -0.2538
 8708TIP3   OH226087   5.055   5.352   2.095  0.2444  0.4754 -0.3061
 8708TIP3    H126088   5.129   5.335   2.036  0.8074 -0.2650  0.5769
 8708TIP3    H226089   4.994   5.280   2.078  1.3878 -1.0196  1.4911
 8709TIP3   OH226090   0.140   0.583   3.081  0.7705 -0.3929  0.1309
 8709TIP3    H126091   0.131   0.678   3.074  0.1622 -0.5777 -2.7916
 8709TIP3    H226092   0.229   0.564   3.051  0.3228 -0.8252 -0.9957
 8710TIP3   OH226093   5.204   3.894   0.360 -0.2041  0.1754 -0.2601
 8710TIP3    H126094   5.223   3.848   0.442  1.9511 -0.5923 -1.1079
 8710TIP3    H226095   5.139   3.839   0.316  1.8322 -1.8369 -0.9513
 8711TIP3   OH226096   0.098   1.255   1.435 -0.0053  0.2012  0.3348
 8711TIP3    H126097   0.038   1.329   1.429 -0.8995 -0.5339  0.0012
 8711TIP3    H226098   0.185   1.293   1.418 -0.5381  1.0395 -0.6116
 8712TIP3   OH226099   4.524   0.016   2.295 -0.3604  0.4963  0.0877
 8712TIP3    H126100   4.463   0.010   2.369  0.0152  1.3302  0.4742
 8712TIP3    H226101   4.607   0.041   2.334  0.7434 -2.3730 -0.2124
 8713TIP3   OH226102   3.955   6.448   3.986 -0.3632  0.1040  0.0948
 8713TIP3    H126103   4.023   6.381   3.975 -0.7153 -0.2091 -0.1716
 8713TIP3    H226104   3.956   6.467   4.080 -0.2815 -0.2936  0.1767
 8714TIP3   OH226105   4.695   0.946   1.348 -0.0953 -1.1983  0.4444
 8714TIP3    H126106   4.662   0.944   1.438 -2.9720 -2.6010 -0.5029
 8714TIP3    H226107   4.720   0.855   1.330 -2.8707 -1.7644 -1.1461
 8715TIP3   OH226108   1.041   0.136   4.205 -0.0183 -0.0814  0.0212
 8715TIP3    H126109   1.134   0.160   4.214  0.2508 -0.2712 -1.9565
 8715TIP3    H226110   1.042   0.040   4.203 -0.3463 -0.1036  0.5737
 8716TIP3   OH226111   1.982   2.986   2.625 -0.2530 -0.1319  0.2971
 8716TIP3    H126112   1.895   3.017   2.651 -1.8578 -3.2314 -0.8282
 8716TIP3    H226113   1.991   2.901   2.668  2.4797  0.2995  0.7292
 8717TIP3   OH226114   5.820   6.615   1.157  0.4976 -0.2462 -0.1866
 8717TIP3    H126115   5.893   6.587   1.102  2.0640  4.6721 -1.1142
 8717TIP3    H226116   5.843   6.584   1.245  0.6326 -3.6448 -1.2688
 8718TIP3   OH226117   4.422   1.940   1.345  0.0869 -0.4169  0.0126
 8718TIP3    H126118   4.517   1.932   1.335  0.2400 -0.1515  1.0989
 8718TIP3    H226119   4.394   1.992   1.270  0.9818  0.5916  0.3478
 8719TIP3   OH226120   1.001   6.740   4.466  0.2322 -0.0259  0.1155
 8719TIP3    H126121   1.028   6.747   4.557 -2.3992 -0.0099  0.9986
 8719TIP3    H226122   1.031   6.821   4.425 -0.5271  1.0464  1.5922
 8720TIP3   OH226123   4.101   1.259   4.279  0.1397  0.6945  0.2209
 8720TIP3    H126124   4.169   1.215   4.330  0.3795 -0.0558 -0.7192
 8720TIP3    H226125   4.147   1.327   4.230  0.2413  0.1474 -0.4618
 8721TIP3   OH226126   5.114   6.052   0.164  0.1861  0.1334 -0.1021
 8721TIP3    H126127   5.099   5.963   0.132  1.5046 -0.1413 -0.0100
 8721TIP3    H226128   5.148   6.099   0.088 -1.4025  0.8586 -0.4255
 8722TIP3   OH226129   2.067   0.656   0.915 -0.2100 -0.2973  0.2466
 8722TIP3    H126130   2.162   0.658   0.902 -0.1102 -1.9088  0.5185
 8722TIP3    H226131   2.034   0.604   0.842 -0.9227  0.3605  0.0821
 8723TIP3   OH226132   1.815   5.717   0.180 -0.0001 -0.3212 -0.1056
 8723TIP3    H126133   1.741   5.778   0.187  0.1572 -0.1710  0.3324
 8723TIP3    H226134   1.824   5.700   0.087  1.0751  1.7266 -0.4328
 8724TIP3   OH226135   1.335   6.418   3.079 -0.2032  0.3774  0.1351
 8724TIP3    H126136   1.412   6.472   3.094  1.5659 -2.1288  0.5917
 8724TIP3    H226137   1.298   6.450   2.996 -0.0570  3.0828  1.0218
 8725TIP3   OH226138   4.732   2.310   1.491  0.6994 -0.2146  0.2661
 8725TIP3    H126139   4.787   2.233   1.481  0.9000 -0.1447  0.7530
 8725TIP3    H226140   4.682   2.293   1.571  0.3007 -0.1040  0.0427
 8726TIP3   OH226141   3.700   2.040   0.716 -0.2566 -0.3121  0.0448
 8726TIP3    H126142   3.660   1.968   0.765 -2.4656 -0.3796 -1.6707
 8726TIP3    H226143   3.755   1.997   0.651  0.8793 -0.2952  0.9620
 8727TIP3   OH226144   2.577   4.645   3.894 -0.5911  0.1979  0.8030
 8727TIP3    H126145   2.499   4.595   3.871  0.5355 -0.9041 -0.8084
 8727TIP3    H226146   2.545   4.734   3.908 -1.9524  0.0694 -1.1452
 8728TIP3   OH226147   1.923   0.592   1.141  0.0971 -0.0009 -0.2975
 8728TIP3    H126148   1.978   0.642   1.082 -1.2294 -1.8190 -3.3440
 8728TIP3    H226149   1.845   0.646   1.153  0.1499  0.1549 -0.6562
 8729TIP3   OH226150   3.083   5.136   2.860 -0.0650 -0.3413  0.8675
 8729TIP3    H126151   3.012   5.197   2.839 -0.0124  0.0365  1.7693
 8729TIP3    H226152   3.107   5.156   2.950 -0.0239 -1.6740  1.1791
 8730TIP3   OH226153   6.412   2.067   3.342 -0.3770  0.1843 -0.5777
 8730TIP3    H126154   6.359   2.021   3.277 -0.5872  2.7954 -2.4103
 8730TIP3    H226155   6.371   2.045   3.426 -0.6742 -2.5443 -1.3269
 8731TIP3   OH226156   7.113   0.192   4.521  0.2238  0.1261  0.6652
 8731TIP3    H126157   7.203   0.192   4.488  0.5457  0.7982  1.4943
 8731TIP3    H226158   7.120   0.231   4.608 -0.9517  0.6879  0.5204
 8732TIP3   OH226159   0.210   0.531   4.736 -0.8580 -0.6977 -0.0753
 8732TIP3    H126160   0.233   0.571   4.652 -1.8115 -0.4504 -0.2419
 8732TIP3    H226161   0.126   0.488   4.719 -0.3064 -1.9888  0.3549
 8733TIP3   OH226162   6.408   2.145   1.542 -0.5304 -0.0885 -0.2787
 8733TIP3    H126163   6.339   2.110   1.486  1.4842 -1.8958 -1.8157
 8733TIP3    H226164   6.485   2.151   1.485  0.8069  1.1136  1.5262
 8734TIP3   OH226165   2.481   2.215   4.689  0.4075  0.2803 -0.2554
 8734TIP3    H126166   2.491   2.188   4.780 -2.5429 -1.4256 -0.3174
 8734TIP3    H226167   2.400   2.265   4.687  0.5005  0.4220 -1.9230
 8735TIP3   OH226168   3.271   5.516   2.807  0.2065  0.2310 -0.7403
 8735TIP3    H126169   3.313   5.460   2.741  1.4543  0.1254  0.1050
 8735TIP3    H226170   3.309   5.487   2.890  0.5256  2.0004 -0.2385
 8736TIP3   OH226171   2.944   0.245   4.552  0.3390  0.6700 -0.3388
 8736TIP3    H126172   3.009   0.176   4.541 -0.3637  0.0126 -0.4789
 8736TIP3    H226173   2.916   0.237   4.643 -0.7875 -0.1975 -0.7386
 8737TIP3   OH226174   3.831   5.021   4.554  0.0397  0.0552 -0.0525
 8737TIP3    H126175   3.809   4.928   4.549  2.9529 -0.7610  0.5686
 8737TIP3    H226176   3.825   5.052   4.463  1.3912 -1.3810 -0.6618
 8738TIP3   OH226177   0.889   0.871   4.851 -0.3245  0.3387 -0.1202
 8738TIP3    H126178   0.850   0.854   4.765 -0.4946  0.8307 -0.1397
 8738TIP3    H226179   0.935   0.954   4.842  0.4305 -0.0568  0.0102
 8739TIP3   OH226180   6.747   2.008   2.024 -0.2427  0.3383 -0.1819
 8739TIP3    H126181   6.766   2.081   1.966 -1.7959  0.8244 -0.1092
 8739TIP3    H226182   6.827   1.997   2.076  0.7916  0.5613 -1.6739
 8740TIP3   OH226183   6.755   2.217   4.140  0.1483 -0.0135 -0.4001
 8740TIP3    H126184   6.661   2.225   4.156  0.1272 -0.5599 -0.2423
 8740TIP3    H226185   6.789   2.174   4.218  0.5500  0.2831 -0.4070
 8741TIP3   OH226186   5.972   2.486   3.802  0.6158 -0.4540  0.1073
 8741TIP3    H126187   6.056   2.488   3.756 -1.1296  1.1603 -3.4201
 8741TIP3    H226188   5.920   2.421   3.755 -0.8858  0.3860  0.5203
 8742TIP3   OH226189   5.537   1.774   5.836  0.0545  0.0718 -0.3930
 8742TIP3    H126190   5.492   1.838   5.891  1.7356  0.4094  0.6683
 8742TIP3    H226191   5.590   1.827   5.777 -1.1327 -0.3119 -1.8778
 8743TIP3   OH226192   4.587   1.531   2.258  0.0409  0.0947  0.4968
 8743TIP3    H126193   4.654   1.465   2.278 -0.5045 -0.2026  1.4129
 8743TIP3    H226194   4.527   1.486   2.197  0.5763  0.3099 -0.1999
 8744TIP3   OH226195   3.569   2.268   2.185 -0.1043  0.0887  0.0394
 8744TIP3    H126196   3.665   2.263   2.187 -0.0745 -2.0520 -1.8636
 8744TIP3    H226197   3.540   2.187   2.227 -1.1340  1.0035  1.1523
 8745TIP3   OH226198   3.062   1.804   0.247 -0.0934 -0.3974 -0.5150
 8745TIP3    H126199   3.079   1.858   0.324 -0.7070 -1.1006  0.1301
 8745TIP3    H226200   3.143   1.807   0.197  0.4415 -0.2295  0.3426
 8746TIP3   OH226201   6.392   1.429   0.080 -0.0521  0.3395 -0.2240
 8746TIP3    H126202   6.402   1.450   0.173 -2.9943 -0.7972  0.4557
 8746TIP3    H226203   6.306   1.463   0.056 -0.6145 -1.9066 -1.7114
 8747TIP3   OH226204   6.520   1.251   4.138 -0.1894 -0.6044 -0.4464
 8747TIP3    H126205   6.431   1.234   4.110  0.2469 -1.7076 -1.2431
 8747TIP3    H226206   6.529   1.200   4.219 -0.4287 -0.0745 -0.0787
 8748TIP3   OH226207   1.582   4.118   0.678 -0.3971  0.0802 -0.3215
 8748TIP3    H126208   1.560   4.026   0.688 -1.5744  0.3905  0.1304
 8748TIP3    H226209   1.578   4.135   0.584  1.9614 -0.8013 -0.6435
 8749TIP3   OH226210   2.195   6.766   1.737  0.2333  0.4034 -0.2402
 8749TIP3    H126211   2.116   6.712   1.742  0.4793  0.1408  1.1185
 8749TIP3    H226212   2.260   6.711   1.693 -0.2959  0.5963 -1.3039
 8750TIP3   OH226213   5.639   5.248   0.860 -0.5627  0.3447 -0.3225
 8750TIP3    H126214   5.684   5.320   0.905  0.8832 -2.0659  2.4281
 8750TIP3    H226215   5.553   5.244   0.903 -0.2081 -0.2338  0.3609
 8751TIP3   OH226216   7.099   0.138   0.555  0.2848  0.2181  0.0994
 8751TIP3    H126217   7.133   0.085   0.628 -0.4043 -1.9940 -1.1047
 8751TIP3    H226218   7.005   0.122   0.555  0.3112 -0.0830 -1.4549
 8752TIP3   OH226219   7.218   4.424   4.428 -0.1171 -0.4907 -0.0853
 8752TIP3    H126220   7.127   4.403   4.407 -0.5882  1.6994 -0.4139
 8752TIP3    H226221   7.213   4.471   4.512  0.7169 -0.4025 -0.0773
 8753TIP3   OH226222   4.888   1.306   3.163 -0.0472  0.9720 -0.5882
 8753TIP3    H126223   4.858   1.252   3.089  0.1562 -0.2334  0.1755
 8753TIP3    H226224   4.924   1.384   3.122 -1.4473  1.0959 -1.6884
 8754TIP3   OH226225   5.304   0.647   1.842 -0.0913  0.0990  0.1598
 8754TIP3    H126226   5.388   0.692   1.832  0.0609 -0.0897  0.5854
 8754TIP3    H226227   5.239   0.714   1.821  0.1698  0.1697 -0.4471
 8755TIP3   OH226228   5.616   2.458   5.250  0.4499 -0.2523  0.4129
 8755TIP3    H126229   5.613   2.368   5.220 -1.3197 -0.2414  0.4672
 8755TIP3    H226230   5.525   2.481   5.267  0.3079  2.6177 -2.8978
 8756TIP3   OH226231   6.837   6.284   2.269  0.1018 -0.4832 -0.3134
 8756TIP3    H126232   6.759   6.303   2.322 -0.6313  1.0278 -1.8432
 8756TIP3    H226233   6.872   6.370   2.246  2.2776 -1.1233  0.3304
 8757TIP3   OH226234   4.324   3.587   0.186  0.0981  0.6117 -0.0343
 8757TIP3    H126235   4.324   3.587   0.282  0.3760 -0.3338 -0.0257
 8757TIP3    H226236   4.411   3.616   0.162  0.2325  0.2538  0.0108
 8758TIP3   OH226237   4.761   5.469   0.398 -0.5941  0.1196  0.3954
 8758TIP3    H126238   4.692   5.535   0.396 -1.1574 -0.4251  1.1494
 8758TIP3    H226239   4.742   5.412   0.324 -2.0509 -1.0853  1.6503
 8759TIP3   OH226240   3.533   6.203   0.635 -0.3629 -0.2252  0.1506
 8759TIP3    H126241   3.624   6.232   0.628  0.2205 -1.8578  0.3825
 8759TIP3    H226242   3.482   6.283   0.631  0.9444  0.6069 -2.1109
 8760TIP3   OH226243   3.722   4.519   0.480 -0.0069  0.1056  0.6604
 8760TIP3    H126244   3.696   4.588   0.419  0.0671 -0.0311  0.4708
 8760TIP3    H226245   3.697   4.552   0.566  0.0821  0.3910  0.5777
 8761TIP3   OH226246   3.823   3.374   0.327  0.8160  0.3097  0.4687
 8761TIP3    H126247   3.732   3.404   0.325  0.5168 -0.5817  0.2153
 8761TIP3    H226248   3.857   3.396   0.241  0.7458  0.3618  0.4538
 8762TIP3   OH226249   3.115   3.427   1.202  0.3561  0.2209 -0.1194
 8762TIP3    H126250   3.035   3.480   1.192  1.2959  1.7804  0.2419
 8762TIP3    H226251   3.158   3.463   1.279  0.7290 -1.5466  0.5423
 8763TIP3   OH226252   3.437   1.048   5.013  0.1137  0.4083  0.1688
 8763TIP3    H126253   3.376   1.048   4.939  0.2012  1.4877  0.0693
 8763TIP3    H226254   3.501   0.981   4.991 -1.2569 -1.0457  0.4786
 8764TIP3   OH226255   2.909   3.725   4.420  0.0084 -0.4838  0.2855
 8764TIP3    H126256   2.994   3.691   4.392 -0.3930 -1.6085  0.3723
 8764TIP3    H226257   2.846   3.659   4.391 -0.6647 -0.5171  1.7439
 8765TIP3   OH226258   1.451   2.529   5.111  0.3174  0.3682 -0.6086
 8765TIP3    H126259   1.370   2.480   5.122 -0.3296  1.4253 -0.5297
 8765TIP3    H226260   1.424   2.611   5.070  1.1225  1.4163  0.8682
 8766TIP3   OH226261   5.844   5.691   2.954  0.4442 -0.2235 -0.2150
 8766TIP3    H126262   5.775   5.749   2.987  0.3690 -1.3553  1.7941
 8766TIP3    H226263   5.796   5.614   2.922  0.5823  0.5028 -2.2777
 8767TIP3   OH226264   3.711   2.972   1.053 -0.2218 -0.2277 -0.0972
 8767TIP3    H126265   3.773   2.943   0.986 -2.4185  0.4420 -2.6210
 8767TIP3    H226266   3.661   2.894   1.075 -1.3952  0.0636 -1.5163
 8768TIP3   OH226267   4.805   6.495   2.375 -0.3779  0.1110  0.0451
 8768TIP3    H126268   4.772   6.557   2.311  0.4023  1.7070  1.1386
 8768TIP3    H226269   4.886   6.460   2.336 -0.4845  0.2525 -0.3018
 8769TIP3   OH226270   3.141   0.169   4.880  0.5091 -0.2784  0.1171
 8769TIP3    H126271   3.143   0.083   4.923  2.6817  0.2513  1.2123
 8769TIP3    H226272   3.096   0.153   4.797  1.6480 -2.6926 -0.1271
 8770TIP3   OH226273   6.386   0.383   2.419  0.5057 -0.0983  0.5583
 8770TIP3    H126274   6.474   0.379   2.457  0.2239 -0.7814  1.1495
 8770TIP3    H226275   6.394   0.341   2.333  1.0109  0.9092  0.0974
 8771TIP3   OH226276   4.958   6.538   2.047  0.4242 -0.0880  0.3166
 8771TIP3    H126277   4.925   6.575   1.965  1.7967  1.5507  0.4500
 8771TIP3    H226278   4.965   6.613   2.106 -0.5659 -1.2372  1.9768
 8772TIP3   OH226279   6.683   2.391   0.914 -0.2935 -0.0436 -0.3121
 8772TIP3    H126280   6.765   2.400   0.961 -1.0855 -1.0078  1.3303
 8772TIP3    H226281   6.669   2.477   0.874  0.5078  0.7647  1.0632
 8773TIP3   OH226282   4.605   0.984   4.165  0.3901  1.0123  0.1811
 8773TIP3    H126283   4.610   0.915   4.098 -0.1390 -0.1642  1.3011
 8773TIP3    H226284   4.695   1.015   4.174  0.9390 -0.6040  0.7012
 8774TIP3   OH226285   1.724   1.653   0.248  0.2525 -0.7311 -0.1084
 8774TIP3    H126286   1.685   1.576   0.208 -1.3724 -0.7967  1.4755
 8774TIP3    H226287   1.794   1.679   0.188 -1.0444 -1.7006 -2.1408
 8775TIP3   OH226288   6.925   2.648   1.913 -0.2961  0.0982 -0.7610
 8775TIP3    H126289   7.012   2.608   1.907 -0.7512 -0.9494 -0.5227
 8775TIP3    H226290   6.871   2.598   1.852 -0.6586  0.9756 -1.1777
 8776TIP3   OH226291   4.435   5.175   0.134  0.1395  0.0895  0.6258
 8776TIP3    H126292   4.367   5.124   0.091  1.0903  0.7238 -1.7852
 8776TIP3    H226293   4.515   5.154   0.088  0.7260  3.0180  0.0844
 8777TIP3   OH226294   1.532   5.194   5.865  0.2027 -0.3918  0.0763
 8777TIP3    H126295   1.625   5.209   5.849  0.0211 -1.0292 -1.9130
 8777TIP3    H226296   1.491   5.280   5.852  0.2482 -0.5976 -1.8124
 8778TIP3   OH226297   5.314   4.192   1.957  1.3152  0.0492 -0.2901
 8778TIP3    H126298   5.335   4.144   2.037  0.3674  0.9483  0.5393
 8778TIP3    H226299   5.239   4.146   1.920 -0.4432  1.5439  1.2079
 8779TIP3   OH226300   2.966   0.527   3.000 -0.0462  0.3702 -0.0606
 8779TIP3    H126301   2.899   0.468   2.966  0.3331  0.0265 -0.2239
 8779TIP3    H226302   2.991   0.490   3.085 -0.8670  1.1305  0.5226
 8780TIP3   OH226303   4.552   5.759   4.099  0.0077 -0.4104  0.1606
 8780TIP3    H126304   4.516   5.672   4.085  1.2702 -1.0760  0.8756
 8780TIP3    H226305   4.611   5.773   4.024 -0.1716 -0.1777  0.0609
 8781TIP3   OH226306   2.830   5.650   0.237 -0.6420 -0.0282  0.3320
 8781TIP3    H126307   2.813   5.692   0.153  0.1060  0.7559  0.5633
 8781TIP3    H226308   2.771   5.575   0.238 -0.9067  0.1475 -0.7419
 8782TIP3   OH226309   3.709   5.063   3.304  0.5734 -0.3572 -0.6029
 8782TIP3    H126310   3.695   4.971   3.281 -3.2783  0.4137 -2.1524
 8782TIP3    H226311   3.785   5.089   3.252  0.9500 -2.3471 -1.1411
 8783TIP3   OH226312   6.534   1.178   4.412 -0.6862 -0.0256 -0.1290
 8783TIP3    H126313   6.591   1.102   4.421  0.1577  0.7736  1.7691
 8783TIP3    H226314   6.584   1.251   4.449 -0.5967  1.9812 -3.7460
 8784TIP3   OH226315   5.014   1.303   4.057 -0.2183  0.1474 -0.1353
 8784TIP3    H126316   5.019   1.396   4.033 -1.0551  0.1478 -0.3231
 8784TIP3    H226317   5.092   1.289   4.112 -0.0357  0.9354 -0.1745
 8785TIP3   OH226318   4.887   3.822   4.350 -0.2685  0.0092 -0.2622
 8785TIP3    H126319   4.948   3.769   4.299  0.0585  1.3514 -1.3324
 8785TIP3    H226320   4.906   3.912   4.324 -1.3382  0.6051  0.9062
 8786TIP3   OH226321   7.101   4.108   1.702 -0.0337 -0.7010 -0.2499
 8786TIP3    H126322   7.167   4.128   1.636 -1.6231  0.1178 -1.6735
 8786TIP3    H226323   7.145   4.123   1.785  1.1752  1.2035 -1.1582
 8787TIP3   OH226324   2.077   2.369   0.161  0.3599  0.3174  0.0763
 8787TIP3    H126325   2.010   2.417   0.209  0.6831 -0.2172  1.0862
 8787TIP3    H226326   2.160   2.397   0.201  0.5453 -1.2333  0.8425
 8788TIP3   OH226327   1.218   3.781   1.863  0.4036 -0.7532  0.3325
 8788TIP3    H126328   1.126   3.756   1.865  0.1949 -0.0097  0.3773
 8788TIP3    H226329   1.264   3.709   1.906 -0.0723 -1.4618 -0.3088
 8789TIP3   OH226330   2.059   2.375   1.780  0.3042  0.0895 -0.4876
 8789TIP3    H126331   2.056   2.290   1.736  0.4758 -0.3104  0.2449
 8789TIP3    H226332   2.120   2.361   1.854 -2.5022 -0.2736  1.9480
 8790TIP3   OH226333   6.068   1.201   4.965  0.5652  0.0656  0.1178
 8790TIP3    H126334   6.042   1.231   5.052 -1.7038  1.8033 -1.0618
 8790TIP3    H226335   6.015   1.123   4.949  1.2904 -0.5068  0.3976
 8791TIP3   OH226336   4.862   6.385   3.180  0.0521  0.6312  0.3536
 8791TIP3    H126337   4.832   6.462   3.228 -1.3154 -0.4654  1.3455
 8791TIP3    H226338   4.815   6.312   3.220  1.1489 -0.7090 -0.6943
 8792TIP3   OH226339   2.146   4.084   5.577 -0.2856 -0.2165  0.1217
 8792TIP3    H126340   2.208   4.156   5.570  1.4752 -1.7003 -0.4152
 8792TIP3    H226341   2.126   4.078   5.670 -0.2734  0.7794  0.2012
 8793TIP3   OH226342   0.956   1.476   0.548 -0.0658 -0.0005  0.6755
 8793TIP3    H126343   0.907   1.547   0.588 -1.2763  0.7829 -1.9378
 8793TIP3    H226344   1.041   1.515   0.526 -0.7638  0.7450 -0.8470
 8794TIP3   OH226345   0.249   2.241   3.404  0.9387 -0.6033 -0.2540
 8794TIP3    H126346   0.190   2.184   3.452  0.3234  0.7186  0.6094
 8794TIP3    H226347   0.200   2.266   3.326  0.2296  0.6588  0.5626
 8795TIP3   OH226348   5.282   0.838   3.106 -0.6857 -0.4875  0.5406
 8795TIP3    H126349   5.367   0.850   3.149 -0.0605  0.6171 -0.9386
 8795TIP3    H226350   5.271   0.743   3.103  0.8104 -0.6734  0.1800
 8796TIP3   OH226351   1.903   5.778   1.887  0.3603 -0.4840 -0.3257
 8796TIP3    H126352   1.942   5.745   1.805  0.6123  0.2430 -0.5033
 8796TIP3    H226353   1.810   5.787   1.867  0.5113  0.2455 -0.7201
 8797TIP3   OH226354   6.542   3.907   3.579 -0.1426  0.5215  0.1958
 8797TIP3    H126355   6.495   3.899   3.496 -1.2424 -1.5513  0.9565
 8797TIP3    H226356   6.556   4.001   3.589 -2.8103  1.1226 -0.8292
 8798TIP3   OH226357   5.027  -0.013   5.136  0.1156 -0.2111  0.5558
 8798TIP3    H126358   5.058   0.046   5.067 -3.2082  1.3373  0.1986
 8798TIP3    H226359   4.949   0.030   5.171 -0.6567 -2.9382  2.5000
 8799TIP3   OH226360   1.178   0.554   0.924 -0.0307 -0.1909 -0.4959
 8799TIP3    H126361   1.187   0.643   0.957  1.0828 -0.2060 -0.6972
 8799TIP3    H226362   1.119   0.511   0.986  0.7376  0.2259  0.5575
 8800TIP3   OH226363   6.693   5.030   1.444  0.6422 -0.2730  0.7395
 8800TIP3    H126364   6.783   5.030   1.478  0.7911 -0.5489  0.3523
 8800TIP3    H226365   6.661   5.119   1.463  1.6656  0.4719 -0.8295
 8801TIP3   OH226366   0.526   4.420   2.966  0.1433  0.0067  0.7377
 8801TIP3    H126367   0.570   4.368   2.899 -1.2666  0.2040 -0.3875
 8801TIP3    H226368   0.596   4.450   3.023  1.8002  2.1215 -2.1729
 8802TIP3   OH226369   5.294   1.896   5.125 -0.0478  0.3651 -0.2810
 8802TIP3    H126370   5.364   1.857   5.072 -0.3580 -0.2582 -0.2377
 8802TIP3    H226371   5.255   1.822   5.171 -1.7347  0.4700 -1.4485
 8803TIP3   OH226372   6.045   6.479   0.207 -0.0517  0.2294 -0.2576
 8803TIP3    H126373   6.086   6.469   0.121 -0.3229  3.2541 -0.8549
 8803TIP3    H226374   5.973   6.541   0.193 -1.3140 -0.6425  1.8251
 8804TIP3   OH226375   6.468   6.070   5.751  0.2458 -0.2425 -0.2189
 8804TIP3    H126376   6.513   6.141   5.795  1.0748 -1.0236  0.2201
 8804TIP3    H226377   6.385   6.062   5.799  0.6219 -0.2931  0.4402
 8805TIP3   OH226378   3.291   3.622   5.712 -0.4419  0.2815 -0.1355
 8805TIP3    H126379   3.258   3.550   5.766  0.1639  0.4870  0.5313
 8805TIP3    H226380   3.379   3.594   5.686 -0.0150  0.9669  0.5194
 8806TIP3   OH226381   1.587   0.120   4.074 -0.0510 -0.0203  0.2948
 8806TIP3    H126382   1.676   0.145   4.050 -0.4062  1.4008  0.3438
 8806TIP3    H226383   1.579   0.145   4.166 -0.9440  1.2564 -0.1030
 8807TIP3   OH226384   4.067   1.050   4.845  0.7073 -0.0414 -0.2919
 8807TIP3    H126385   3.990   1.080   4.894  0.6353  0.2501 -0.5771
 8807TIP3    H226386   4.036   0.974   4.796 -0.1896  1.5922 -2.4976
 8808TIP3   OH226387   3.307   1.963   0.155 -0.1149  0.0469 -0.4682
 8808TIP3    H126388   3.385   1.933   0.109  1.3341  1.6771  0.7630
 8808TIP3    H226389   3.256   2.009   0.088  0.5493 -0.0546 -1.0540
 8809TIP3   OH226390   0.370   1.302   1.038 -0.4069 -0.2284 -0.0008
 8809TIP3    H126391   0.379   1.397   1.029 -0.5335  0.0930  2.5363
 8809TIP3    H226392   0.459   1.269   1.031 -0.1541  0.2776  0.6278
 8810TIP3   OH226393   0.230   1.864   4.553  0.5028  0.2105  0.8122
 8810TIP3    H126394   0.233   1.956   4.577 -0.2750  0.5310 -0.2708
 8810TIP3    H226395   0.322   1.840   4.536  0.7605  0.6421  1.5832
 8811TIP3   OH226396   4.546   6.270   1.890 -0.6614 -0.1671  0.3304
 8811TIP3    H126397   4.475   6.216   1.924 -0.7008 -0.3056  0.0322
 8811TIP3    H226398   4.605   6.282   1.965 -0.3740 -1.0753  0.2606
 8812TIP3   OH226399   1.087   1.616   0.137 -0.4101 -0.0838 -0.4401
 8812TIP3    H126400   1.130   1.680   0.194 -0.2718 -1.5936  1.2681
 8812TIP3    H226401   1.117   1.638   0.049  0.5532  1.4557  0.2344
 8813TIP3   OH226402   6.363   6.288   0.327 -0.2103  0.1793  0.2784
 8813TIP3    H126403   6.354   6.354   0.259 -0.6370 -1.6945 -1.5987
 8813TIP3    H226404   6.279   6.241   0.327  0.3306 -0.8326  1.0033
 8814TIP3   OH226405   0.731   5.016   5.260 -0.4508 -0.7746 -0.4747
 8814TIP3    H126406   0.637   5.003   5.272 -0.5166 -0.3313 -0.4672
 8814TIP3    H226407   0.771   4.938   5.296 -0.9093 -2.0031 -2.4570
 8815TIP3   OH226408   3.233   6.476   0.109  0.3257 -0.1181 -0.0077
 8815TIP3    H126409   3.193   6.559   0.081  0.1507 -0.2554 -0.1706
 8815TIP3    H226410   3.163   6.411   0.097 -0.1969  0.0160  1.9601
 8816TIP3   OH226411   4.988   4.412   1.948 -0.4387 -0.5193  0.1323
 8816TIP3    H126412   5.004   4.413   2.043  1.4180  0.3839 -0.1404
 8816TIP3    H226413   5.061   4.463   1.911 -0.5617 -1.6975 -1.8682
 8817TIP3   OH226414   3.905   3.380   1.034  0.1235  0.5541  0.1342
 8817TIP3    H126415   3.836   3.390   0.968 -1.1962 -1.1077  1.1689
 8817TIP3    H226416   3.888   3.451   1.096 -1.8599 -0.8436  1.3203
 8818TIP3   OH226417   2.904   1.017   5.333  0.4758  0.1569  0.1252
 8818TIP3    H126418   2.847   1.072   5.386 -0.3650  0.1955 -0.7761
 8818TIP3    H226419   2.978   1.074   5.311 -0.4942  1.0650 -0.9944
 8819TIP3   OH226420   0.519   0.140   2.596 -0.2307  0.3762  0.1726
 8819TIP3    H126421   0.480   0.055   2.611  0.5006  0.0069  0.0287
 8819TIP3    H226422   0.511   0.154   2.501 -0.1415  0.3646  0.1634
 8820TIP3   OH226423   3.042   3.233   0.037  0.0928  0.5539 -0.2861
 8820TIP3    H126424   3.067   3.279  -0.043 -0.1944  1.5919  0.2136
 8820TIP3    H226425   3.071   3.290   0.108 -0.7844  0.2419  0.3343
 8821TIP3   OH226426   5.191   2.272   3.236 -0.0552  0.1752 -0.5901
 8821TIP3    H126427   5.229   2.184   3.238 -0.3527  0.0460 -0.5955
 8821TIP3    H226428   5.191   2.299   3.328 -3.6584 -1.4406  0.0540
 8822TIP3   OH226429   4.455   0.215   4.016  0.7275  0.4817  0.0649
 8822TIP3    H126430   4.430   0.185   4.103  2.1816  0.3832  0.4712
 8822TIP3    H226431   4.436   0.309   4.017 -0.7692  0.2099 -0.0911
 8823TIP3   OH226432   1.257   1.910   2.363 -0.0924 -0.2634 -0.0284
 8823TIP3    H126433   1.205   1.829   2.358  0.8329 -0.8163 -1.1048
 8823TIP3    H226434   1.347   1.882   2.350  0.2846  0.9152 -0.0815
 8824TIP3   OH226435   1.512   4.774   1.795  0.1471  0.0054 -0.2182
 8824TIP3    H126436   1.447   4.719   1.838  0.5783 -1.4624 -1.3500
 8824TIP3    H226437   1.463   4.851   1.765 -0.6880 -0.2446  0.4714
 8825TIP3   OH226438   5.514   6.710   4.252  0.1604 -0.3670 -0.2634
 8825TIP3    H126439   5.559   6.737   4.172  0.8084 -1.1574 -0.1821
 8825TIP3    H226440   5.474   6.790   4.286 -0.2965 -0.0644 -1.4885
 8826TIP3   OH226441   6.572   2.846   3.211  0.1433 -0.6803 -0.4065
 8826TIP3    H126442   6.578   2.813   3.121 -1.2016 -0.1181 -0.7395
 8826TIP3    H226443   6.637   2.916   3.215 -0.0181 -0.4759 -1.0744
 8827TIP3   OH226444   0.909   2.369   4.852  0.3265 -0.1501  0.3245
 8827TIP3    H126445   0.970   2.414   4.910 -0.0536 -0.0882  0.6791
 8827TIP3    H226446   0.838   2.339   4.909 -0.3508  0.4323 -0.1846
 8828TIP3   OH226447   0.933   4.048   1.859 -0.3001  0.0717  0.8542
 8828TIP3    H126448   0.949   4.127   1.807  0.6560  0.7117  2.0811
 8828TIP3    H226449   1.020   4.016   1.883 -0.6706 -1.3841  0.3775
 8829TIP3   OH226450   2.149   0.487   4.750 -0.0368 -0.1408 -0.0087
 8829TIP3    H126451   2.189   0.569   4.722 -0.3780  0.0953  0.1817
 8829TIP3    H226452   2.088   0.464   4.680 -0.0315 -0.1665 -0.0052
 8830TIP3   OH226453   5.110   4.615   5.018  1.0864  0.2284 -0.8164
 8830TIP3    H126454   5.115   4.520   5.021  0.1931  0.1911 -0.0017
 8830TIP3    H226455   5.069   4.635   4.934 -0.7060 -0.2326 -0.1011
 8831TIP3   OH226456   6.330   1.736   5.229  0.5869 -0.2209  0.2023
 8831TIP3    H126457   6.316   1.825   5.196  1.8517 -0.3555 -0.7791
 8831TIP3    H226458   6.388   1.695   5.165 -0.3399 -1.9322  0.3906
 8832TIP3   OH226459   5.578   1.248   3.112  0.1818 -0.0186  0.2667
 8832TIP3    H126460   5.608   1.315   3.051 -0.4233  0.2325  0.2362
 8832TIP3    H226461   5.623   1.267   3.194  0.6285 -0.0673  0.0367
 8833TIP3   OH226462   0.506   4.532   2.102  0.3764 -0.1819  0.3096
 8833TIP3    H126463   0.467   4.446   2.085 -2.4741  1.1129 -0.2914
 8833TIP3    H226464   0.529   4.565   2.015  2.6965 -0.7628  0.6249
 8834TIP3   OH226465   0.555   5.835   5.244  0.0349 -0.6506 -0.0779
 8834TIP3    H126466   0.622   5.855   5.309 -1.3304 -1.5781  1.7210
 8834TIP3    H226467   0.476   5.819   5.295 -0.9728 -2.0676 -1.9343
 8835TIP3   OH226468   6.789   2.659   2.402 -1.1463 -0.5578  0.4918
 8835TIP3    H126469   6.806   2.748   2.433 -2.4629 -0.9188  2.4530
 8835TIP3    H226470   6.774   2.669   2.308 -1.5468  1.3509  0.7047
 8836TIP3   OH226471   7.106   2.918   3.008  0.4647  0.4550 -0.2623
 8836TIP3    H126472   7.047   2.870   3.065  2.2913 -0.7959  0.6719
 8836TIP3    H226473   7.083   3.010   3.021 -1.9206 -0.0124 -0.7372
 8837TIP3   OH226474   1.399   1.301   5.792  0.0614  0.2009  0.1092
 8837TIP3    H126475   1.463   1.295   5.864 -0.7742 -0.4313  0.8148
 8837TIP3    H226476   1.426   1.234   5.730 -0.7777 -1.1262  1.1269
 8838TIP3   OH226477   5.284   0.925   0.475 -0.2583  0.3378 -0.2943
 8838TIP3    H126478   5.295   0.930   0.570 -1.9425 -0.6755  0.0115
 8838TIP3    H226479   5.362   0.879   0.444  0.4391  0.9161  0.5560
 8839TIP3   OH226480   2.412   2.863   3.782 -0.0257  0.2967  0.1061
 8839TIP3    H126481   2.345   2.861   3.713  0.4868  2.7827 -0.5601
 8839TIP3    H226482   2.474   2.795   3.757 -1.3833 -0.8575 -0.2239
 8840TIP3   OH226483   4.104   3.688   0.056  0.3694 -0.0184 -0.0509
 8840TIP3    H126484   4.182   3.679   0.110  0.4777  0.1124 -0.1825
 8840TIP3    H226485   4.043   3.622   0.089  0.3447  0.2171  0.3855
 8841TIP3   OH226486   1.783   4.586   2.336  0.1056 -0.1032 -0.1434
 8841TIP3    H126487   1.849   4.654   2.349  0.6319 -0.8942  1.6126
 8841TIP3    H226488   1.826   4.520   2.282 -0.0565  0.4652 -0.9768
 8842TIP3   OH226489   4.966   2.405   1.190 -0.4292 -0.1495 -0.3089
 8842TIP3    H126490   4.958   2.402   1.095 -1.2592  1.5856 -0.3345
 8842TIP3    H226491   4.987   2.315   1.215 -2.2951 -1.1336 -1.9539
 8843TIP3   OH226492   6.466   0.713   0.549 -0.4802 -0.0684 -0.4870
 8843TIP3    H126493   6.398   0.674   0.605 -0.6004  2.3246  1.1617
 8843TIP3    H226494   6.548   0.691   0.592 -0.3603 -0.6290 -0.9808
 8844TIP3   OH226495   4.437   4.423   0.648 -0.1675 -0.6328  0.0278
 8844TIP3    H126496   4.455   4.334   0.678  0.0980 -0.2187  1.1526
 8844TIP3    H226497   4.376   4.458   0.712 -0.2838 -0.0039 -0.4152
 8845TIP3   OH226498   0.643   6.608   1.792 -0.0798 -0.0970  0.1188
 8845TIP3    H126499   0.676   6.697   1.806 -0.9780  0.3011 -0.2354
 8845TIP3    H226500   0.717   6.560   1.755  0.1785  0.7064 -0.4129
 8846TIP3   OH226501   6.952   0.065   0.216  0.2843 -0.2255  0.1357
 8846TIP3    H126502   6.959  -0.015   0.165  0.5126 -0.7160  0.9381
 8846TIP3    H226503   7.011   0.054   0.289 -0.6913  0.1019  1.0061
 8847TIP3   OH226504   0.811   5.687   5.711 -0.9327  0.1506  0.0027
 8847TIP3    H126505   0.731   5.667   5.662  0.0030 -0.5968 -1.2929
 8847TIP3    H226506   0.825   5.610   5.766 -0.1592 -0.5164 -1.0999
 8848TIP3   OH226507   2.253   2.128   3.778  0.3988 -0.1024  0.3264
 8848TIP3    H126508   2.308   2.138   3.856  1.3589 -0.5314 -0.2738
 8848TIP3    H226509   2.310   2.152   3.705  0.0554 -1.3481 -0.3804
 8849TIP3   OH226510   2.912   6.633   2.248 -0.1145 -0.3290  0.3479
 8849TIP3    H126511   2.934   6.545   2.217 -1.1119 -1.3407  2.3227
 8849TIP3    H226512   2.991   6.663   2.293 -0.0366 -0.5536  0.3620
 8850TIP3   OH226513   5.757   4.591   0.585  0.5566  0.2284 -0.0404
 8850TIP3    H126514   5.749   4.653   0.657 -1.3446 -0.9052  0.7798
 8850TIP3    H226515   5.680   4.607   0.531 -0.4907 -1.9937  0.7005
 8851TIP3   OH226516   0.529   1.574   5.815  0.9651 -0.2645  0.6793
 8851TIP3    H126517   0.580   1.521   5.754  3.0715  1.9118  0.4238
 8851TIP3    H226518   0.544   1.664   5.788 -4.1489  0.6261 -0.2347
 8852TIP3   OH226519   3.133   5.931   3.607 -0.1631  0.7096  0.0186
 8852TIP3    H126520   3.061   5.949   3.546 -2.0493 -1.8110  1.2721
 8852TIP3    H226521   3.108   5.848   3.648  3.1870  0.0668  1.0405
 8853TIP3   OH226522   4.092   2.965   5.368  0.2512 -0.3369 -0.6115
 8853TIP3    H126523   4.077   2.886   5.315  2.0073 -0.3199 -1.1758
 8853TIP3    H226524   4.116   3.032   5.304  0.5174  0.1885  0.0379
 8854TIP3   OH226525   6.734   1.739   1.637  0.0738  0.1706 -0.0696
 8854TIP3    H126526   6.665   1.699   1.585  1.2258  0.1860 -1.6655
 8854TIP3    H226527   6.715   1.833   1.635  0.3699  0.2167 -0.8625
 8855TIP3   OH226528   6.591   5.781   4.573  0.0012 -0.0643  0.2139
 8855TIP3    H126529   6.611   5.851   4.634  0.8435  0.5193 -0.7062
 8855TIP3    H226530   6.501   5.799   4.545  0.6870  1.5272 -1.1156
 8856TIP3   OH226531   1.833   5.600   5.561  0.1469 -0.0023  0.0035
 8856TIP3    H126532   1.777   5.568   5.491  0.0225  2.8771 -1.3536
 8856TIP3    H226533   1.918   5.561   5.544  0.3858  1.3776 -2.4640
 8857TIP3   OH226534   0.812   6.307   3.915 -0.2000  0.4525  0.3246
 8857TIP3    H126535   0.781   6.351   3.836  0.3004 -0.9336 -0.6863
 8857TIP3    H226536   0.893   6.351   3.937  0.0323  0.3921 -0.3753
 8858TIP3   OH226537   3.226   3.274   3.818 -0.4328 -0.2554  0.0997
 8858TIP3    H126538   3.303   3.241   3.772 -0.3374 -0.4794  0.4181
 8858TIP3    H226539   3.249   3.268   3.910 -0.5515  0.3704  0.1709
 8859TIP3   OH226540   3.067   2.491   1.002  0.3098  0.1434 -0.5132
 8859TIP3    H126541   3.128   2.516   0.933  1.3498  1.9248  0.9585
 8859TIP3    H226542   3.016   2.570   1.020  2.9344  1.2877  3.5009
 8860TIP3   OH226543   6.394   1.428   3.192  0.3155  0.8557  0.0121
 8860TIP3    H126544   6.426   1.343   3.163  0.8525  1.1452 -0.2640
 8860TIP3    H226545   6.301   1.414   3.212 -0.3229  0.8108 -2.6415
 8861TIP3   OH226546   4.788   6.509   5.278  0.1453 -0.1404  0.3255
 8861TIP3    H126547   4.801   6.571   5.207  0.6351  0.4432  0.9100
 8861TIP3    H226548   4.876   6.493   5.313 -0.1909  0.4976  1.5454
 8862TIP3   OH226549   0.505   1.138   0.862  0.1422  0.3891  0.3512
 8862TIP3    H126550   0.599   1.151   0.858  0.0600  0.9647 -3.0994
 8862TIP3    H226551   0.472   1.174   0.779 -3.0410 -0.3176  1.1532
 8863TIP3   OH226552   4.438   0.112   0.760 -0.2011  0.0435  1.1733
 8863TIP3    H126553   4.346   0.138   0.752  0.1318  0.9660 -0.0385
 8863TIP3    H226554   4.462   0.138   0.849 -0.7417  1.1301  1.0236
 8864TIP3   OH226555   5.802   2.291   1.564 -0.4208  0.1985 -0.1189
 8864TIP3    H126556   5.870   2.246   1.514 -1.1437 -0.5922 -0.4072
 8864TIP3    H226557   5.741   2.324   1.499 -1.4288 -0.9344  0.2082
 8865TIP3   OH226558   0.729   6.641   0.195 -0.3405 -0.0739 -0.1318
 8865TIP3    H126559   0.719   6.554   0.156  0.5763  0.2610 -1.1552
 8865TIP3    H226560   0.799   6.630   0.260 -1.4871 -0.5020  1.0789
 8866TIP3   OH226561   4.790   6.586   5.661  0.2217 -0.2031 -0.1082
 8866TIP3    H126562   4.759   6.508   5.616 -2.0573  0.2677  0.5479
 8866TIP3    H226563   4.883   6.590   5.639 -0.1967 -1.5206 -2.4301
 8867TIP3   OH226564   7.232   4.923   3.221  1.1500 -0.3674 -0.0763
 8867TIP3    H126565   7.188   4.846   3.186  2.9496 -0.4032 -2.4943
 8867TIP3    H226566   7.182   4.997   3.188 -0.0991 -0.4059  1.5793
 8868TIP3   OH226567   5.343   6.630   5.274 -0.4324  0.0865  0.4035
 8868TIP3    H126568   5.406   6.702   5.286  1.6608 -1.6370  0.2336
 8868TIP3    H226569   5.331   6.595   5.362 -0.6561 -0.0111  0.3337
 8869TIP3   OH226570   7.059   1.040   1.649 -0.0231 -0.3928 -0.2836
 8869TIP3    H126571   7.055   0.957   1.601  0.4770  0.0161 -1.0618
 8869TIP3    H226572   7.152   1.051   1.669 -0.0628  0.0661 -0.3470
 8870TIP3   OH226573   4.986   3.542   3.042  0.0562 -0.5962  0.0966
 8870TIP3    H126574   5.051   3.499   2.986  1.0405 -1.7314  2.0179
 8870TIP3    H226575   5.028   3.625   3.067 -0.7075  0.2844 -1.3936
 8871TIP3   OH226576   1.877   3.957   3.431 -0.0269  0.0766 -0.0931
 8871TIP3    H126577   1.831   3.875   3.453  1.9917 -1.1512 -0.2295
 8871TIP3    H226578   1.961   3.928   3.395  0.5703  2.2300 -0.5276
 8872TIP3   OH226579   7.104   1.178   0.113  0.1220  0.3504  0.0937
 8872TIP3    H126580   7.142   1.263   0.092 -2.0102  1.0866 -1.1632
 8872TIP3    H226581   7.025   1.200   0.164  0.5663 -0.9955  1.4040
 8873TIP3   OH226582   0.345   0.672   3.939 -0.0852 -0.3929  0.3721
 8873TIP3    H126583   0.298   0.606   3.889  0.3880  0.7470 -1.6731
 8873TIP3    H226584   0.306   0.755   3.913  2.5095  0.5432 -0.9148
 8874TIP3   OH226585   0.698   2.091   5.853 -0.4590  0.3726  0.0316
 8874TIP3    H126586   0.766   2.123   5.914 -2.4376 -0.7539  3.0554
 8874TIP3    H226587   0.669   2.170   5.807  0.4646  1.4680  1.2406
 8875TIP3   OH226588   3.419   6.103   4.366 -0.2849 -0.1924  0.3233
 8875TIP3    H126589   3.384   6.014   4.359 -0.5083 -0.1170  0.4622
 8875TIP3    H226590   3.421   6.135   4.275 -0.6786 -0.1600  0.3253
 8876TIP3   OH226591   0.394   5.041   4.545 -0.5356 -0.1997  0.3700
 8876TIP3    H126592   0.466   5.092   4.507 -0.9016 -1.0754 -1.5935
 8876TIP3    H226593   0.316   5.094   4.528 -0.3576  1.1727  3.2687
 8877TIP3   OH226594   5.149   6.190   3.693 -0.3560  0.1046 -0.1569
 8877TIP3    H126595   5.224   6.171   3.637 -1.0681 -4.1423 -0.0614
 8877TIP3    H226596   5.163   6.135   3.770 -1.8077  2.0767  1.6273
 8878TIP3   OH226597   0.666   3.479   0.094  0.2211  0.3469  0.8971
 8878TIP3    H126598   0.627   3.505   0.011 -1.5336  0.3044  1.6656
 8878TIP3    H226599   0.745   3.430   0.069  1.1811  2.5202 -0.6615
 8879TIP3   OH226600   3.328   4.953   1.010  0.6817  0.4335 -0.1227
 8879TIP3    H126601   3.402   4.896   1.028 -0.9978 -1.3698  1.4560
 8879TIP3    H226602   3.287   4.917   0.932  0.7076  0.6555 -0.2420
 8880TIP3   OH226603   2.682   2.355   3.135 -0.0336  0.2924 -0.2282
 8880TIP3    H126604   2.638   2.429   3.093 -1.8702 -0.8531 -0.4175
 8880TIP3    H226605   2.739   2.318   3.067 -1.3602 -0.2535 -1.0671
 8881TIP3   OH226606   7.070   1.146   3.217  0.7114  0.3133  0.3880
 8881TIP3    H126607   7.060   1.055   3.246 -0.6202 -0.1113 -1.2094
 8881TIP3    H226608   7.028   1.148   3.130 -0.3864  2.7052  0.8863
 8882TIP3   OH226609   4.931   0.334   2.852 -0.0873  0.4882  0.3747
 8882TIP3    H126610   4.883   0.343   2.935 -0.5415  0.1292  0.1550
 8882TIP3    H226611   4.988   0.258   2.866  0.0484  0.6058  0.4601
 8883TIP3   OH226612   6.153   1.327   3.303  0.4335 -0.1918 -1.1609
 8883TIP3    H126613   6.143   1.259   3.236 -0.4735 -0.9088 -0.3180
 8883TIP3    H226614   6.076   1.318   3.358  0.4710  1.3280 -0.8393
 8884TIP3   OH226615   1.037   5.802   5.647  0.4529 -0.1284 -0.0453
 8884TIP3    H126616   0.959   5.758   5.682 -0.1289  0.4769 -0.5553
 8884TIP3    H226617   1.071   5.852   5.722  0.6798 -0.8256  0.3289
 8885TIP3   OH226618   2.568   1.528   2.390 -0.4242 -0.3719  0.3986
 8885TIP3    H126619   2.630   1.601   2.382  1.5207 -2.0603 -0.8328
 8885TIP3    H226620   2.482   1.569   2.380  0.5389  1.8258  0.3999
 8886TIP3   OH226621   1.560   2.981   0.631 -0.1244 -0.2296 -0.3061
 8886TIP3    H126622   1.626   2.934   0.681 -1.9533 -0.3283  2.2271
 8886TIP3    H226623   1.538   3.056   0.686 -3.4403 -1.2557 -0.0136
 8887TIP3   OH226624   4.911   5.148   0.809 -0.1934  0.0464 -0.0924
 8887TIP3    H126625   4.959   5.090   0.869 -0.3571 -0.7748 -0.7411
 8887TIP3    H226626   4.828   5.104   0.795 -0.1165  0.1878 -1.0024
 8888TIP3   OH226627   6.882   6.698   1.466  0.0374 -0.1788 -0.2933
 8888TIP3    H126628   6.961   6.698   1.520 -0.3793 -0.5251  0.3240
 8888TIP3    H226629   6.872   6.789   1.438  0.6924 -0.1466 -0.4444
 8889TIP3   OH226630   2.208   6.020   4.055  0.3893  0.1969 -0.2170
 8889TIP3    H126631   2.145   5.951   4.033  0.1358 -0.5278  2.4093
 8889TIP3    H226632   2.290   5.973   4.072  0.2693  0.4851  1.3794
 8890TIP3   OH226633   2.455   2.621   5.813  0.5601  0.2340 -0.2509
 8890TIP3    H126634   2.432   2.612   5.906  1.1403  1.2277  0.0119
 8890TIP3    H226635   2.385   2.576   5.766 -0.2741  0.5776  0.6283
 8891TIP3   OH226636   4.419   4.127   4.643  0.1709  0.0316 -0.6901
 8891TIP3    H126637   4.481   4.087   4.582  0.9230 -1.8234  1.1733
 8891TIP3    H226638   4.439   4.086   4.728 -2.9000  0.1635  0.1953
 8892TIP3   OH226639   0.019   2.777   5.289 -0.7729  0.1000 -0.3432
 8892TIP3    H126640   0.080   2.818   5.351 -0.5892  1.5498 -1.4141
 8892TIP3    H226641  -0.063   2.769   5.338  0.1193 -1.5163  0.9920
 8893TIP3   OH226642   3.525   5.352   3.744  0.0540  0.4328  0.8004
 8893TIP3    H126643   3.541   5.445   3.728 -0.4844  0.4674  0.4160
 8893TIP3    H226644   3.553   5.309   3.662 -2.1646  0.5445 -0.0914
 8894TIP3   OH226645   2.313   0.701   2.219  0.5003  0.1849 -0.4970
 8894TIP3    H126646   2.329   0.772   2.157  0.8099  0.7956  0.2627
 8894TIP3    H226647   2.288   0.745   2.300  0.4980 -0.5831 -0.0680
 8895TIP3   OH226648   4.387   2.335   3.200 -0.2904  0.3335 -0.0052
 8895TIP3    H126649   4.411   2.242   3.202 -1.1797 -0.0504 -2.9117
 8895TIP3    H226650   4.470   2.381   3.210  0.5900 -0.8535 -1.4502
 8896TIP3   OH226651   4.985   0.737   4.431 -0.6679  0.0719 -0.2101
 8896TIP3    H126652   4.972   0.822   4.389 -0.6560  0.3488  0.3432
 8896TIP3    H226653   4.937   0.675   4.375 -3.4069  0.8756  1.0556
 8897TIP3   OH226654   3.489   2.639   0.227 -0.0665  0.6011 -0.8654
 8897TIP3    H126655   3.533   2.557   0.205  0.6732  0.9227 -0.6160
 8897TIP3    H226656   3.433   2.657   0.152 -1.5002 -0.9684 -0.2203
 8898TIP3   OH226657   5.241   3.523   0.954  0.1989 -0.0982  0.1750
 8898TIP3    H126658   5.169   3.466   0.926 -0.4932  0.5344  0.6564
 8898TIP3    H226659   5.309   3.462   0.984  1.5721 -0.9756 -3.9343
 8899TIP3   OH226660   6.244   2.076   2.479  0.2435  0.1461 -0.3695
 8899TIP3    H126661   6.243   2.024   2.398 -2.0696  0.8977 -0.8848
 8899TIP3    H226662   6.228   2.166   2.449 -1.0356  0.3809  0.9286
 8900TIP3   OH226663   2.239   3.726   0.090 -0.0467  0.8447 -0.1569
 8900TIP3    H126664   2.327   3.690   0.105 -0.8659 -0.9106  0.7256
 8900TIP3    H226665   2.251   3.821   0.091  1.6070  0.6641  1.4345
 8901TIP3   OH226666   3.311   1.138   3.482  0.0680 -0.0433 -0.0833
 8901TIP3    H126667   3.304   1.061   3.538  2.1844 -1.1475 -1.1923
 8901TIP3    H226668   3.285   1.108   3.395  0.0015  0.7574 -0.3540
 8902TIP3   OH226669   5.045   6.627   4.365 -0.5143 -0.2462 -0.5049
 8902TIP3    H126670   5.108   6.572   4.411 -0.6785  0.5250  0.6960
 8902TIP3    H226671   5.088   6.650   4.283  1.3627  1.3500  0.8499
 8903TIP3   OH226672   6.803   4.853   0.264  0.0358  0.1322  0.3389
 8903TIP3    H126673   6.771   4.764   0.278 -0.1628  0.1981  0.3117
 8903TIP3    H226674   6.885   4.842   0.216 -0.6600  0.0164 -0.8514
 8904TIP3   OH226675   5.529   0.608   0.130  0.2209  0.1604 -0.1732
 8904TIP3    H126676   5.603   0.667   0.144  1.2576 -1.3571  1.1071
 8904TIP3    H226677   5.509   0.617   0.037  0.7620  2.0037 -0.1602
 8905TIP3   OH226678   2.737   1.430   5.450 -0.3210  0.9721  0.5882
 8905TIP3    H126679   2.738   1.494   5.521  0.7108  1.2432  0.3472
 8905TIP3    H226680   2.780   1.352   5.487 -1.5318  0.4164  0.8676
 8906TIP3   OH226681   3.188   3.215   0.996 -0.3244 -0.1675  0.2334
 8906TIP3    H126682   3.191   3.248   0.906 -2.9817 -1.0595 -0.2809
 8906TIP3    H226683   3.169   3.292   1.049 -1.5471 -0.0210 -0.3637
 8907TIP3   OH226684   5.373   5.563   4.578  0.0348  0.0744 -0.0398
 8907TIP3    H126685   5.367   5.600   4.490  0.6387 -2.0549 -1.0313
 8907TIP3    H226686   5.308   5.612   4.629 -3.0177 -0.9895 -2.5501
 8908TIP3   OH226687   6.419   4.699   3.305 -0.2246 -0.2343 -0.1257
 8908TIP3    H126688   6.512   4.710   3.324 -0.6685  1.3952  1.3010
 8908TIP3    H226689   6.407   4.739   3.219  0.4412 -0.8147 -0.5027
 8909TIP3   OH226690   2.387   4.766   0.771  0.3881 -0.0980 -0.1156
 8909TIP3    H126691   2.355   4.816   0.846 -0.3685 -0.0195 -0.4820
 8909TIP3    H226692   2.308   4.746   0.720  0.9089  0.0156 -0.9839
 8910TIP3   OH226693   4.443   3.753   4.575  0.1646 -0.4491 -0.0147
 8910TIP3    H126694   4.476   3.801   4.499  1.8246 -0.3436  0.7070
 8910TIP3    H226695   4.521   3.739   4.629 -1.2362  1.4598  2.7630
 8911TIP3   OH226696   1.186   1.252   0.693 -0.0902 -0.5977 -0.0884
 8911TIP3    H126697   1.148   1.164   0.702 -1.1339 -0.0312  1.3560
 8911TIP3    H226698   1.156   1.282   0.607 -0.8574 -1.1408 -0.0231
 8912TIP3   OH226699   6.767   0.347   2.798 -0.1778 -0.4556 -0.2805
 8912TIP3    H126700   6.831   0.352   2.869  0.5041 -0.1574 -0.9000
 8912TIP3    H226701   6.795   0.414   2.735 -2.1928  0.9945  0.2869
 8913TIP3   OH226702   5.033   6.444   5.377  0.5234 -0.7904  0.1197
 8913TIP3    H126703   5.078   6.459   5.460 -1.3855  0.2256  1.0549
 8913TIP3    H226704   5.070   6.509   5.318 -0.0857  0.4682  1.0579
 8914TIP3   OH226705   5.768   3.376   2.271 -0.5711 -0.0049  0.0861
 8914TIP3    H126706   5.761   3.350   2.179 -1.7506 -0.4874  0.2970
 8914TIP3    H226707   5.774   3.294   2.319  0.3684  0.2545  0.4258
 8915TIP3   OH226708   1.009   5.844   0.282  0.2587 -0.2892  0.3405
 8915TIP3    H126709   1.004   5.926   0.330 -0.2234 -0.1676  0.0921
 8915TIP3    H226710   0.960   5.782   0.336  1.6472 -0.7227  1.1318
 8916TIP3   OH226711   5.010   4.060   2.629 -0.7581  0.2707  0.0855
 8916TIP3    H126712   4.995   4.125   2.698 -0.3164 -0.2680  0.6981
 8916TIP3    H226713   5.065   3.993   2.670 -0.8042 -0.2517 -0.6796
 8917TIP3   OH226714  -0.021   2.030   4.012 -0.5450  0.5159 -0.3312
 8917TIP3    H126715   0.040   2.035   4.086 -1.5256 -0.2804  0.5644
 8917TIP3    H226716   0.028   1.983   3.944  0.5257  1.6475 -0.3815
 8918TIP3   OH226717   1.137   5.416   5.615  1.0217  0.1644 -0.6311
 8918TIP3    H126718   1.135   5.492   5.558  0.5348  0.2352 -0.5206
 8918TIP3    H226719   1.143   5.452   5.703  1.4036  0.0612 -0.6112
 8919TIP3   OH226720   3.310   1.021   4.787  0.0762  0.0718  0.1119
 8919TIP3    H126721   3.220   1.053   4.795  0.4177  0.9900  0.5419
 8919TIP3    H226722   3.351   1.081   4.725  1.1027  1.3909  1.9666
 8920TIP3   OH226723   4.217   0.162   1.059 -0.0174  0.3081  0.0297
 8920TIP3    H126724   4.176   0.226   1.000  0.2048  0.6350  0.2286
 8920TIP3    H226725   4.173   0.175   1.142 -1.6898 -1.4652 -0.5178
 8921TIP3   OH226726   0.536   1.979   5.163  0.0453 -0.0681 -0.1762
 8921TIP3    H126727   0.478   2.003   5.090 -1.3059  0.6320  1.0773
 8921TIP3    H226728   0.588   2.057   5.179  1.8519 -0.8936 -1.7018
 8922TIP3   OH226729   1.251   4.490   3.662  0.0907 -0.5894 -0.1524
 8922TIP3    H126730   1.258   4.566   3.720  1.7727 -1.6163  1.0739
 8922TIP3    H226731   1.161   4.461   3.672 -0.0430  0.1011  0.8589
 8923TIP3   OH226732   5.925   3.600   3.289  0.4406  0.1978 -0.2455
 8923TIP3    H126733   5.981   3.550   3.229 -0.6724 -2.8465  1.0123
 8923TIP3    H226734   5.843   3.549   3.294 -1.0293  2.4713  0.8112
 8924TIP3   OH226735   6.542   5.402   3.147 -0.3977  0.7189  0.3895
 8924TIP3    H126736   6.536   5.367   3.236  0.1007  1.4159  0.7122
 8924TIP3    H226737   6.459   5.447   3.134 -0.3798  0.8198  0.6038
 8925TIP3   OH226738   4.615   0.989   4.752 -0.6683 -0.2924 -0.0519
 8925TIP3    H126739   4.652   1.034   4.676 -0.6637 -0.0935  0.0681
 8925TIP3    H226740   4.574   1.059   4.804 -1.1671 -0.5018 -0.1576
 8926TIP3   OH226741   0.833   4.290   4.104  0.3224  0.9692 -0.0047
 8926TIP3    H126742   0.809   4.312   4.193  0.2801  0.5319  0.0965
 8926TIP3    H226743   0.902   4.353   4.081  2.2167 -0.4928  1.2673
 8927TIP3   OH226744   3.722   6.157   2.960  0.0390 -0.5246  0.4681
 8927TIP3    H126745   3.657   6.220   2.991 -0.8487 -0.4313 -1.4496
 8927TIP3    H226746   3.804   6.186   3.001 -0.3900  1.7570 -0.1709
 8928TIP3   OH226747   0.564   0.784   0.480  0.6349  0.3880  0.5822
 8928TIP3    H126748   0.645   0.828   0.508  0.2737  0.8436  0.9175
 8928TIP3    H226749   0.495   0.849   0.493  0.1755 -0.0808  0.5353
 8929TIP3   OH226750   3.464   3.335   2.034 -0.0308 -0.1148 -0.2004
 8929TIP3    H126751   3.482   3.341   1.941  0.9087 -1.3938 -0.1313
 8929TIP3    H226752   3.444   3.242   2.048 -0.9121  0.2015  0.7412
 8930TIP3   OH226753   6.196   0.742   1.116 -0.4189  0.3103  0.1750
 8930TIP3    H126754   6.263   0.793   1.161  1.5577 -1.0537 -1.0467
 8930TIP3    H226755   6.155   0.690   1.186 -0.5211  1.4501  0.9991
 8931TIP3   OH226756   1.026   3.109   5.395 -0.0049  0.1727 -0.2733
 8931TIP3    H126757   0.977   3.167   5.453  1.0297  1.8094 -0.9667
 8931TIP3    H226758   0.961   3.045   5.366 -0.7285 -0.2346  2.0368
 8932TIP3   OH226759   1.639   3.585   0.614 -0.0255  0.5744 -0.2576
 8932TIP3    H126760   1.664   3.606   0.524  0.2787 -1.1599 -0.6301
 8932TIP3    H226761   1.709   3.528   0.645 -0.0124  1.3373  1.1833
 8933TIP3   OH226762   5.713   4.600   0.204  0.3236  0.3344  0.0418
 8933TIP3    H126763   5.721   4.695   0.214 -1.9931  0.6368 -0.4511
 8933TIP3    H226764   5.734   4.566   0.291  1.3154  1.2686  0.1903
 8934TIP3   OH226765   7.185   0.309   5.121 -0.3831 -0.1839  0.0529
 8934TIP3    H126766   7.260   0.304   5.062 -0.4278 -0.0651 -0.0149
 8934TIP3    H226767   7.115   0.348   5.068 -0.1588  0.7708  0.4409
 8935TIP3   OH226768  -0.024   1.496   1.346 -0.2107 -0.2281  0.1880
 8935TIP3    H126769   0.003   1.573   1.398  1.3115 -0.3956 -0.3261
 8935TIP3    H226770   0.032   1.498   1.269 -0.7229 -1.4223 -0.2331
 8936TIP3   OH226771   5.303   2.791   1.455 -0.3925  0.3294  0.0115
 8936TIP3    H126772   5.382   2.756   1.496 -0.7649  0.4457  0.8486
 8936TIP3    H226773   5.234   2.730   1.479 -0.7438  0.7656  0.1292
 8937TIP3   OH226774   6.426   0.878   2.145  0.6364  0.0720  0.3397
 8937TIP3    H126775   6.463   0.932   2.216 -0.8896 -0.2965  1.4662
 8937TIP3    H226776   6.446   0.927   2.065  0.9882  1.3314  1.1638
 8938TIP3   OH226777   5.397   3.231   3.547  0.5580 -0.1962 -0.1036
 8938TIP3    H126778   5.410   3.326   3.554  1.0152 -0.3010  0.5156
 8938TIP3    H226779   5.461   3.202   3.482  0.5549 -0.1103 -0.1445
 8939TIP3   OH226780   4.532   2.576   2.014  0.1414 -0.1392 -0.1924
 8939TIP3    H126781   4.461   2.569   1.950  1.5671 -1.1410 -1.7135
 8939TIP3    H226782   4.500   2.527   2.090 -1.0257 -0.0701 -0.6149
 8940TIP3   OH226783   6.729   4.228   0.711  0.0749  0.7395 -0.5732
 8940TIP3    H126784   6.723   4.292   0.782 -1.7543  1.4166 -1.2751
 8940TIP3    H226785   6.664   4.161   0.733  0.8450 -0.0543 -0.6614
 8941TIP3   OH226786   4.605   6.649   0.564 -0.2615  0.4506 -0.1171
 8941TIP3    H126787   4.670   6.684   0.625 -0.0772  0.6093 -0.4024
 8941TIP3    H226788   4.526   6.640   0.617  0.5087 -1.6870  0.7782
 8942TIP3   OH226789   6.608   6.503   1.089  0.0471 -0.0318  0.5922
 8942TIP3    H126790   6.574   6.474   1.173  0.4242  1.2279  1.2084
 8942TIP3    H226791   6.703   6.513   1.103 -0.0304  1.2049  0.3514
 8943TIP3   OH226792   3.170   5.778   2.288  0.3265 -0.1106 -0.4148
 8943TIP3    H126793   3.199   5.703   2.340  1.5588 -0.0359 -0.9602
 8943TIP3    H226794   3.153   5.847   2.353  2.5666  0.2188 -0.0988
 8944TIP3   OH226795   5.166   6.033   4.750  0.1861  0.1964 -0.5149
 8944TIP3    H126796   5.098   6.008   4.688 -1.3862  1.2464  0.7171
 8944TIP3    H226797   5.157   6.128   4.760  2.2824  0.4819 -0.7951
 8945TIP3   OH226798   0.712   1.172   3.811 -0.4699  0.1407  0.0853
 8945TIP3    H126799   0.687   1.106   3.745  1.0775  0.5223 -0.9425
 8945TIP3    H226800   0.685   1.134   3.894 -3.0848 -0.0885 -0.7701
 8946TIP3   OH226801   4.363   0.595   4.749 -0.3230 -0.1256 -0.4952
 8946TIP3    H126802   4.351   0.657   4.821 -1.4869  0.2090 -0.9505
 8946TIP3    H226803   4.399   0.648   4.678  1.5242 -0.6044  0.0491
 8947TIP3   OH226804   0.845   0.650   2.399 -0.0965 -0.2202 -0.7610
 8947TIP3    H126805   0.876   0.657   2.308 -0.2429 -0.1714 -0.8066
 8947TIP3    H226806   0.824   0.557   2.410 -0.9572 -0.0695 -1.0626
 8948TIP3   OH226807   2.696   3.707   3.272 -0.1894  0.6344  0.1560
 8948TIP3    H126808   2.659   3.789   3.240  0.0732  0.6693 -0.0562
 8948TIP3    H226809   2.705   3.720   3.366 -0.5300  0.6989  0.1827
 8949TIP3   OH226810   5.533   4.102   4.553 -0.5826 -0.3940 -0.1038
 8949TIP3    H126811   5.555   4.048   4.630 -0.4918  0.5611  0.5614
 8949TIP3    H226812   5.489   4.179   4.590  3.4076  2.3756 -0.4450
 8950TIP3   OH226813   1.735   4.969   4.055 -0.6158 -0.2272 -0.2858
 8950TIP3    H126814   1.737   4.918   4.137 -1.2039 -1.5086 -1.0280
 8950TIP3    H226815   1.690   4.911   3.993 -0.9081  1.0520 -1.2975
 8951TIP3   OH226816   1.517   3.748   4.429  0.0157  0.8702  0.0298
 8951TIP3    H126817   1.541   3.840   4.424  0.1324  0.9120  1.1868
 8951TIP3    H226818   1.458   3.742   4.504 -0.1169  0.0300 -0.1289
 8952TIP3   OH226819   3.671   1.811   5.051 -0.0705 -0.2167 -0.0979
 8952TIP3    H126820   3.606   1.749   5.018  0.6460 -0.5626 -0.8855
 8952TIP3    H226821   3.733   1.757   5.100 -0.3161  0.0998  0.5701
 8953TIP3   OH226822   1.060   4.013   3.914 -0.1975 -0.7385  0.0003
 8953TIP3    H126823   1.044   3.940   3.855 -2.6534 -0.4433  0.2140
 8953TIP3    H226824   1.155   4.027   3.910 -0.0856 -1.7807 -2.5777
 8954TIP3   OH226825   4.111   0.693   0.905  0.5759 -0.4279  0.3701
 8954TIP3    H126826   4.185   0.720   0.960 -0.1099  0.0361  1.0833
 8954TIP3    H226827   4.120   0.598   0.897 -0.0698 -0.7214  2.4559
 8955TIP3   OH226828   2.887   1.655   0.076 -0.0260 -0.1192  0.8438
 8955TIP3    H126829   2.945   1.713   0.125 -0.3680  1.2643 -0.3179
 8955TIP3    H226830   2.824   1.714   0.033  0.6337 -1.1576 -1.7464
 8956TIP3   OH226831   1.868   4.398   5.745  0.1395 -0.4960 -0.0590
 8956TIP3    H126832   1.816   4.446   5.809  2.1105 -0.0607  1.3089
 8956TIP3    H226833   1.871   4.308   5.779  2.0063 -0.0642  1.1406
 8957TIP3   OH226834   5.390   5.311   2.347  0.2142 -0.3353  0.2460
 8957TIP3    H126835   5.451   5.345   2.282  0.2075 -0.6753  0.0573
 8957TIP3    H226836   5.305   5.347   2.321 -0.1312 -1.9781 -1.0814
 8958TIP3   OH226837   0.848   2.954   1.082  0.0349  0.0754  0.2091
 8958TIP3    H126838   0.933   2.998   1.077 -0.7474  2.1943  3.0548
 8958TIP3    H226839   0.869   2.861   1.095  1.8853  0.4251 -0.0761
 8959TIP3   OH226840   3.233   5.314   1.680  0.0737 -0.4705 -0.1212
 8959TIP3    H126841   3.173   5.332   1.753 -0.4949  0.4680 -0.8036
 8959TIP3    H226842   3.209   5.227   1.650 -0.7068 -0.2488 -0.1505
 8960TIP3   OH226843   0.893   1.837   1.189 -0.2694  0.2017  0.2760
 8960TIP3    H126844   0.985   1.860   1.178 -0.1174 -0.7641 -0.5675
 8960TIP3    H226845   0.889   1.791   1.273  0.3355 -1.2458 -0.4555
 8961TIP3   OH226846   2.072   0.213   4.393 -0.2045 -0.2427 -0.1712
 8961TIP3    H126847   2.059   0.293   4.341 -0.6596 -0.5474 -0.5324
 8961TIP3    H226848   2.165   0.192   4.382  0.0074  0.4382  0.2290
 8962TIP3   OH226849   2.084   0.915   0.768 -0.2999 -0.3896  0.5018
 8962TIP3    H126850   2.058   0.847   0.830 -0.1346 -0.6854  0.2502
 8962TIP3    H226851   2.135   0.978   0.820  0.1985 -0.8543  0.5754
 8963TIP3   OH226852   5.491   5.870   5.045  0.1585  0.1300  0.3961
 8963TIP3    H126853   5.403   5.893   5.017  0.5738  1.3151  0.0209
 8963TIP3    H226854   5.541   5.951   5.038  0.7971  0.0097  2.6169
 8964TIP3   OH226855   1.136   0.400   1.336 -0.4774  0.3356 -0.5909
 8964TIP3    H126856   1.225   0.392   1.302  0.2869 -0.5280  1.4574
 8964TIP3    H226857   1.147   0.419   1.429 -2.4420  0.5265 -0.3550
 8965TIP3   OH226858   1.425   5.018   0.157 -0.2044 -0.2448 -0.3134
 8965TIP3    H126859   1.448   4.979   0.241  0.0266 -0.9673 -0.7004
 8965TIP3    H226860   1.468   4.961   0.092 -2.4143 -1.1966 -1.0421
 8966TIP3   OH226861   1.109   1.224   5.400 -0.0357  0.6153 -0.5138
 8966TIP3    H126862   1.195   1.266   5.401 -0.0181  0.5874  0.4699
 8966TIP3    H226863   1.127   1.130   5.402  0.0028  0.5442  3.1374
 8967TIP3   OH226864   6.516   0.629   3.903 -0.1168  0.5772 -0.1518
 8967TIP3    H126865   6.433   0.672   3.926 -0.5703  0.3090 -1.2181
 8967TIP3    H226866   6.582   0.676   3.954 -0.6367  2.3289 -1.0027
 8968TIP3   OH226867   4.663   6.675   4.757  0.4411 -0.3601  0.3513
 8968TIP3    H126868   4.623   6.683   4.671 -0.2268  2.0649  0.8237
 8968TIP3    H226869   4.594   6.702   4.818  1.6703  0.4173  1.4411
 8969TIP3   OH226870   5.114   4.378   5.178  0.5691  0.0560 -0.4327
 8969TIP3    H126871   5.080   4.308   5.234 -0.4951  1.2829  0.5078
 8969TIP3    H226872   5.109   4.342   5.089 -0.4331 -0.8724 -0.0224
 8970TIP3   OH226873   2.263   3.501   3.313 -0.4500 -0.0140  0.9836
 8970TIP3    H126874   2.226   3.415   3.294 -2.1537  1.0374 -0.9840
 8970TIP3    H226875   2.206   3.537   3.380 -0.3250 -0.0492  1.1091
 8971TIP3   OH226876   1.068   2.004   0.870  0.4516  0.5281  0.1229
 8971TIP3    H126877   1.083   1.934   0.933 -0.9648  1.9318  2.1721
 8971TIP3    H226878   0.980   1.986   0.835  0.9955  0.0795 -1.0506
 8972TIP3   OH226879   1.003   1.711   4.989 -0.3781  1.1024 -0.4797
 8972TIP3    H126880   0.944   1.701   5.064  0.4395  0.3039  0.0684
 8972TIP3    H226881   0.972   1.648   4.925 -0.0355  0.5678 -0.1271
 8973TIP3   OH226882   4.928   0.527   2.478  0.2399 -0.1207  0.2115
 8973TIP3    H126883   4.903   0.525   2.386 -0.1992  1.7820  0.2542
 8973TIP3    H226884   5.023   0.518   2.477  0.3884  1.3136 -0.5427
 8974TIP3   OH226885   4.358   0.411   1.868 -0.0663  0.3852  0.1620
 8974TIP3    H126886   4.423   0.432   1.801  1.9989  2.3646  2.5721
 8974TIP3    H226887   4.393   0.334   1.911  0.0559  0.7356  0.6944
 8975TIP3   OH226888   0.400   0.968   4.657  0.6063  0.6395  0.4066
 8975TIP3    H126889   0.443   1.012   4.730  0.9234 -1.0058  1.2686
 8975TIP3    H226890   0.453   0.991   4.581  0.3150  2.3176  0.6747
 8976TIP3   OH226891   4.591   3.105   3.891  0.2118 -0.5148 -0.2186
 8976TIP3    H126892   4.560   3.135   3.976  0.5437 -1.2948  0.1973
 8976TIP3    H226893   4.686   3.121   3.893 -0.1473  2.4383 -1.7184
 8977TIP3   OH226894   1.430   6.236   1.871  0.2255  0.1828  0.7626
 8977TIP3    H126895   1.427   6.328   1.848 -1.9791  0.1738  0.7924
 8977TIP3    H226896   1.406   6.233   1.963 -2.8309 -0.5401  0.0650
 8978TIP3   OH226897   4.580   0.901   2.983  0.3603  0.3969  0.4104
 8978TIP3    H126898   4.581   0.909   3.078  1.2158 -0.0741  0.4487
 8978TIP3    H226899   4.647   0.963   2.953  1.3727 -0.7473  0.2377
 8979TIP3   OH226900   7.021   6.378   0.746  0.2651 -0.6303 -0.2861
 8979TIP3    H126901   6.943   6.403   0.795  0.9958 -0.6252  0.8979
 8979TIP3    H226902   7.073   6.327   0.808  0.4208 -2.1235 -1.5749
 8980TIP3   OH226903   5.705   1.573   3.491  0.4036  0.3152  1.1688
 8980TIP3    H126904   5.626   1.545   3.445  0.6584  1.5273 -0.0386
 8980TIP3    H226905   5.673   1.611   3.573 -0.2891  1.0421  0.5689
 8981TIP3   OH226906   4.089   2.475   1.269  0.2319  0.2016 -0.0107
 8981TIP3    H126907   4.081   2.561   1.309  0.9352  0.1543  0.2419
 8981TIP3    H226908   4.184   2.459   1.264  0.1779  0.2631 -1.8072
 8982TIP3   OH226909   0.956   5.628   2.378  0.0977 -0.2180 -0.0796
 8982TIP3    H126910   0.867   5.648   2.349 -0.1335 -1.2938 -0.1515
 8982TIP3    H226911   1.005   5.709   2.361 -1.2805  1.1075  1.8665
 8983TIP3   OH226912   6.910   1.781   4.626 -0.1056 -0.1531  0.7484
 8983TIP3    H126913   6.968   1.760   4.553 -0.7962  0.9818 -0.1618
 8983TIP3    H226914   6.890   1.874   4.615  0.3174  0.2217  2.7868
 8984TIP3   OH226915   3.949   0.832   3.766 -0.2230  0.2301  0.1491
 8984TIP3    H126916   3.949   0.773   3.841  0.2624  1.0930  0.8375
 8984TIP3    H226917   4.037   0.824   3.728 -0.2475  0.3046  0.0756
 8985TIP3   OH226918   6.766   4.871   2.665 -0.0174 -0.1130  0.1394
 8985TIP3    H126919   6.756   4.849   2.573  0.2662 -0.2367  0.1365
 8985TIP3    H226920   6.780   4.787   2.708  0.3015 -0.0138  0.2324
 8986TIP3   OH226921   0.583   4.779   3.521  0.0049  0.8563 -0.1313
 8986TIP3    H126922   0.582   4.708   3.456 -0.3155 -0.4388  1.2339
 8986TIP3    H226923   0.638   4.745   3.592  0.1909  2.1636  0.3765
 8987TIP3   OH226924   4.468   0.690   1.422  0.0273 -0.0712 -0.3900
 8987TIP3    H126925   4.452   0.630   1.350 -1.2446  1.6661 -1.6458
 8987TIP3    H226926   4.564   0.694   1.430  0.1885 -3.3007  0.7594
 8988TIP3   OH226927   3.833   2.472   0.177 -0.0493  0.0288 -0.4443
 8988TIP3    H126928   3.744   2.453   0.204 -0.1904 -0.7986 -1.4576
 8988TIP3    H226929   3.886   2.449   0.254 -0.6384 -0.1380 -0.0787
 8989TIP3   OH226930   1.194   4.593   2.687  0.0023 -0.4488  0.2976
 8989TIP3    H126931   1.168   4.597   2.779  1.7007 -0.7103  0.8260
 8989TIP3    H226932   1.266   4.530   2.684 -0.2034 -0.6694 -1.2707
 8990TIP3   OH226933   0.869   1.947   0.206  0.1297  0.3755  0.2985
 8990TIP3    H126934   0.803   1.969   0.141 -1.4694 -2.1569  0.9361
 8990TIP3    H226935   0.951   1.946   0.157 -1.1075 -2.1970 -1.9993
 8991TIP3   OH226936   6.220   6.615   5.303 -0.3043 -0.5756  0.0135
 8991TIP3    H126937   6.207   6.619   5.208 -4.2427 -0.9119  0.3699
 8991TIP3    H226938   6.189   6.527   5.327 -0.1947 -0.1724  1.6944
 8992TIP3   OH226939   0.193   0.063   5.853  0.2393 -0.3648 -0.6548
 8992TIP3    H126940   0.100   0.059   5.875  0.4819 -0.3910  0.4436
 8992TIP3    H226941   0.200   0.137   5.792 -0.6586 -1.1011 -1.6782
 8993TIP3   OH226942   4.081   3.127   5.146  0.8738  0.9717 -0.5178
 8993TIP3    H126943   4.157   3.078   5.114  1.0292 -1.9204  3.5369
 8993TIP3    H226944   4.007   3.071   5.127  0.1987  1.9650 -0.9302
 8994TIP3   OH226945   2.544   4.193   0.746 -0.1511  0.0811 -0.2680
 8994TIP3    H126946   2.471   4.191   0.808 -0.6875  1.3071 -0.8336
 8994TIP3    H226947   2.506   4.222   0.664  1.0802  1.4050 -0.4175
 8995TIP3   OH226948   0.863   0.328   4.323  0.8089 -1.0566 -0.5789
 8995TIP3    H126949   0.921   0.254   4.308  0.0784 -1.6642 -0.4605
 8995TIP3    H226950   0.888   0.392   4.257  0.3772 -2.0511 -1.7461
 8996TIP3   OH226951   4.552   5.566   2.760  0.4042 -0.4161  0.0719
 8996TIP3    H126952   4.507   5.600   2.683  0.2474 -2.4401 -0.7876
 8996TIP3    H226953   4.573   5.644   2.812  0.4095  1.0015 -1.9440
 8997TIP3   OH226954   0.166   1.969   3.808  0.0380  0.0643  0.1868
 8997TIP3    H126955   0.248   2.019   3.804  0.4820 -0.4039  2.2485
 8997TIP3    H226956   0.150   1.942   3.717  1.3975  1.3497 -0.4839
 8998TIP3   OH226957   6.152   3.502   0.954  0.6042  0.1999 -0.4497
 8998TIP3    H126958   6.144   3.591   0.989  1.0832  0.5048 -1.1115
 8998TIP3    H226959   6.100   3.503   0.873 -1.8374 -0.9431  0.9663
 8999TIP3   OH226960   2.100   1.228   5.583 -0.0391 -0.7014 -0.0302
 8999TIP3    H126961   2.066   1.158   5.638  1.7388 -2.7333 -1.3681
 8999TIP3    H226962   2.049   1.305   5.608 -2.4575 -2.5525  1.1358
 9000TIP3   OH226963   1.739   6.206   1.921 -0.1580  0.0286 -0.6519
 9000TIP3    H126964   1.785   6.284   1.888 -1.3979  1.0495 -0.0358
 9000TIP3    H226965   1.648   6.233   1.929 -0.4243 -1.1352  0.6853
 9001TIP3   OH226966   5.699   4.848   2.024 -0.2485  0.0435  0.0452
 9001TIP3    H126967   5.658   4.763   2.004  0.3368  0.2504 -2.3934
 9001TIP3    H226968   5.664   4.872   2.109 -1.7204 -1.8803  0.0563
 9002TIP3   OH226969   1.614   0.024   5.343  0.1007  0.0289  0.0224
 9002TIP3    H126970   1.537  -0.031   5.332  0.7762 -0.5920 -1.9418
 9002TIP3    H226971   1.581   0.114   5.337 -0.5679 -0.2214 -0.0173
 9003TIP3   OH226972   1.495   0.595   4.520 -0.0795  0.4444 -0.0452
 9003TIP3    H126973   1.570   0.546   4.485 -0.1145  1.1591 -1.2051
 9003TIP3    H226974   1.428   0.529   4.537  0.6881 -0.1614  0.6685
 9004TIP3   OH226975   0.246   6.504   3.985 -0.2283  0.4387 -0.1969
 9004TIP3    H126976   0.205   6.577   4.031  1.7097  1.0708  0.6275
 9004TIP3    H226977   0.209   6.508   3.896 -3.4569 -0.3209  0.9498
 9005TIP3   OH226978   3.334   6.149   0.911 -0.0350  0.7096  0.0011
 9005TIP3    H126979   3.423   6.184   0.921  0.1878  0.3296 -0.5845
 9005TIP3    H226980   3.341   6.058   0.940 -0.1323  0.5556 -0.4485
 9006TIP3   OH226981   4.244   6.619   5.735  0.3775 -0.2517  0.2104
 9006TIP3    H126982   4.162   6.584   5.769  0.4815 -0.6925  0.0202
 9006TIP3    H226983   4.302   6.621   5.811  0.4650 -0.7941  0.1643
 9007TIP3   OH226984   5.297   5.485   0.239 -0.1751 -0.1370  0.0706
 9007TIP3    H126985   5.209   5.490   0.278  0.0776  2.3419  0.4481
 9007TIP3    H226986   5.349   5.549   0.288  0.5809  2.0641 -3.2670
 9008TIP3   OH226987   4.669   1.352   4.096  0.3356  0.6111 -0.1063
 9008TIP3    H126988   4.667   1.447   4.103  0.9998  0.5590  0.8766
 9008TIP3    H226989   4.731   1.334   4.025  0.8060  0.8961  0.2285
 9009TIP3   OH226990   6.301   2.413   4.078 -0.3305  0.2477  0.2774
 9009TIP3    H126991   6.329   2.496   4.039 -0.3797  1.4308  2.6012
 9009TIP3    H226992   6.289   2.432   4.171  1.6772 -2.8566  1.3329
 9010TIP3   OH226993   5.399   0.389   1.907 -0.2415 -0.0452 -0.1970
 9010TIP3    H126994   5.375   0.477   1.879 -0.8939  0.5617  2.0721
 9010TIP3    H226995   5.333   0.332   1.866 -0.7863  0.7075 -0.3916
 9011TIP3   OH226996   4.228   5.035   1.684  0.0845 -0.3601 -0.6362
 9011TIP3    H126997   4.223   5.036   1.780 -0.3919  1.2776 -0.6561
 9011TIP3    H226998   4.317   5.005   1.665  0.2287 -0.5596  0.3212
 9012TIP3   OH226999   1.537   2.721   1.137 -0.2863 -0.2256  0.3639
 9012TIP3    H127000   1.564   2.670   1.213  2.7107 -0.4303 -0.6701
 9012TIP3    H227001   1.565   2.810   1.156  0.0009 -0.1748 -0.2567
 9013TIP3   OH227002   0.971   3.597   2.011 -0.8024  0.1855  0.2033
 9013TIP3    H127003   0.901   3.570   2.071  1.6689 -2.0950  2.3858
 9013TIP3    H227004   1.002   3.680   2.047 -0.2165 -0.5029  1.3411
 9014TIP3   OH227005   0.010   4.900   5.713 -0.5193 -0.1019  0.4004
 9014TIP3    H127006  -0.046   4.911   5.789 -0.2063  1.3309  0.4350
 9014TIP3    H227007   0.073   4.833   5.740 -0.2769  0.5430  1.4699
 9015TIP3   OH227008   6.630   1.284   3.463 -0.1851 -0.3590 -0.1642
 9015TIP3    H127009   6.679   1.329   3.393  1.2860 -1.2665  0.2323
 9015TIP3    H227010   6.577   1.220   3.417 -3.3398  2.4816 -0.8746
 9016TIP3   OH227011   6.294   0.709   3.279  0.0500  0.2616 -0.5120
 9016TIP3    H127012   6.237   0.722   3.203  1.0938  0.6586 -1.2493
 9016TIP3    H227013   6.382   0.701   3.242  0.5123 -0.1146  0.6169
 9017TIP3   OH227014   7.093   0.425   1.932 -0.2344 -0.2477 -0.2941
 9017TIP3    H127015   7.065   0.459   2.017 -1.9878  1.3098 -1.4139
 9017TIP3    H227016   7.189   0.426   1.936 -0.2692  1.0041  1.2126
 9018TIP3   OH227017   1.525   1.716   3.963 -0.5991 -0.5840  0.1674
 9018TIP3    H127018   1.504   1.748   3.876  0.5222  0.5725  0.2925
 9018TIP3    H227019   1.614   1.680   3.955 -0.9525 -1.5935  0.5683
 9019TIP3   OH227020   6.582   5.857   4.220  0.3552 -0.2222 -0.4042
 9019TIP3    H127021   6.562   5.947   4.243 -0.9953 -0.7655  0.6781
 9019TIP3    H227022   6.675   5.858   4.197  0.3043  1.4681 -0.6159
 9020TIP3   OH227023   1.962   4.937   3.120  0.2284  0.2041  0.1931
 9020TIP3    H127024   1.943   4.847   3.093 -1.2031  0.3488  0.6452
 9020TIP3    H227025   1.924   4.944   3.208 -0.4914  1.5161 -0.1974
 9021TIP3   OH227026   6.371   5.747   2.542  0.3243  0.0034 -0.5604
 9021TIP3    H127027   6.442   5.760   2.479 -0.8276  0.0300 -1.9074
 9021TIP3    H227028   6.294   5.729   2.488 -0.1870 -2.6964  0.9274
 9022TIP3   OH227029   5.940   1.555   4.438  0.0957 -0.2449 -0.5256
 9022TIP3    H127030   6.015   1.505   4.469 -0.5296 -2.2962 -2.0909
 9022TIP3    H227031   5.965   1.584   4.350 -0.3367  0.4760 -0.4199
 9023TIP3   OH227032   4.843   1.435   4.498 -0.2106 -0.4995 -0.1281
 9023TIP3    H127033   4.910   1.367   4.497 -0.9404 -1.2525  0.8824
 9023TIP3    H227034   4.892   1.517   4.501  0.6643 -1.0207  0.0129
 9024TIP3   OH227035   3.679   2.110   3.518 -0.5466  0.3703  0.0455
 9024TIP3    H127036   3.671   2.020   3.487  2.2730 -0.1597  0.5075
 9024TIP3    H227037   3.637   2.110   3.603  0.9679 -1.0623  0.8549
 9025TIP3   OH227038   4.575   2.718   5.668  0.4061 -0.8372  0.1084
 9025TIP3    H127039   4.552   2.768   5.590  2.8527 -0.3394 -0.3719
 9025TIP3    H227040   4.505   2.737   5.730 -0.6462  0.2065 -1.3316
 9026TIP3   OH227041   4.338   1.512   3.449  0.7386  0.2945 -0.0661
 9026TIP3    H127042   4.425   1.539   3.478  1.0001 -0.2013 -0.3863
 9026TIP3    H227043   4.345   1.503   3.354 -0.6268  3.8882 -0.6679
 9027TIP3   OH227044   2.163   1.984   1.367  0.1048 -0.4622  0.1320
 9027TIP3    H127045   2.085   2.040   1.370  0.3003 -0.1399 -0.6079
 9027TIP3    H227046   2.147   1.918   1.434 -1.0516 -0.7030 -0.3508
 9028TIP3   OH227047   1.502   4.526   1.222 -0.0527  0.4186  0.1473
 9028TIP3    H127048   1.455   4.544   1.140 -0.7411  1.0044  0.6657
 9028TIP3    H227049   1.479   4.598   1.280  0.1645 -0.1660  0.9810
 9029TIP3   OH227050   1.175   5.668   4.073  0.1092  0.4355 -0.2688
 9029TIP3    H127051   1.107   5.681   4.138 -0.1585 -0.3517 -0.3827
 9029TIP3    H227052   1.226   5.749   4.075 -0.7873  1.0121 -0.1436
 9030TIP3   OH227053   1.722   0.893   4.446  0.6470 -0.0491 -0.6306
 9030TIP3    H127054   1.690   0.972   4.490 -1.2454 -1.7893  1.4279
 9030TIP3    H227055   1.777   0.850   4.512  1.7685 -0.4105 -1.7674
 9031TIP3   OH227056   0.903   2.610   4.725 -0.2714 -0.1468  0.5571
 9031TIP3    H127057   0.892   2.521   4.758 -0.7664 -0.6416 -0.8878
 9031TIP3    H227058   0.823   2.656   4.752 -0.2261 -0.2606  0.8892
 9032TIP3   OH227059   1.701   4.657   4.566  0.1243  1.3406 -1.1724
 9032TIP3    H127060   1.737   4.718   4.631 -1.3910  2.2109 -1.1094
 9032TIP3    H227061   1.769   4.651   4.499  1.7977  0.2930  0.5329
 9033TIP3   OH227062   0.156   2.484   3.846 -0.0616 -0.3631  0.1672
 9033TIP3    H127063   0.088   2.551   3.858 -0.0323 -0.4340  0.7368
 9033TIP3    H227064   0.153   2.432   3.926  0.7958 -0.2501  0.2807
 9034TIP3   OH227065   1.022   3.855   2.390 -0.3018 -0.0834 -0.4577
 9034TIP3    H127066   0.997   3.772   2.430 -2.4110  0.7320  0.0418
 9034TIP3    H227067   0.968   3.920   2.434 -0.9269  1.1825 -2.9108
 9035TIP3   OH227068   2.979   0.535   0.438  0.1385  0.2999  0.0056
 9035TIP3    H127069   2.943   0.605   0.383 -0.0951  0.3132  0.1713
 9035TIP3    H227070   2.986   0.460   0.379  1.0799  0.6638 -0.3534
 9036TIP3   OH227071   0.270   1.278   3.750  0.2812 -0.1118 -0.0956
 9036TIP3    H127072   0.201   1.339   3.777  0.3245  0.3054 -0.8945
 9036TIP3    H227073   0.224   1.195   3.739  0.2328 -0.2535  1.0631
 9037TIP3   OH227074   0.428   0.356   5.489 -0.0673 -0.0968  0.2460
 9037TIP3    H127075   0.437   0.380   5.581 -1.2104 -0.4442  0.4709
 9037TIP3    H227076   0.388   0.269   5.490 -2.3933  0.8692 -0.5222
 9038TIP3   OH227077   6.947   4.524   3.470 -0.5685 -0.3479 -0.2088
 9038TIP3    H127078   7.039   4.515   3.447 -0.5549  0.0827 -0.3174
 9038TIP3    H227079   6.948   4.570   3.554 -0.7396  1.1130 -0.9873
 9039TIP3   OH227080   2.162   4.761   0.628  0.0758  0.0932  0.1251
 9039TIP3    H127081   2.142   4.849   0.595 -1.1455  0.0672  0.7250
 9039TIP3    H227082   2.190   4.712   0.551  0.6387  0.9685 -0.2368
 9040TIP3   OH227083   4.487   3.735   1.457 -0.0236  0.1815 -0.3601
 9040TIP3    H127084   4.461   3.817   1.501  0.4583  0.1026  0.0738
 9040TIP3    H227085   4.582   3.733   1.463 -0.1008 -1.1049  0.9030
 9041TIP3   OH227086   1.869   4.690   4.085  0.3182 -0.7702  0.1462
 9041TIP3    H127087   1.868   4.664   3.993 -0.2464 -0.3315  0.0250
 9041TIP3    H227088   1.872   4.607   4.133 -2.0254 -1.1378 -0.2369
 9042TIP3   OH227089   3.684   0.427   5.418  0.6252 -0.4446  0.0156
 9042TIP3    H127090   3.630   0.493   5.374  1.0597  0.2296  0.4768
 9042TIP3    H227091   3.709   0.468   5.501  1.1166 -1.0949  0.1949
 9043TIP3   OH227092   0.034   1.640   4.600  0.2608  0.7901  0.9581
 9043TIP3    H127093   0.096   1.713   4.603 -0.4922  1.5142 -0.2889
 9043TIP3    H227094  -0.021   1.658   4.524 -0.8753 -0.3290  1.4724
 9044TIP3   OH227095   6.155   5.117   2.542  0.4210 -0.1282 -0.2131
 9044TIP3    H127096   6.166   5.202   2.500  0.5499 -0.0380 -0.0015
 9044TIP3    H227097   6.100   5.135   2.618 -3.9586 -1.0318 -2.8247
 9045TIP3   OH227098   1.553   4.313   3.790  0.2427 -0.0178  0.5209
 9045TIP3    H127099   1.556   4.409   3.788  0.9077  0.0931 -4.1487
 9045TIP3    H227100   1.628   4.288   3.844  0.5272  2.0353  1.1829
 9046TIP3   OH227101   2.699   1.568   1.515  0.4508  0.4261 -0.1715
 9046TIP3    H127102   2.606   1.578   1.496  0.0347  0.8568  1.8196
 9046TIP3    H227103   2.705   1.486   1.564  1.0394  0.6608  0.1644
 9047TIP3   OH227104   5.568   1.929   4.146 -0.0870  0.0070 -0.1175
 9047TIP3    H127105   5.638   1.864   4.139  0.5758  0.6863  0.0910
 9047TIP3    H227106   5.610   2.012   4.121 -0.5040  0.6313  1.2052
 9048TIP3   OH227107   2.890   5.945   4.410 -0.0944 -0.1702  0.1174
 9048TIP3    H127108   2.857   6.002   4.480  0.2930  0.1172  0.0708
 9048TIP3    H227109   2.924   6.006   4.344 -0.3871 -0.4409 -0.2895
 9049TIP3   OH227110   5.356   2.760   4.825  0.0322 -0.6585  0.4216
 9049TIP3    H127111   5.378   2.710   4.747 -0.2631  0.3968 -0.3738
 9049TIP3    H227112   5.398   2.714   4.897  0.0671 -1.8169 -0.3240
 9050TIP3   OH227113   1.942   5.737   1.235  0.8828 -0.1905 -0.3083
 9050TIP3    H127114   2.007   5.768   1.171  1.5399  0.1785  0.5079
 9050TIP3    H227115   1.986   5.664   1.280  0.9837  0.4241  0.6375
 9051TIP3   OH227116   2.901   0.402   5.733 -0.0447  0.2692 -0.3437
 9051TIP3    H127117   2.904   0.338   5.804  0.8166  0.5535 -0.1150
 9051TIP3    H227118   2.883   0.485   5.777  1.5993  0.6308 -0.3141
 9052TIP3   OH227119   5.923   3.637   1.626 -0.5651 -0.5705  0.0173
 9052TIP3    H127120   5.954   3.569   1.567 -1.1071 -2.2418  1.5689
 9052TIP3    H227121   5.995   3.651   1.687 -0.1815  0.8188 -0.7082
 9053TIP3   OH227122   2.603   0.492   4.147 -0.1145 -0.1526 -0.0079
 9053TIP3    H127123   2.696   0.516   4.152 -0.1184  0.2329 -1.5190
 9053TIP3    H227124   2.601   0.400   4.172  0.3087  0.4805  2.6920
 9054TIP3   OH227125   1.705   2.200   5.190 -0.2955 -0.2334 -0.0485
 9054TIP3    H127126   1.786   2.162   5.227 -0.0073 -0.4150 -0.8527
 9054TIP3    H227127   1.726   2.218   5.099 -0.4606  1.8062  0.2719
 9055TIP3   OH227128   4.791   4.576   0.784 -0.2320  0.3827  0.6319
 9055TIP3    H127129   4.766   4.663   0.816 -1.6417  0.4323 -0.4993
 9055TIP3    H227130   4.746   4.568   0.699 -0.7862 -1.7509  1.0697
 9056TIP3   OH227131   1.687   1.491   4.458  0.1337  0.2754  0.1456
 9056TIP3    H127132   1.760   1.539   4.496  1.0606 -0.8811 -0.1265
 9056TIP3    H227133   1.609   1.528   4.500  0.8946  1.2943  0.6814
 9057TIP3   OH227134   5.198   6.345   0.270 -0.7170 -0.0647  0.3549
 9057TIP3    H127135   5.235   6.322   0.356  0.4750  3.5790  0.9980
 9057TIP3    H227136   5.274   6.372   0.218 -1.6954  0.1528 -1.0288
 9058TIP3   OH227137   5.677   1.495   0.176 -0.4382  0.1583  0.0994
 9058TIP3    H127138   5.591   1.451   0.177 -0.6311  0.5175 -0.3086
 9058TIP3    H227139   5.658   1.585   0.201 -0.1466  0.1963  0.1910
 9059TIP3   OH227140   0.109   0.340   4.063 -0.4033 -0.4009 -0.0765
 9059TIP3    H127141   0.093   0.246   4.068 -1.2517 -0.5733 -3.6644
 9059TIP3    H227142   0.039   0.374   4.008  1.3116  1.9014 -1.0110
 9060TIP3   OH227143   2.185   4.263   0.269  0.4322  0.0443  0.1160
 9060TIP3    H127144   2.175   4.347   0.225  1.0046 -0.3398 -0.7997
 9060TIP3    H227145   2.097   4.224   0.267  0.3003  0.3456 -0.0420
 9061TIP3   OH227146   3.424   2.072   2.366 -0.5051  0.7153  0.2001
 9061TIP3    H127147   3.353   2.124   2.328 -1.3903 -0.8683 -0.4100
 9061TIP3    H227148   3.398   2.057   2.457  0.0887  1.8732  0.5801
 9062TIP3   OH227149   5.754   3.122   3.839  0.8746  0.5570 -0.1912
 9062TIP3    H127150   5.692   3.182   3.881  0.6986  0.0853  0.2439
 9062TIP3    H227151   5.818   3.102   3.907 -0.0261 -1.0706  0.2335
 9063TIP3   OH227152   4.552   1.138   1.810  0.1206  0.3047 -0.6026
 9063TIP3    H127153   4.459   1.155   1.794  0.4029  1.5551 -0.9936
 9063TIP3    H227154   4.561   1.141   1.905 -0.1049  0.9276 -0.5984
 9064TIP3   OH227155   4.349   0.685   4.047 -0.8895  0.2668 -0.1930
 9064TIP3    H127156   4.275   0.746   4.040 -0.9965  0.0626 -0.9665
 9064TIP3    H227157   4.310   0.599   4.032 -0.9381 -0.1457  1.9892
 9065TIP3   OH227158   3.641   2.046   4.915 -0.5318  0.0377 -0.4978
 9065TIP3    H127159   3.594   2.029   4.834 -2.1006  0.3086  0.3099
 9065TIP3    H227160   3.658   1.959   4.952 -0.9369 -0.0524 -0.5154
 9066TIP3   OH227161   3.300   4.977   3.395 -0.8651 -1.1289 -0.2718
 9066TIP3    H127162   3.373   5.007   3.450 -0.3323 -3.0389  0.1282
 9066TIP3    H227163   3.222   5.015   3.437 -0.1619  1.1352 -0.8404
 9067TIP3   OH227164   1.033   4.439   4.002 -0.0928  0.1234  0.0298
 9067TIP3    H127165   1.040   4.408   3.911  1.8129 -1.0173  0.5127
 9067TIP3    H227166   1.107   4.498   4.013  0.3998 -0.6627  1.1503
 9068TIP3   OH227167   4.389   0.733   4.975  0.1339 -0.0364  0.1042
 9068TIP3    H127168   4.380   0.826   4.955  2.4494 -0.1495 -1.8714
 9068TIP3    H227169   4.442   0.731   5.054 -1.3979  0.2712  1.2022
 9069TIP3   OH227170   5.212   5.764   3.796  0.5126 -0.2303 -0.0055
 9069TIP3    H127171   5.298   5.792   3.828  0.5584  0.7537 -0.9409
 9069TIP3    H227172   5.154   5.775   3.871  1.4871 -2.7167  1.2596
 9070TIP3   OH227173   6.506   2.322   1.191  0.2426 -0.1562 -0.6453
 9070TIP3    H127174   6.433   2.275   1.152 -0.3377 -0.8309  1.1462
 9070TIP3    H227175   6.583   2.269   1.171  0.4666  1.0438 -3.3636
 9071TIP3   OH227176   3.350   4.557   3.931 -0.0438 -0.0051  0.1315
 9071TIP3    H127177   3.260   4.525   3.935  0.8625 -2.6852  2.4430
 9071TIP3    H227178   3.342   4.651   3.913 -3.1916 -0.3710 -0.9063
 9072TIP3   OH227179   6.653   5.111   5.040 -0.7194  0.0673 -0.1139
 9072TIP3    H127180   6.596   5.096   4.965 -0.7644  1.6470 -0.4361
 9072TIP3    H227181   6.742   5.102   5.005 -0.7394 -1.1815  0.1149
 9073TIP3   OH227182   0.598   0.058   0.786 -0.7521  0.3090  0.2855
 9073TIP3    H127183   0.582   0.014   0.870 -1.6157 -0.1542 -0.1074
 9073TIP3    H227184   0.564  -0.003   0.721  1.8351 -0.3339 -0.5830
 9074TIP3   OH227185   3.936   6.443   0.388  0.0205 -0.0616  0.0808
 9074TIP3    H127186   3.964   6.513   0.447 -0.5793  0.9618 -0.8130
 9074TIP3    H227187   4.017   6.404   0.357  0.3611  0.1210  0.7362
 9075TIP3   OH227188   6.678   1.328   1.741  0.3264  0.2596  0.2296
 9075TIP3    H127189   6.687   1.394   1.810 -0.9222 -0.3182  0.9624
 9075TIP3    H227190   6.620   1.369   1.677  1.7322  0.9182 -0.6630
 9076TIP3   OH227191   4.273   5.271   2.615  0.2939  0.6386  0.5295
 9076TIP3    H127192   4.349   5.216   2.634 -0.2897 -0.0988  0.7719
 9076TIP3    H227193   4.261   5.323   2.695  0.8319  1.1056  0.3092
 9077TIP3   OH227194   0.884   4.524   0.577  0.1604 -0.5599  0.3780
 9077TIP3    H127195   0.832   4.492   0.650  0.0307 -0.8585  0.1613
 9077TIP3    H227196   0.825   4.583   0.530  0.2891 -0.2613  0.5911
 9078TIP3   OH227197   6.121   3.274   0.595  0.0061  0.5371 -0.4097
 9078TIP3    H127198   6.071   3.321   0.662 -0.7708 -0.6435 -0.1315
 9078TIP3    H227199   6.087   3.185   0.598  0.1116  0.3943 -2.2327
 9079TIP3   OH227200   5.771   5.897   0.862 -0.4278  0.2004 -0.2991
 9079TIP3    H127201   5.845   5.896   0.801  0.9532 -2.7379  1.2287
 9079TIP3    H227202   5.811   5.907   0.948 -1.9165 -0.2979  0.4793
 9080TIP3   OH227203   0.849   3.596   3.044  0.6655 -0.5316  0.2303
 9080TIP3    H127204   0.914   3.636   2.987  1.4524 -1.8333  0.1804
 9080TIP3    H227205   0.772   3.583   2.988 -0.1808  2.2426  0.6231
 9081TIP3   OH227206   2.791   6.184   4.159 -0.1596 -0.3237 -0.6792
 9081TIP3    H127207   2.816   6.276   4.170  0.7595 -0.6235 -0.1918
 9081TIP3    H227208   2.866   6.135   4.192 -0.5264 -1.2540 -1.2004
 9082TIP3   OH227209   3.808   3.172   5.428 -0.5500 -0.4407  0.7433
 9082TIP3    H127210   3.830   3.105   5.493  1.3569  0.0082  0.6313
 9082TIP3    H227211   3.857   3.146   5.350  0.7597  1.4001  0.9070
 9083TIP3   OH227212   5.983   0.933   4.595 -0.4483  0.2665  0.3507
 9083TIP3    H127213   5.901   0.885   4.584 -0.5007  0.1510  1.1980
 9083TIP3    H227214   6.006   0.961   4.507 -0.8897 -0.5423 -0.0357
 9084TIP3   OH227215   3.020   3.527   2.909  0.2921 -0.3998 -0.6441
 9084TIP3    H127216   2.927   3.544   2.924  0.6470  0.3206  1.0723
 9084TIP3    H227217   3.033   3.547   2.816 -1.1729 -0.0646 -0.8112
 9085TIP3   OH227218   1.532   1.901   4.859 -0.5218  0.1538  0.1805
 9085TIP3    H127219   1.497   1.832   4.915 -0.2756  0.6002  0.9036
 9085TIP3    H227220   1.519   1.981   4.910 -0.5036  0.6023 -0.5044
 9086TIP3   OH227221   2.991   5.365   2.151 -0.4862 -0.6694  0.0508
 9086TIP3    H127222   2.896   5.368   2.142 -0.5136  1.4200  0.4933
 9086TIP3    H227223   3.006   5.339   2.242 -0.6557 -0.2306  0.2061
 9087TIP3   OH227224   1.560   4.035   3.181  0.4486 -0.8058 -0.4855
 9087TIP3    H127225   1.557   4.128   3.207  0.7454 -0.7254 -0.7297
 9087TIP3    H227226   1.535   3.988   3.260  1.4992 -0.5686  0.0117
 9088TIP3   OH227227   4.858   4.434   1.450 -0.1234  0.5605 -0.4296
 9088TIP3    H127228   4.770   4.456   1.420 -1.3906  0.0555  2.5266
 9088TIP3    H227229   4.868   4.481   1.533  1.6838 -0.7536  0.1822
 9089TIP3   OH227230   1.193   4.744   2.180  0.3808  0.0076  0.0291
 9089TIP3    H127231   1.240   4.819   2.216 -1.6751  0.5964  1.7310
 9089TIP3    H227232   1.216   4.671   2.238 -1.5295  0.5582  1.6309
 9090TIP3   OH227233   2.477   5.525   2.829 -0.0144  0.2213 -0.5033
 9090TIP3    H127234   2.539   5.576   2.881  0.7590 -1.8972  0.7746
 9090TIP3    H227235   2.532   5.477   2.767 -0.5018 -0.6202 -0.2973
 9091TIP3   OH227236   0.924   1.603   2.788 -0.2494 -0.7331  0.2778
 9091TIP3    H127237   0.918   1.668   2.858  1.8164 -0.5581  0.3682
 9091TIP3    H227238   0.860   1.630   2.723  1.1150  1.9666 -0.0937
 9092TIP3   OH227239   0.450   5.042   1.773  0.2378 -0.2764 -0.0461
 9092TIP3    H127240   0.468   5.106   1.841 -1.6006  2.0755 -1.6054
 9092TIP3    H227241   0.536   5.013   1.743  1.2449  2.5553 -0.2094
 9093TIP3   OH227242   6.250   3.855   1.124 -0.6038 -0.5532  0.0642
 9093TIP3    H127243   6.295   3.867   1.208 -0.4691  0.6163 -0.1620
 9093TIP3    H227244   6.223   3.943   1.099 -3.6827 -1.2551  0.5296
 9094TIP3   OH227245   2.457   1.671   5.602 -0.0982 -0.4126  0.1752
 9094TIP3    H127246   2.423   1.724   5.531  1.1448 -1.9407 -1.6784
 9094TIP3    H227247   2.542   1.710   5.623  1.4624 -2.2313 -2.1269
 9095TIP3   OH227248   4.181   6.751   1.267 -0.0265  0.4546  0.3284
 9095TIP3    H127249   4.124   6.774   1.340 -0.1136  0.0263  0.3942
 9095TIP3    H227250   4.122   6.742   1.192 -0.1057 -0.4745  0.5018
 9096TIP3   OH227251   5.887   5.491   2.033 -0.2208  0.2148 -0.2583
 9096TIP3    H127252   5.912   5.559   1.971 -0.2932  0.0002 -0.5211
 9096TIP3    H227253   5.965   5.435   2.041 -0.5973 -0.4416 -1.0614
 9097TIP3   OH227254   4.669   3.943   5.748 -1.2366 -0.5087 -0.5153
 9097TIP3    H127255   4.610   3.873   5.718  0.2135 -2.1872  0.3774
 9097TIP3    H227256   4.705   3.911   5.831 -0.9398  1.5789  0.2318
 9098TIP3   OH227257   5.403   3.811   4.996 -0.1650 -0.8950  0.2636
 9098TIP3    H127258   5.400   3.904   5.019  0.4571 -0.8359  0.1340
 9098TIP3    H227259   5.460   3.772   5.062 -0.4983 -1.2059  0.3718
 9099TIP3   OH227260   3.403   3.583   1.007 -0.0496  0.6936  0.2464
 9099TIP3    H127261   3.387   3.628   1.090  0.4491 -0.4932  1.0164
 9099TIP3    H227262   3.472   3.520   1.027  0.0047  0.3197 -1.0508
 9100TIP3   OH227263   3.761   6.514   1.232  0.1144 -0.2064 -0.1473
 9100TIP3    H127264   3.728   6.603   1.241 -1.0310 -0.6593  0.2787
 9100TIP3    H227265   3.698   6.460   1.278  1.3027 -1.1519  0.4272
 9101TIP3   OH227266   6.507   6.220   0.088  0.4394  0.2737  0.5085
 9101TIP3    H127267   6.430   6.276   0.089  0.3778  0.1883  0.5510
 9101TIP3    H227268   6.492   6.157   0.158  0.6741  0.4269  0.7007
 9102TIP3   OH227269   6.469   2.981   1.559  0.1163 -0.1578  0.8315
 9102TIP3    H127270   6.415   2.943   1.628  2.0489  1.5455  3.4590
 9102TIP3    H227271   6.559   2.967   1.588  0.9618  2.9255  0.0783
 9103TIP3   OH227272   3.578   3.536   4.374  0.2894  0.8538 -0.1994
 9103TIP3    H127273   3.509   3.560   4.437  0.3749  1.6445 -0.3936
 9103TIP3    H227274   3.607   3.449   4.402  2.2421  2.2521  2.6018
 9104TIP3   OH227275   0.923   0.554   1.547  0.0928  0.1234 -0.4824
 9104TIP3    H127276   0.927   0.530   1.639 -0.5016  0.1940 -0.4347
 9104TIP3    H227277   0.914   0.471   1.501  0.2533  0.0985 -0.4702
 9105TIP3   OH227278   4.824   2.804   3.329 -0.2764 -0.1849  0.7642
 9105TIP3    H127279   4.813   2.709   3.338  2.5493 -0.6129  0.5283
 9105TIP3    H227280   4.901   2.814   3.272 -0.9824  2.2730  0.1219
 9106TIP3   OH227281   3.499   3.419   5.736 -0.1875 -0.0772 -0.0766
 9106TIP3    H127282   3.571   3.372   5.694  0.3852  0.3835  0.3666
 9106TIP3    H227283   3.488   3.376   5.821 -1.8856 -1.5372 -0.9667
 9107TIP3   OH227284   0.815   0.355   1.975  0.5704  0.2757 -0.1342
 9107TIP3    H127285   0.725   0.368   1.944 -0.7355 -1.2328  2.7126
 9107TIP3    H227286   0.814   0.269   2.017  3.1984  0.4885  0.5165
 9108TIP3   OH227287   1.674   4.970   4.888 -0.2424 -0.3729 -0.3611
 9108TIP3    H127288   1.620   4.988   4.811  1.7327  1.4697 -1.4351
 9108TIP3    H227289   1.618   4.991   4.963 -2.4738 -2.9177 -1.1380
 9109TIP3   OH227290   5.944   3.797   4.908 -0.0038  0.1990 -0.5461
 9109TIP3    H127291   5.937   3.888   4.936  0.5235 -0.1323  0.7390
 9109TIP3    H227292   6.037   3.777   4.914 -0.1113 -0.4114 -0.8579
 9110TIP3   OH227293   4.605   3.083   4.843 -0.0285  0.4800  0.8142
 9110TIP3    H127294   4.585   3.136   4.920  0.0727  0.4145  0.8858
 9110TIP3    H227295   4.700   3.084   4.838 -0.0627  1.2557  0.1501
 9111TIP3   OH227296   6.738   4.584   4.668  0.9837  0.2847  0.2420
 9111TIP3    H127297   6.734   4.495   4.703  2.7562  0.1242  0.1111
 9111TIP3    H227298   6.764   4.638   4.743  2.4585  0.2884 -0.2444
 9112TIP3   OH227299   0.622   1.391   3.637 -0.1396  0.3326 -0.4903
 9112TIP3    H127300   0.635   1.330   3.709 -0.3858  0.4473 -0.3480
 9112TIP3    H227301   0.641   1.477   3.674 -1.3349  0.5194 -0.2523
 9113TIP3   OH227302   0.311   5.165   5.053  0.2150  0.4884  0.3023
 9113TIP3    H127303   0.290   5.116   4.973 -1.8240  1.0542  0.4442
 9113TIP3    H227304   0.388   5.120   5.088 -1.0816 -2.1567  0.0128
 9114TIP3   OH227305   4.231   0.564   3.418 -0.3161 -0.3964 -0.1725
 9114TIP3    H127306   4.324   0.572   3.437 -0.1264  0.5659 -1.3912
 9114TIP3    H227307   4.227   0.554   3.323 -1.5434  1.3512 -0.3398
 9115TIP3   OH227308   2.926   0.806   0.309  0.0801  0.0150  0.1154
 9115TIP3    H127309   2.843   0.810   0.262  1.1017  0.0588 -1.7624
 9115TIP3    H227310   2.946   0.897   0.331 -0.2785  0.0200  0.4337
 9116TIP3   OH227311   0.453   3.024   5.334 -0.3171  0.2922 -0.5302
 9116TIP3    H127312   0.543   2.994   5.342 -0.6532 -0.9514 -1.2096
 9116TIP3    H227313   0.403   2.968   5.393 -1.0339 -0.9526 -2.2477
 9117TIP3   OH227314   3.673   4.864   0.852 -0.2270 -0.4107 -0.3331
 9117TIP3    H127315   3.614   4.922   0.805 -0.9254 -0.8098  0.0325
 9117TIP3    H227316   3.756   4.870   0.804 -0.8974 -0.7686 -1.5846
 9118TIP3   OH227317   6.580   6.497   3.032  0.7793 -0.4404 -0.6642
 9118TIP3    H127318   6.652   6.557   3.013  1.7430 -1.7361 -1.3029
 9118TIP3    H227319   6.541   6.478   2.947  1.1927 -1.5505 -0.6190
 9119TIP3   OH227320   1.938   5.655   3.569  0.1678  0.0903 -0.0397
 9119TIP3    H127321   1.871   5.608   3.519  0.9225 -1.1049  0.0238
 9119TIP3    H227322   1.958   5.596   3.642  0.1785  1.1307  0.8065
 9120TIP3   OH227323   3.751   3.174   2.576  0.5381 -0.2588 -0.1780
 9120TIP3    H127324   3.768   3.084   2.604  0.3704  0.0290  0.8971
 9120TIP3    H227325   3.772   3.227   2.653 -1.4554  0.4265 -0.0424
 9121TIP3   OH227326   3.930   5.447   0.959  0.5114  0.6122  0.5403
 9121TIP3    H127327   3.872   5.521   0.944  1.1541  1.4518  2.0542
 9121TIP3    H227328   4.014   5.473   0.922 -0.3158 -1.2165 -3.1119
 9122TIP3   OH227329   5.942   4.380   0.586 -0.2684 -0.1399  0.2203
 9122TIP3    H127330   6.029   4.409   0.611  0.6492 -1.3641 -1.3861
 9122TIP3    H227331   5.893   4.461   0.572  1.7224  0.7402 -2.5101
 9123TIP3   OH227332   6.229   1.124   5.664 -0.1625 -0.3691  0.3545
 9123TIP3    H127333   6.224   1.050   5.724  1.6192  0.8702  2.1482
 9123TIP3    H227334   6.227   1.201   5.720  1.6857  0.8533 -1.1317
 9124TIP3   OH227335   0.274   0.898   4.271  0.3151 -0.2963  0.0054
 9124TIP3    H127336   0.194   0.853   4.299  0.3310 -1.3143 -1.4937
 9124TIP3    H227337   0.261   0.989   4.300 -0.5588 -0.8245  1.3935
 9125TIP3   OH227338   5.356   5.596   4.989  0.1419 -0.0565  0.3113
 9125TIP3    H127339   5.309   5.582   5.071  0.0782 -1.9011 -0.0132
 9125TIP3    H227340   5.422   5.662   5.011  0.5112 -0.9275  2.0177
 9126TIP3   OH227341   5.176   1.350   3.092  0.4272  0.6558  0.4357
 9126TIP3    H127342   5.131   1.387   3.016  1.1225 -0.0498 -0.3468
 9126TIP3    H227343   5.142   1.260   3.098 -0.3403  1.0044  1.5663
 9127TIP3   OH227344   5.967   4.781   3.008  0.3937 -0.6180 -0.3362
 9127TIP3    H127345   6.031   4.831   3.059  1.0089 -0.4684 -1.2369
 9127TIP3    H227346   5.993   4.690   3.019 -0.1545 -0.6878  0.5206
 9128TIP3   OH227347   1.125   0.735   4.771  0.4133 -0.3220 -0.0576
 9128TIP3    H127348   1.072   0.772   4.842  0.9374 -0.4644  0.4219
 9128TIP3    H227349   1.118   0.798   4.700  0.0513 -0.0674  0.2037
 9129TIP3   OH227350   6.812   2.910   3.687  0.5897 -0.2099  0.7516
 9129TIP3    H127351   6.805   2.855   3.766  0.3853 -1.6727 -0.2448
 9129TIP3    H227352   6.849   2.993   3.719 -0.3683 -0.4138  2.5335
 9130TIP3   OH227353   1.962   4.930   1.570  0.1001  0.3335 -0.6604
 9130TIP3    H127354   1.994   5.012   1.610  0.3276 -0.0039 -0.1357
 9130TIP3    H227355   1.871   4.947   1.550 -0.1389  0.3815  0.3985
 9131TIP3   OH227356   5.115   1.061   1.616 -0.4398 -0.2793 -0.0568
 9131TIP3    H127357   5.198   1.101   1.590 -0.8666  0.6707 -0.0089
 9131TIP3    H227358   5.049   1.109   1.565 -1.2060  0.8494  1.8826
 9132TIP3   OH227359   4.757   5.270   0.580  0.0685  0.3756 -0.2532
 9132TIP3    H127360   4.825   5.259   0.646 -0.2924  0.4468  0.1375
 9132TIP3    H227361   4.788   5.343   0.525 -0.0773  0.9502  0.4195
 9133TIP3   OH227362   6.952   3.738   4.415 -0.8616  1.4121 -0.8952
 9133TIP3    H127363   6.891   3.808   4.393 -1.6757  0.6206 -1.1940
 9133TIP3    H227364   7.016   3.780   4.473 -1.6714  2.2571 -0.5871
 9134TIP3   OH227365   6.629   4.245   1.251  0.1815 -0.2302 -0.0556
 9134TIP3    H127366   6.669   4.211   1.331 -2.9836  0.0490  1.7970
 9134TIP3    H227367   6.574   4.173   1.220 -1.1546  0.7847 -0.0918
 9135TIP3   OH227368   2.557   6.519   5.201  0.3224 -0.0894  0.2011
 9135TIP3    H127369   2.489   6.486   5.142  1.0637 -0.3355 -0.5470
 9135TIP3    H227370   2.587   6.601   5.160  0.2709  0.1752  0.6838
 9136TIP3   OH227371   1.930   6.020   3.451  0.0160 -0.2121 -0.4288
 9136TIP3    H127372   1.852   5.965   3.447  0.7162 -1.2249 -0.3853
 9136TIP3    H227373   2.001   5.963   3.422  0.5880  1.0109 -1.5018
 9137TIP3   OH227374   4.808   3.525   0.764  0.0685  1.0443 -0.4384
 9137TIP3    H127375   4.899   3.538   0.790 -0.2710  2.1285  0.2658
 9137TIP3    H227376   4.811   3.518   0.668  1.2957 -2.6950 -0.2774
 9138TIP3   OH227377   2.463   5.320   1.179 -0.0008  0.3023 -0.0074
 9138TIP3    H127378   2.411   5.244   1.155 -3.3204  2.4947 -0.3082
 9138TIP3    H227379   2.498   5.299   1.266 -4.4444 -0.0284  1.9292
 9139TIP3   OH227380   6.535   1.379   0.935 -0.2754  0.2898 -0.2942
 9139TIP3    H127381   6.577   1.433   1.002 -1.2542 -0.0075  0.5706
 9139TIP3    H227382   6.483   1.441   0.883 -0.7152  0.3044  0.1628
 9140TIP3   OH227383   7.070   1.646   3.714  0.3909  0.2811 -0.1405
 9140TIP3    H127384   7.053   1.671   3.805  1.3310 -0.1432  0.1586
 9140TIP3    H227385   6.986   1.614   3.682  0.4127 -1.1363  1.0921
 9141TIP3   OH227386   3.109   1.119   1.083  0.3391  0.4009  0.1034
 9141TIP3    H127387   3.082   1.175   1.155  0.4132  0.8683 -0.2294
 9141TIP3    H227388   3.096   1.172   1.004  2.8873  0.9465 -0.0416
 9142TIP3   OH227389   5.504   3.534   2.334  0.2797 -0.4352 -0.3507
 9142TIP3    H127390   5.591   3.494   2.332  0.1289 -0.7479 -1.1721
 9142TIP3    H227391   5.499   3.583   2.252  0.1233  0.5524  0.2453
 9143TIP3   OH227392   5.617   5.305   2.114  0.2697  0.2544  0.2510
 9143TIP3    H127393   5.677   5.281   2.184  1.8222  0.9571 -0.7986
 9143TIP3    H227394   5.652   5.263   2.036 -0.8076  0.3940 -0.3295
 9144TIP3   OH227395   6.890   6.055   2.746 -0.1929 -0.2331  0.4687
 9144TIP3    H127396   6.860   6.017   2.663  1.2615 -0.1147 -0.1381
 9144TIP3    H227397   6.982   6.074   2.732 -0.2178  0.9943  1.6930
 9145TIP3   OH227398   2.958   2.066   5.847  0.0532 -0.1272  0.1900
 9145TIP3    H127399   2.978   2.045   5.939  0.4039 -1.1907 -0.1084
 9145TIP3    H227400   2.957   2.161   5.844 -2.4544 -0.0065  1.8407
 9146TIP3   OH227401   4.775   1.858   1.026 -0.2004  0.1658  0.1529
 9146TIP3    H127402   4.737   1.789   0.971 -1.5410  1.1009 -0.1530
 9146TIP3    H227403   4.859   1.878   0.985 -0.0472 -0.8794 -0.0763
 9147TIP3   OH227404   2.496   6.129   0.174  0.1537  0.0840 -0.2096
 9147TIP3    H127405   2.492   6.043   0.215 -0.2738  0.2964  0.2010
 9147TIP3    H227406   2.413   6.171   0.196 -0.3384  0.0060 -1.7556
 9148TIP3   OH227407   3.692   3.967   1.726 -0.2506 -0.8463  0.2449
 9148TIP3    H127408   3.642   3.887   1.738 -1.9469 -0.2660 -2.1487
 9148TIP3    H227409   3.649   4.031   1.783 -1.2103 -0.7928 -0.5045
 9149TIP3   OH227410   2.202   1.017   1.729  0.9506 -0.2223 -0.1738
 9149TIP3    H127411   2.283   1.040   1.684  1.7093 -1.0003  0.7323
 9149TIP3    H227412   2.228   1.008   1.821  0.0469 -1.4512 -0.0130
 9150TIP3   OH227413   4.071   4.119   2.598 -0.4685  0.4147  0.0559
 9150TIP3    H127414   4.051   4.052   2.531 -0.6690 -1.1394  1.6012
 9150TIP3    H227415   4.167   4.120   2.603 -0.4788 -0.3289  0.5510
 9151TIP3   OH227416   6.795   2.026   3.903 -0.1297 -0.0397  0.9038
 9151TIP3    H127417   6.761   1.937   3.905  0.4497 -0.2797  0.4279
 9151TIP3    H227418   6.726   2.077   3.861  0.4527 -0.7077 -0.9911
 9152TIP3   OH227419   0.829   5.449   5.852  0.1992  0.1031 -0.5625
 9152TIP3    H127420   0.819   5.458   5.947  0.6763  0.0298 -0.5057
 9152TIP3    H227421   0.885   5.372   5.841  0.9442  0.6787 -0.8722
 9153TIP3   OH227422   5.073   5.533   3.731  0.0857 -0.1733 -0.3865
 9153TIP3    H127423   5.110   5.621   3.728  2.4615 -1.0495  0.5317
 9153TIP3    H227424   5.103   5.493   3.649 -0.0888 -0.4606 -0.3096
 9154TIP3   OH227425   5.008   3.778   5.465 -0.5402 -0.4085  0.1872
 9154TIP3    H127426   4.917   3.752   5.475 -0.8856  0.1884 -1.1674
 9154TIP3    H227427   5.058   3.700   5.490 -1.4806 -1.4965 -1.1699
 9155TIP3   OH227428   1.653   4.648   1.605  0.1301  0.3745 -0.3958
 9155TIP3    H127429   1.599   4.704   1.661  0.3473  0.9244 -0.7279
 9155TIP3    H227430   1.719   4.707   1.569  2.3679 -0.6743  1.7123
 9156TIP3   OH227431   7.125   1.327   5.219  0.3185 -0.3235  0.5830
 9156TIP3    H127432   7.034   1.332   5.248  0.8402  2.5700  2.1256
 9156TIP3    H227433   7.120   1.330   5.123 -1.2187 -1.0968  0.6053
 9157TIP3   OH227434   6.148   5.024   0.966 -0.0603  0.7860  0.2384
 9157TIP3    H127435   6.130   5.112   1.001 -0.5282  0.6103  0.4528
 9157TIP3    H227436   6.064   4.979   0.972  0.9432 -1.0556  4.0299
 9158TIP3   OH227437   6.856   5.734   5.520  0.0524  0.6236  0.1259
 9158TIP3    H127438   6.932   5.679   5.500  0.8206  1.9113 -0.6279
 9158TIP3    H227439   6.850   5.732   5.616  1.7098  1.3428  0.2724
 9159TIP3   OH227440   2.522   0.793   4.087 -0.1643 -0.3681 -0.5303
 9159TIP3    H127441   2.530   0.888   4.074  0.7536 -0.7225 -2.8298
 9159TIP3    H227442   2.574   0.776   4.166  1.4804  0.7564 -1.3139
 9160TIP3   OH227443   3.314   4.709   2.310 -0.2664  0.0591 -0.0786
 9160TIP3    H127444   3.402   4.731   2.343 -0.4211  0.3388  0.1495
 9160TIP3    H227445   3.316   4.614   2.300  0.8772  0.2765 -2.4386
 9161TIP3   OH227446   6.332   2.935   2.911 -0.1088  0.3441 -0.0075
 9161TIP3    H127447   6.376   2.999   2.855 -0.2894 -0.2041 -0.7874
 9161TIP3    H227448   6.240   2.938   2.883 -0.0513 -0.5233 -0.3180
 9162TIP3   OH227449   0.827   6.210   5.489  0.4024  0.0050 -0.5783
 9162TIP3    H127450   0.907   6.162   5.465  0.2674 -0.7672  0.4627
 9162TIP3    H227451   0.846   6.248   5.575 -0.7884 -1.2756  0.2851
 9163TIP3   OH227452   6.874   5.253   0.305  0.2519  0.1409  0.1103
 9163TIP3    H127453   6.782   5.231   0.315  0.7020 -1.2449  1.5925
 9163TIP3    H227454   6.884   5.270   0.211 -1.2850 -0.7457 -0.2524
 9164TIP3   OH227455   4.391   0.314   4.728 -0.0707  0.1084  0.4352
 9164TIP3    H127456   4.408   0.408   4.727  0.8988 -0.0399  1.1656
 9164TIP3    H227457   4.311   0.303   4.677  0.5374  1.1801 -0.8022
 9165TIP3   OH227458   3.956   3.662   2.586 -0.1278  0.4452 -0.1028
 9165TIP3    H127459   3.871   3.689   2.551  0.2742  1.7463 -0.1413
 9165TIP3    H227460   3.945   3.665   2.681 -0.2414  0.2249 -0.1093
 9166TIP3   OH227461   0.166   0.582   5.179 -0.6611  0.1002  0.1238
 9166TIP3    H127462   0.254   0.596   5.214  0.3597  1.2312 -2.6454
 9166TIP3    H227463   0.111   0.645   5.225  0.5109  1.1846  0.0682
 9167TIP3   OH227464   4.587   3.182   4.584 -0.5406  0.2197  0.2598
 9167TIP3    H127465   4.524   3.252   4.572 -2.5942 -1.6469 -0.5202
 9167TIP3    H227466   4.578   3.157   4.676  0.5735  1.2732  0.6765
 9168TIP3   OH227467   3.266   5.546   0.680  0.0657  0.2594  0.2117
 9168TIP3    H127468   3.179   5.519   0.651  0.4887 -0.7210 -0.1986
 9168TIP3    H227469   3.311   5.572   0.600 -0.1592  1.7784  0.5391
 9169TIP3   OH227470   5.659   2.858   2.072 -0.5365  0.9334  0.0114
 9169TIP3    H127471   5.726   2.790   2.071 -1.9096 -0.4641 -0.4208
 9169TIP3    H227472   5.662   2.894   2.161  0.7777  0.9194 -0.0158
 9170TIP3   OH227473   1.223   6.224   2.740 -0.2720  0.0141 -0.1658
 9170TIP3    H127474   1.190   6.266   2.820  0.8167  0.2761  0.1670
 9170TIP3    H227475   1.278   6.152   2.772  2.8283  2.0320 -0.4789
 9171TIP3   OH227476   6.242   3.841   2.389  0.2626  0.1506  0.4189
 9171TIP3    H127477   6.305   3.896   2.435  0.3770  1.1969 -0.9276
 9171TIP3    H227478   6.268   3.846   2.297 -0.7589 -0.7760  0.0550
 9172TIP3   OH227479   1.610   5.833   2.461  0.2442 -0.3140  0.2494
 9172TIP3    H127480   1.677   5.845   2.528 -0.4600 -1.3417  1.1911
 9172TIP3    H227481   1.527   5.846   2.508 -0.3387 -2.9885  0.1146
 9173TIP3   OH227482   0.568   4.435   3.997 -0.0614 -0.3397 -0.5101
 9173TIP3    H127483   0.645   4.379   3.998 -0.5342 -1.0804  2.0555
 9173TIP3    H227484   0.498   4.380   4.030 -1.3214  0.8417 -1.0813
 9174TIP3   OH227485   6.773   1.255   4.892 -0.2023  0.1465  0.2915
 9174TIP3    H127486   6.710   1.320   4.924  0.4663  1.5502 -1.0547
 9174TIP3    H227487   6.721   1.176   4.876 -0.8259 -0.1046  3.1382
 9175TIP3   OH227488   5.235   3.341   3.345  0.0114 -0.3420 -0.3306
 9175TIP3    H127489   5.253   3.380   3.431  1.1853 -0.9598 -0.2778
 9175TIP3    H227490   5.146   3.369   3.324 -0.3263 -0.2584  1.1257
 9176TIP3   OH227491   2.788   5.060   3.281 -0.0498  0.3222  0.8274
 9176TIP3    H127492   2.770   4.969   3.301  1.3649 -0.5732 -1.5477
 9176TIP3    H227493   2.843   5.057   3.203  1.0063  3.1803  1.3382
 9177TIP3   OH227494   1.593   6.273   2.388  0.1163 -1.0059  0.1515
 9177TIP3    H127495   1.528   6.294   2.455  0.2961 -2.1211  0.6964
 9177TIP3    H227496   1.677   6.286   2.431  0.2537 -0.4250 -0.2811
 9178TIP3   OH227497   5.256   6.138   1.445  0.0112 -0.2362  0.2054
 9178TIP3    H127498   5.317   6.089   1.500 -1.3357 -2.6332 -0.2601
 9178TIP3    H227499   5.170   6.102   1.467 -1.0561  1.7608 -0.4406
 9179TIP3   OH227500   1.873   0.053   3.544 -0.3359 -0.0976 -0.2164
 9179TIP3    H127501   1.816   0.058   3.621 -0.0154  0.5926 -0.0213
 9179TIP3    H227502   1.872   0.141   3.508  1.2671  0.1412  0.2675
 9180TIP3   OH227503   4.436   5.421   2.359 -0.2527  0.2575  0.0383
 9180TIP3    H127504   4.401   5.464   2.437 -0.2907 -0.3524  0.3700
 9180TIP3    H227505   4.399   5.470   2.286 -3.7222 -1.6645  0.2625
 9181TIP3   OH227506   4.204   5.444   2.815  0.2701  0.4951  0.3948
 9181TIP3    H127507   4.284   5.488   2.784 -0.2270  2.8938  2.2259
 9181TIP3    H227508   4.138   5.512   2.817 -1.3688 -1.0235  0.6724
 9182TIP3   OH227509   4.143   2.093   4.374  0.1558  0.5444 -0.2615
 9182TIP3    H127510   4.209   2.082   4.305  0.8794 -0.4495  0.5580
 9182TIP3    H227511   4.163   2.178   4.413  1.0945  0.1716  0.0993
 9183TIP3   OH227512   5.028   4.614   2.653  0.2961 -0.0010  0.5681
 9183TIP3    H127513   5.038   4.580   2.742  0.6244 -1.6150 -0.0688
 9183TIP3    H227514   4.963   4.557   2.612  0.2519  0.6371 -0.2927
 9184TIP3   OH227515   6.655   4.117   5.597 -0.2389  0.4668  0.0134
 9184TIP3    H127516   6.637   4.055   5.668  0.4017  0.1870 -0.0620
 9184TIP3    H227517   6.705   4.187   5.638 -1.8658  1.5007  0.3309
 9185TIP3   OH227518   6.491   0.872   4.151 -0.1487  0.2667 -0.1719
 9185TIP3    H127519   6.430   0.886   4.079  2.2684 -1.0413 -2.6313
 9185TIP3    H227520   6.569   0.921   4.127  1.2131 -1.2621  0.8914
 9186TIP3   OH227521   5.446   5.029   3.588  0.3173 -0.6342  0.4260
 9186TIP3    H127522   5.407   5.115   3.605 -1.7660 -1.5990  0.7852
 9186TIP3    H227523   5.392   4.968   3.638  1.4747 -2.2238 -0.2010
 9187TIP3   OH227524   5.570   1.148   4.790 -0.3274 -0.2117  0.2135
 9187TIP3    H127525   5.570   1.055   4.812 -0.6972  0.2609  2.5483
 9187TIP3    H227526   5.598   1.192   4.870  0.3629  1.6834 -0.9852
 9188TIP3   OH227527   5.104   4.740   2.103  0.5823  0.1036 -0.0945
 9188TIP3    H127528   5.196   4.728   2.081  0.0251  1.2032 -3.6232
 9188TIP3    H227529   5.077   4.655   2.140  2.6838 -0.6626 -0.1782
 9189TIP3   OH227530   4.760   6.322   4.210 -0.3759 -0.4061 -0.0524
 9189TIP3    H127531   4.697   6.289   4.145  1.4134 -2.0067 -1.0857
 9189TIP3    H227532   4.823   6.251   4.220  3.9021  2.5374 -2.5625
 9190TIP3   OH227533   6.178   1.711   5.455  0.0772 -0.1661  0.1387
 9190TIP3    H127534   6.223   1.725   5.372 -0.7171 -0.4656 -0.3552
 9190TIP3    H227535   6.180   1.796   5.498  2.1059 -0.4321  0.6529
 9191TIP3   OH227536   2.971   1.800   3.659 -0.1675 -0.1538  0.4210
 9191TIP3    H127537   3.057   1.817   3.621 -0.4272  0.5093  0.1102
 9191TIP3    H227538   2.929   1.887   3.663 -0.2740 -0.2447  1.9088
 9192TIP3   OH227539   6.442   3.113   2.017 -0.7123 -0.1258  0.2977
 9192TIP3    H127540   6.492   3.165   1.954  1.3718 -1.5203  0.7158
 9192TIP3    H227541   6.405   3.178   2.078  0.6422  0.9668  0.0061
 9193TIP3   OH227542   4.228   0.579  -0.004 -0.3378  0.6800  0.4112
 9193TIP3    H127543   4.282   0.530   0.058  1.4316  0.2070 -1.4012
 9193TIP3    H227544   4.160   0.517  -0.031  0.6667 -0.1422 -0.3227
 9194TIP3   OH227545   2.713   1.449   3.085  0.1752 -0.2202  0.4848
 9194TIP3    H127546   2.665   1.366   3.085 -0.0595 -0.0926 -0.6611
 9194TIP3    H227547   2.800   1.427   3.120  0.0145 -0.8877  0.4674
 9195TIP3   OH227548   7.063   6.497   2.975 -0.0184 -0.0818  0.4495
 9195TIP3    H127549   7.143   6.454   3.005 -1.3850 -1.6510  2.0487
 9195TIP3    H227550   6.992   6.446   3.013 -1.8036  2.3328  0.6445
 9196TIP3   OH227551   1.052   4.495   1.134 -0.2222 -0.1772  1.2232
 9196TIP3    H127552   1.038   4.487   1.039  0.7874 -1.4419  1.1468
 9196TIP3    H227553   1.077   4.586   1.147  2.7401 -0.6315 -0.2440
 9197TIP3   OH227554   1.552   0.473   4.911  0.0517 -0.0078  0.2241
 9197TIP3    H127555   1.610   0.508   4.978 -0.8402  0.2262  0.8997
 9197TIP3    H227556   1.608   0.460   4.834  0.4831  2.7062 -0.0218
 9198TIP3   OH227557   5.026   0.904   4.902 -1.2131 -0.2611 -0.0007
 9198TIP3    H127558   5.115   0.905   4.866 -1.0397 -0.9462  0.3784
 9198TIP3    H227559   4.999   0.995   4.903  0.0087  0.1188  1.1632
 9199TIP3   OH227560   7.185   6.793   5.370 -0.2636 -0.0624 -0.2117
 9199TIP3    H127561   7.136   6.867   5.333  2.6053  1.2916 -1.5916
 9199TIP3    H227562   7.160   6.719   5.316  0.3956  0.9495 -1.9766
 9200TIP3   OH227563   2.905   4.898   3.055  0.0599  0.2678  0.6741
 9200TIP3    H127564   2.856   4.826   3.016 -0.6893 -0.5536  3.0058
 9200TIP3    H227565   2.993   4.891   3.016 -0.3945 -1.0292 -0.1742
 9201TIP3   OH227566   2.172   0.259   1.593 -0.1808  0.3146  0.6795
 9201TIP3    H127567   2.219   0.226   1.670  0.5512 -0.0626  0.0800
 9201TIP3    H227568   2.200   0.350   1.584  1.5082 -0.2658 -0.4443
 9202TIP3   OH227569   3.013   5.559   4.260  0.0489 -0.3334  0.5210
 9202TIP3    H127570   3.007   5.568   4.165 -0.6286  1.7011  0.7100
 9202TIP3    H227571   2.922   5.550   4.290 -0.0320  1.8578  1.1431
 9203TIP3   OH227572   3.760   3.758   0.434 -0.3712  0.2804  0.0887
 9203TIP3    H127573   3.695   3.746   0.503  0.3655  0.3919  0.8167
 9203TIP3    H227574   3.823   3.688   0.447 -0.6332 -0.1673 -0.9648
 9204TIP3   OH227575   4.670   1.424   3.657  0.0646  0.2206 -0.1978
 9204TIP3    H127576   4.672   1.361   3.729  0.8686 -1.7384 -1.8400
 9204TIP3    H227577   4.697   1.507   3.697 -2.2817 -0.0914  2.3151
 9205TIP3   OH227578   4.568   2.080   3.919  0.1607  0.3193 -0.1648
 9205TIP3    H127579   4.562   2.175   3.931 -0.4980  0.3632 -0.7890
 9205TIP3    H227580   4.508   2.061   3.848  0.1615 -0.5964  0.0696
 9206TIP3   OH227581   6.067   6.299   0.587 -0.3413 -1.0045 -0.1373
 9206TIP3    H127582   6.109   6.381   0.614 -0.1884 -0.8890 -0.7051
 9206TIP3    H227583   6.087   6.292   0.494 -1.7184 -0.8787 -0.4606
 9207TIP3   OH227584   3.993   1.285   1.829 -0.0623 -0.1122  0.4815
 9207TIP3    H127585   3.973   1.345   1.757 -0.0113 -1.4335 -0.6962
 9207TIP3    H227586   3.913   1.235   1.841  0.1717 -0.4055  0.8351
 9208TIP3   OH227587   2.966   3.197   1.459 -0.0595 -0.0033 -0.0695
 9208TIP3    H127588   3.003   3.270   1.509 -0.3788  0.8570 -1.0399
 9208TIP3    H227589   3.031   3.180   1.391 -0.1429 -0.4124 -0.0474
 9209TIP3   OH227590   1.855   5.619   0.429  0.7041 -0.0014 -0.2079
 9209TIP3    H127591   1.844   5.669   0.348 -1.7961 -0.3701 -0.1623
 9209TIP3    H227592   1.825   5.678   0.498  0.9943 -0.3662  0.2362
 9210TIP3   OH227593   5.309   3.514   1.546  0.0776 -0.4858 -0.5964
 9210TIP3    H127594   5.233   3.570   1.531  0.0210 -0.9319 -2.2571
 9210TIP3    H227595   5.358   3.558   1.615 -1.2768  0.2302 -0.0570
 9211TIP3   OH227596   4.908   2.060   4.446  0.1862 -0.2484  0.2105
 9211TIP3    H127597   4.960   2.106   4.381 -0.9246 -0.3834 -0.8064
 9211TIP3    H227598   4.972   2.018   4.503  1.1869  0.1321 -0.6072
 9212TIP3   OH227599   2.704   0.240   2.142 -0.3639  0.5911 -0.0166
 9212TIP3    H127600   2.641   0.246   2.071 -0.9774  0.8302  0.5310
 9212TIP3    H227601   2.788   0.221   2.100 -0.5966  1.3839 -0.8499
 9213TIP3   OH227602   0.819   4.996   3.437 -0.3296  0.6115  0.5956
 9213TIP3    H127603   0.908   4.983   3.468 -0.0096 -1.3885 -0.9665
 9213TIP3    H227604   0.829   5.037   3.351 -0.6611 -2.2766 -0.9442
 9214TIP3   OH227605   4.996   0.721   5.098 -0.2523  0.0844  0.1073
 9214TIP3    H127606   4.912   0.679   5.080  0.2767 -0.2820 -1.7076
 9214TIP3    H227607   5.017   0.769   5.018  2.1251 -1.3599 -0.2639
 9215TIP3   OH227608   1.417   3.179   3.723 -0.5276 -0.8388 -0.2445
 9215TIP3    H127609   1.409   3.234   3.801 -0.6421 -1.6266  0.3082
 9215TIP3    H227610   1.504   3.141   3.729 -1.0452 -1.9824  0.2314
 9216TIP3   OH227611   5.996   4.006   1.090 -0.3878  0.0631  0.6093
 9216TIP3    H127612   6.032   4.012   1.002 -1.8532  2.2917  0.0954
 9216TIP3    H227613   5.907   3.972   1.078 -1.2271  2.0008  0.9791
 9217TIP3   OH227614   1.212   4.323   3.179 -0.1526  0.0787  0.3382
 9217TIP3    H127615   1.269   4.395   3.205 -0.7017  2.0761 -3.2077
 9217TIP3    H227616   1.178   4.287   3.261  3.3086  1.1339  2.4337
 9218TIP3   OH227617   6.004   5.725   3.170 -0.2341 -0.5487  0.2591
 9218TIP3    H127618   6.023   5.633   3.191 -0.3147 -0.7236 -0.4151
 9218TIP3    H227619   5.954   5.721   3.088 -0.7104  0.0674  0.5119
 9219TIP3   OH227620   0.976   0.075   3.815 -0.3398  0.2707 -0.3126
 9219TIP3    H127621   0.917   0.038   3.749 -0.2533 -0.6012  0.0765
 9219TIP3    H227622   0.992   0.164   3.786 -1.3637  0.3258 -0.7600
 9220TIP3   OH227623   1.590   6.217   3.646  0.0050 -0.3161 -0.2045
 9220TIP3    H127624   1.669   6.237   3.697  0.9863 -1.5566 -1.1558
 9220TIP3    H227625   1.620   6.155   3.579 -1.8159 -0.9419 -0.5038
 9221TIP3   OH227626   1.699   4.659   0.929  0.0246  0.0148  0.8798
 9221TIP3    H127627   1.734   4.580   0.970 -0.5568  0.6102  2.6098
 9221TIP3    H227628   1.608   4.639   0.910  0.0075  0.1192  0.8511
 9222TIP3   OH227629   0.837   3.969   2.574  0.1584 -0.5439  0.4853
 9222TIP3    H127630   0.824   3.904   2.643  1.8163 -0.8519  0.5441
 9222TIP3    H227631   0.864   4.048   2.621  0.3499 -0.4780  0.2676
 9223TIP3   OH227632   1.236   5.198   0.074 -0.2875 -0.4299  0.0710
 9223TIP3    H127633   1.310   5.138   0.069  0.0757  0.0462 -0.4809
 9223TIP3    H227634   1.225   5.216   0.168 -2.9533 -4.4136  0.7520
 9224TIP3   OH227635   5.262   0.230   2.509  0.0775 -0.5302 -0.2440
 9224TIP3    H127636   5.345   0.235   2.460 -0.2256  0.1131 -0.7162
 9224TIP3    H227637   5.282   0.269   2.594 -0.0508  0.8681 -0.8252
 9225TIP3   OH227638   6.240   3.810   4.785 -0.3292 -0.4942  0.0747
 9225TIP3    H127639   6.223   3.904   4.797 -1.1429 -0.5428 -0.5830
 9225TIP3    H227640   6.330   3.806   4.752  0.3274 -0.0786  1.6889
 9226TIP3   OH227641   3.165   2.953   3.817  0.1241  0.1274  0.3110
 9226TIP3    H127642   3.177   3.006   3.896  0.4610 -1.9732  1.7794
 9226TIP3    H227643   3.246   2.904   3.809  0.7464  1.4365 -2.3581
 9227TIP3   OH227644   5.829   1.561   0.716 -0.6150  0.1679 -0.1550
 9227TIP3    H127645   5.818   1.476   0.759  1.5734  0.3870  0.9614
 9227TIP3    H227646   5.819   1.542   0.622 -0.4994 -1.2391  0.1017
 9228TIP3   OH227647   3.891   4.122   4.695  0.2999 -0.0237 -0.7294
 9228TIP3    H127648   3.888   4.026   4.699  1.0748 -0.0052  1.5519
 9228TIP3    H227649   3.981   4.142   4.668  0.5767  0.0528  0.2191
 9229TIP3   OH227650   3.827   2.287   1.583  0.0536 -0.0856 -0.1694
 9229TIP3    H127651   3.892   2.219   1.600  0.5216  0.4004  0.0363
 9229TIP3    H227652   3.828   2.342   1.662 -1.5230 -0.7798  0.3678
 9230TIP3   OH227653   2.407   5.451   5.151 -0.2041 -0.1816 -0.0901
 9230TIP3    H127654   2.397   5.505   5.072  1.0835  1.1567  0.6037
 9230TIP3    H227655   2.473   5.497   5.202  0.6632 -2.2513  0.7348
 9231TIP3   OH227656   0.299   0.246   4.761 -0.1979 -0.1748  0.2978
 9231TIP3    H127657   0.226   0.184   4.759 -1.3129  1.1159 -0.1553
 9231TIP3    H227658   0.273   0.313   4.824 -0.6516  1.7009 -1.7501
 9232TIP3   OH227659   0.574   2.695   5.477 -0.4207  0.0815 -0.1775
 9232TIP3    H127660   0.564   2.612   5.524  0.9972  0.1742  0.3429
 9232TIP3    H227661   0.502   2.696   5.415 -1.2222 -0.9419  0.6899
 9233TIP3   OH227662   1.473   2.063   0.842 -0.1139 -0.3487 -0.1467
 9233TIP3    H127663   1.389   2.066   0.795  0.6015  3.3993 -1.5447
 9233TIP3    H227664   1.463   2.129   0.911  1.7184  0.3513 -0.5049
 9234TIP3   OH227665   0.790   0.802   3.100 -0.6503 -0.1180  0.4856
 9234TIP3    H127666   0.769   0.717   3.061 -1.7445 -0.1417  1.1091
 9234TIP3    H227667   0.864   0.834   3.048 -0.3337 -1.3687  0.1339
 9235TIP3   OH227668   4.849   2.360   5.600  0.4851 -0.3479  0.7612
 9235TIP3    H127669   4.941   2.386   5.594  0.7922 -1.4638  0.2629
 9235TIP3    H227670   4.817   2.365   5.510 -0.3809  1.4347  1.1189
 9236TIP3   OH227671   3.049   5.388   5.511  0.0326  0.4037 -0.3181
 9236TIP3    H127672   2.988   5.415   5.580 -0.7827 -0.0122 -0.8592
 9236TIP3    H227673   3.112   5.331   5.555 -0.4350  0.2013  0.0915
 9237TIP3   OH227674   5.234   2.407   2.460  0.2037 -0.0099  0.8772
 9237TIP3    H127675   5.175   2.478   2.434  0.3908  0.6346  2.1751
 9237TIP3    H227676   5.230   2.406   2.555 -1.5200 -3.2249  0.9051
 9238TIP3   OH227677   2.819   1.787   2.582  0.4931  0.3341  0.0281
 9238TIP3    H127678   2.732   1.781   2.623  0.5611 -0.3975  0.0711
 9238TIP3    H227679   2.877   1.740   2.641  0.5487 -0.9594 -1.0060
 9239TIP3   OH227680   2.732   1.350   3.664 -0.0634  0.1511  0.2236
 9239TIP3    H127681   2.649   1.360   3.712  0.7718 -0.1225  1.7764
 9239TIP3    H227682   2.719   1.400   3.583 -1.3627  0.9871  0.9180
 9240TIP3   OH227683   0.488   2.896   3.506 -0.0800 -0.6875  0.4327
 9240TIP3    H127684   0.565   2.939   3.471 -0.3871 -0.8569 -0.4798
 9240TIP3    H227685   0.419   2.962   3.500  0.0026 -0.4982  1.3489
 9241TIP3   OH227686   2.430   2.368   2.835 -0.2096 -0.1750 -0.1124
 9241TIP3    H127687   2.515   2.326   2.819  0.5639  1.2224  0.0837
 9241TIP3    H227688   2.382   2.357   2.753  0.7190  0.1995 -0.7268
 9242TIP3   OH227689   3.385   0.347   2.661  0.4690 -0.1099  0.0035
 9242TIP3    H127690   3.347   0.260   2.651  2.7425 -1.1684  0.1188
 9242TIP3    H227691   3.364   0.372   2.750  0.6863 -1.0098  0.3171
 9243TIP3   OH227692   1.292   1.597   4.007 -0.0124 -0.2337  0.3318
 9243TIP3    H127693   1.380   1.633   4.003 -0.8343  1.8188 -1.3185
 9243TIP3    H227694   1.286   1.537   3.932 -0.3349  0.5424 -0.2861
 9244TIP3   OH227695   6.421   5.181   2.711  0.3166 -0.9187 -1.0669
 9244TIP3    H127696   6.464   5.247   2.656 -0.5051 -0.1351 -0.8055
 9244TIP3    H227697   6.335   5.219   2.731  1.1760 -0.3538  2.1756
 9245TIP3   OH227698   6.748   5.773   2.100  0.1276 -0.5289 -0.0462
 9245TIP3    H127699   6.729   5.700   2.159  3.1171 -0.6196  0.9965
 9245TIP3    H227700   6.807   5.736   2.034  0.8071  0.6603 -0.1502
 9246TIP3   OH227701   0.164   1.628   0.440 -0.8234  0.5145  0.3989
 9246TIP3    H127702   0.142   1.710   0.397 -2.5242 -0.6032 -0.9490
 9246TIP3    H227703   0.255   1.611   0.414 -1.4366  0.4443 -1.8599
 9247TIP3   OH227704   5.938   1.073   3.920 -0.1696 -0.1138 -0.5747
 9247TIP3    H127705   5.880   1.003   3.891  1.9778 -2.7764  1.0104
 9247TIP3    H227706   5.942   1.063   4.015  2.0138  0.5819 -0.5280
 9248TIP3   OH227707   5.070   6.312   4.731 -0.5034  0.0705 -0.0633
 9248TIP3    H127708   5.013   6.377   4.772  0.1070 -0.6777  2.0688
 9248TIP3    H227709   5.014   6.269   4.666 -1.1659  2.0841 -0.8853
 9249TIP3   OH227710   2.727   3.422   0.244  0.2311 -0.8948 -0.2742
 9249TIP3    H127711   2.731   3.327   0.247 -0.4169 -0.9079  0.5642
 9249TIP3    H227712   2.695   3.443   0.156  0.4580 -1.4447 -0.4866
 9250TIP3   OH227713   2.380   5.559   5.475 -0.1137 -0.0807  0.3716
 9250TIP3    H127714   2.441   5.589   5.407  0.1251 -1.5183 -0.0805
 9250TIP3    H227715   2.390   5.623   5.546  2.0796 -0.3665  0.4015
 9251TIP3   OH227716   1.454   5.373   1.438  0.0092 -0.4394 -0.1644
 9251TIP3    H127717   1.420   5.322   1.512  1.8919 -1.5513  0.0019
 9251TIP3    H227718   1.530   5.323   1.407  0.7099  1.2439 -1.3310
 9252TIP3   OH227719   1.086   3.004   0.447 -0.2407  0.2128 -0.0919
 9252TIP3    H127720   1.088   3.068   0.518  0.1166 -0.8168  0.8550
 9252TIP3    H227721   1.178   2.984   0.431 -0.3502 -0.0488 -0.3859
 9253TIP3   OH227722   1.559   1.943   2.619  0.0325  0.1422 -0.3372
 9253TIP3    H127723   1.647   1.970   2.593 -0.5201  0.3807 -2.0520
 9253TIP3    H227724   1.548   1.856   2.580  0.6539 -1.3882  2.5848
 9254TIP3   OH227725   6.689   0.926   3.894  0.5803  0.0045  0.2589
 9254TIP3    H127726   6.602   0.945   3.857  0.5260  1.5804  1.1283
 9254TIP3    H227727   6.746   0.918   3.817 -0.2046 -0.3900 -0.2956
 9255TIP3   OH227728   3.415   3.826   0.866 -0.5395 -0.2346 -0.0371
 9255TIP3    H127729   3.398   3.740   0.903  0.1416 -0.2567  0.2324
 9255TIP3    H227730   3.367   3.886   0.923 -0.3945 -0.3685  0.2282
 9256TIP3   OH227731   3.719   6.290   4.037  1.1351  0.4966 -0.1217
 9256TIP3    H127732   3.684   6.251   3.957 -0.6775  1.0211  0.3867
 9256TIP3    H227733   3.799   6.334   4.009  0.9530 -0.0010 -1.4877
 9257TIP3   OH227734   5.322   6.285   4.065 -0.7263  0.3765  0.3626
 9257TIP3    H127735   5.388   6.345   4.100 -0.7534  0.0043  1.0590
 9257TIP3    H227736   5.254   6.281   4.133 -0.4442 -0.9020  0.5860
 9258TIP3   OH227737   0.480   4.333   3.722 -0.2927  0.0068  0.3812
 9258TIP3    H127738   0.477   4.396   3.795  0.1090  0.9760 -0.4044
 9258TIP3    H227739   0.563   4.353   3.678 -1.9800  1.7699 -2.3153
 9259TIP3   OH227740   6.872   6.247   4.871  0.0503 -0.0980 -0.5230
 9259TIP3    H127741   6.905   6.200   4.794 -2.5332 -0.7642 -1.3455
 9259TIP3    H227742   6.852   6.179   4.935 -1.2561  0.0648 -0.7197
 9260TIP3   OH227743   0.306   5.284   5.536  0.3574  0.2580 -0.4637
 9260TIP3    H127744   0.322   5.347   5.606  1.9630  0.7184 -1.1974
 9260TIP3    H227745   0.355   5.206   5.562 -1.1877 -0.5367  0.1765
 9261TIP3   OH227746   2.061   2.095   3.592 -0.3216 -0.1238 -0.0409
 9261TIP3    H127747   1.988   2.032   3.598  0.7227 -1.2692  1.5726
 9261TIP3    H227748   2.109   2.083   3.674  1.9899  0.2109 -1.2625
 9262TIP3   OH227749   5.631   0.121   4.174 -0.3613  0.1741  0.0624
 9262TIP3    H127750   5.649   0.195   4.232  1.3103 -1.1691  1.3325
 9262TIP3    H227751   5.671   0.145   4.091  1.2442  0.2321  0.8193
 9263TIP3   OH227752   3.434   1.659   3.130 -0.1533  0.1331 -0.8546
 9263TIP3    H127753   3.515   1.696   3.094 -0.0756 -1.2950 -2.2575
 9263TIP3    H227754   3.428   1.571   3.091 -0.8173 -0.9816  1.5761
 9264TIP3   OH227755   3.159   3.282   2.917 -0.1306  0.1467  0.7829
 9264TIP3    H127756   3.205   3.262   2.998  0.8530 -1.0609 -0.0470
 9264TIP3    H227757   3.097   3.351   2.942  0.5833  0.2560  2.4085
 9265TIP3   OH227758   0.238   1.809   4.916 -0.1704 -0.4288  0.0611
 9265TIP3    H127759   0.308   1.874   4.906 -2.1714  1.8980  0.1257
 9265TIP3    H227760   0.284   1.727   4.934  2.6053  0.4001 -2.4722
 9266TIP3   OH227761   3.466   0.243   3.810  0.1324  0.3592  0.3206
 9266TIP3    H127762   3.517   0.207   3.738 -0.8351  1.7290 -1.1016
 9266TIP3    H227763   3.443   0.166   3.863 -0.3172 -0.9094 -1.6103
 9267TIP3   OH227764   4.710   5.770   1.841  0.6112  0.2867 -0.0481
 9267TIP3    H127765   4.735   5.863   1.841 -0.0908  0.4774  0.3124
 9267TIP3    H227766   4.791   5.724   1.862  0.7036  0.8953  0.9904
 9268TIP3   OH227767   0.563   2.265   1.819  0.1803 -0.2995  0.0738
 9268TIP3    H127768   0.609   2.345   1.841 -1.4626  0.8461 -0.4528
 9268TIP3    H227769   0.623   2.216   1.764  0.8237  1.0527 -0.4439
 9269TIP3   OH227770   3.153   5.075   0.686  0.0727 -0.2061  0.3904
 9269TIP3    H127771   3.063   5.069   0.652 -0.9196  2.4635  2.1683
 9269TIP3    H227772   3.195   5.140   0.629  0.5571 -0.6387  0.2438
 9270TIP3   OH227773   1.231   3.918   3.459 -0.1383  0.5558 -0.4235
 9270TIP3    H127774   1.271   3.903   3.373 -0.8661 -0.0113 -0.6736
 9270TIP3    H227775   1.305   3.926   3.519  0.3857 -1.3035 -0.7393
 9271TIP3   OH227776   5.611   4.255   1.557 -0.0465  0.1532 -0.1769
 9271TIP3    H127777   5.636   4.300   1.476 -1.4724  0.1853 -0.6348
 9271TIP3    H227778   5.686   4.266   1.615  0.5510  1.1161 -1.0929
 9272TIP3   OH227779   6.403   3.963   5.724  0.3974  0.1095 -0.2588
 9272TIP3    H127780   6.358   3.987   5.804 -1.0050 -1.0958 -0.6369
 9272TIP3    H227781   6.337   3.973   5.655  0.7980 -1.2627 -0.8929
 9273TIP3   OH227782   3.475   4.400   0.652 -0.3895  0.3526  0.3616
 9273TIP3    H127783   3.406   4.409   0.587  1.4834 -0.7454 -1.9615
 9273TIP3    H227784   3.498   4.490   0.675 -1.3042  0.7659 -0.2704
 9274TIP3   OH227785   2.049   6.676   1.433 -0.3643 -0.6029 -0.3189
 9274TIP3    H127786   2.020   6.650   1.521 -1.1490  0.9338 -0.0970
 9274TIP3    H227787   1.974   6.659   1.377 -0.0650 -1.0127 -0.6069
 9275TIP3   OH227788   0.727   4.485   3.150  0.1191 -0.2621 -0.1281
 9275TIP3    H127789   0.674   4.562   3.172 -1.1387 -1.7352  2.5397
 9275TIP3    H227790   0.815   4.507   3.183  1.1041  1.7577 -3.5973
 9276TIP3   OH227791   4.754   3.025   4.445  0.2453  0.4104  0.5440
 9276TIP3    H127792   4.787   2.978   4.522 -0.5878  1.4824  1.5936
 9276TIP3    H227793   4.679   3.073   4.477  0.4490  1.6420 -0.7431
 9277TIP3   OH227794   0.757   5.739   2.220  0.1453  0.3881  0.1798
 9277TIP3    H127795   0.713   5.659   2.190 -0.9874  1.6737 -1.8119
 9277TIP3    H227796   0.764   5.793   2.142  0.4677  2.4495  1.5645
 9278TIP3   OH227797   7.074   1.340   4.421  0.2963  0.0096 -0.2644
 9278TIP3    H127798   7.071   1.432   4.395 -2.8356  0.4999  1.3076
 9278TIP3    H227799   7.160   1.329   4.462  0.2035  2.6986  0.8688
 9279TIP3   OH227800   6.313   1.089   4.950  0.0104 -0.1061 -0.1242
 9279TIP3    H127801   6.230   1.128   4.979 -0.0428 -0.2041 -0.1426
 9279TIP3    H227802   6.291   0.997   4.933  0.5046 -0.6125  1.6651
 9280TIP3   OH227803   2.487   2.352   3.796 -0.5452 -0.4898  0.3232
 9280TIP3    H127804   2.545   2.326   3.725  1.0397  2.1959  0.5127
 9280TIP3    H227805   2.526   2.313   3.875 -1.7137 -2.5771 -0.0584
 9281TIP3   OH227806   6.219   0.818   4.990  0.2188 -0.4208 -0.3071
 9281TIP3    H127807   6.268   0.766   4.925  0.7870 -0.1290 -0.1209
 9281TIP3    H227808   6.281   0.831   5.061 -0.2582 -0.3507  0.0963
 9282TIP3   OH227809   3.095   2.796   0.304  0.0870  0.3890 -0.3482
 9282TIP3    H127810   3.083   2.852   0.227  2.4896  0.6909 -0.5843
 9282TIP3    H227811   3.109   2.708   0.267 -0.1830  0.2764 -0.1805
 9283TIP3   OH227812   5.649   0.336   1.257 -0.1634 -0.6819  0.2396
 9283TIP3    H127813   5.632   0.430   1.267  2.0392 -0.0027 -1.4595
 9283TIP3    H227814   5.597   0.311   1.181  2.3718  0.2903 -2.0064
 9284TIP3   OH227815   2.206   3.006   1.960 -0.7059 -0.0996  0.3855
 9284TIP3    H127816   2.162   3.000   1.876 -0.1472 -0.8407  0.1327
 9284TIP3    H227817   2.162   3.078   2.006  0.0480  1.4258 -1.1688
 9285TIP3   OH227818   0.870   3.794   4.678  0.3574  0.0110 -0.3115
 9285TIP3    H127819   0.930   3.756   4.613 -0.9807 -1.0664 -0.9750
 9285TIP3    H227820   0.926   3.819   4.751  1.6145 -1.0049 -0.8882
 9286TIP3   OH227821   3.160   5.620   1.977 -0.2048 -0.5040  0.2567
 9286TIP3    H127822   3.205   5.704   1.982  0.7520 -0.8817 -1.2346
 9286TIP3    H227823   3.211   5.562   2.035  1.5461 -1.0162 -1.6695
 9287TIP3   OH227824   7.158   6.222   3.353  0.7765 -0.0652 -0.5938
 9287TIP3    H127825   7.129   6.307   3.321  1.4285 -0.4128 -2.2422
 9287TIP3    H227826   7.109   6.159   3.301  2.0706 -0.6561 -1.1602
 9288TIP3   OH227827   6.938   5.788   0.078  0.0427  0.2393  0.8256
 9288TIP3    H127828   6.971   5.813  -0.008 -2.5706 -0.4486 -0.4777
 9288TIP3    H227829   6.995   5.716   0.106  1.2658  0.8328 -0.0528
 9289TIP3   OH227830   0.543   0.432   3.625 -0.9675  0.6332  0.4930
 9289TIP3    H127831   0.600   0.457   3.697 -1.0874 -1.0731  1.2143
 9289TIP3    H227832   0.454   0.449   3.657 -1.1485 -1.8624  1.5611
 9290TIP3   OH227833   4.704   0.870   1.892  0.1100  0.1424  0.3231
 9290TIP3    H127834   4.695   0.786   1.847  1.0544  0.5959 -0.7903
 9290TIP3    H227835   4.774   0.855   1.956  2.1208  0.7127 -1.6358
 9291TIP3   OH227836   2.616   1.794   0.800 -0.0479  0.1701 -0.5338
 9291TIP3    H127837   2.563   1.790   0.720  2.3852 -1.3191 -2.2330
 9291TIP3    H227838   2.684   1.858   0.780  0.4848 -0.0734  0.4298
 9292TIP3   OH227839   1.987   6.300   2.977  0.6309 -0.0837  0.2258
 9292TIP3    H127840   2.061   6.293   2.917  0.0103  0.8308 -0.6806
 9292TIP3    H227841   1.998   6.386   3.018  1.1293 -0.7527  1.5829
 9293TIP3   OH227842   1.482   3.456   1.252  0.2338  0.0795  0.5006
 9293TIP3    H127843   1.536   3.379   1.268  1.5174  0.4668 -1.5630
 9293TIP3    H227844   1.527   3.526   1.300  1.1727  0.2471 -0.5933
 9294TIP3   OH227845   6.414   5.228   0.798 -0.5016 -0.1600 -0.0101
 9294TIP3    H127846   6.438   5.227   0.891 -0.9940 -0.6712  0.1155
 9294TIP3    H227847   6.332   5.277   0.795 -0.1686  0.3852 -0.2577
 9295TIP3   OH227848   5.473   2.366   1.526 -0.0630 -0.4656  0.2189
 9295TIP3    H127849   5.398   2.400   1.575  1.1296  0.7850  1.2710
 9295TIP3    H227850   5.460   2.398   1.437  0.1956  1.4556  0.8308
 9296TIP3   OH227851   3.541   3.083   4.930 -0.1181 -0.2209 -0.2820
 9296TIP3    H127852   3.560   2.996   4.966 -1.1758  0.0785  1.1077
 9296TIP3    H227853   3.498   3.129   5.002 -0.3449  1.1772 -1.2774
 9297TIP3   OH227854   4.912   6.059   4.270  0.6533  0.0423 -0.1042
 9297TIP3    H127855   4.975   5.987   4.272  0.4675 -0.1125  0.3683
 9297TIP3    H227856   4.828   6.016   4.252  0.3745  0.0004  1.1847
 9298TIP3   OH227857   3.360   5.483   4.004 -0.4361 -0.2378 -0.3914
 9298TIP3    H127858   3.315   5.560   3.969 -1.5628  0.1757  1.7737
 9298TIP3    H227859   3.379   5.429   3.927 -2.2557  0.8515 -1.6893
 9299TIP3   OH227860   2.343   6.662   1.952  0.4548 -0.6287 -0.3372
 9299TIP3    H127861   2.420   6.699   1.908 -0.8917  2.1784 -0.5486
 9299TIP3    H227862   2.376   6.631   2.036  1.9727 -0.1614 -0.7281
 9300TIP3   OH227863   0.872   2.489   4.334 -0.2565  0.5793  0.2271
 9300TIP3    H127864   0.905   2.515   4.248 -1.0375 -0.6519 -0.4869
 9300TIP3    H227865   0.945   2.446   4.377  0.1489  1.2333  0.2011
 9301TIP3   OH227866   6.359   1.809   1.671 -0.1776  0.8642  0.1978
 9301TIP3    H127867   6.284   1.793   1.728 -0.0934  0.0306  0.0898
 9301TIP3    H227868   6.408   1.878   1.716 -0.1342  0.2555  1.1166
 9302TIP3   OH227869   5.758   2.162   3.249  0.3152 -0.1166  0.1929
 9302TIP3    H127870   5.737   2.233   3.309 -1.2226  0.6319 -1.1479
 9302TIP3    H227871   5.679   2.108   3.247 -0.4381  0.9270 -2.5045
 9303TIP3   OH227872   3.021   3.045   2.667 -0.0169  0.3553 -0.6973
 9303TIP3    H127873   3.073   2.992   2.607 -0.0161 -1.3420  0.7178
 9303TIP3    H227874   3.059   3.133   2.660  1.8416 -0.4221 -1.0601
 9304TIP3   OH227875   0.257   1.057   0.055 -0.3552  0.3142 -0.1380
 9304TIP3    H127876   0.196   1.062  -0.018  0.6086  1.1876 -0.9115
 9304TIP3    H227877   0.253   1.143   0.096  1.6729  1.0476 -1.3297
 9305TIP3   OH227878   5.712   4.189   5.809  0.1317 -0.6162  0.0455
 9305TIP3    H127879   5.712   4.123   5.740 -1.5607 -0.5924 -0.0262
 9305TIP3    H227880   5.621   4.190   5.841  0.5554  0.3647  1.3071
 9306TIP3   OH227881   0.632   0.156   4.385  0.0908 -0.2827 -0.3440
 9306TIP3    H127882   0.666   0.244   4.367  0.1677 -0.2129  0.1061
 9306TIP3    H227883   0.544   0.172   4.420 -0.1200 -0.4206 -0.8049
 9307TIP3   OH227884   0.198   2.138   4.819 -0.7458  0.3286 -0.3953
 9307TIP3    H127885   0.269   2.153   4.757  0.6504  1.5690  1.4155
 9307TIP3    H227886   0.196   2.043   4.830  1.2815  0.3126  0.1883
 9308TIP3   OH227887   3.688   0.561   2.001  0.2021 -0.7035  0.0937
 9308TIP3    H127888   3.738   0.563   1.920 -1.8296  1.0569 -1.2360
 9308TIP3    H227889   3.750   0.532   2.067  2.2311 -1.1265 -1.8854
 9309TIP3   OH227890   3.864   0.819   1.100  0.1623 -0.5561  0.1645
 9309TIP3    H127891   3.936   0.766   1.135  0.4706 -0.4359 -0.2756
 9309TIP3    H227892   3.798   0.818   1.169 -0.1460 -2.1163 -0.1282
 9310TIP3   OH227893   0.012   1.621   4.950 -0.2772 -0.2034  0.0336
 9310TIP3    H127894   0.072   1.694   4.937  1.2481 -1.4819 -0.4636
 9310TIP3    H227895  -0.000   1.617   5.045  0.1398  0.2997  0.1127
 9311TIP3   OH227896   2.857   1.668   2.283 -0.1270 -0.4149  0.1086
 9311TIP3    H127897   2.898   1.651   2.368  1.3436 -0.3020 -0.5357
 9311TIP3    H227898   2.778   1.719   2.303 -0.0386 -0.7841  1.4270
 9312TIP3   OH227899   2.748   6.675   0.840 -0.0205 -0.4801  0.8230
 9312TIP3    H127900   2.799   6.606   0.797  0.6202  0.3395  0.2338
 9312TIP3    H227901   2.681   6.628   0.889  0.1256 -1.5073  0.0751
 9313TIP3   OH227902   6.118   3.623   1.822 -0.5451 -0.0177 -0.0242
 9313TIP3    H127903   6.210   3.625   1.796 -1.1042 -0.6546 -2.3481
 9313TIP3    H227904   6.095   3.530   1.821 -1.7699  0.2491 -1.9148
 9314TIP3   OH227905   3.733   2.811   3.846 -0.3929  0.2498 -0.2066
 9314TIP3    H127906   3.783   2.744   3.893  1.6682  2.0910  0.4250
 9314TIP3    H227907   3.663   2.835   3.906 -0.0474 -0.0783  0.3346
 9315TIP3   OH227908   2.089   1.496   3.057 -0.0668 -0.0815  0.4858
 9315TIP3    H127909   2.029   1.555   3.010 -0.2896  0.1791  1.0872
 9315TIP3    H227910   2.111   1.429   2.992 -0.5527  0.1384  0.0767
 9316TIP3   OH227911   2.275   3.883   1.262 -0.1692  0.2251 -0.5017
 9316TIP3    H127912   2.348   3.821   1.266  2.4720  3.1143  0.2229
 9316TIP3    H227913   2.252   3.899   1.353  1.7490  2.9104 -0.3774
 9317TIP3   OH227914   6.216   5.426   0.089  0.2929 -0.3758 -0.3909
 9317TIP3    H127915   6.142   5.486   0.093  1.2283  0.7412  1.0395
 9317TIP3    H227916   6.209   5.385   0.002  0.0192  2.3099 -1.7581
 9318TIP3   OH227917   6.890   5.884   0.480  0.0752 -0.0521  0.0873
 9318TIP3    H127918   6.857   5.949   0.542  0.1577 -0.5934  0.7124
 9318TIP3    H227919   6.887   5.802   0.528 -1.0406 -0.7028 -1.0301
 9319TIP3   OH227920   0.790   1.362   5.757 -0.1952  0.1796  0.3856
 9319TIP3    H127921   0.873   1.408   5.768 -0.6266  0.8713  0.8154
 9319TIP3    H227922   0.797   1.321   5.671  0.2233  1.0018  0.0155
 9320TIP3   OH227923   1.876   4.392   2.147 -0.0784 -0.1951 -0.5528
 9320TIP3    H127924   1.942   4.323   2.149 -0.9610 -1.0915 -1.6078
 9320TIP3    H227925   1.793   4.346   2.134 -0.8429  0.9702  0.0114
 9321TIP3   OH227926   5.512   3.251   1.897 -0.3881  0.0339 -0.5499
 9321TIP3    H127927   5.471   3.289   1.975  1.5180  1.3802 -0.1436
 9321TIP3    H227928   5.439   3.215   1.847 -1.6896 -0.7046  1.7430
 9322TIP3   OH227929   2.602   1.907   3.956 -0.5954 -0.3212  0.2182
 9322TIP3    H127930   2.551   1.826   3.950 -1.2371 -0.0236  1.3510
 9322TIP3    H227931   2.685   1.880   3.995 -1.5020 -0.1948  2.3646
 9323TIP3   OH227932   1.028   6.581   2.199  0.1679  0.3123 -0.3970
 9323TIP3    H127933   1.006   6.597   2.107 -0.9668 -2.3153 -0.6935
 9323TIP3    H227934   1.106   6.527   2.195  0.5704  0.8413  0.2330
 9324TIP3   OH227935   1.702   5.058   1.861  0.1595 -0.1269 -0.0227
 9324TIP3    H127936   1.731   5.012   1.940 -0.9939 -1.2821 -0.2284
 9324TIP3    H227937   1.694   5.150   1.887  0.3927 -0.3990  1.0301
 9325TIP3   OH227938   5.295   1.171   1.049 -0.5306 -0.1001  0.0429
 9325TIP3    H127939   5.222   1.221   1.085  0.9387  0.5950  2.2511
 9325TIP3    H227940   5.362   1.173   1.117  1.6996 -0.4646 -2.0006
 9326TIP3   OH227941   7.074   5.445   3.558 -0.2990 -0.5072 -0.3958
 9326TIP3    H127942   7.094   5.361   3.518 -0.6670 -0.0714 -1.5267
 9326TIP3    H227943   7.007   5.484   3.502 -0.3225  0.4291  0.2466
 9327TIP3   OH227944   1.141   4.874   5.609  0.6412 -0.2328  0.1487
 9327TIP3    H127945   1.182   4.959   5.625  0.3871 -0.5065  2.5648
 9327TIP3    H227946   1.073   4.893   5.544 -0.3580  1.7649  1.6282
 9328TIP3   OH227947   6.905   4.907   2.120 -0.2869  0.5463  0.4130
 9328TIP3    H127948   6.907   4.942   2.209  0.1756  0.2762  0.5101
 9328TIP3    H227949   6.928   4.981   2.065  1.6266  0.1914  0.6860
 9329TIP3   OH227950   0.721   2.886   5.332 -0.1753  0.0392 -0.1731
 9329TIP3    H127951   0.688   2.826   5.398 -0.3682  1.1333  0.7616
 9329TIP3    H227952   0.810   2.855   5.314 -0.6673 -1.1832 -0.5535
 9330TIP3   OH227953   2.840   4.625   4.894  0.5388 -0.0332  0.0677
 9330TIP3    H127954   2.748   4.649   4.902  0.1350 -1.6110  0.6477
 9330TIP3    H227955   2.839   4.541   4.848  1.5463 -0.7843  1.3295
 9331TIP3   OH227956   6.142   4.181   4.898 -0.0012 -0.2748  0.3061
 9331TIP3    H127957   6.232   4.167   4.871  0.2915 -0.6908  1.4565
 9331TIP3    H227958   6.127   4.117   4.968 -1.9740 -1.9380 -1.5036
 9332TIP3   OH227959   4.826   5.978   5.198 -0.1391 -0.2765  0.0956
 9332TIP3    H127960   4.803   6.064   5.234  0.7593 -0.0530  0.1679
 9332TIP3    H227961   4.917   5.965   5.225 -0.3698 -1.4085  0.3778
 9333TIP3   OH227962   3.122   0.631   1.578  0.0632 -0.0744 -0.3079
 9333TIP3    H127963   3.107   0.678   1.660 -0.3196 -3.0421  1.4640
 9333TIP3    H227964   3.047   0.571   1.571  1.3659 -1.6453 -1.4884
 9334TIP3   OH227965   3.095   2.777   0.585  0.3525  0.2226  0.0349
 9334TIP3    H127966   3.106   2.776   0.490 -0.7752  2.5954 -0.2099
 9334TIP3    H227967   3.014   2.827   0.599  0.8403  0.4950  2.2610
 9335TIP3   OH227968   7.005   2.838   0.689  0.0478  0.0252  0.3416
 9335TIP3    H127969   6.930   2.882   0.730 -0.7381 -0.0182 -0.9989
 9335TIP3    H227970   7.035   2.899   0.622 -0.2922 -0.9493 -0.7200
 9336TIP3   OH227971   3.543   5.714   4.205  0.1194 -0.1833  0.2944
 9336TIP3    H127972   3.579   5.733   4.292  0.2352  0.2974  0.1480
 9336TIP3    H227973   3.565   5.623   4.189  0.6008 -0.1114  0.5309
 9337TIP3   OH227974   3.802   4.695   1.837  0.1069 -0.5015 -0.5858
 9337TIP3    H127975   3.807   4.609   1.880 -0.2068  0.1319  0.7788
 9337TIP3    H227976   3.713   4.699   1.802  0.6040 -1.3320 -2.0305
 9338TIP3   OH227977   6.965   3.432   1.350 -0.2412  0.1669  0.2616
 9338TIP3    H127978   6.967   3.475   1.435 -0.5282  1.1669 -0.2249
 9338TIP3    H227979   7.004   3.495   1.290 -0.6252 -0.2677 -0.4633
 9339TIP3   OH227980   1.633   5.606   2.957 -0.2812  0.2529  0.3440
 9339TIP3    H127981   1.609   5.699   2.964  1.3572  0.5738  3.6325
 9339TIP3    H227982   1.721   5.607   2.920 -1.6528 -0.3879 -3.3703
 9340TIP3   OH227983   7.170   1.757   2.686  0.3929  0.2083 -0.3804
 9340TIP3    H127984   7.173   1.666   2.656  0.7549  0.4157 -1.0074
 9340TIP3    H227985   7.228   1.803   2.626  2.3412  0.4028  1.5475
 9341TIP3   OH227986   2.946   1.665   5.437 -0.0978 -0.0214 -0.5971
 9341TIP3    H127987   2.891   1.638   5.511  0.9675  0.9809  0.6056
 9341TIP3    H227988   2.886   1.713   5.379 -0.4018  1.5896  0.9846
 9342TIP3   OH227989   5.477   5.763   1.430 -0.1135  0.1927 -0.2373
 9342TIP3    H127990   5.466   5.723   1.516  0.1326  1.4274  0.3946
 9342TIP3    H227991   5.565   5.737   1.402 -0.0396  0.1100  0.0694
 9343TIP3   OH227992   4.962   5.216   5.628 -0.5978  0.3337  0.5172
 9343TIP3    H127993   5.014   5.164   5.567  1.3782  0.6238  1.8307
 9343TIP3    H227994   4.876   5.175   5.628  0.2567 -1.5938 -0.1352
 9344TIP3   OH227995   0.074   1.818   2.921  0.0395  0.7073  0.4593
 9344TIP3    H127996   0.133   1.743   2.920  0.8761  1.3363  1.1438
 9344TIP3    H227997   0.017   1.806   2.845 -0.9055 -1.4518  1.4338
 9345TIP3   OH227998   2.363   1.780   4.410 -0.2645  0.0009 -0.1137
 9345TIP3    H127999   2.426   1.741   4.350 -0.8907 -1.1046 -0.0823
 9345TIP3    H228000   2.396   1.869   4.425  1.9055 -0.8863  0.7948
 9346TIP3   OH228001   3.747   3.837   2.828 -0.6468  0.4760  0.0030
 9346TIP3    H128002   3.796   3.884   2.896 -0.4384  1.8691 -1.0815
 9346TIP3    H228003   3.770   3.745   2.842 -0.0732  0.8088  1.3841
 9347TIP3   OH228004   2.530   3.631   1.852 -0.6750  0.2868  0.4166
 9347TIP3    H128005   2.509   3.633   1.946  0.8476 -1.5548  0.8566
 9347TIP3    H228006   2.625   3.634   1.850 -0.7121  0.9429 -1.1324
 9348TIP3   OH228007   0.092   0.997   1.746  0.3830 -0.0297  0.0831
 9348TIP3    H128008   0.121   0.979   1.836 -0.1056  0.8236  0.4319
 9348TIP3    H228009   0.142   1.074   1.720 -1.4621  1.4803  0.7019
 9349TIP3   OH228010   5.928   2.646   0.430  1.0193  0.1383 -0.3534
 9349TIP3    H128011   6.005   2.703   0.431  0.7782  0.4813 -0.6942
 9349TIP3    H228012   5.963   2.557   0.435  1.4186  0.3035 -0.1649
 9350TIP3   OH228013   4.746   6.405   0.701  0.3221  0.3565  0.0481
 9350TIP3    H128014   4.814   6.337   0.710 -0.0546 -0.0255  0.0518
 9350TIP3    H228015   4.756   6.459   0.779  1.0104  0.6643 -0.2391
 9351TIP3   OH228016   2.950   2.778   2.171 -0.0214 -0.5160  0.0190
 9351TIP3    H128017   2.951   2.851   2.233  0.0300 -0.7527  0.2989
 9351TIP3    H228018   2.963   2.700   2.225 -0.0746 -0.7336 -0.2776
 9352TIP3   OH228019   1.766   6.044   1.093 -0.3647  0.2267 -0.7571
 9352TIP3    H128020   1.737   5.984   1.025 -1.1561 -0.2923  0.0060
 9352TIP3    H228021   1.853   6.014   1.116 -0.5868 -0.3776 -0.6850
 9353TIP3   OH228022   6.278   5.502   3.192  0.4668 -0.0536 -0.4497
 9353TIP3    H128023   6.185   5.478   3.185 -0.9045  4.3489 -0.3990
 9353TIP3    H228024   6.294   5.508   3.286  1.1847 -1.7363 -0.4287
 9354TIP3   OH228025   6.381   2.020   4.596  0.3801  0.5020  0.2118
 9354TIP3    H128026   6.336   1.936   4.601 -0.4585  0.9006 -0.4351
 9354TIP3    H228027   6.466   2.000   4.558  0.7347 -0.2465  1.3416
 9355TIP3   OH228028   0.038   1.946   5.401 -0.3307  0.0794 -1.1514
 9355TIP3    H128029   0.127   1.921   5.378  0.3102  0.2553  0.9675
 9355TIP3    H228030  -0.015   1.869   5.378  0.7104 -0.9207 -0.3109
 9356TIP3   OH228031   5.803   3.654   2.628 -0.0417 -0.6349  0.2328
 9356TIP3    H128032   5.839   3.649   2.540  0.0692 -0.5854  0.2762
 9356TIP3    H228033   5.730   3.591   2.627  0.6027 -1.4078  0.4093
 9357TIP3   OH228034   2.073   1.795   2.730 -0.2303 -0.0828 -0.4633
 9357TIP3    H128035   2.049   1.710   2.767 -0.0032 -0.4037 -1.0365
 9357TIP3    H228036   2.005   1.855   2.761 -0.6224 -0.5610 -0.3923
 9358TIP3   OH228037   0.010   2.218   5.737 -0.2266  0.0811 -0.4693
 9358TIP3    H128038   0.069   2.144   5.753 -0.1989 -0.2013 -1.8110
 9358TIP3    H228039  -0.069   2.197   5.787  0.2478 -0.2434  0.1592
 9359TIP3   OH228040   0.339   1.928   0.135  0.3279  0.2655  0.0130
 9359TIP3    H128041   0.401   1.948   0.205  1.2775  0.7539 -0.9412
 9359TIP3    H228042   0.287   2.007   0.125 -0.1742  0.0064  0.5203
 9360TIP3   OH228043   0.502   1.461   1.592  0.0514 -0.3246  0.0337
 9360TIP3    H128044   0.452   1.398   1.540  0.1403  0.0327 -0.4926
 9360TIP3    H228045   0.502   1.424   1.681  0.9185 -1.5679 -0.4395
 9361TIP3   OH228046   6.024   2.811   4.195  0.2309  0.4410  0.7055
 9361TIP3    H128047   6.000   2.859   4.115  0.8243  0.5695  0.6010
 9361TIP3    H228048   6.095   2.753   4.167 -0.2038 -0.2096  0.9242
 9362TIP3   OH228049   2.136   0.672   0.155  0.5475 -0.0299 -0.3444
 9362TIP3    H128050   2.087   0.698   0.077  0.4882  2.4489  0.4276
 9362TIP3    H228051   2.111   0.736   0.221  1.5354 -1.3343  1.3814
 9363TIP3   OH228052   5.323   4.535   4.748  0.2040 -0.5371 -0.1485
 9363TIP3    H128053   5.240   4.554   4.703  0.0839 -0.0624  0.2576
 9363TIP3    H228054   5.339   4.613   4.801  1.5635 -0.0884 -1.1604
 9364TIP3   OH228055   0.627   0.655   2.822  0.0467 -0.4105  0.3772
 9364TIP3    H128056   0.716   0.619   2.817 -0.1727 -1.0050  0.6934
 9364TIP3    H228057   0.639   0.749   2.812  0.5162 -0.6544 -1.7649
 9365TIP3   OH228058   3.988   2.931   3.820 -0.3582 -0.3611 -0.0986
 9365TIP3    H128059   3.897   2.901   3.819 -0.2568 -0.9650  2.2387
 9365TIP3    H228060   4.035   2.864   3.869  0.7101  1.4150  1.4891
 9366TIP3   OH228061   0.788   6.462   4.172  0.8349  0.6681  0.6281
 9366TIP3    H128062   0.709   6.413   4.193  1.3327 -0.4646 -0.0444
 9366TIP3    H228063   0.797   6.453   4.077  0.7151  2.4463  0.4112
 9367TIP3   OH228064   3.592   1.084   0.793 -0.4516  0.5400 -0.4569
 9367TIP3    H128065   3.634   1.005   0.760 -0.7283 -0.4450  1.4518
 9367TIP3    H228066   3.632   1.099   0.879 -1.4452  1.6246 -0.1545
 9368TIP3   OH228067   7.036   2.349   0.696  0.1007  0.3853  0.4876
 9368TIP3    H128068   7.021   2.443   0.687 -0.5123  0.2950  0.5461
 9368TIP3    H228069   6.950   2.313   0.715  0.3418 -0.1866  0.4997
 9369TIP3   OH228070   3.488   4.167   3.710 -0.2030  0.2730  0.7729
 9369TIP3    H128071   3.425   4.229   3.744  0.9274  1.6720  0.4069
 9369TIP3    H228072   3.554   4.221   3.667 -0.1423 -1.2710 -1.2161
 9370TIP3   OH228073   3.240   5.801   3.909 -0.1814  0.1133 -0.6273
 9370TIP3    H128074   3.243   5.742   3.834  2.0631 -1.9041  0.8892
 9370TIP3    H228075   3.319   5.853   3.903 -1.4065  2.0250 -1.1283
 9371TIP3   OH228076   3.131   4.817   0.826  0.3255 -0.0440  0.3729
 9371TIP3    H128077   3.057   4.758   0.841 -0.0129  0.4312  0.6138
 9371TIP3    H228078   3.092   4.895   0.787  0.5365  0.6640  1.5407
 9372TIP3   OH228079   0.347   4.049   1.695 -0.0172  0.5253  0.3049
 9372TIP3    H128080   0.394   3.970   1.668 -0.6457  0.5282 -0.8111
 9372TIP3    H228081   0.355   4.049   1.791  0.1209 -0.8060  0.3136
 9373TIP3   OH228082   6.713   6.262   2.850 -0.1055  0.7197  0.4463
 9373TIP3    H128083   6.769   6.186   2.838 -0.9210  0.0086  1.0342
 9373TIP3    H228084   6.631   6.239   2.806 -0.5205  1.0650  1.0316
 9374TIP3   OH228085   6.941   4.969   1.537 -0.4324 -0.0342 -0.2350
 9374TIP3    H128086   6.922   4.880   1.568  0.1696 -0.6001 -1.4121
 9374TIP3    H228087   7.017   4.996   1.588 -1.4057  0.3575  1.0731
 9375TIP3   OH228088   2.372   4.973   4.762 -0.0767  0.2733 -0.0771
 9375TIP3    H128089   2.403   4.958   4.851 -0.5987 -0.9527 -0.0851
 9375TIP3    H228090   2.451   4.981   4.710  0.2379 -1.1290  0.1626
 9376TIP3   OH228091   1.281   5.991   0.491  0.2484  0.3490 -0.4604
 9376TIP3    H128092   1.265   5.907   0.534 -1.2396  0.2534 -1.1268
 9376TIP3    H228093   1.307   5.968   0.402  0.4899  0.5908 -0.4542
 9377TIP3   OH228094   2.617   6.659   5.452 -0.8440  0.2857  0.2925
 9377TIP3    H128095   2.589   6.603   5.379  1.4286  2.0845 -2.1690
 9377TIP3    H228096   2.618   6.747   5.415 -1.0049  1.5240  3.0081
 9378TIP3   OH228097   1.438   0.885   3.790  0.2318 -0.2096  0.5881
 9378TIP3    H128098   1.426   0.845   3.704  0.4069 -1.3367  1.0825
 9378TIP3    H228099   1.438   0.812   3.851 -1.4179  0.6839  1.7274
 9379TIP3   OH228100   3.861   5.428   2.594  0.3347  0.0249  0.4307
 9379TIP3    H128101   3.892   5.494   2.655  0.3877  0.7173 -0.3354
 9379TIP3    H228102   3.938   5.405   2.542 -0.1624  0.9958 -0.7833
 9380TIP3   OH228103   2.633   5.411   3.233 -0.2983  0.4084 -0.1681
 9380TIP3    H128104   2.583   5.357   3.172 -2.1459  0.3663  1.3129
 9380TIP3    H228105   2.572   5.478   3.263  0.3445  0.1047  2.0348
 9381TIP3   OH228106   6.144   1.119   3.731 -0.0309 -0.2331  0.3482
 9381TIP3    H128107   6.137   1.198   3.677  0.3083  1.4002  2.5694
 9381TIP3    H228108   6.065   1.121   3.786 -1.0380 -2.5646 -0.8673
 9382TIP3   OH228109   4.416   6.503   4.091 -0.1678  0.0936 -0.7510
 9382TIP3    H128110   4.480   6.574   4.101 -0.2148  0.2397 -1.4391
 9382TIP3    H228111   4.428   6.449   4.169 -0.5481  1.1867  0.0936
 9383TIP3   OH228112   3.346   3.360   4.061 -0.1931  0.0917 -0.5277
 9383TIP3    H128113   3.366   3.452   4.076  1.2134 -0.2588 -0.1020
 9383TIP3    H228114   3.427   3.324   4.024 -1.1868 -0.6705 -2.0653
 9384TIP3   OH228115   6.260   0.831   1.753  0.2386 -0.1033  0.0207
 9384TIP3    H128116   6.208   0.802   1.678 -1.9196 -0.0453  1.3859
 9384TIP3    H228117   6.305   0.752   1.783 -1.4447 -0.9163  0.5488
 9385TIP3   OH228118   4.912   1.060   1.814  0.1299 -0.7208  0.2468
 9385TIP3    H128119   4.969   1.049   1.738 -0.8065  0.6014 -0.7125
 9385TIP3    H228120   4.835   1.007   1.794 -1.1944  1.5195 -0.9527
 9386TIP3   OH228121   4.513   4.133   1.226  0.7167  0.1752 -0.2750
 9386TIP3    H128122   4.474   4.146   1.140  2.3594  0.5063 -1.0068
 9386TIP3    H228123   4.448   4.083   1.275 -1.2453  1.9789 -0.9037
 9387TIP3   OH228124   5.065   2.627   4.305 -0.1218 -0.2999  0.4664
 9387TIP3    H128125   4.969   2.634   4.305 -0.1388  0.6273  2.8563
 9387TIP3    H228126   5.095   2.713   4.274 -0.0710 -0.4376  0.1358
 9388TIP3   OH228127   1.411   0.115   0.388 -0.1123 -0.5166 -0.0587
 9388TIP3    H128128   1.453   0.146   0.468  0.9868 -2.8564  0.3595
 9388TIP3    H228129   1.445   0.026   0.376 -0.9532 -0.5746 -2.6290
 9389TIP3   OH228130   5.352   4.840   1.500  0.3212 -0.1998 -0.4678
 9389TIP3    H128131   5.300   4.784   1.558  1.2187 -0.6535 -0.0912
 9389TIP3    H228132   5.338   4.803   1.412  0.7751 -0.9159 -0.2433
 9390TIP3   OH228133   4.009   0.153   1.263  0.1145 -0.6671  0.2817
 9390TIP3    H128134   3.960   0.188   1.337 -1.9986  0.3000 -1.4694
 9390TIP3    H228135   3.967   0.069   1.244  1.2485 -1.3551  0.6910
 9391TIP3   OH228136   7.140   5.377   1.867  0.6943  0.0685  0.5535
 9391TIP3    H128137   7.235   5.366   1.869  0.6338 -0.4883  0.7045
 9391TIP3    H228138   7.126   5.471   1.872  1.2626  0.2189 -0.3529
 9392TIP3   OH228139   4.976   3.179   0.479 -0.2235 -0.0152  0.0230
 9392TIP3    H128140   4.911   3.174   0.550  0.0426 -1.6004  0.1869
 9392TIP3    H228141   4.925   3.164   0.399 -0.3511  0.6867 -0.0337
 9393TIP3   OH228142   4.148   5.952   5.392  0.2692  0.0810  0.1524
 9393TIP3    H128143   4.202   5.908   5.458 -2.4336 -1.1886  1.7017
 9393TIP3    H228144   4.092   6.012   5.442 -1.3500 -0.3674 -1.0120
 9394TIP3   OH228145   0.867   2.350   1.041 -0.5332  0.0139  0.0280
 9394TIP3    H128146   0.949   2.309   1.014 -0.1632  1.5218 -1.2851
 9394TIP3    H228147   0.889   2.442   1.057 -1.8664  0.3603  0.0666
 9395TIP3   OH228148   3.321   1.957   3.812  0.5942  0.0814  0.0639
 9395TIP3    H128149   3.264   1.919   3.745  0.8326 -0.5062  0.1885
 9395TIP3    H228150   3.287   2.046   3.825 -1.1927 -0.7072  1.1226
 9396TIP3   OH228151   6.468   6.361   4.087 -0.2095 -0.0216  0.1834
 9396TIP3    H128152   6.413   6.292   4.050 -0.0082  1.0520 -2.3094
 9396TIP3    H228153   6.555   6.321   4.094 -0.5512 -0.6712  0.9055
 9397TIP3   OH228154   5.171   6.710   4.133  0.2466 -0.2449 -0.1478
 9397TIP3    H128155   5.212   6.786   4.092 -1.8348  0.7343 -0.5673
 9397TIP3    H228156   5.167   6.644   4.064  3.6848 -1.5423  0.6824
 9398TIP3   OH228157   1.458   2.539   2.167  0.1178 -0.1236 -0.5189
 9398TIP3    H128158   1.394   2.484   2.212  0.3723 -0.8653 -1.0516
 9398TIP3    H228159   1.478   2.492   2.086  0.5866  0.5918 -0.8333
 9399TIP3   OH228160   3.814   1.059   3.672 -0.6065  0.3930 -0.1627
 9399TIP3    H128161   3.860   0.979   3.698 -1.8153 -0.2630  0.0019
 9399TIP3    H228162   3.856   1.084   3.589 -0.0123 -0.2347 -0.0632
 9400TIP3   OH228163   4.136   4.281   3.386  0.0547 -0.1083  0.4300
 9400TIP3    H128164   4.130   4.222   3.311 -1.3551  0.2960  0.2065
 9400TIP3    H228165   4.204   4.243   3.441  0.3278 -1.0233 -0.5082
 9401TIP3   OH228166   5.220   0.474  -0.004 -0.0788  0.0629  0.6800
 9401TIP3    H128167   5.239   0.494   0.088 -0.4187  2.7418  0.2467
 9401TIP3    H228168   5.199   0.381  -0.004 -2.2181  0.4014  3.6741
 9402TIP3   OH228169   4.576   3.917   0.097 -0.5938  0.2272  0.3873
 9402TIP3    H128170   4.638   3.943   0.030 -0.9315  0.5942  0.2119
 9402TIP3    H228171   4.508   3.868   0.050  0.4399 -1.7059  0.8229
 9403TIP3   OH228172   2.844   4.268   1.267 -0.3846  0.2632 -0.0909
 9403TIP3    H128173   2.893   4.253   1.186 -0.2728  2.3009 -0.4594
 9403TIP3    H228174   2.753   4.254   1.242 -0.1845 -1.9629  0.2033
 9404TIP3   OH228175   0.525   5.164   5.773 -0.2751 -0.1806 -0.2392
 9404TIP3    H128176   0.485   5.077   5.780  0.1254 -0.3106  0.6310
 9404TIP3    H228177   0.563   5.165   5.686 -1.0759 -0.5293 -0.6049
 9405TIP3   OH228178   2.756   4.981   0.410  0.0857 -0.2831  0.2472
 9405TIP3    H128179   2.702   5.004   0.334  1.3109  0.1711 -0.5074
 9405TIP3    H228180   2.727   4.893   0.434 -1.5561  0.2665  0.3910
 9406TIP3   OH228181   2.406   1.872   1.343  0.0349  0.6087 -0.0781
 9406TIP3    H128182   2.325   1.921   1.357  0.1251  0.6652  0.2411
 9406TIP3    H228183   2.422   1.879   1.249 -0.6221  0.1514 -0.2374
 9407TIP3   OH228184   1.432   3.601   3.988  0.1344 -0.4419 -0.0830
 9407TIP3    H128185   1.398   3.512   4.002 -1.7242  0.5260  2.6174
 9407TIP3    H228186   1.365   3.644   3.935 -0.2016 -0.0209  0.6632
 9408TIP3   OH228187   5.853   3.394   3.089 -0.0132 -0.0079 -0.5783
 9408TIP3    H128188   5.791   3.386   3.162  0.0112  1.0377 -0.4307
 9408TIP3    H228189   5.806   3.443   3.022  0.5929  0.6372 -0.5359
 9409TIP3   OH228190   6.885   4.237   3.045  0.0847 -0.4809  0.5160
 9409TIP3    H128191   6.799   4.197   3.034 -0.5363  1.3170 -1.9986
 9409TIP3    H228192   6.941   4.189   2.984  0.2549 -0.0130  0.3050
 9410TIP3   OH228193   3.377   0.124   5.551 -0.3251 -0.1444 -0.2421
 9410TIP3    H128194   3.311   0.102   5.485  0.0486  0.0571 -0.6887
 9410TIP3    H228195   3.369   0.055   5.616 -1.7413  0.4872  0.2842
 9411TIP3   OH228196   0.877   1.816   2.983 -0.1348 -0.4765  0.1798
 9411TIP3    H128197   0.861   1.894   2.930 -1.1796 -0.9019 -0.1716
 9411TIP3    H228198   0.891   1.849   3.071 -0.0201  0.1414 -0.0653
 9412TIP3   OH228199   3.626   3.407   4.893  0.1924 -0.2316 -0.0694
 9412TIP3    H128200   3.551   3.413   4.834  0.6178 -0.8822 -0.6918
 9412TIP3    H228201   3.651   3.315   4.890  1.3515  0.0789 -0.2879
 9413TIP3   OH228202   5.448   5.622   3.178  0.3668 -0.0842 -0.7722
 9413TIP3    H128203   5.452   5.710   3.142 -1.8221  0.3617 -0.0998
 9413TIP3    H228204   5.362   5.618   3.221  0.9611 -2.0978  0.3629
 9414TIP3   OH228205   2.573   2.119   2.149  0.0001 -0.2530 -0.2029
 9414TIP3    H128206   2.641   2.088   2.089  1.4129 -1.5377  1.9246
 9414TIP3    H228207   2.618   2.178   2.209 -0.9553 -0.4100  0.7065
 9415TIP3   OH228208   3.904   1.369   3.038 -0.7949 -0.1080  0.1219
 9415TIP3    H128209   3.933   1.278   3.049  0.0451  0.2148  0.5809
 9415TIP3    H228210   3.983   1.417   3.015 -1.6044  0.1523 -2.3312
 9416TIP3   OH228211   1.610   4.169   2.856 -0.1081  0.2968  0.0747
 9416TIP3    H128212   1.699   4.135   2.850  0.9984  3.1464 -1.3967
 9416TIP3    H228213   1.621   4.263   2.872 -2.8799  0.6543  0.3985
 9417TIP3   OH228214   2.801   1.215   4.703 -0.0581  0.0782 -0.1370
 9417TIP3    H128215   2.785   1.295   4.654  0.5306  0.9139  0.9728
 9417TIP3    H228216   2.714   1.183   4.727 -0.3395 -0.2280 -1.5097
 9418TIP3   OH228217   5.675   3.832   5.880 -0.0151 -0.0818 -0.3774
 9418TIP3    H128218   5.584   3.861   5.868  0.1446  0.1766 -1.0312
 9418TIP3    H228219   5.682   3.755   5.822  0.2437  0.0266 -0.4884
 9419TIP3   OH228220   3.380   0.124   5.123 -0.0588 -0.3756 -0.0167
 9419TIP3    H128221   3.300   0.170   5.150 -0.3109 -0.1339 -1.0935
 9419TIP3    H228222   3.447   0.153   5.184 -0.0306  2.0412 -1.0531
 9420TIP3   OH228223   0.954   0.317   3.474  0.4277 -0.3962  0.3188
 9420TIP3    H128224   1.033   0.286   3.517  0.0498  0.8315  1.9584
 9420TIP3    H228225   0.936   0.402   3.513 -1.3783 -0.3828 -0.4321
 9421TIP3   OH228226   2.154   0.966   1.195 -0.3018  0.4030  0.4253
 9421TIP3    H128227   2.183   0.973   1.104  2.2398  1.1763  1.2150
 9421TIP3    H228228   2.095   1.041   1.206  0.0727  0.8359 -0.3666
 9422TIP3   OH228229   2.912   5.623   3.509  0.5427  0.0094 -0.3042
 9422TIP3    H128230   2.882   5.542   3.550 -1.5760 -0.2188 -2.0993
 9422TIP3    H228231   2.997   5.600   3.471 -0.7343 -1.9766 -2.2227
 9423TIP3   OH228232   4.463   3.533   5.820  0.6805  0.0546  0.3384
 9423TIP3    H128233   4.519   3.559   5.893  1.1034 -3.7214  1.6151
 9423TIP3    H228234   4.519   3.480   5.764 -0.0853  1.4917 -1.9302
 9424TIP3   OH228235   1.559   4.536   4.103 -0.2048 -0.3094 -0.3566
 9424TIP3    H128236   1.586   4.446   4.124 -1.4979 -0.7008 -0.2877
 9424TIP3    H228237   1.571   4.584   4.185 -0.1157 -0.5664 -0.2168
 9425TIP3   OH228238   4.737   2.159   1.050  0.4818 -0.1745  0.1377
 9425TIP3    H128239   4.723   2.065   1.038 -1.7610 -0.5942  4.2112
 9425TIP3    H228240   4.823   2.166   1.092  0.3458 -0.4666  0.4627
 9426TIP3   OH228241   1.695   2.590   3.354  0.3227 -0.4481  0.3741
 9426TIP3    H128242   1.768   2.531   3.376  0.5252 -0.2741  0.1605
 9426TIP3    H228243   1.717   2.672   3.398  1.8044  0.6116 -2.1728
 9427TIP3   OH228244   2.619   1.382   5.837 -0.0633  0.4107  0.4187
 9427TIP3    H128245   2.566   1.431   5.900 -0.0916 -0.8459  1.4193
 9427TIP3    H228246   2.683   1.445   5.805 -2.9483  2.3984 -1.9180
 9428TIP3   OH228247   6.126   2.650   2.733 -0.0076 -0.3211 -0.0247
 9428TIP3    H128248   6.112   2.705   2.810  0.9515  0.4978 -0.4172
 9428TIP3    H228249   6.072   2.572   2.749 -0.2981  0.1075  1.1816
 9429TIP3   OH228250   1.417   3.652   5.339  0.1312  0.3221  0.1730
 9429TIP3    H128251   1.329   3.688   5.333  0.7331  1.7813 -0.1908
 9429TIP3    H228252   1.404   3.562   5.371 -1.5121  0.2956 -0.4795
 9430TIP3   OH228253   5.112   6.206   1.174  0.2073  0.4821 -0.2082
 9430TIP3    H128254   5.201   6.234   1.153  1.6743 -2.0695  2.1468
 9430TIP3    H228255   5.082   6.268   1.240  0.5477  0.7985 -0.3480
 9431TIP3   OH228256   6.277   0.191   0.013  0.1110  0.0061  0.0439
 9431TIP3    H128257   6.313   0.208   0.100 -1.9182  0.3327  0.8676
 9431TIP3    H228258   6.196   0.242   0.010  0.2093  0.1524 -2.1205
 9432TIP3   OH228259   6.896   6.418   1.512 -0.2514 -0.1873  0.0837
 9432TIP3    H128260   6.907   6.510   1.488 -0.4700 -0.1858 -0.0094
 9432TIP3    H228261   6.820   6.417   1.570  0.1054 -0.2288  0.5628
 9433TIP3   OH228262   4.948   6.216   0.666  0.4596 -0.2992 -0.0903
 9433TIP3    H128263   5.011   6.148   0.688  1.2461  0.6104  0.5874
 9433TIP3    H228264   4.944   6.216   0.571  0.5103 -1.2325 -0.0962
 9434TIP3   OH228265   4.187   2.966   2.035 -0.2959 -0.1817  0.2333
 9434TIP3    H128266   4.185   2.900   2.104  1.7000 -0.6103 -0.0529
 9434TIP3    H228267   4.188   3.049   2.083  1.4093 -0.4790  0.7946
 9435TIP3   OH228268   0.935   0.637   2.830 -0.2651 -0.3169 -0.0528
 9435TIP3    H128269   0.960   0.705   2.892 -2.4297 -0.5086  1.0890
 9435TIP3    H228270   0.972   0.667   2.747 -1.5369  2.5420  0.2869
 9436TIP3   OH228271   1.314   4.567   3.279  0.4994  0.8517  0.3610
 9436TIP3    H128272   1.219   4.564   3.291  0.3245  2.5529 -0.4579
 9436TIP3    H228273   1.345   4.620   3.351  0.4669  2.8624 -1.0304
 9437TIP3   OH228274   6.604   0.495   3.685 -0.6883 -0.1621 -0.7797
 9437TIP3    H128275   6.556   0.414   3.666 -1.9870  0.6384 -1.0412
 9437TIP3    H228276   6.558   0.532   3.761  1.1160 -0.6234  0.6125
 9438TIP3   OH228277   4.428   5.143   2.376  0.1376 -0.3537  0.7285
 9438TIP3    H128278   4.446   5.235   2.396 -0.2844 -0.5399  2.0599
 9438TIP3    H228279   4.458   5.095   2.453 -2.8087 -0.9872  1.6246
 9439TIP3   OH228280   0.975   1.941   0.451 -0.0827 -0.1486  0.2085
 9439TIP3    H128281   0.925   1.965   0.373 -0.5995 -0.7790  0.3475
 9439TIP3    H228282   1.041   1.879   0.419 -1.0012 -1.2734  0.4511
 9440TIP3   OH228283   0.898   1.098   2.825  0.5163 -1.1729  0.3402
 9440TIP3    H128284   0.886   1.181   2.871  1.4714 -0.1521 -1.1357
 9440TIP3    H228285   0.980   1.062   2.860  0.9343 -0.6858 -0.1094
 9441TIP3   OH228286   2.279   4.256   0.852  0.7043 -0.8666 -0.5541
 9441TIP3    H128287   2.187   4.231   0.844  0.5240 -1.1624  1.7568
 9441TIP3    H228288   2.277   4.352   0.858  0.7491 -0.7277 -2.2810
 9442TIP3   OH228289   6.632   4.770   5.317  0.1822  0.0569 -0.4554
 9442TIP3    H128290   6.612   4.684   5.355 -1.7086  1.4046  1.8433
 9442TIP3    H228291   6.573   4.778   5.242  1.1011 -1.0104 -1.3303
 9443TIP3   OH228292   5.596   1.133   1.955 -0.0813  0.3195  0.1069
 9443TIP3    H128293   5.513   1.086   1.963  0.1560 -0.2614 -0.7040
 9443TIP3    H228294   5.572   1.225   1.958 -0.5055  0.1977  2.2599
 9444TIP3   OH228295   5.076   0.117   2.934  0.0591 -0.3608 -0.3153
 9444TIP3    H128296   5.021   0.076   3.000  0.7141 -0.1359  0.3834
 9444TIP3    H228297   5.165   0.092   2.959  0.3029 -0.4987 -1.2682
 9445TIP3   OH228298   4.189   0.463   1.363 -0.0511  0.5429 -0.0124
 9445TIP3    H128299   4.183   0.378   1.407  1.5182 -0.3153 -1.3319
 9445TIP3    H228300   4.280   0.468   1.333 -0.2371  2.4856 -0.4053
 9446TIP3   OH228301   2.691   6.167   2.813  0.0944 -0.0733  0.4651
 9446TIP3    H128302   2.677   6.258   2.841  1.9593 -0.2063  2.0673
 9446TIP3    H228303   2.673   6.115   2.892 -0.1359 -1.0413 -0.2080
 9447TIP3   OH228304   1.185   4.856   2.919  0.1409  0.3473 -0.0206
 9447TIP3    H128305   1.128   4.888   2.989 -0.2739 -0.3204 -0.0481
 9447TIP3    H228306   1.200   4.764   2.939  3.2787  1.0246  1.3741
 9448TIP3   OH228307   6.417   1.597   5.841 -0.0836 -0.5780 -0.4253
 9448TIP3    H128308   6.353   1.573   5.775  1.4350 -2.0480 -1.4500
 9448TIP3    H228309   6.446   1.685   5.816  0.0568 -0.8899 -1.4050
 9449TIP3   OH228310   5.551   5.154   3.122 -0.3360  0.0942 -0.1508
 9449TIP3    H128311   5.639   5.136   3.154 -0.6762 -1.0033  0.2149
 9449TIP3    H228312   5.519   5.225   3.177  0.1019  0.0822  0.1226
 9450TIP3   OH228313   5.730   6.557   3.147 -0.2067 -0.1571 -0.3998
 9450TIP3    H128314   5.813   6.538   3.192  0.7239  0.4931 -1.7486
 9450TIP3    H228315   5.696   6.471   3.123  1.0619 -0.3896 -1.4764
 9451TIP3   OH228316   0.280   0.866   3.697  0.5930 -0.5111 -0.3693
 9451TIP3    H128317   0.195   0.902   3.720  1.2304 -0.0260  1.3721
 9451TIP3    H228318   0.328   0.939   3.658  0.7273 -0.3732  0.0509
 9452TIP3   OH228319   5.964   6.704   3.501  0.2013  0.1189 -0.4610
 9452TIP3    H128320   5.878   6.703   3.458 -0.2574 -0.4485  0.4322
 9452TIP3    H228321   6.008   6.625   3.468 -1.1192 -1.7495  1.9164
 9453TIP3   OH228322   2.335   6.651   4.488 -0.6439 -0.3805  0.8278
 9453TIP3    H128323   2.319   6.685   4.576 -0.3066  1.3782  0.2442
 9453TIP3    H228324   2.250   6.617   4.459 -1.3048  1.0743  1.0009
 9454TIP3   OH228325   6.853   0.620   0.227 -0.3080 -0.0587 -0.8090
 9454TIP3    H128326   6.918   0.614   0.297 -1.4182  0.0561  0.2466
 9454TIP3    H228327   6.833   0.530   0.204 -0.9925 -0.1345  0.0306
 9455TIP3   OH228328   1.718   6.571   5.433  0.3742  0.7587 -0.0922
 9455TIP3    H128329   1.768   6.649   5.458 -0.0853  0.0482  3.5820
 9455TIP3    H228330   1.630   6.604   5.414  0.9800  1.4438 -2.0150
 9456TIP3   OH228331   6.872   2.088   2.304 -0.1270 -0.3786  1.2330
 9456TIP3    H128332   6.960   2.057   2.286 -0.1523  0.4146 -0.4735
 9456TIP3    H228333   6.837   2.026   2.369  2.0855  0.0370  2.9441
 9457TIP3   OH228334   6.342   5.460   1.145 -0.3468  0.1064 -0.1884
 9457TIP3    H128335   6.346   5.368   1.118 -0.6517  0.1498 -0.3875
 9457TIP3    H228336   6.279   5.500   1.085 -0.3412  0.4098  0.0040
 9458TIP3   OH228337   1.185   4.239   5.459 -0.0683 -0.5456 -0.0027
 9458TIP3    H128338   1.247   4.241   5.531  1.1304  0.2179 -1.0092
 9458TIP3    H228339   1.239   4.222   5.381 -1.3511 -1.7078 -0.7049
 9459TIP3   OH228340   5.755   5.713   3.312 -0.7620  0.2170 -0.2898
 9459TIP3    H128341   5.847   5.717   3.284 -0.8979 -1.7314 -1.1508
 9459TIP3    H228342   5.718   5.797   3.284  0.6923  0.9546 -0.1058
 9460TIP3   OH228343   5.094   2.633   1.420  0.4605 -0.0540  0.0696
 9460TIP3    H128344   5.101   2.686   1.340 -0.0462 -0.8154 -0.4917
 9460TIP3    H228345   5.005   2.597   1.417  1.2390 -2.0569 -0.2857
 9461TIP3   OH228346   2.355   3.107   0.644  0.5559 -0.3109  0.4850
 9461TIP3    H128347   2.369   3.150   0.728 -0.4493 -1.7153  1.4113
 9461TIP3    H228348   2.282   3.047   0.659  1.4254 -1.8150 -0.9175
 9462TIP3   OH228349   4.450   5.876   1.998 -0.4093 -0.1489  0.0227
 9462TIP3    H128350   4.542   5.896   2.017 -0.7614  0.1825  1.4559
 9462TIP3    H228351   4.454   5.818   1.922  0.9964 -0.3298  0.2060
 9463TIP3   OH228352   0.608   2.471   3.203  0.4356  0.4831 -0.5126
 9463TIP3    H128353   0.650   2.544   3.249 -0.4339 -0.7119  2.4484
 9463TIP3    H228354   0.528   2.507   3.166  1.2853  1.5489 -1.3688
 9464TIP3   OH228355   5.731   4.204   1.910 -0.2422  0.1904 -0.3372
 9464TIP3    H128356   5.694   4.126   1.951  0.2946  0.5957  0.9737
 9464TIP3    H228357   5.684   4.277   1.949 -2.1722  0.5450 -3.0211
 9465TIP3   OH228358   5.161   2.171   0.975  1.0071  0.6479  0.3000
 9465TIP3    H128359   5.207   2.146   0.895  1.2915  2.7460 -0.2341
 9465TIP3    H228360   5.231   2.185   1.039  0.7418 -2.1592  1.3629
 9466TIP3   OH228361   5.991   2.153   5.782  0.0054 -0.4595  0.1584
 9466TIP3    H128362   5.951   2.175   5.866  1.2745 -1.7144  1.1283
 9466TIP3    H228363   5.948   2.073   5.754 -0.4783  0.0017 -0.4628
 9467TIP3   OH228364   3.461   2.881   0.847 -0.1076 -0.3234  0.5346
 9467TIP3    H128365   3.401   2.930   0.791 -0.0336 -0.6379  0.1775
 9467TIP3    H228366   3.548   2.913   0.822  0.0260 -1.4621 -0.5295
 9468TIP3   OH228367   5.200   4.066   5.655  0.4429  0.1684 -0.7375
 9468TIP3    H128368   5.109   4.041   5.668  0.6985 -0.8638 -0.8852
 9468TIP3    H228369   5.209   4.149   5.703 -0.7095  0.5885 -1.2056
 9469TIP3   OH228370   3.151   2.076   5.502 -0.1554  0.7834 -0.8694
 9469TIP3    H128371   3.141   2.169   5.479  1.8657  1.1757 -0.3615
 9469TIP3    H228372   3.216   2.076   5.572  0.4208 -1.0802 -1.3594
 9470TIP3   OH228373   2.386   4.249   0.513 -1.1437  0.0359 -0.1225
 9470TIP3    H128374   2.339   4.255   0.430  0.1102  0.6113 -0.8279
 9470TIP3    H228375   2.364   4.330   0.559 -0.5367  0.4939 -0.6269
 9471TIP3   OH228376   0.220   3.324   1.967 -0.2702 -0.3391 -0.4037
 9471TIP3    H128377   0.189   3.405   2.008 -0.6561 -0.4226 -0.5277
 9471TIP3    H228378   0.178   3.254   2.018  1.7601 -0.5451  1.1249
 9472TIP3   OH228379   5.945   2.145   0.556 -0.1157 -0.0012  0.6199
 9472TIP3    H128380   5.970   2.157   0.647 -1.5433 -0.8435  1.1415
 9472TIP3    H228381   5.937   2.234   0.522  1.6863  0.3192  0.9157
 9473TIP3   OH228382   3.243   4.603   1.292 -0.4114 -1.0374 -0.0048
 9473TIP3    H128383   3.201   4.627   1.210  0.0463 -1.4895 -0.3732
 9473TIP3    H228384   3.172   4.606   1.357 -0.6554 -0.0953 -0.2935
 9474TIP3   OH228385   3.310   1.406   1.927  0.0106  0.5381 -0.2271
 9474TIP3    H128386   3.335   1.432   1.839 -1.4133  0.6844 -0.6047
 9474TIP3    H228387   3.389   1.420   1.980  0.6031  1.3051 -1.2937
 9475TIP3   OH228388   5.934   0.961   0.113 -0.0049  0.1958 -0.1901
 9475TIP3    H128389   5.987   0.997   0.042  1.0744 -1.0102 -0.0234
 9475TIP3    H228390   5.897   1.039   0.156  1.1434  1.0486 -0.6785
 9476TIP3   OH228391   6.073   5.600   4.325 -0.7929 -0.1990  0.1717
 9476TIP3    H128392   5.984   5.611   4.359 -1.3749  1.9046 -1.7812
 9476TIP3    H228393   6.116   5.684   4.341  0.9246 -1.2063  1.1575
 9477TIP3   OH228394   5.683   5.913   1.257  0.1186  0.3260  0.2241
 9477TIP3    H128395   5.718   5.879   1.339 -1.3444 -1.0049  0.3548
 9477TIP3    H228396   5.726   5.997   1.245 -0.0665  0.8402  2.6768
 9478TIP3   OH228397   4.775   1.103   2.582  0.0321  0.3510  0.0740
 9478TIP3    H128398   4.797   1.013   2.558  0.4026  0.5056 -0.1694
 9478TIP3    H228399   4.721   1.134   2.509  1.1916  0.8349 -0.6075
 9479TIP3   OH228400   1.807   6.319   1.243 -0.7791 -0.4220 -0.7204
 9479TIP3    H128401   1.895   6.320   1.204 -0.2212  1.5486  0.4598
 9479TIP3    H228402   1.762   6.248   1.197  0.9203 -0.4627 -2.4750
 9480TIP3   OH228403   4.898   4.940   2.169 -0.0846 -0.3395  0.2726
 9480TIP3    H128404   4.877   4.928   2.262  2.1706 -1.1025  0.7343
 9480TIP3    H228405   4.966   4.875   2.151  0.2245  0.4635 -1.6649
 9481TIP3   OH228406   3.237   4.613   5.123  0.1772 -0.1149 -0.3183
 9481TIP3    H128407   3.243   4.627   5.029  0.0458 -0.8128 -0.4422
 9481TIP3    H228408   3.152   4.571   5.135  0.4756 -0.6389  0.0258
 9482TIP3   OH228409   6.879   5.886   4.178 -0.2787 -0.0390  0.5559
 9482TIP3    H128410   6.917   5.968   4.211 -1.3389  0.0171  1.6936
 9482TIP3    H228411   6.954   5.828   4.168  0.3147  0.5905  1.1923
 9483TIP3   OH228412   4.258   2.979   5.035  0.0651 -0.0910  0.2611
 9483TIP3    H128413   4.303   2.969   4.952 -3.3377 -0.1237 -1.7761
 9483TIP3    H228414   4.268   2.893   5.078 -0.2996 -0.9741 -1.3478
 9484TIP3   OH228415   0.456   3.732   1.998 -0.2592  0.1588  0.6225
 9484TIP3    H128416   0.482   3.819   2.030  0.0133  0.0279  0.7681
 9484TIP3    H228417   0.367   3.743   1.966  0.2702  0.8279 -0.6918
 9485TIP3   OH228418   3.200   3.228   3.192 -0.1195 -0.3265  0.2306
 9485TIP3    H128419   3.166   3.143   3.220 -1.1951 -0.5561 -1.6080
 9485TIP3    H228420   3.143   3.292   3.236 -0.5184 -0.6082  0.1282
 9486TIP3   OH228421   0.177   4.923   0.125 -0.8660  0.5248  0.0165
 9486TIP3    H128422   0.083   4.926   0.107 -0.6412 -1.1938 -1.7762
 9486TIP3    H228423   0.218   4.963   0.048 -0.0763 -0.0347  0.1333
 9487TIP3   OH228424   1.285   3.858   0.311  0.4009 -0.2803 -0.6651
 9487TIP3    H128425   1.311   3.877   0.221 -0.9501  1.5337 -0.7131
 9487TIP3    H228426   1.345   3.910   0.365 -0.9346  1.3156 -0.6658
 9488TIP3   OH228427   1.197   4.592   0.111 -0.4609 -0.9411 -0.4652
 9488TIP3    H128428   1.113   4.551   0.088  0.2116 -1.9344 -1.2829
 9488TIP3    H228429   1.248   4.521   0.149 -0.1234 -0.2438  0.4089
 9489TIP3   OH228430   5.190   3.180   3.733 -0.2301  0.0764  0.3441
 9489TIP3    H128431   5.265   3.191   3.674 -0.6230  0.4286 -0.0914
 9489TIP3    H228432   5.175   3.085   3.735  0.2385  0.0002  0.4503
 9490TIP3   OH228433   0.738   5.076   4.089  0.2220  0.1443 -0.1243
 9490TIP3    H128434   0.656   5.104   4.130 -0.3950 -1.7481  0.0407
 9490TIP3    H228435   0.794   5.049   4.163  0.4051 -0.0168 -0.3172
 9491TIP3   OH228436   5.269   4.607   5.258  0.1422 -0.4136  0.3935
 9491TIP3    H128437   5.208   4.652   5.200  1.0302  1.1185  0.5995
 9491TIP3    H228438   5.239   4.516   5.258 -0.7778 -0.1505 -1.2678
 9492TIP3   OH228439   2.809   4.690   2.957  0.1006  0.6746 -0.2952
 9492TIP3    H128440   2.716   4.694   2.934  0.0122  1.9444  0.1504
 9492TIP3    H228441   2.854   4.675   2.874 -0.4217  1.5399 -0.7528
 9493TIP3   OH228442   4.361   1.025   1.244  0.4469 -0.1861  0.2555
 9493TIP3    H128443   4.369   0.941   1.199  1.7302 -1.3013  2.3588
 9493TIP3    H228444   4.412   1.086   1.192  0.0753 -0.8542 -0.9387
 9494TIP3   OH228445   1.783   3.898   2.748  0.4492  0.2907 -0.1139
 9494TIP3    H128446   1.819   3.816   2.781  0.4191  1.1775  2.2765
 9494TIP3    H228447   1.804   3.963   2.815 -1.6423  1.7750 -0.7852
 9495TIP3   OH228448   0.582   4.997   4.944 -0.0664  0.7907 -0.3266
 9495TIP3    H128449   0.582   4.907   4.912  0.7629  0.0894  1.5091
 9495TIP3    H228450   0.575   5.050   4.865 -1.3446 -0.8692 -1.4126
 9496TIP3   OH228451   1.618   5.030   0.731 -0.1574 -0.2349 -0.1208
 9496TIP3    H128452   1.679   5.064   0.797  0.4450 -0.7211 -0.4190
 9496TIP3    H228453   1.539   5.083   0.742 -0.3013 -0.7271  1.4234
 9497TIP3   OH228454   0.215   5.082   0.355 -0.0883 -0.6979  0.2428
 9497TIP3    H128455   0.297   5.041   0.382  0.9766  0.5887 -0.9057
 9497TIP3    H228456   0.188   5.035   0.277  0.1727 -0.3949 -0.0331
 9498TIP3   OH228457   5.791   0.772   2.725  0.4105  0.4466  0.4875
 9498TIP3    H128458   5.750   0.836   2.666  1.4980 -0.3734 -1.2646
 9498TIP3    H228459   5.730   0.698   2.724  0.8507  0.0748 -0.3910
 9499TIP3   OH228460   2.821   6.292   3.534  0.2081 -0.5083 -0.2005
 9499TIP3    H128461   2.819   6.284   3.630 -1.5587  0.6848 -0.0884
 9499TIP3    H228462   2.745   6.241   3.505  1.2792 -1.6657 -1.0857
 9500TIP3   OH228463   7.169   5.105   2.617  0.4916  0.1245  0.2671
 9500TIP3    H128464   7.211   5.135   2.536 -2.1550  0.0894 -1.2346
 9500TIP3    H228465   7.208   5.019   2.634  3.2781  1.3995  0.8336
 9501TIP3   OH228466   3.531   0.345   1.976 -0.7782  0.3564 -0.1464
 9501TIP3    H128467   3.569   0.427   1.944  0.3719  0.0874  0.4788
 9501TIP3    H228468   3.480   0.371   2.052 -0.0868  0.4478  0.2927
 9502TIP3   OH228469   4.264   0.793   0.669  0.0219  0.0476  0.0188
 9502TIP3    H128470   4.206   0.868   0.656 -0.3060 -0.2722 -0.4015
 9502TIP3    H228471   4.227   0.747   0.744 -0.5524 -0.4087 -0.5299
 9503TIP3   OH228472   4.223   1.490   5.777 -0.1006  0.0432 -0.5285
 9503TIP3    H128473   4.179   1.563   5.821 -0.0115  0.4140 -1.0417
 9503TIP3    H228474   4.156   1.422   5.773  0.0715 -0.2133  0.6899
 9504TIP3   OH228475   2.967   5.687   3.993  0.6050 -0.3819  0.0459
 9504TIP3    H128476   3.047   5.719   4.035 -1.0528  0.5585  2.7318
 9504TIP3    H228477   2.956   5.743   3.916  2.0644  0.0324  0.1096
 9505TIP3   OH228478   1.060   6.481   0.280 -0.2187 -0.0914 -0.7183
 9505TIP3    H128479   1.132   6.417   0.275  0.4448  0.5045  0.5962
 9505TIP3    H228480   0.990   6.434   0.325 -0.0683 -0.1842 -0.5791
 9506TIP3   OH228481   2.490   1.654   3.957 -0.4707  0.1539 -0.2242
 9506TIP3    H128482   2.415   1.657   3.898  0.7910 -1.0951 -2.0010
 9506TIP3    H228483   2.553   1.597   3.913  2.7341  3.3369 -0.3056
 9507TIP3   OH228484   4.455   5.040   0.371  0.2023  0.0896 -0.3184
 9507TIP3    H128485   4.460   5.079   0.284  0.6116 -0.0051 -0.3400
 9507TIP3    H228486   4.363   5.014   0.380 -0.0009  0.7409 -0.4371
 9508TIP3   OH228487   2.589   4.783   1.998 -0.1674 -0.3745 -0.6456
 9508TIP3    H128488   2.612   4.784   1.905 -0.0559  0.9814 -0.6196
 9508TIP3    H228489   2.493   4.783   2.000 -0.1700 -0.2377 -0.7685
 9509TIP3   OH228490   1.250   3.169   4.185 -0.4229  0.1478 -0.0197
 9509TIP3    H128491   1.245   3.259   4.216 -0.2112  1.1023 -2.5481
 9509TIP3    H228492   1.219   3.116   4.259 -2.3364  2.4010  0.9040
 9510TIP3   OH228493   1.617   0.174   1.680 -0.2074 -0.2829  0.0961
 9510TIP3    H128494   1.569   0.228   1.617 -1.9997  1.2682  2.6075
 9510TIP3    H228495   1.704   0.214   1.685  0.2797 -0.9548 -1.8939
 9511TIP3   OH228496   2.593   5.595   1.976 -0.6760  0.2691  0.5887
 9511TIP3    H128497   2.573   5.567   1.886 -2.3575  0.8470  0.7485
 9511TIP3    H228498   2.689   5.594   1.980 -0.5296  0.8106 -1.4064
 9512TIP3   OH228499   1.956   4.488   0.912 -0.7383 -0.0000  0.6829
 9512TIP3    H128500   1.977   4.425   0.844 -2.0396 -0.0284  0.2964
 9512TIP3    H228501   1.884   4.449   0.961  0.7929 -0.4354  2.7329
 9513TIP3   OH228502   3.088   5.493   4.745 -0.3551 -0.1001 -0.6762
 9513TIP3    H128503   3.058   5.535   4.826  2.0468  0.7753 -0.1664
 9513TIP3    H228504   3.166   5.542   4.719  0.8649 -2.4050 -1.7139
 9514TIP3   OH228505   2.802   2.822   1.259  0.4082 -0.0009 -0.4417
 9514TIP3    H128506   2.721   2.849   1.216  0.0814 -0.2374  0.0171
 9514TIP3    H228507   2.862   2.801   1.188  0.1179  0.3273 -0.7839
 9515TIP3   OH228508   5.883   0.128   2.205 -0.4556  0.0721  0.1195
 9515TIP3    H128509   5.859   0.208   2.157  2.0204 -0.7778 -2.8765
 9515TIP3    H228510   5.978   0.127   2.205 -0.3985 -2.3155  1.1292
 9516TIP3   OH228511   0.523   5.536   3.283 -0.0209 -0.1485 -0.1654
 9516TIP3    H128512   0.487   5.466   3.338 -1.2942  1.7298  1.5624
 9516TIP3    H228513   0.468   5.612   3.303  1.8872  1.5958 -1.2023
 9517TIP3   OH228514   6.415   3.169   5.437  0.1863  0.4494 -0.2458
 9517TIP3    H128515   6.327   3.204   5.422 -0.3177 -0.7919 -0.3406
 9517TIP3    H228516   6.400   3.091   5.491  0.9495 -1.3368 -2.4829
 9518TIP3   OH228517   0.181   5.535   5.827 -0.0606  0.0367  0.3957
 9518TIP3    H128518   0.265   5.502   5.796 -1.2482 -2.8498 -0.1136
 9518TIP3    H228519   0.163   5.484   5.906 -2.0280 -0.6414 -0.4228
 9519TIP3   OH228520   5.491   4.955   4.968 -0.3038  0.5721 -0.2495
 9519TIP3    H128521   5.568   5.003   4.996 -0.0919 -0.0857  0.3388
 9519TIP3    H228522   5.422   5.021   4.963  0.4153  1.2713 -1.3481
 9520TIP3   OH228523   2.114   0.751   4.333  0.4541  0.2315 -0.1761
 9520TIP3    H128524   2.188   0.716   4.284  0.4442 -0.7175  0.4654
 9520TIP3    H228525   2.145   0.835   4.366  0.4053  0.9657 -1.8972
 9521TIP3   OH228526   5.189   1.216   5.445  0.1607  1.1030  0.0560
 9521TIP3    H128527   5.141   1.271   5.507  0.1465 -0.9904  2.0130
 9521TIP3    H228528   5.278   1.213   5.479 -0.0251 -0.6881  0.4438
 9522TIP3   OH228529   5.996   3.913   2.480 -0.4595  0.0789  0.0223
 9522TIP3    H128530   6.075   3.861   2.466  0.5320  1.5267 -0.0198
 9522TIP3    H228531   5.955   3.919   2.394 -1.1739 -1.4753  0.2182
 9523TIP3   OH228532   0.566   3.464   5.198  0.3385  0.0308  0.4169
 9523TIP3    H128533   0.612   3.390   5.158  2.3037  0.5305  1.6257
 9523TIP3    H228534   0.568   3.532   5.131 -0.6606 -0.6477 -0.3502
 9524TIP3   OH228535   1.748   1.993   3.104  0.1019 -0.2018 -0.0829
 9524TIP3    H128536   1.798   1.943   3.040  0.4313  0.3928 -0.2913
 9524TIP3    H228537   1.794   2.076   3.113 -0.7657  0.3079 -0.1762
 9525TIP3   OH228538   6.622   5.903   3.281  0.2100 -0.3373  0.1319
 9525TIP3    H128539   6.660   5.960   3.348 -1.2099  0.6258  0.1570
 9525TIP3    H228540   6.603   5.962   3.208  0.4104 -1.1242 -0.5706
 9526TIP3   OH228541   3.047   6.729   1.272 -0.3368 -0.0067  0.2958
 9526TIP3    H128542   3.065   6.763   1.360 -2.2014  1.8529  0.0309
 9526TIP3    H228543   3.074   6.799   1.213 -0.4266 -0.6731 -0.5579
 9527TIP3   OH228544   0.138   4.727   4.369 -0.7527  0.7388  0.2451
 9527TIP3    H128545   0.043   4.736   4.378 -1.1247 -0.4888 -1.7564
 9527TIP3    H228546   0.159   4.774   4.288  0.6327  2.2562  1.4018
 9528TIP3   OH228547   3.125   4.252   0.782 -0.5543 -0.1893  0.4010
 9528TIP3    H128548   3.139   4.343   0.756 -0.6354 -0.3694 -0.2824
 9528TIP3    H228549   3.212   4.223   0.811 -0.6539  0.2803  1.2042
 9529TIP3   OH228550   1.821   0.749   5.391 -0.4120  0.3631 -0.4390
 9529TIP3    H128551   1.775   0.802   5.456  0.6906 -1.1297  1.6608
 9529TIP3    H228552   1.756   0.734   5.322 -1.6305  1.9751  0.2979
 9530TIP3   OH228553   2.408   5.744   3.386 -0.0529 -0.1187  0.0087
 9530TIP3    H128554   2.373   5.661   3.354  2.3267  0.1834 -4.1204
 9530TIP3    H228555   2.350   5.811   3.349 -0.1341  0.1729  0.6433
 9531TIP3   OH228556   6.101   6.238   4.116 -0.0595  0.4459  0.0485
 9531TIP3    H128557   6.118   6.309   4.178 -1.4790  1.1509 -0.3385
 9531TIP3    H228558   6.179   6.237   4.060  0.2657  1.2699  0.4637
 9532TIP3   OH228559   0.088   1.276   5.728  0.3857  0.7982  0.2994
 9532TIP3    H128560   0.056   1.319   5.649 -1.3825 -0.8190  0.0433
 9532TIP3    H228561   0.164   1.327   5.755  0.5855  1.8392 -2.0094
 9533TIP3   OH228562   6.651   6.065   0.939  0.2806 -1.4811  0.1261
 9533TIP3    H128563   6.620   6.000   0.877 -0.3816 -0.8759 -0.1868
 9533TIP3    H228564   6.733   6.097   0.900  0.1280 -1.4617 -0.1802
 9534TIP3   OH228565   5.199   4.295   3.429  0.0707  0.2371 -0.3464
 9534TIP3    H128566   5.132   4.243   3.385  0.2933 -0.2097 -0.1583
 9534TIP3    H228567   5.240   4.345   3.359  0.6271 -0.6921 -0.7034
 9535TIP3   OH228568   6.466   1.094   5.227  0.2663 -0.5398  0.4438
 9535TIP3    H128569   6.561   1.095   5.234  0.3676 -3.1049  0.2491
 9535TIP3    H228570   6.448   1.040   5.150 -1.3417 -0.0887  0.4711
 9536TIP3   OH228571   1.302   5.436   4.866  0.0603  0.0099  0.8100
 9536TIP3    H128572   1.346   5.502   4.813 -0.8691 -0.3927 -0.5159
 9536TIP3    H228573   1.242   5.393   4.805  1.0855 -2.5062  1.4498
 9537TIP3   OH228574   0.618   6.765   5.111 -0.0701 -0.1143 -0.0525
 9537TIP3    H128575   0.620   6.700   5.181  0.8977  0.6836  0.6903
 9537TIP3    H228576   0.538   6.815   5.126 -1.1429 -1.4712 -0.9813
 9538TIP3   OH228577   2.575   5.271   0.741 -0.5047 -0.0025 -0.5496
 9538TIP3    H128578   2.652   5.327   0.730 -1.5074  1.2459 -1.5974
 9538TIP3    H228579   2.576   5.248   0.834  0.3670  1.1466 -0.2422
 9539TIP3   OH228580   5.096   2.161   4.639  0.0264 -0.0900  0.0438
 9539TIP3    H128581   5.173   2.188   4.589 -0.3910  0.0587 -0.5375
 9539TIP3    H228582   5.123   2.083   4.686  0.9465  0.7383  0.9275
 9540TIP3   OH228583   3.833   1.170   4.314 -0.6573  0.3372  0.0383
 9540TIP3    H128584   3.906   1.231   4.305  0.9510 -1.4822 -0.1401
 9540TIP3    H228585   3.820   1.162   4.409  0.1564 -0.1141  0.1328
 9541TIP3   OH228586   6.054   2.938   4.458 -0.2118  0.5057 -0.7279
 9541TIP3    H128587   5.995   2.924   4.532 -0.8304  0.2267 -1.2581
 9541TIP3    H228588   6.012   2.891   4.386 -0.4851  2.1315 -1.6695
 9542TIP3   OH228589   5.955   5.115   2.716 -0.2651 -0.0717 -0.3906
 9542TIP3    H128590   5.884   5.175   2.736 -0.9851 -0.7133 -0.9437
 9542TIP3    H228591   6.004   5.107   2.797 -0.6288  0.6392 -0.0990
 9543TIP3   OH228592   2.475   4.468   4.100 -0.0625 -0.4959  0.2306
 9543TIP3    H128593   2.407   4.491   4.037  1.1039 -0.2621 -0.9919
 9543TIP3    H228594   2.505   4.381   4.072  0.5805 -0.3159  0.3423
 9544TIP3   OH228595   4.193   5.456   1.351  0.1670 -0.1842  0.1997
 9544TIP3    H128596   4.120   5.491   1.299  1.6329  1.6684 -0.7502
 9544TIP3    H228597   4.161   5.373   1.385 -3.0159  1.3152  1.2646
 9545TIP3   OH228598   5.292   0.499   1.435 -0.0185  0.4141 -0.5704
 9545TIP3    H128599   5.209   0.474   1.476  0.8540 -0.3875  0.7775
 9545TIP3    H228600   5.266   0.555   1.362 -1.8716 -1.3956 -1.4193
 9546TIP3   OH228601   5.795   1.837   1.624  0.0873 -0.4258  0.0321
 9546TIP3    H128602   5.722   1.873   1.675  0.6257 -0.3490  0.7579
 9546TIP3    H228603   5.774   1.744   1.615 -0.1241 -0.3957  0.1978
 9547TIP3   OH228604   2.082   3.252   0.459  0.2327 -0.1990 -0.3885
 9547TIP3    H128605   2.107   3.195   0.532 -1.0133  0.5399  0.6590
 9547TIP3    H228606   2.153   3.316   0.453  0.4085 -0.3420  0.1083
 9548TIP3   OH228607   1.471   1.665   3.473 -0.3681  0.0615 -0.2249
 9548TIP3    H128608   1.547   1.712   3.438 -0.1492  0.2186  0.4481
 9548TIP3    H228609   1.473   1.580   3.428  1.7125 -0.9635  1.6097
 9549TIP3   OH228610   4.757   3.191   0.675 -0.4800 -0.3595  0.3017
 9549TIP3    H128611   4.683   3.150   0.721 -2.6928  0.0257 -2.6045
 9549TIP3    H228612   4.768   3.275   0.720 -1.8315 -0.4302  0.8330
 9550TIP3   OH228613   5.187   3.810   2.694  0.2514 -0.1380  0.0030
 9550TIP3    H128614   5.227   3.756   2.763 -1.8421 -2.5379 -0.5070
 9550TIP3    H228615   5.212   3.766   2.613 -2.6726 -1.3283 -0.3616
 9551TIP3   OH228616   3.362   0.734   3.525  0.0741 -0.0896  0.1384
 9551TIP3    H128617   3.307   0.811   3.543 -1.2544 -0.5812 -1.5239
 9551TIP3    H228618   3.313   0.661   3.562  0.0755 -0.4172 -0.4957
 9552TIP3   OH228619   1.340   1.893   5.751 -0.2605 -0.2581 -0.1629
 9552TIP3    H128620   1.382   1.934   5.827 -0.4003 -0.3251 -0.0484
 9552TIP3    H228621   1.413   1.874   5.691 -0.0432 -0.8976  0.2839
 9553TIP3   OH228622   3.023   3.700   5.739  0.0667 -0.0229 -0.4698
 9553TIP3    H128623   3.108   3.657   5.727  0.3270  0.1024  0.7574
 9553TIP3    H228624   3.040   3.767   5.805 -0.4098  1.7760 -2.0813
 9554TIP3   OH228625   2.159   5.065   2.246  0.2970  0.4361 -0.0121
 9554TIP3    H128626   2.250   5.039   2.264 -0.3410 -0.4652  2.2383
 9554TIP3    H228627   2.135   5.015   2.168  1.1956 -0.6361  0.3685
 9555TIP3   OH228628   3.279   4.833   3.895 -0.8965 -0.5647 -0.3707
 9555TIP3    H128629   3.223   4.791   3.831  1.3276 -1.4131 -1.8711
 9555TIP3    H228630   3.298   4.919   3.857 -1.8900  0.1088  0.5905
 9556TIP3   OH228631   6.614   4.531   1.888 -0.3177  0.1482 -0.3271
 9556TIP3    H128632   6.654   4.617   1.898  0.4515 -0.1689 -0.6290
 9556TIP3    H228633   6.621   4.511   1.794  1.2901 -1.0679 -0.0002
 9557TIP3   OH228634   5.776   5.760   3.623 -0.5155  0.2286  0.2520
 9557TIP3    H128635   5.794   5.698   3.552  2.0141  0.4778  0.6050
 9557TIP3    H228636   5.846   5.825   3.616 -2.4809  2.5219  0.5471
 9558TIP3   OH228637   4.543   1.587   0.688 -0.0214 -0.0948 -0.0380
 9558TIP3    H128638   4.554   1.508   0.635 -1.0760 -0.4144  0.2103
 9558TIP3    H228639   4.511   1.653   0.626 -1.0018 -0.3970  0.1388
 9559TIP3   OH228640   0.237   6.295   4.249  0.0854 -0.1254 -0.3310
 9559TIP3    H128641   0.267   6.237   4.179  0.3533 -0.3808 -0.0094
 9559TIP3    H228642   0.274   6.381   4.226 -0.8134  0.0567 -1.1229
 9560TIP3   OH228643   2.020   0.336   1.167 -0.1635  0.7321 -0.2562
 9560TIP3    H128644   2.075   0.337   1.089 -0.9047  1.9215 -0.7995
 9560TIP3    H228645   1.969   0.417   1.162 -1.0299  0.3003  0.8919
 9561TIP3   OH228646   6.292   4.692   2.206  0.2030  0.7681 -0.2471
 9561TIP3    H128647   6.234   4.619   2.183  1.2490 -0.4047  0.6864
 9561TIP3    H228648   6.321   4.673   2.295  1.2412  1.8397 -0.3242
 9562TIP3   OH228649   5.633   2.244   5.103 -0.2040 -0.1591 -0.0835
 9562TIP3    H128650   5.716   2.209   5.072 -1.1416 -2.0085 -0.6757
 9562TIP3    H228651   5.569   2.176   5.081 -1.8207  1.0563  0.6609
 9563TIP3   OH228652   2.261   1.067   0.935 -0.0200  0.3908  0.0907
 9563TIP3    H128653   2.355   1.069   0.919 -0.0738  0.0310 -0.2875
 9563TIP3    H228654   2.230   1.153   0.907  0.1513  0.4061 -0.0486
 9564TIP3   OH228655   4.105   4.282   0.675 -0.2445  0.0711 -0.3184
 9564TIP3    H128656   4.068   4.210   0.725  0.6654 -0.5977 -0.5801
 9564TIP3    H228657   4.147   4.240   0.600  0.6001  0.8448 -0.2964
 9565TIP3   OH228658   3.460   0.639   3.186  0.4663  0.1490  0.1349
 9565TIP3    H128659   3.373   0.672   3.207  0.8793  2.0750 -0.9244
 9565TIP3    H228660   3.448   0.588   3.106  0.0890 -1.0106  0.8953
 9566TIP3   OH228661   1.803   3.962   3.943 -0.2171  0.7850  0.2928
 9566TIP3    H128662   1.890   3.948   3.906 -0.8697  0.3768 -1.1510
 9566TIP3    H228663   1.801   4.054   3.967  0.3310  0.9944 -0.4416
 9567TIP3   OH228664   3.881   2.599   2.847 -0.3356 -0.1639  0.1905
 9567TIP3    H128665   3.831   2.627   2.770 -0.4634 -0.5545  0.1282
 9567TIP3    H228666   3.884   2.676   2.903  0.1693  0.2693 -0.4231
 9568TIP3   OH228667   1.958   3.790   0.381 -0.7623  0.0754 -0.0399
 9568TIP3    H128668   1.905   3.840   0.444 -0.1237  0.9356 -0.1809
 9568TIP3    H228669   2.047   3.796   0.414 -0.4839  0.1627 -0.7974
 9569TIP3   OH228670   3.311   3.050   0.358 -0.2569  0.4763 -0.4808
 9569TIP3    H128671   3.251   3.002   0.302  0.0233 -0.2713 -0.1479
 9569TIP3    H228672   3.377   2.986   0.384  1.0467  1.4243 -1.3285
 9570TIP3   OH228673   0.672   0.938   2.786 -0.0925  0.2346  0.2069
 9570TIP3    H128674   0.622   0.967   2.863  0.6304 -0.7226  1.0561
 9570TIP3    H228675   0.755   0.986   2.792  0.1772 -0.2417  0.3273
 9571TIP3   OH228676   5.376   4.424   3.935  0.4638 -0.3222 -0.1301
 9571TIP3    H128677   5.448   4.471   3.977 -1.4236  2.5376  0.2527
 9571TIP3    H228678   5.404   4.413   3.844  1.4705  0.5724  0.0552
 9572TIP3   OH228679   3.475   2.435   0.007  0.3676 -0.3344 -0.5249
 9572TIP3    H128680   3.405   2.412  -0.054 -2.6203  1.7768  1.8198
 9572TIP3    H228681   3.479   2.363   0.069 -1.0512  0.2930  0.3369
 9573TIP3   OH228682   2.816   1.628   4.337 -0.5472 -0.0310 -0.2360
 9573TIP3    H128683   2.905   1.597   4.318 -0.7008 -2.1901  2.1351
 9573TIP3    H228684   2.829   1.716   4.372  0.6964 -0.3994  0.2953
 9574TIP3   OH228685   1.695   3.591   4.580  0.2582  0.2132  0.0277
 9574TIP3    H128686   1.664   3.659   4.521 -1.4900 -1.0499 -0.5827
 9574TIP3    H228687   1.771   3.553   4.534  0.6725  1.1054 -0.0507
 9575TIP3   OH228688   0.341   0.966   5.145 -0.6290  0.4723  0.2023
 9575TIP3    H128689   0.283   0.923   5.082  1.6559  0.8050 -2.3187
 9575TIP3    H228690   0.292   1.043   5.174 -1.5302  0.7019 -1.7665
 9576TIP3   OH228691   0.210   0.410   4.973 -0.1452 -0.0964 -0.5104
 9576TIP3    H128692   0.200   0.460   4.892  0.0345  0.9093  0.0683
 9576TIP3    H228693   0.196   0.474   5.043  2.3446 -0.3072  0.2924
 9577TIP3   OH228694   0.620   4.770   4.817  0.1100 -0.2192  0.3441
 9577TIP3    H128695   0.548   4.707   4.816  0.0069 -0.1087  0.8686
 9577TIP3    H228696   0.689   4.728   4.764 -1.7352  1.3487 -3.7480
 9578TIP3   OH228697   2.507   2.574   3.409  0.0948  0.2885  0.8019
 9578TIP3    H128698   2.595   2.542   3.387  0.3719  0.8116  1.1180
 9578TIP3    H228699   2.493   2.648   3.350 -0.1718  0.1482  0.6907
 9579TIP3   OH228700   1.430   4.393   3.487 -0.2498  0.0613  0.2066
 9579TIP3    H128701   1.399   4.437   3.565  0.3824 -1.1050  1.1560
 9579TIP3    H228702   1.354   4.345   3.454 -1.0218  1.9891 -1.0028
 9580TIP3   OH228703   3.719   0.087   5.565  0.7164  0.0449 -0.4527
 9580TIP3    H128704   3.779   0.130   5.504  2.0990 -1.5577 -0.2755
 9580TIP3    H228705   3.745   0.119   5.651 -0.3800  1.2935 -0.5543
 9581TIP3   OH228706   0.852   5.009   5.737 -0.2813 -0.4185  0.6721
 9581TIP3    H128707   0.861   5.045   5.649  0.3184  0.0460  0.9178
 9581TIP3    H228708   0.807   4.925   5.724 -2.4430  0.7318  0.1704
 9582TIP3   OH228709   2.888   3.283   4.667 -0.2914  0.1672 -0.0165
 9582TIP3    H128710   2.884   3.376   4.692  1.7871  0.0130  1.1069
 9582TIP3    H228711   2.980   3.268   4.647 -0.3871 -1.8983  0.8371
 9583TIP3   OH228712   0.410   0.076   5.562 -0.0410 -0.6266  0.1592
 9583TIP3    H128713   0.429   0.024   5.640 -1.4576  0.7058  1.4750
 9583TIP3    H228714   0.376   0.014   5.498 -0.1851 -1.5506  1.1139
 9584TIP3   OH228715   6.904   4.812   5.274  0.2904  0.2053 -0.3769
 9584TIP3    H128716   6.814   4.786   5.291 -0.3983  2.6107  0.0819
 9584TIP3    H228717   6.957   4.758   5.332 -0.7578 -1.6815 -1.1069
 9585TIP3   OH228718   0.303   2.866   4.884  0.4609  0.2152 -0.0772
 9585TIP3    H128719   0.298   2.906   4.971  1.8870 -0.4415  0.3440
 9585TIP3    H228720   0.263   2.780   4.895  2.1800 -0.5605  0.4074
 9586TIP3   OH228721   1.744   5.105   2.723  0.1956  0.4570 -0.1988
 9586TIP3    H128722   1.689   5.056   2.784  0.2122  0.7000  0.0112
 9586TIP3    H228723   1.834   5.085   2.749  0.2719 -1.5753 -1.8095
 9587TIP3   OH228724   5.597   4.525   4.094  0.3095 -0.1358 -0.0798
 9587TIP3    H128725   5.638   4.458   4.149 -1.5730  0.1244  1.7839
 9587TIP3    H228726   5.654   4.601   4.103  0.4428 -0.3406  0.9184
 9588TIP3   OH228727   5.594   3.422   1.496  0.1123  0.1280 -0.7450
 9588TIP3    H128728   5.505   3.431   1.529  1.2771  0.8780  2.5397
 9588TIP3    H228729   5.611   3.505   1.451 -0.4769  0.4076 -0.4564
 9589TIP3   OH228730   1.629   4.155   0.967  0.4587 -0.0816  0.1588
 9589TIP3    H128731   1.682   4.232   0.985 -0.7333  1.0139 -0.8565
 9589TIP3    H228732   1.563   4.185   0.905 -0.7127 -1.6614  0.5807
 9590TIP3   OH228733   1.173   3.180   2.845  0.4198 -0.3629  0.0165
 9590TIP3    H128734   1.153   3.115   2.912  1.1653 -0.6309 -0.0116
 9590TIP3    H228735   1.099   3.176   2.784  0.9218 -1.9069 -0.5282
 9591TIP3   OH228736   5.358   4.201   0.795 -0.0529  0.7815  0.2850
 9591TIP3    H128737   5.378   4.116   0.834 -0.3310  0.7966  0.4668
 9591TIP3    H228738   5.428   4.259   0.824 -0.2488  0.7879  0.7482
 9592TIP3   OH228739   4.980   1.671   1.992 -0.1882  0.0728 -0.3957
 9592TIP3    H128740   4.885   1.680   1.997 -0.1762 -0.3286  0.8961
 9592TIP3    H228741   5.002   1.605   2.058  0.7633 -1.6738 -2.2882
 9593TIP3   OH228742   0.104   6.701   4.546  0.4225 -0.5601  0.1847
 9593TIP3    H128743   0.139   6.768   4.606 -2.8086  0.1453  1.4722
 9593TIP3    H228744   0.055   6.751   4.480 -0.4357 -1.5737  0.0317
 9594TIP3   OH228745   4.420   0.003   3.151  0.2855  0.7360  0.0653
 9594TIP3    H128746   4.435   0.065   3.080 -0.3263  0.5238 -0.2528
 9594TIP3    H228747   4.354   0.044   3.207 -1.2887 -0.2647 -0.9785
 9595TIP3   OH228748   3.193   4.053   2.202  0.0213 -0.2359 -0.0421
 9595TIP3    H128749   3.230   4.088   2.122 -0.3611 -1.2825 -0.6977
 9595TIP3    H228750   3.241   3.972   2.218  0.3628  0.1514  1.0154
 9596TIP3   OH228751   3.584   4.603   3.702  0.0024  0.5172  0.0293
 9596TIP3    H128752   3.623   4.516   3.697 -1.5148 -0.2491  0.8398
 9596TIP3    H228753   3.598   4.631   3.792 -1.0166  0.3393  0.2632
 9597TIP3   OH228754   1.733   1.681   0.517  0.0811 -0.3528  0.2535
 9597TIP3    H128755   1.753   1.653   0.428  1.2065 -0.0735  0.4006
 9597TIP3    H228756   1.655   1.737   0.508  0.2717 -0.2115 -0.5653
 9598TIP3   OH228757   3.432   1.426   3.854 -0.1912  0.0022 -0.0519
 9598TIP3    H128758   3.502   1.367   3.825 -0.1917 -0.2120  0.3775
 9598TIP3    H228759   3.369   1.424   3.782  0.3445  0.3684 -0.5326
 9599TIP3   OH228760   5.141   3.752   3.157  0.4851 -0.0065 -0.4225
 9599TIP3    H128761   5.087   3.748   3.236  0.6194  1.1028 -0.2572
 9599TIP3    H228762   5.230   3.739   3.188  0.6217  1.2125 -0.2709
 9600TIP3   OH228763   2.920   5.982   2.354 -0.1384  0.1576 -0.0060
 9600TIP3    H128764   2.841   6.036   2.354  0.0509  0.4563  1.1344
 9600TIP3    H228765   2.915   5.932   2.436  0.0171 -1.0894 -0.7297
 9601TIP3   OH228766   5.134   3.657   4.264  0.0736  0.5254 -0.0804
 9601TIP3    H128767   5.161   3.573   4.301  1.5016  0.8372 -0.3357
 9601TIP3    H228768   5.157   3.721   4.330 -0.5473  0.7720 -0.0962
 9602TIP3   OH228769   4.606   5.984   2.613  0.0249 -0.1989  0.4985
 9602TIP3    H128770   4.542   5.938   2.668  0.2995 -0.5755  0.4980
 9602TIP3    H228771   4.595   5.946   2.526  0.7243 -0.7378  0.6452
 9603TIP3   OH228772   5.022   2.191   4.210  0.1225 -0.7636 -0.3036
 9603TIP3    H128773   5.063   2.275   4.231 -0.3428 -0.4744 -0.5372
 9603TIP3    H228774   4.951   2.213   4.150  1.8222 -1.6070 -2.8049
 9604TIP3   OH228775   1.036   4.364   0.394  0.2491  0.0003  0.2437
 9604TIP3    H128776   0.993   4.345   0.311 -0.8211  0.3801  0.6895
 9604TIP3    H228777   0.988   4.440   0.428 -0.2143 -0.9617  1.8302
 9605TIP3   OH228778   3.838   4.369   0.745 -0.4042  0.1154 -0.5005
 9605TIP3    H128779   3.922   4.329   0.722 -0.6949 -0.4751 -0.5574
 9605TIP3    H228780   3.862   4.449   0.791  0.1901  0.8837 -2.0762
 9606TIP3   OH228781   3.641   6.069   3.292  0.2546  0.0143  0.8121
 9606TIP3    H128782   3.698   6.146   3.297  1.4361 -0.7761  0.2002
 9606TIP3    H228783   3.671   6.013   3.363 -0.3714 -0.0254  1.0430
 9607TIP3   OH228784   1.876   3.572   1.721 -0.0149 -0.0516  0.1254
 9607TIP3    H128785   1.925   3.562   1.803  2.0034  0.0330 -0.9808
 9607TIP3    H228786   1.941   3.555   1.653 -1.0980  1.8451 -1.4990
 9608TIP3   OH228787   0.529   0.752   1.934  0.1410  0.4317  0.6182
 9608TIP3    H128788   0.466   0.695   1.889  0.2754  1.5534 -1.1002
 9608TIP3    H228789   0.613   0.731   1.893  0.1743  1.8988 -0.1275
 9609TIP3   OH228790   2.939   6.495   1.664 -0.2714 -0.0188  0.1506
 9609TIP3    H128791   3.009   6.527   1.607  0.1651  1.0200  1.2403
 9609TIP3    H228792   2.983   6.435   1.724 -0.5029 -0.1427  0.1988
 9610TIP3   OH228793   1.792   2.710   5.534 -0.1880  0.2363  0.4156
 9610TIP3    H128794   1.828   2.688   5.620  1.4952 -0.2353 -0.3548
 9610TIP3    H228795   1.707   2.666   5.532  0.7098 -1.6794  1.0180
 9611TIP3   OH228796   1.369   6.402   5.196  0.2536 -0.0417  0.2955
 9611TIP3    H128797   1.375   6.312   5.163  0.5113 -0.0727  0.4221
 9611TIP3    H228798   1.275   6.422   5.195  0.3052  0.2455 -1.2287
 9612TIP3   OH228799   0.150   6.131   5.431  0.5533 -0.1888 -0.0162
 9612TIP3    H128800   0.109   6.175   5.357  0.7496  0.2388  0.1248
 9612TIP3    H228801   0.207   6.065   5.391  1.1597  0.4777 -0.2744
 9613TIP3   OH228802   0.645   3.514   2.864  0.0174  0.3843 -0.1651
 9613TIP3    H128803   0.633   3.419   2.871 -2.1277  0.5579 -0.8609
 9613TIP3    H228804   0.603   3.537   2.781  0.7860  1.9181 -0.1553
 9614TIP3   OH228805   1.500   1.426   4.904  0.2608 -1.0366 -0.2846
 9614TIP3    H128806   1.405   1.441   4.910  0.3632  0.0941 -1.0343
 9614TIP3    H228807   1.509   1.332   4.890 -0.8226 -1.0217 -1.2617
 9615TIP3   OH228808   0.713   2.113   4.249  0.0212 -0.0638 -0.4434
 9615TIP3    H128809   0.749   2.199   4.270 -0.0171 -0.3820  1.0154
 9615TIP3    H228810   0.788   2.061   4.220  0.0321  0.4603 -1.4119
 9616TIP3   OH228811   1.338   2.086   2.568 -0.2469 -0.6646 -0.0670
 9616TIP3    H128812   1.325   2.035   2.488 -1.1872 -0.3976 -0.0923
 9616TIP3    H228813   1.420   2.052   2.605 -0.8456 -2.2116 -0.0848
 9617TIP3   OH228814   4.244   1.567   0.464 -0.6265 -0.3492 -0.0335
 9617TIP3    H128815   4.330   1.609   0.461 -0.4905 -0.6193  0.0179
 9617TIP3    H228816   4.202   1.604   0.542 -0.5209 -0.2851 -0.0072
 9618TIP3   OH228817   0.984   2.442   5.620 -0.1083  0.2227  0.4667
 9618TIP3    H128818   1.024   2.392   5.691  0.3522  0.0368  0.0857
 9618TIP3    H228819   1.039   2.519   5.611 -0.9644  0.9399  1.2189
 9619TIP3   OH228820   2.059   4.224   4.998 -0.3205  0.4832 -0.0119
 9619TIP3    H128821   2.112   4.176   5.061  2.1404  2.4704 -0.3969
 9619TIP3    H228822   2.027   4.300   5.046 -2.0259 -0.1574 -0.0776
 9620TIP3   OH228823   5.993   2.137  -0.032  0.4381 -0.8220  0.0768
 9620TIP3    H128824   6.086   2.151  -0.012  0.2124 -1.1160  1.3910
 9620TIP3    H228825   5.951   2.128   0.053 -0.9806  0.3457 -0.4686
 9621TIP3   OH228826   6.707   1.841   3.249  0.7800 -0.1206  0.1823
 9621TIP3    H128827   6.647   1.874   3.316  0.2526  0.6339 -0.6396
 9621TIP3    H228828   6.656   1.775   3.202  0.7920  0.0814 -0.1205
 9622TIP3   OH228829   0.747   1.975   2.697  0.4106 -0.1145  0.3230
 9622TIP3    H128830   0.663   2.002   2.733 -0.9606  0.8461 -3.1878
 9622TIP3    H228831   0.812   2.020   2.751 -1.2051 -1.2017  3.3794
 9623TIP3   OH228832   2.489   4.688   5.532 -0.3319  0.3368 -0.3806
 9623TIP3    H128833   2.519   4.766   5.485  0.6186 -0.3241 -0.9128
 9623TIP3    H228834   2.419   4.652   5.477  0.8782 -0.5185 -1.4403
 9624TIP3   OH228835   0.743   0.039   1.838  0.6076 -0.0877  0.3716
 9624TIP3    H128836   0.784   0.075   1.759  0.9551  0.1128  0.6445
 9624TIP3    H228837   0.816   0.011   1.893  0.3579 -2.6644 -0.4816
 9625TIP3   OH228838   6.713   2.446   3.979  0.1169  0.1765  0.4743
 9625TIP3    H128839   6.700   2.368   4.032  0.6331  0.7755  1.5239
 9625TIP3    H228840   6.710   2.415   3.889  0.2284 -1.0352  0.8722
 9626TIP3   OH228841   6.377   2.997   0.688  0.5984 -0.1408  0.1040
 9626TIP3    H128842   6.295   2.948   0.695 -1.4189  3.0688  1.0575
 9626TIP3    H228843   6.443   2.940   0.727 -1.0786 -2.8921 -0.7849
 9627TIP3   OH228844   2.847   0.798   1.788  0.0801 -0.6170 -0.3309
 9627TIP3    H128845   2.811   0.755   1.866  0.2107 -1.3652 -0.6717
 9627TIP3    H228846   2.941   0.798   1.802  0.2414 -2.2094 -1.1865
 9628TIP3   OH228847   3.704   5.617   3.254 -0.0082 -0.6019 -0.1364
 9628TIP3    H128848   3.759   5.553   3.209 -0.3961 -0.8764 -0.2325
 9628TIP3    H228849   3.753   5.699   3.250  1.3370 -1.2661  1.5885
 9629TIP3   OH228850   5.721   6.475   5.704 -0.1186  0.4578 -0.0053
 9629TIP3    H128851   5.731   6.384   5.732 -0.6876  0.4746  0.2659
 9629TIP3    H228852   5.637   6.476   5.658 -0.5305  1.0331  0.7537
 9630TIP3   OH228853   5.113   2.823   2.138  0.4375  0.0079  0.9901
 9630TIP3    H128854   5.094   2.916   2.122 -0.0379 -0.4447 -1.6755
 9630TIP3    H228855   5.027   2.783   2.149  0.3585 -0.5484 -1.1747
 9631TIP3   OH228856   2.586   4.894   1.477 -0.3833  0.8214  0.4602
 9631TIP3    H128857   2.664   4.921   1.429 -0.5774  1.2558  0.3817
 9631TIP3    H228858   2.544   4.829   1.420  0.1782  0.2161  0.7290
 9632TIP3   OH228859   0.118   0.742   1.978 -0.0290  1.2193  0.2258
 9632TIP3    H128860   0.127   0.699   1.893 -0.6722  4.4599 -1.6561
 9632TIP3    H228861   0.023   0.742   1.994  0.1784 -0.6378  1.7429
 9633TIP3   OH228862   2.375   1.673   3.688  0.2701  0.0563  0.1882
 9633TIP3    H128863   2.462   1.709   3.673  0.3066  0.0133  0.2949
 9633TIP3    H228864   2.328   1.687   3.605  0.7263 -0.9090 -0.2538
 9634TIP3   OH228865   5.875   4.220   0.333  0.2838 -0.7792 -0.2001
 9634TIP3    H128866   5.891   4.274   0.410  1.2975  0.0270 -0.9301
 9634TIP3    H228867   5.962   4.186   0.309 -0.2141 -2.0641 -0.2472
 9635TIP3   OH228868   2.955   0.769   3.292 -0.1711 -0.4129  0.2651
 9635TIP3    H128869   2.907   0.687   3.296 -0.9354  0.0818  2.1941
 9635TIP3    H228870   2.904   0.823   3.231 -1.5721 -0.2266  1.5638
 9636TIP3   OH228871   3.664   5.088   0.096 -0.0136 -0.3511  0.1060
 9636TIP3    H128872   3.737   5.048   0.144  0.7543  2.2704  1.2654
 9636TIP3    H228873   3.705   5.139   0.027 -0.6674  1.3667  0.9258
 9637TIP3   OH228874   1.396   4.997   1.103  0.3636 -0.1423 -0.0509
 9637TIP3    H128875   1.409   5.087   1.133  1.9936 -0.5163  0.4187
 9637TIP3    H228876   1.483   4.966   1.081 -0.1462 -1.7005  0.0274
 9638TIP3   OH228877   3.499   2.833   2.997 -0.2093  0.4623 -0.3102
 9638TIP3    H128878   3.559   2.896   3.037  1.5686 -0.9965 -0.5526
 9638TIP3    H228879   3.417   2.881   2.987  1.3502  3.1064 -1.4726
 9639TIP3   OH228880   4.776   5.847   0.438 -0.0639 -1.1116 -0.5261
 9639TIP3    H128881   4.738   5.908   0.502 -1.6562 -1.0678 -1.4696
 9639TIP3    H228882   4.723   5.767   0.447  0.2688 -1.4121 -1.1889
 9640TIP3   OH228883   6.556   0.581   2.131 -0.1708 -1.0461 -0.1727
 9640TIP3    H128884   6.572   0.570   2.225  1.7227 -0.8376 -0.4373
 9640TIP3    H228885   6.552   0.676   2.119 -1.0487 -1.0853 -0.2167
 9641TIP3   OH228886   2.592   1.953   3.279  0.0026 -0.1011  0.0441
 9641TIP3    H128887   2.602   1.922   3.189 -0.6963  0.4404 -0.2308
 9641TIP3    H228888   2.548   2.038   3.271  2.3830  1.2913  0.7369
 9642TIP3   OH228889   5.050   1.249   4.462  0.1887 -0.3960 -0.4332
 9642TIP3    H128890   5.119   1.271   4.400  0.5957 -1.3105 -0.3210
 9642TIP3    H228891   5.021   1.161   4.436 -0.7828 -0.1114 -0.3430
 9643TIP3   OH228892   0.301   3.524   2.756  0.6930 -0.4395 -0.0549
 9643TIP3    H128893   0.288   3.529   2.850  0.6170 -0.7364 -0.0479
 9643TIP3    H228894   0.228   3.575   2.719 -1.4281 -3.2100 -0.0608
 9644TIP3   OH228895   5.567   1.933   1.755 -0.1657 -0.1278  0.1268
 9644TIP3    H128896   5.491   1.914   1.701 -0.4937 -0.4094  0.6716
 9644TIP3    H228897   5.570   2.028   1.762 -0.9887 -0.1455  0.8221
 9645TIP3   OH228898   0.937   5.878   2.569 -0.8910  0.2457 -0.2711
 9645TIP3    H128899   0.977   5.867   2.482 -1.0718 -0.2462 -0.2935
 9645TIP3    H228900   1.011   5.872   2.630 -0.7210  0.8966 -0.4052
 9646TIP3   OH228901   3.050   1.491   1.733  0.2974  0.0186  0.0970
 9646TIP3    H128902   3.021   1.564   1.787 -1.2424  0.7163 -1.5676
 9646TIP3    H228903   3.101   1.436   1.792 -0.6326  1.1402  2.0313
 9647TIP3   OH228904   2.748   1.599   5.664 -0.3215  0.3364  0.0837
 9647TIP3    H128905   2.808   1.586   5.737 -0.1797  0.6313  0.0209
 9647TIP3    H228906   2.727   1.693   5.665 -1.7462  0.0354  0.8475
 9648TIP3   OH228907   4.685   0.193   1.886 -0.0545  0.1871 -0.3703
 9648TIP3    H128908   4.625   0.134   1.841  0.2027 -0.9185  0.6933
 9648TIP3    H228909   4.768   0.145   1.891 -0.3753 -0.2715  2.2995
 9649TIP3   OH228910   5.437   3.610   1.745 -0.1709 -0.0321 -0.0632
 9649TIP3    H128911   5.473   3.695   1.718 -3.0683  0.6809 -2.0420
 9649TIP3    H228912   5.393   3.628   1.828 -0.2616  0.2432 -0.1706
 9650TIP3   OH228913   4.772   4.821   0.936 -0.1048  0.1380  0.4413
 9650TIP3    H128914   4.834   4.844   1.006 -1.2254  0.1716  1.4552
 9650TIP3    H228915   4.769   4.899   0.881  2.6627 -0.7374 -1.1428
 9651TIP3   OH228916   5.989   5.117   1.739 -0.5633  0.3938  0.4993
 9651TIP3    H128917   6.031   5.132   1.654 -1.0033 -0.2672  0.1616
 9651TIP3    H228918   6.048   5.158   1.802 -1.3180  2.8819 -0.2964
 9652TIP3   OH228919   1.936   3.739   2.098  0.7204 -0.1597 -0.2825
 9652TIP3    H128920   1.855   3.773   2.137 -0.7490 -2.1474 -1.4203
 9652TIP3    H228921   1.917   3.647   2.080  2.7014 -0.2885 -2.0601
 9653TIP3   OH228922   1.101   6.245   3.009  0.1516 -0.2430 -0.0721
 9653TIP3    H128923   1.186   6.261   3.049  1.0355 -0.6345 -1.7081
 9653TIP3    H228924   1.043   6.311   3.048  1.3309  0.4064  0.6274
 9654TIP3   OH228925   2.048   4.138   2.699  0.3041 -0.2903 -0.3482
 9654TIP3    H128926   2.067   4.052   2.662 -1.1923 -0.1121 -1.6474
 9654TIP3    H228927   2.001   4.119   2.781  0.2936 -0.7068 -0.4494
 9655TIP3   OH228928   3.838   1.591   2.689  0.2356  0.2439 -0.1930
 9655TIP3    H128929   3.909   1.656   2.690  1.8361 -1.4275  1.0288
 9655TIP3    H228930   3.780   1.621   2.619  1.3090  2.5359 -0.2147
 9656TIP3   OH228931   3.757   3.104   4.779 -0.1133  0.1186  0.3446
 9656TIP3    H128932   3.667   3.100   4.811  0.0187  1.2667  0.9107
 9656TIP3    H228933   3.757   3.048   4.701 -0.6490 -2.1141  1.8262
 9657TIP3   OH228934   2.487   5.228   0.317  0.2046  0.6231 -0.2328
 9657TIP3    H128935   2.427   5.297   0.287  0.1771  0.4485 -0.5842
 9657TIP3    H228936   2.508   5.178   0.238 -0.0275  0.0306  0.0689
 9658TIP3   OH228937   3.105   3.176   5.644  0.0481  0.5412 -0.0895
 9658TIP3    H128938   3.098   3.108   5.577  2.6894  0.3889 -0.2797
 9658TIP3    H228939   3.105   3.258   5.594  1.5719  0.4448 -0.2895
 9659TIP3   OH228940   3.954   2.054   3.577  0.1896  0.8156 -0.4933
 9659TIP3    H128941   3.859   2.055   3.580  0.1704 -0.3958  2.0907
 9659TIP3    H228942   3.981   2.123   3.637  0.8495 -0.6421  0.9605
 9660TIP3   OH228943   3.393   2.257   0.202  0.2249 -0.0390  0.0389
 9660TIP3    H128944   3.300   2.254   0.223  0.3715  0.0188  0.7470
 9660TIP3    H228945   3.430   2.181   0.248  0.6282  0.3332  0.3406
 9661TIP3   OH228946   5.376   6.027   4.161  0.2277  0.5290  0.1641
 9661TIP3    H128947   5.470   6.033   4.147  0.2402 -0.4988 -0.3382
 9661TIP3    H228948   5.344   6.116   4.147  1.1002  0.8542  0.1624
 9662TIP3   OH228949   5.632   0.904   2.537  0.1900 -0.4015  0.3770
 9662TIP3    H128950   5.640   0.910   2.441 -0.9397 -1.1998  0.2066
 9662TIP3    H228951   5.557   0.960   2.557  0.5057 -0.1346  0.8225
 9663TIP3   OH228952   6.931   2.114   1.584 -0.2827 -0.2067  0.3180
 9663TIP3    H128953   6.902   2.054   1.652  0.5098  0.0720  0.9255
 9663TIP3    H228954   6.870   2.188   1.590  0.1824  0.1297  1.2116
 9664TIP3   OH228955   0.682   2.333   3.703  0.1197 -0.3280 -0.0108
 9664TIP3    H128956   0.701   2.324   3.796  0.8647  2.2611  0.1629
 9664TIP3    H228957   0.767   2.355   3.663 -0.4466  0.0239 -1.0713
 9665TIP3   OH228958   2.276   6.517   5.348  0.6931  0.2171  0.1058
 9665TIP3    H128959   2.249   6.426   5.342 -1.1493  0.7207  0.2280
 9665TIP3    H228960   2.325   6.533   5.268 -2.1400  0.0800 -1.7776
 9666TIP3   OH228961   0.670   3.278   0.327 -0.1406 -0.0872  0.1512
 9666TIP3    H128962   0.730   3.317   0.264 -1.0730 -0.0330 -0.7336
 9666TIP3    H228963   0.711   3.195   0.351  0.7406  0.3737  0.2928
 9667TIP3   OH228964   1.330   2.755   3.176 -0.4557 -0.2962  0.0329
 9667TIP3    H128965   1.259   2.697   3.202  0.2820 -1.7296 -0.9887
 9667TIP3    H228966   1.393   2.698   3.133  1.2658  0.9594  0.7830
 9668TIP3   OH228967   7.214   1.010   4.434  0.2281  0.1056  0.5417
 9668TIP3    H128968   7.128   1.018   4.477  0.3079 -0.5686  0.8505
 9668TIP3    H228969   7.209   0.927   4.386  1.0546 -0.4672  1.4071
 9669TIP3   OH228970   7.185   6.660   5.746 -0.0179 -0.4961  0.3107
 9669TIP3    H128971   7.159   6.573   5.778  1.2968 -1.3393 -0.8124
 9669TIP3    H228972   7.103   6.699   5.717 -0.5434 -1.6775  0.1201
 9670TIP3   OH228973   0.642   6.753   3.724 -0.2500 -0.2733  0.0969
 9670TIP3    H128974   0.731   6.720   3.732 -0.9269 -2.4038 -0.5177
 9670TIP3    H228975   0.616   6.775   3.813  1.1929  1.3426  0.1669
 9671TIP3   OH228976   4.598   0.305   0.640  0.1968 -0.4125 -0.3863
 9671TIP3    H128977   4.684   0.263   0.638  0.7884  0.8099 -1.7474
 9671TIP3    H228978   4.537   0.232   0.652  1.3397 -1.4081 -0.4202
 9672TIP3   OH228979   5.875   6.115   3.971  0.1461 -0.2527 -0.4052
 9672TIP3    H128980   5.857   6.181   3.904  1.0128  0.9271  0.4859
 9672TIP3    H228981   5.923   6.162   4.039  1.6615 -2.0111 -0.1742
 9673TIP3   OH228982   5.854   0.213   4.531  0.4958 -0.8368 -0.3525
 9673TIP3    H128983   5.938   0.199   4.575  0.5722  0.5079 -0.0079
 9673TIP3    H228984   5.804   0.267   4.592 -1.3731 -3.1261  0.2714
 9674TIP3   OH228985   0.708   1.125   4.782 -0.4841  0.4378  0.5627
 9674TIP3    H128986   0.643   1.056   4.795 -0.6045  0.8359  2.3030
 9674TIP3    H228987   0.730   1.154   4.870  2.5210 -0.0820  0.0823
 9675TIP3   OH228988   6.757   2.859   5.576 -0.0567  0.2979 -0.0464
 9675TIP3    H128989   6.750   2.877   5.670 -1.0048 -0.6376  0.0795
 9675TIP3    H228990   6.777   2.944   5.536 -0.5766  0.8779  0.9061
 9676TIP3   OH228991   2.975   3.795   1.343  0.2683 -0.3456 -0.0115
 9676TIP3    H128992   2.933   3.776   1.427  0.2684 -0.9568 -0.1439
 9676TIP3    H228993   2.994   3.709   1.306  2.0068 -0.1017  0.2291
 9677TIP3   OH228994   5.076   2.400   5.158  0.6126  0.0640  0.0511
 9677TIP3    H128995   5.033   2.334   5.212 -0.8650  1.2984  0.4526
 9677TIP3    H228996   5.088   2.358   5.073 -0.7582 -0.5598  0.1479
 9678TIP3   OH228997   2.537   1.559   3.252 -0.3088 -0.1778  0.1150
 9678TIP3    H128998   2.468   1.602   3.201 -0.2299  2.4188  2.0188
 9678TIP3    H228999   2.615   1.567   3.197 -0.3576  1.9661  0.2852
 9679TIP3   OH229000   1.108   3.004   0.968  0.0860  0.2633  0.0014
 9679TIP3    H129001   1.135   2.953   1.044 -0.6086 -0.6016 -0.3103
 9679TIP3    H229002   1.169   2.978   0.899  0.3739  0.6334  0.1160
 9680TIP3   OH229003   6.936   3.233   3.376 -0.0476 -0.2029  0.3163
 9680TIP3    H129004   6.976   3.264   3.457 -0.1760  1.1350 -0.0970
 9680TIP3    H229005   6.842   3.230   3.396 -0.3227  2.0762 -0.3109
 9681TIP3   OH229006   0.506   5.875   1.753 -0.1621  0.1137 -0.4569
 9681TIP3    H129007   0.478   5.801   1.807 -0.7247  0.5341 -0.1633
 9681TIP3    H229008   0.502   5.843   1.663 -0.7956 -0.0902 -0.3569
 9682TIP3   OH229009   3.862   0.564   3.639  0.2010  0.7163 -0.4784
 9682TIP3    H129010   3.788   0.508   3.660  1.6375 -0.6528  1.3302
 9682TIP3    H229011   3.874   0.619   3.717  2.0283 -0.2485 -0.0093
 9683TIP3   OH229012   5.985   1.549   3.149 -0.1957 -0.0233  0.2811
 9683TIP3    H129013   6.067   1.527   3.105 -0.8629 -1.9311 -0.0822
 9683TIP3    H229014   5.987   1.497   3.229 -0.9341  0.1377  0.4049
 9684TIP3   OH229015   3.368   6.112   2.976 -0.6734  0.1690 -0.4898
 9684TIP3    H129016   3.377   6.093   2.883 -0.7539 -1.1525 -0.2505
 9684TIP3    H229017   3.387   6.029   3.019 -2.0900  0.3668  0.5991
 9685TIP3   OH229018   1.124   0.030   3.105  0.1326  0.5525  0.0099
 9685TIP3    H129019   1.215   0.009   3.123  0.1859 -0.5556 -1.3856
 9685TIP3    H229020   1.122   0.126   3.099  1.3071  0.5644 -0.4274
 9686TIP3   OH229021   2.049   3.556   5.559 -0.3557  0.0095  0.8053
 9686TIP3    H129022   2.056   3.650   5.542 -0.9165 -0.0600  0.1410
 9686TIP3    H229023   1.960   3.533   5.532 -0.7631 -0.4248  2.4267
 9687TIP3   OH229024   6.797   0.542   4.618 -0.5097 -0.4826 -0.0858
 9687TIP3    H129025   6.736   0.587   4.676 -2.3248 -2.1236 -0.6027
 9687TIP3    H229026   6.764   0.452   4.613  1.3596 -1.1796 -1.2578
 9688TIP3   OH229027   3.683   3.944   4.338 -0.4842 -0.0838 -0.6690
 9688TIP3    H129028   3.770   3.966   4.305 -0.2107  1.4462  0.8919
 9688TIP3    H229029   3.700   3.895   4.419 -0.9705  1.7211  0.6035
 9689TIP3   OH229030   6.981   3.166   3.114 -0.4019 -0.4381  0.1238
 9689TIP3    H129031   6.983   3.201   3.203  2.2526 -0.4662  0.1675
 9689TIP3    H229032   6.952   3.239   3.059  1.8098  0.8979  0.6137
 9690TIP3   OH229033   3.152   4.268   1.539  0.0397  0.0259 -0.6681
 9690TIP3    H129034   3.080   4.329   1.555  0.5226  0.6400 -0.7580
 9690TIP3    H229035   3.178   4.286   1.449 -0.0478 -0.5774 -0.8160
 9691TIP3   OH229036   2.033   1.626   3.562  0.9942  0.1125  0.1154
 9691TIP3    H129037   2.106   1.678   3.528  1.1062  0.1022  0.3338
 9691TIP3    H229038   2.058   1.536   3.545  1.9667 -0.0058  1.9586
 9692TIP3   OH229039   5.387   1.212   3.877 -0.9813 -0.0886 -0.5252
 9692TIP3    H129040   5.329   1.271   3.829  0.3152  0.9522 -0.8985
 9692TIP3    H229041   5.380   1.241   3.968 -0.9841  0.1056 -0.5857
 9693TIP3   OH229042   4.138   6.417   3.559 -1.0265  0.4527 -0.0993
 9693TIP3    H129043   4.154   6.509   3.536 -1.7162  0.7876  0.7089
 9693TIP3    H229044   4.198   6.400   3.632 -0.2019 -0.0474 -0.8627
 9694TIP3   OH229045   4.294   3.629   3.467  0.5135 -0.5322  0.1700
 9694TIP3    H129046   4.363   3.631   3.400  0.9052 -0.4857  0.5750
 9694TIP3    H229047   4.213   3.641   3.417  0.8324 -0.0891 -0.2545
 9695TIP3   OH229048   1.478   2.072   3.354  0.3511  0.2284  0.2104
 9695TIP3    H129049   1.502   2.095   3.443 -0.5463  0.6968  0.3438
 9695TIP3    H229050   1.502   1.979   3.345  0.4005  0.1665  0.9485
 9696TIP3   OH229051   0.296   3.656   4.487 -0.1593 -0.0456 -0.4442
 9696TIP3    H129052   0.324   3.685   4.401 -0.1670 -0.9958 -0.7827
 9696TIP3    H229053   0.210   3.617   4.473 -0.1547 -0.2193 -0.0185
 9697TIP3   OH229054   6.652   0.217   3.845 -0.3893  0.4800 -0.2337
 9697TIP3    H129055   6.611   0.192   3.928 -2.7163  0.1659 -1.4026
 9697TIP3    H229056   6.706   0.142   3.821  0.0836  0.4622  0.8192
 9698TIP3   OH229057   6.083   0.228   2.998 -0.2997  0.8515  0.4186
 9698TIP3    H129058   5.994   0.229   3.035 -0.6189  0.3500 -0.3096
 9698TIP3    H229059   6.140   0.248   3.072 -0.8935 -0.4185  1.2449
 9699TIP3   OH229060   4.760   6.304   2.062 -0.0704 -0.4370  0.1289
 9699TIP3    H129061   4.735   6.273   2.150  2.0015  0.7672  1.2211
 9699TIP3    H229062   4.823   6.373   2.079  0.4890 -0.2695 -2.3677
 9700TIP3   OH229063   1.682   1.184   4.625 -0.4269 -0.5317  0.2737
 9700TIP3    H129064   1.624   1.260   4.639 -0.3918 -0.1580 -1.4282
 9700TIP3    H229065   1.664   1.126   4.699 -0.6669  1.0006  1.4713
 9701TIP3   OH229066   0.614   6.583   1.104  0.0560  0.4911 -0.4217
 9701TIP3    H129067   0.559   6.510   1.131  1.9043 -0.9560 -0.3870
 9701TIP3    H229068   0.623   6.572   1.009 -0.6815  1.4319 -0.6102
 9702TIP3   OH229069   2.180   4.781   1.634  0.4581 -0.4243 -0.3618
 9702TIP3    H129070   2.143   4.716   1.694  0.9863  0.8335  1.4018
 9702TIP3    H229071   2.104   4.829   1.601  0.2770  0.4611  1.2427
 9703TIP3   OH229072   2.003   6.361   2.313 -0.0255 -0.6241  0.1019
 9703TIP3    H129073   2.086   6.408   2.321  1.5973 -2.8867 -1.9886
 9703TIP3    H229074   2.012   6.310   2.232 -4.6035  1.1301 -1.8564
 9704TIP3   OH229075   5.699   2.710   0.735  0.3010  0.0871 -0.2345
 9704TIP3    H129076   5.644   2.689   0.810 -0.1631  0.5456 -0.4355
 9704TIP3    H229077   5.780   2.744   0.772 -0.6285  2.1060  0.0840
 9705TIP3   OH229078   4.305   2.317   0.319 -0.3255  0.1306 -0.6399
 9705TIP3    H129079   4.287   2.227   0.293 -0.5439 -0.5233  1.5714
 9705TIP3    H229080   4.387   2.312   0.369 -1.0376  0.8997  0.6638
 9706TIP3   OH229081   2.854   2.450   4.762 -0.4194  0.1432 -0.2524
 9706TIP3    H129082   2.942   2.449   4.725 -0.4847  1.8675 -0.5176
 9706TIP3    H229083   2.797   2.439   4.686 -0.4586  0.1147 -0.2185
 9707TIP3   OH229084   1.119   4.791   4.605 -0.1609 -0.0189 -0.1001
 9707TIP3    H129085   1.176   4.714   4.607  0.6016  0.5423  0.8114
 9707TIP3    H229086   1.158   4.848   4.539 -1.3029 -0.7993 -1.5202
 9708TIP3   OH229087   6.253   2.781   1.450  0.4804  0.4029 -0.0704
 9708TIP3    H129088   6.344   2.757   1.464  0.2815 -0.0852  0.3832
 9708TIP3    H229089   6.240   2.860   1.502  1.1223  1.5311 -1.5324
 9709TIP3   OH229090   6.462   1.317   1.234  0.0779 -0.5109  0.2855
 9709TIP3    H129091   6.384   1.326   1.289 -0.8479 -0.4194 -1.0001
 9709TIP3    H229092   6.514   1.395   1.253 -0.2025 -0.5021  1.0537
 9710TIP3   OH229093   3.145   3.312   0.694 -0.0256 -0.2488  0.2682
 9710TIP3    H129094   3.105   3.285   0.612 -2.1217  0.5297  0.9568
 9710TIP3    H229095   3.076   3.359   0.741  0.7597 -1.4873  2.9021
 9711TIP3   OH229096   2.501   0.713   2.635 -0.4300 -0.2803  0.1807
 9711TIP3    H129097   2.431   0.748   2.690  0.7797  0.9244  1.0322
 9711TIP3    H229098   2.579   0.718   2.690  0.5048 -0.6826 -1.0693
 9712TIP3   OH229099   0.694   2.699   3.316  0.0907 -0.4049 -0.6696
 9712TIP3    H129100   0.694   2.792   3.339 -1.4979 -0.2101 -1.3360
 9712TIP3    H229101   0.656   2.656   3.393  0.8013 -0.5158 -0.3720
 9713TIP3   OH229102   0.403   1.922   0.679 -0.2170  0.2716 -0.3994
 9713TIP3    H129103   0.330   1.904   0.620 -0.5312  0.5784 -0.1055
 9713TIP3    H229104   0.481   1.897   0.629 -0.5390 -0.3802 -0.5944
 9714TIP3   OH229105   6.685   4.754   0.646 -1.1445  0.0255 -0.2635
 9714TIP3    H129106   6.598   4.792   0.634 -1.4903  0.6023  3.1905
 9714TIP3    H229107   6.740   4.827   0.672 -0.2924 -0.7755  0.2442
 9715TIP3   OH229108   1.089   3.875   4.851 -0.0379  0.6232 -0.6176
 9715TIP3    H129109   1.112   3.801   4.907  0.0379 -0.6126 -2.2210
 9715TIP3    H229110   1.058   3.942   4.912 -1.2474 -1.1344  0.8048
 9716TIP3   OH229111   3.538   1.288   1.499 -0.3876 -0.3098  0.0942
 9716TIP3    H129112   3.511   1.214   1.553  1.1292 -0.7234  0.3211
 9716TIP3    H229113   3.521   1.365   1.553  0.2908 -0.6631  0.8410
 9717TIP3   OH229114   4.517   2.224   0.114  0.2073  0.2316 -0.2648
 9717TIP3    H129115   4.590   2.206   0.174  1.6172  0.2002 -1.9102
 9717TIP3    H229116   4.470   2.141   0.107  1.6886 -0.5587 -1.3198
 9718TIP3   OH229117   6.658   1.762   1.920 -0.7591  0.0251 -0.6681
 9718TIP3    H129118   6.682   1.774   1.828  3.0923 -0.6645  0.0609
 9718TIP3    H229119   6.663   1.850   1.958  1.7122 -0.1621 -0.4112
 9719TIP3   OH229120   3.254   6.648   5.572  0.8099  0.8045  0.0564
 9719TIP3    H129121   3.304   6.570   5.596  0.8838  1.0370  0.6740
 9719TIP3    H229122   3.163   6.618   5.570  0.9156  0.5041 -0.5574
 9720TIP3   OH229123   0.373   5.445   4.493  0.1462 -0.3030 -0.4563
 9720TIP3    H129124   0.358   5.506   4.421 -1.2932 -2.1779 -1.8597
 9720TIP3    H229125   0.319   5.369   4.471  1.9972 -2.1793  1.0619
 9721TIP3   OH229126   2.444   1.133   2.236  0.2976 -0.3617  0.3539
 9721TIP3    H129127   2.389   1.097   2.167  0.6980 -0.6204  0.1667
 9721TIP3    H229128   2.385   1.189   2.287  0.3531  1.1641 -1.1649
 9722TIP3   OH229129   1.670   2.178   4.572 -0.6472 -0.3667 -0.1653
 9722TIP3    H129130   1.599   2.196   4.633  0.4059 -0.3753  1.0878
 9722TIP3    H229131   1.693   2.086   4.587 -1.1371 -0.7276 -1.4181
 9723TIP3   OH229132   6.841   4.984   4.589  0.0575  0.1035 -0.2825
 9723TIP3    H129133   6.851   5.079   4.579 -0.4984  0.4251  1.6639
 9723TIP3    H229134   6.747   4.969   4.584  0.2261 -0.5464 -1.8483
 9724TIP3   OH229135   5.388   6.230   1.807  0.6105  0.1339 -0.1918
 9724TIP3    H129136   5.358   6.145   1.841  1.1352 -0.2443 -0.6543
 9724TIP3    H229137   5.315   6.289   1.825 -0.6504 -0.8564 -1.6677
 9725TIP3   OH229138   0.639   6.552   0.839  0.4891 -0.8273 -0.1645
 9725TIP3    H129139   0.730   6.539   0.813  0.8187  3.2932 -1.8765
 9725TIP3    H229140   0.590   6.550   0.756 -0.3284  0.7757  0.2337
 9726TIP3   OH229141   0.925   3.402   0.986  0.1278 -0.1835 -0.4030
 9726TIP3    H129142   0.859   3.418   1.054  1.1541  2.9318  0.0234
 9726TIP3    H229143   0.885   3.336   0.929 -1.3844 -1.8102  2.3356
 9727TIP3   OH229144   6.650   6.503   2.727  0.1750 -0.0516 -0.1753
 9727TIP3    H129145   6.686   6.429   2.776 -0.0741 -0.4220 -0.5454
 9727TIP3    H229146   6.702   6.507   2.647 -2.1758 -2.2233 -1.9597
 9728TIP3   OH229147   5.685   5.524   1.854 -0.5713  0.2135  0.1308
 9728TIP3    H129148   5.609   5.471   1.879 -1.1965  1.2837  0.5807
 9728TIP3    H229149   5.742   5.521   1.930  0.2879 -1.3206 -0.5305
 9729TIP3   OH229150   3.116   6.503   5.888  0.4500  0.1728  0.6238
 9729TIP3    H129151   3.115   6.518   5.793  2.1900 -0.4601  0.4608
 9729TIP3    H229152   3.195   6.548   5.918  0.3742 -0.3548  1.6428
 9730TIP3   OH229153   6.183   3.836   2.057  0.4103 -0.0325 -0.1743
 9730TIP3    H129154   6.248   3.767   2.042 -0.7697 -0.8116 -2.1286
 9730TIP3    H229155   6.130   3.837   1.977 -0.2812  2.4517  0.2146
 9731TIP3   OH229156   4.960   1.239   1.469 -0.4882  0.6530  0.2081
 9731TIP3    H129157   4.995   1.325   1.446  0.2100  0.4024  0.3173
 9731TIP3    H229158   4.934   1.200   1.386 -0.4978  0.8353  0.1254
 9732TIP3   OH229159   6.414   2.993   5.202 -0.2396  0.1598 -0.0575
 9732TIP3    H129160   6.374   3.044   5.273  1.5995 -0.5107  1.5579
 9732TIP3    H229161   6.450   3.059   5.143  0.9496  0.7739  1.3051
 9733TIP3   OH229162   0.301   6.135   4.052  0.1124  0.2519  0.7068
 9733TIP3    H129163   0.354   6.116   3.975  0.1752 -0.4339  0.9156
 9733TIP3    H229164   0.216   6.096   4.034 -0.0351  0.5364  0.7724
 9734TIP3   OH229165   2.027   0.747   5.747 -0.3970  0.2216 -0.3113
 9734TIP3    H129166   2.035   0.654   5.726 -0.2717  0.4371 -1.3029
 9734TIP3    H229167   1.950   0.753   5.803  0.0929 -0.5740  0.4710
 9735TIP3   OH229168   4.111   1.775   0.336 -0.6813 -0.5361  0.0746
 9735TIP3    H129169   4.154   1.691   0.354 -1.5677 -1.1642 -0.6588
 9735TIP3    H229170   4.020   1.761   0.361 -0.7406  0.3894  0.4337
 9736TIP3   OH229171   0.450   1.367   3.405 -0.0684  0.1886 -0.1946
 9736TIP3    H129172   0.420   1.283   3.438  1.6821  0.1485  1.4634
 9736TIP3    H229173   0.517   1.396   3.467 -0.1443  2.5137 -1.0613
 9737TIP3   OH229174   1.291   2.057   4.265 -0.3995  0.4454  0.1530
 9737TIP3    H129175   1.291   1.999   4.189  1.7981 -1.4721  1.4850
 9737TIP3    H229176   1.383   2.080   4.277 -0.5563 -0.0646  2.7487
 9738TIP3   OH229177   2.079   0.340   2.741  0.1590 -0.5417  0.0181
 9738TIP3    H129178   2.124   0.403   2.798 -0.0638 -0.3170 -0.0515
 9738TIP3    H229179   2.003   0.313   2.792 -0.2945  0.0144 -0.3589
 9739TIP3   OH229180   6.210   2.676   0.450  0.3359 -0.3158 -0.1478
 9739TIP3    H129181   6.226   2.587   0.419  0.2312  0.4004 -2.4486
 9739TIP3    H229182   6.286   2.726   0.422 -1.4559  1.1687 -2.8384
 9740TIP3   OH229183   4.155   4.198   4.590 -0.0693 -0.2957 -0.0893
 9740TIP3    H129184   4.166   4.292   4.573  2.3504 -0.3567  0.7046
 9740TIP3    H229185   4.244   4.163   4.588 -0.7614 -2.3086  1.2489
 9741TIP3   OH229186   1.730   0.497   0.462  0.1479  0.2886  0.4837
 9741TIP3    H129187   1.724   0.579   0.413  0.5602  0.7308  1.1427
 9741TIP3    H229188   1.814   0.459   0.436 -0.5766 -0.5495 -0.7315
 9742TIP3   OH229189   1.093   1.929   0.046  0.0842 -0.2506 -0.1196
 9742TIP3    H129190   1.142   2.000   0.003  1.0659 -0.7116  0.1923
 9742TIP3    H229191   1.077   1.865  -0.023  1.1704 -0.7342  0.0471
 9743TIP3   OH229192   6.410   6.243   5.078  0.1835 -0.5050 -0.3541
 9743TIP3    H129193   6.495   6.225   5.118  0.8488  0.8261 -1.1037
 9743TIP3    H229194   6.348   6.244   5.151  1.1443  0.5177  0.4688
 9744TIP3   OH229195   3.887   0.067   3.065 -0.9829  0.5706 -0.3333
 9744TIP3    H129196   3.863   0.115   2.986 -1.1730  2.0086  0.5598
 9744TIP3    H229197   3.958   0.118   3.104  0.0505 -0.8691 -0.2711
 9745TIP3   OH229198   4.431   6.125   4.612 -0.1642  0.4536  0.1377
 9745TIP3    H129199   4.424   6.056   4.677 -0.5530  1.2420  0.9614
 9745TIP3    H229200   4.344   6.164   4.608 -0.2766  0.1292 -1.2079
 9746TIP3   OH229201   4.343   0.996   4.984  0.1060 -0.5737 -0.2771
 9746TIP3    H129202   4.279   1.047   5.033  0.0248 -1.7009  0.8284
 9746TIP3    H229203   4.352   1.043   4.901 -0.1555  1.0751  0.5846
 9747TIP3   OH229204   0.569   5.796   0.318 -0.3004  0.1113 -0.0585
 9747TIP3    H129205   0.530   5.726   0.266  1.4599 -2.6414  2.0544
 9747TIP3    H229206   0.521   5.794   0.401  1.3740 -0.3750  0.9476
 9748TIP3   OH229207   1.095   1.265   1.408 -0.3804 -0.1162 -0.0777
 9748TIP3    H129208   1.087   1.184   1.458  0.1694 -1.2078 -1.6482
 9748TIP3    H229209   1.013   1.311   1.424 -0.2804 -0.4749  1.6569
 9749TIP3   OH229210   3.817   5.610   5.294 -0.7270 -0.4047  0.3422
 9749TIP3    H129211   3.786   5.699   5.305 -1.1449 -0.3766 -0.8871
 9749TIP3    H229212   3.903   5.619   5.253  0.3535 -0.5223  2.4847
   7.21097   6.79857   5.88772   0.00000   0.00000  -2.40366   0.00000  -2.40366  -3.39928
