Title
29212
    1ASP      N    1   3.490   3.215   4.188  0.6345  0.1731 -0.2573
    1ASP    HT1    2   3.484   3.281   4.108 -2.2064  0.0483 -0.2682
    1ASP    HT2    3   3.579   3.167   4.165  0.1927 -0.5458 -0.5237
    1ASP    HT3    4   3.481   3.264   4.279 -0.1007 -0.7379  0.1847
    1ASP     CA    5   3.369   3.123   4.181 -0.3425 -1.0694 -0.6994
    1ASP     HA    6   3.377   3.042   4.252  2.7107  0.2790  0.6611
    1ASP     CB    7   3.238   3.208   4.224  0.2309  0.3404 -0.2879
    1ASP    HB1    8   3.150   3.147   4.194  1.2781 -0.5790 -1.5792
    1ASP    HB2    9   3.238   3.308   4.176  0.0388  1.1343  1.2783
    1ASP     CG   10   3.223   3.224   4.378 -0.8463 -0.4406  0.3254
    1ASP    OD1   11   3.316   3.177   4.448 -0.1404  0.1929 -0.2163
    1ASP    OD2   12   3.131   3.288   4.427  0.0676 -0.2986 -0.3304
    1ASP      C   13   3.373   3.067   4.040 -0.2415  0.1914 -0.6004
    1ASP      O   14   3.457   3.106   3.958 -0.1610 -0.1264 -0.2764
    2GLY      N   15   3.292   2.958   4.012 -0.5533  0.1209  0.1532
    2GLY     HN   16   3.228   2.928   4.082 -1.0502 -2.4814 -1.2595
    2GLY     CA   17   3.278   2.891   3.883 -0.6778  0.5405 -0.0663
    2GLY    HA1   18   3.254   2.790   3.911 -0.5784  0.5374  0.0105
    2GLY    HA2   19   3.367   2.902   3.823 -0.9447 -0.1646 -0.6000
    2GLY      C   20   3.177   2.959   3.799 -0.1245  0.5142 -0.9082
    2GLY      O   21   3.173   3.079   3.807 -0.2803 -0.3722  0.0956
    3ASP      N   22   3.085   2.891   3.737 -0.3583 -0.3414  0.1900
    3ASP     HN   23   3.093   2.791   3.736 -2.7214 -0.5759  0.0428
    3ASP     CA   24   2.973   2.953   3.669 -0.4575 -0.3791 -0.6350
    3ASP     HA   25   2.907   2.870   3.651 -0.3964 -0.8570  1.0999
    3ASP     CB   26   2.891   3.056   3.756  0.2281 -0.1475 -0.2701
    3ASP    HB1   27   2.805   3.099   3.701 -0.8332 -0.0121  1.4183
    3ASP    HB2   28   2.956   3.139   3.792  0.5963 -0.2940 -0.5896
    3ASP     CG   29   2.824   2.995   3.878  0.1063 -0.1205  0.3356
    3ASP    OD1   30   2.826   2.872   3.902  0.2615 -0.1343  0.4479
    3ASP    OD2   31   2.759   3.075   3.950  0.4299  0.3179 -0.4617
    3ASP      C   32   3.012   3.008   3.534  0.6088  0.0479  0.1548
    3ASP      O   33   2.969   3.116   3.490 -0.4128  0.8996  0.2385
    4GLY      N   34   3.085   2.935   3.454 -0.0121  0.0135 -0.1715
    4GLY     HN   35   3.120   2.845   3.478  1.6229  0.0297 -2.1969
    4GLY     CA   36   3.105   2.959   3.312  0.2144 -0.3462 -0.1035
    4GLY    HA1   37   3.191   2.899   3.286 -0.4491 -1.2262 -0.3378
    4GLY    HA2   38   3.107   3.066   3.298 -3.0106 -0.2510 -0.7958
    4GLY      C   39   2.994   2.939   3.216  0.0974  0.1819 -1.4184
    4GLY      O   40   2.883   2.893   3.257  0.2082 -0.2937  0.4941
    5PRO      N   41   3.000   2.991   3.094  0.2865  0.4153 -0.3107
    5PRO     CD   42   3.120   3.054   3.032  0.5780  0.6964  0.1041
    5PRO    HD1   43   3.212   2.997   3.055  0.7900  1.4007  1.0745
    5PRO    HD2   44   3.129   3.159   3.068  1.0256  0.9026 -0.5923
    5PRO     CA   45   2.902   2.950   2.992  0.3303 -0.1788  0.0593
    5PRO     HA   46   2.805   2.980   3.027 -0.4603 -1.1285 -1.2126
    5PRO     CB   47   2.944   3.029   2.865 -0.5980  0.1961  0.4222
    5PRO    HB1   48   2.896   3.129   2.864  0.1504  0.6272  2.1459
    5PRO    HB2   49   2.916   2.983   2.768 -0.5535 -1.3457  1.0997
    5PRO     CG   50   3.091   3.035   2.884 -0.6179  0.4537 -0.1200
    5PRO    HG1   51   3.127   2.938   2.844  1.4656  1.0942  0.0977
    5PRO    HG2   52   3.138   3.121   2.831  0.7954 -0.8967 -1.1239
    5PRO      C   53   2.900   2.799   2.967  0.6628 -0.2907 -0.4587
    5PRO      O   54   3.007   2.734   2.963 -0.0573 -0.2047 -0.4589
    6GLY      N   55   2.781   2.736   2.941 -0.2304  0.8033  0.1334
    6GLY     HN   56   2.697   2.791   2.936 -0.3966  0.7018  1.3660
    6GLY     CA   57   2.765   2.588   2.919  0.0659 -0.5109 -0.2113
    6GLY    HA1   58   2.823   2.565   2.831  1.3833  0.9939  0.2229
    6GLY    HA2   59   2.659   2.564   2.912  0.0936 -1.1768  1.3252
    6GLY      C   60   2.812   2.501   3.036  0.4253 -0.1293 -0.0187
    6GLY      O   61   2.796   2.543   3.153 -0.2963  0.4211 -0.3629
    7ASP      N   62   2.859   2.376   3.012  0.6853 -0.2687  0.5521
    7ASP     HN   63   2.858   2.338   2.920  0.0811 -2.1161  1.2752
    7ASP     CA   64   2.907   2.280   3.105 -0.2665  0.1737 -0.0076
    7ASP     HA   65   2.851   2.297   3.196  0.4295 -1.4337  0.7737
    7ASP     CB   66   2.886   2.131   3.047 -0.0556 -0.7067  0.7316
    7ASP    HB1   67   2.929   2.058   3.119  1.3289  1.3830  2.1295
    7ASP    HB2   68   2.945   2.103   2.957 -0.0259 -0.9015  0.8100
    7ASP     CG   69   2.736   2.102   3.025 -0.2941  0.1380 -0.0746
    7ASP    OD1   70   2.646   2.153   3.096  0.0848  0.0636 -0.0052
    7ASP    OD2   71   2.720   2.013   2.937  0.1321 -1.0950  0.7997
    7ASP      C   72   3.054   2.306   3.134 -0.4709  0.1758  0.5695
    7ASP      O   73   3.128   2.373   3.054  0.1454  0.1801  0.3779
    8PRO      N   74   3.106   2.255   3.251 -0.0561 -0.2984 -0.1906
    8PRO     CD   75   3.020   2.213   3.361  0.2483  0.3049  0.1070
    8PRO    HD1   76   2.955   2.126   3.340 -1.6107  0.7052  3.4315
    8PRO    HD2   77   2.959   2.300   3.393  2.2909  1.5047  0.9130
    8PRO     CA   78   3.245   2.270   3.294 -0.5972  0.6299 -0.4740
    8PRO     HA   79   3.258   2.370   3.334  0.5615  0.8350 -1.3110
    8PRO     CB   80   3.252   2.159   3.407 -0.8459 -0.2437  0.3035
    8PRO    HB1   81   3.334   2.178   3.479  0.9939  0.7774 -1.9366
    8PRO    HB2   82   3.267   2.065   3.351 -1.0263 -0.5669  0.7976
    8PRO     CG   83   3.117   2.160   3.470  0.1908  0.0290  0.3616
    8PRO    HG1   84   3.080   2.055   3.474 -0.5686  0.2578 -0.2724
    8PRO    HG2   85   3.106   2.220   3.563  1.1730 -0.1331  0.5915
    8PRO      C   86   3.361   2.270   3.196 -0.1026 -0.4160 -0.3037
    8PRO      O   87   3.347   2.194   3.102  0.7948 -0.0731 -0.0131
    9GLY      N   88   3.469   2.350   3.218 -0.4433  0.1393 -0.1465
    9GLY     HN   89   3.471   2.401   3.304 -0.1918 -1.8661  1.1106
    9GLY     CA   90   3.596   2.340   3.137  0.1312 -0.3826 -0.1178
    9GLY    HA1   91   3.592   2.264   3.060  0.3922  0.8951 -1.4462
    9GLY    HA2   92   3.688   2.335   3.194  0.6326  0.3063 -0.8356
    9GLY      C   93   3.611   2.467   3.058  0.1524  0.8010 -1.1902
    9GLY      O   94   3.513   2.523   3.017  0.9744 -0.4123 -0.8354
   10ASP      N   95   3.733   2.508   3.035  0.1491 -0.3634 -0.0075
   10ASP     HN   96   3.804   2.452   3.078 -0.9258 -0.9285  1.0912
   10ASP     CA   97   3.762   2.626   2.955 -0.2644  0.0047 -0.6641
   10ASP     HA   98   3.670   2.682   2.962 -0.4601 -0.3710 -0.1670
   10ASP     CB   99   3.874   2.705   3.030  0.0531  0.1000  0.5257
   10ASP    HB1  100   3.898   2.792   2.964 -0.6234 -1.7356 -2.3297
   10ASP    HB2  101   3.973   2.655   3.043 -0.0909 -0.4777 -0.4762
   10ASP     CG  102   3.823   2.765   3.162 -0.6213 -0.2885 -0.3199
   10ASP    OD1  103   3.913   2.798   3.246 -0.3638  0.5180 -0.2177
   10ASP    OD2  104   3.702   2.788   3.181 -0.7328  0.2474 -0.0953
   10ASP      C  105   3.797   2.607   2.808  0.1531  0.4815 -0.0416
   10ASP      O  106   3.784   2.698   2.727 -0.2839 -0.2556  0.0861
   11GLY      N  107   3.821   2.478   2.764 -0.6667 -0.1595 -0.1609
   11GLY     HN  108   3.840   2.412   2.837  1.8126 -0.2376 -0.7790
   11GLY     CA  109   3.857   2.454   2.622 -0.1597 -0.3690  0.1644
   11GLY    HA1  110   3.786   2.506   2.559  0.1461  3.1382  2.4586
   11GLY    HA2  111   3.836   2.349   2.612  0.4695 -0.4238 -0.6697
   11GLY      C  112   4.008   2.472   2.596  0.3462 -0.9237  1.2471
   11GLY    OT1  113   4.033   2.548   2.497 -0.2228 -0.0184 -0.2429
   11GLY    OT2  114   4.088   2.398   2.649 -0.4244  0.0424 -0.0875
   12SOD    SOD  115   3.075   1.357   1.737 -0.3321  0.1409  0.0776
   13SOD    SOD  116   1.816   4.228   4.165  0.4240 -0.0016  0.0235
   14SOD    SOD  117   0.174   2.890   1.603 -0.1739  0.7896 -0.4085
   15SOD    SOD  118   0.606   3.968   4.986  0.1169 -0.4406 -0.5431
   16SOD    SOD  119   0.612   3.858   5.737  0.1552 -0.5642 -0.5832
   17SOD    SOD  120   1.771   6.764   0.204  0.7787 -0.3355 -0.2226
   18SOD    SOD  121   4.390   3.672   1.677 -0.0694  0.2180  0.1406
   19SOD    SOD  122   2.178   1.861   2.563 -0.2304 -0.2184 -0.0895
   20SOD    SOD  123   5.049   0.359   4.819  0.2148  0.1796  0.1657
   21SOD    SOD  124   3.868   1.170   5.120 -0.2350  0.7238 -1.0057
   22SOD    SOD  125   0.811   5.382   0.196 -0.2175 -0.0296  0.4356
   23SOD    SOD  126   2.964   4.015   2.060 -0.5217 -0.3133 -0.6343
   24SOD    SOD  127   1.485   1.182   1.712  0.2062 -0.1404 -0.4740
   25SOD    SOD  128   0.094   1.968   5.141 -0.5689  0.2547  0.5748
   26SOD    SOD  129   4.622   1.513   3.918 -0.0481  0.0997 -0.0470
   27SOD    SOD  130   1.235   6.721   1.982  0.2416 -0.6721 -0.1550
   28SOD    SOD  131   6.031   1.807   3.960 -0.2489 -0.0700 -0.1378
   29SOD    SOD  132   3.270   5.312   3.870 -0.1426  0.7584  0.4769
   30SOD    SOD  133   2.392   2.464   2.041 -0.0627  0.1098 -0.6917
   31SOD    SOD  134   2.134   3.715   3.594  0.2918 -0.3018  0.1495
   32SOD    SOD  135   0.147   4.105   2.285  0.3887  0.0475  0.4095
   33SOD    SOD  136   5.840   0.483   1.448  0.1516  0.7773 -0.3998
   34SOD    SOD  137   3.829   6.625   5.034 -0.5214  0.5844  0.5971
   35SOD    SOD  138   0.322   2.359   2.112 -0.3819 -0.1158  0.9158
   36SOD    SOD  139   4.107   1.153   4.003 -0.0485  0.2935  0.1642
   37SOD    SOD  140   3.607   5.000   4.494 -0.0607  0.1994 -1.1076
   38SOD    SOD  141   6.492   5.045   4.040 -0.3246  0.3887  0.1869
   39SOD    SOD  142   0.062   3.697   5.199 -0.2714  0.0833  0.1879
   40SOD    SOD  143   4.437   4.994   1.428 -0.4799  0.1381 -0.0486
   41SOD    SOD  144   2.822   4.467   0.235 -0.1517  0.1693  0.1114
   42SOD    SOD  145   5.965   6.500   4.647  0.1061 -0.2503  0.1320
   43CLA    CLA  146   0.165   5.390   5.599 -0.3763  0.2756 -0.1999
   44CLA    CLA  147   1.439   4.273   5.222 -0.1070  0.0755  0.0708
   45CLA    CLA  148   2.972   6.778   4.986 -0.3107 -0.0420 -0.1748
   46CLA    CLA  149   6.107   2.588   3.058 -0.2481  0.0417 -0.3156
   47CLA    CLA  150   6.814   3.988   3.828  0.3414 -0.1477  0.4754
   48CLA    CLA  151   6.773   0.266   4.631  0.4642 -0.2207 -0.2319
   49CLA    CLA  152   4.852   4.392   2.975 -0.3100 -0.6002 -0.0799
   50CLA    CLA  153   4.956   4.408   4.284  0.1361 -0.5020 -0.3049
   51CLA    CLA  154   4.251   1.093   4.232  0.3719  0.0793  0.0737
   52CLA    CLA  155   2.678   1.325   1.339  0.3580  0.1701  0.3826
   53CLA    CLA  156   2.531   4.322   2.054  0.0271 -0.1276 -0.1978
   54CLA    CLA  157   4.555   5.371   2.489 -0.0018  0.4546  0.1791
   55CLA    CLA  158   0.439   2.555   3.150 -0.5440  0.2444 -0.2187
   56CLA    CLA  159   5.596   5.911   4.188 -0.4019  0.4733  0.0130
   57CLA    CLA  160   6.804   3.160   2.255 -0.0654  0.4153 -0.2772
   58CLA    CLA  161   0.936   6.330   3.050 -0.1269  0.0906  0.0402
   59CLA    CLA  162   1.449   3.885   1.240  0.3515 -0.1115  0.1959
   60CLA    CLA  163   3.026   0.437   0.439 -0.4070  0.0994 -0.1325
   61CLA    CLA  164   1.654   0.819   2.077  0.3205 -0.2006  0.1061
   62CLA    CLA  165   4.684   5.962   0.052  0.0262 -0.0634  0.0530
   63CLA    CLA  166   2.422   4.106   3.669 -0.1205  0.0960 -0.2156
   64CLA    CLA  167   1.668   1.332   0.896 -0.2313 -0.2268 -0.0957
   65CLA    CLA  168   6.516   2.943   5.830  0.0041 -0.0298  0.3246
   66CLA    CLA  169   4.879   6.085   4.575  0.1392  0.0990 -0.2248
   67CLA    CLA  170   2.189   3.623   4.019  0.1405  0.1480 -0.0850
   68CLA    CLA  171   3.530   1.822   4.209 -0.1701  0.2203 -0.1491
   69CLA    CLA  172   6.342   4.514   0.457  0.4053 -0.1609  0.1229
   70TIP3   OH2  173   6.012   6.087   4.266  0.4076  0.0976 -0.1236
   70TIP3    H1  174   6.050   5.999   4.273 -2.4351 -1.1250  1.7216
   70TIP3    H2  175   6.086   6.146   4.277  1.8566 -2.0690  3.3654
   71TIP3   OH2  176   1.977   6.695   0.129  0.2248  0.2983  0.2120
   71TIP3    H1  177   1.974   6.653   0.043 -2.1067  0.9460 -0.0952
   71TIP3    H2  178   2.062   6.739   0.131  1.8045 -2.4821 -0.3380
   72TIP3   OH2  179   0.221   1.079   4.725 -0.3513  0.0171  0.2150
   72TIP3    H1  180   0.208   1.147   4.660  0.0049  0.1087  0.2386
   72TIP3    H2  181   0.305   1.099   4.765 -0.9467  0.4685  1.3138
   73TIP3   OH2  182   5.481   0.386   1.547  0.7572  0.2881 -0.3219
   73TIP3    H1  183   5.418   0.457   1.535  0.2644 -0.1003 -0.0433
   73TIP3    H2  184   5.535   0.414   1.621  0.2695  0.1642  0.0836
   74TIP3   OH2  185   7.101   2.553   5.037 -0.3303 -0.0227  0.7670
   74TIP3    H1  186   7.124   2.636   5.080  0.1993 -0.3348  1.1000
   74TIP3    H2  187   7.049   2.506   5.102  0.9973 -0.7610  1.3413
   75TIP3   OH2  188   5.724   6.099   1.917 -0.2957 -0.0472 -0.3425
   75TIP3    H1  189   5.800   6.081   1.972 -0.2540  0.0751 -0.3593
   75TIP3    H2  190   5.659   6.135   1.977  0.1889  1.2903 -0.5736
   76TIP3   OH2  191   0.443   4.133   5.017 -0.1799 -0.4898 -0.3107
   76TIP3    H1  192   0.486   4.209   5.057  1.2968 -0.1193 -2.4747
   76TIP3    H2  193   0.406   4.166   4.935 -2.2771 -1.4453  0.1769
   77TIP3   OH2  194   6.163   4.757   0.034 -0.1481  0.2847  0.5017
   77TIP3    H1  195   6.197   4.809   0.107  1.5732  1.5929 -1.1490
   77TIP3    H2  196   6.235   4.697   0.012  0.2769  1.4113 -1.4655
   78TIP3   OH2  197   6.636   2.134   2.891 -0.1100  0.0700  0.0458
   78TIP3    H1  198   6.677   2.163   2.810  0.7354  0.3811  0.5725
   78TIP3    H2  199   6.583   2.058   2.866 -1.8718  1.6239 -1.2508
   79TIP3   OH2  200   0.349   3.749   3.185 -0.7752  0.3371  0.5653
   79TIP3    H1  201   0.383   3.659   3.182  0.0471  0.5940  1.6618
   79TIP3    H2  202   0.256   3.740   3.163 -0.4769 -0.6490 -0.3659
   80TIP3   OH2  203   2.679   3.221   5.150 -0.1573  0.1628 -0.3938
   80TIP3    H1  204   2.713   3.185   5.068  1.0237  1.5793 -0.5680
   80TIP3    H2  205   2.751   3.211   5.212 -0.8415 -0.3719  0.3296
   81TIP3   OH2  206   4.377   4.553   3.879  0.5839  0.2847  0.4444
   81TIP3    H1  207   4.427   4.603   3.815  0.2817  0.5601  0.4225
   81TIP3    H2  208   4.308   4.613   3.908  0.6918  0.1466  0.9913
   82TIP3   OH2  209   2.878   5.312   5.158  0.1028 -0.1212  0.0526
   82TIP3    H1  210   2.801   5.356   5.123  0.5582  0.0838 -0.7124
   82TIP3    H2  211   2.894   5.240   5.097  1.4051  0.7434 -0.6570
   83TIP3   OH2  212   3.766   0.798   2.723 -0.2663  0.5042  0.3197
   83TIP3    H1  213   3.813   0.843   2.653 -2.8819  1.4789 -0.9576
   83TIP3    H2  214   3.788   0.846   2.803  0.4351  1.2432 -0.3119
   84TIP3   OH2  215   5.382   0.540   0.075 -0.0098  0.1915  0.1789
   84TIP3    H1  216   5.422   0.489   0.145  0.4943  2.3094  1.5407
   84TIP3    H2  217   5.289   0.543   0.097  0.3242  1.9600  1.6147
   85TIP3   OH2  218   4.943   1.593   1.882 -0.5208 -0.2759  0.2853
   85TIP3    H1  219   4.856   1.564   1.908 -0.1433 -0.3274  1.5852
   85TIP3    H2  220   4.929   1.643   1.802 -1.7376 -0.3636  0.4251
   86TIP3   OH2  221   3.947   3.047   5.098  0.5614  0.3807  0.0154
   86TIP3    H1  222   3.978   2.996   5.023  0.1883 -0.2110  0.2559
   86TIP3    H2  223   3.980   3.000   5.175 -0.2185  0.2055  0.2558
   87TIP3   OH2  224   5.049   0.580   1.144  0.0220 -0.4308  0.2127
   87TIP3    H1  225   5.110   0.623   1.085 -0.9115 -0.6838 -0.9895
   87TIP3    H2  226   4.984   0.539   1.085 -0.0366 -2.0759  1.3483
   88TIP3   OH2  227   2.299   3.252   3.380  0.4692 -0.0231 -0.9311
   88TIP3    H1  228   2.340   3.270   3.465  0.1502 -0.6507 -0.6410
   88TIP3    H2  229   2.371   3.216   3.327 -0.2859 -4.4162  0.6183
   89TIP3   OH2  230   6.275   6.755   1.766 -0.2256  0.4777  0.3041
   89TIP3    H1  231   6.355   6.704   1.783 -1.4512 -1.4275  0.6239
   89TIP3    H2  232   6.242   6.720   1.683  0.2894  2.6707 -0.9132
   90TIP3   OH2  233   3.986   1.760   2.585  0.5964 -0.2857 -0.3916
   90TIP3    H1  234   3.993   1.715   2.669  0.2164 -0.5393 -0.4975
   90TIP3    H2  235   3.918   1.713   2.538 -1.0906  1.4792  0.1807
   91TIP3   OH2  236   4.925   3.512   3.029 -0.4113  0.1948  0.5409
   91TIP3    H1  237   4.924   3.507   2.934 -1.6244  0.4369  0.5300
   91TIP3    H2  238   5.000   3.458   3.055  0.6339  1.0583 -0.5846
   92TIP3   OH2  239   4.285   4.313   0.896  0.1106 -0.2396 -0.1747
   92TIP3    H1  240   4.243   4.318   0.810  0.0637 -0.5843 -0.1771
   92TIP3    H2  241   4.254   4.229   0.932 -0.1841  0.0841  0.3425
   93TIP3   OH2  242   2.231  -0.005   4.311 -0.3455  0.4654  0.5895
   93TIP3    H1  243   2.206   0.087   4.320 -1.4327  0.1610  0.8157
   93TIP3    H2  244   2.169  -0.052   4.366  0.5469 -0.3636  0.9176
   94TIP3   OH2  245   5.088   3.825   0.870  0.1099 -0.0764 -0.1392
   94TIP3    H1  246   5.148   3.788   0.806  0.6507  1.6821 -0.7015
   94TIP3    H2  247   5.027   3.754   0.890  2.1573 -1.8484  0.2340
   95TIP3   OH2  248   0.060   6.602   2.184 -0.8854 -0.6518 -0.2908
   95TIP3    H1  249   0.059   6.600   2.088 -0.1269  1.2744 -0.3952
   95TIP3    H2  250   0.048   6.695   2.205  1.6302 -0.6301  1.3946
   96TIP3   OH2  251   2.510   1.581   4.230  0.8260  0.0963  0.0922
   96TIP3    H1  252   2.511   1.503   4.175 -2.1121 -0.6342  0.8993
   96TIP3    H2  253   2.461   1.645   4.181  0.2498  0.2468  0.8462
   97TIP3   OH2  254   0.382   4.919   1.766  0.2098  0.3529  0.4571
   97TIP3    H1  255   0.368   4.973   1.688  1.1369  0.6346  0.4786
   97TIP3    H2  256   0.383   4.829   1.734 -1.8394  0.2792  0.4837
   98TIP3   OH2  257   6.129   2.324   5.586 -0.2634  0.3020  0.6827
   98TIP3    H1  258   6.209   2.362   5.549  0.1688 -0.4736  0.7797
   98TIP3    H2  259   6.100   2.388   5.651  0.8437  0.1591  1.3568
   99TIP3   OH2  260   2.646   2.875   0.040 -0.5826  0.2398  0.1931
   99TIP3    H1  261   2.583   2.947   0.041 -1.2988 -0.3755 -0.0957
   99TIP3    H2  262   2.691   2.885  -0.044 -0.2055  0.7442  0.4475
  100TIP3   OH2  263   3.222   2.277   2.067 -0.4097 -0.4768  0.1038
  100TIP3    H1  264   3.279   2.333   2.016  0.7308 -1.3979  0.3280
  100TIP3    H2  265   3.136   2.319   2.062  0.2691  0.9257 -0.2542
  101TIP3   OH2  266   5.452   5.501   1.099 -0.0126 -0.0515 -0.4405
  101TIP3    H1  267   5.539   5.540   1.093  0.5461 -1.1518  0.2378
  101TIP3    H2  268   5.467   5.415   1.140 -1.4626 -0.0909  0.0466
  102TIP3   OH2  269   6.037   2.876   1.936  0.3968 -0.3913  0.3547
  102TIP3    H1  270   6.109   2.864   1.998  1.9323 -1.3007 -1.5068
  102TIP3    H2  271   5.978   2.803   1.954  0.4960 -0.2707  1.1828
  103TIP3   OH2  272   4.939   4.792   2.561 -0.1200  0.8517  0.3422
  103TIP3    H1  273   4.845   4.808   2.549 -0.1383  0.4449 -0.0956
  103TIP3    H2  274   4.943   4.708   2.607  0.0301  0.9469  0.5060
  104TIP3   OH2  275   5.671   5.913   3.229  0.1641  0.2083  0.3767
  104TIP3    H1  276   5.726   5.872   3.163  1.7791  1.4527  0.9038
  104TIP3    H2  277   5.641   5.994   3.189 -0.2739  0.1436  0.5624
  105TIP3   OH2  278   1.536   0.030   0.132 -0.4953 -0.8765  0.4606
  105TIP3    H1  279   1.470   0.097   0.117  0.3776 -0.2968 -0.9724
  105TIP3    H2  280   1.499  -0.049   0.094 -0.8687 -0.8337  0.7358
  106TIP3   OH2  281   1.964   1.855   1.004  0.6994  0.0062 -0.4047
  106TIP3    H1  282   2.003   1.870   0.918 -2.1322  0.7865 -1.6581
  106TIP3    H2  283   1.945   1.762   1.007  0.2331  0.0801 -0.9169
  107TIP3   OH2  284   4.430   3.368   1.925 -0.3342  0.5778 -0.5440
  107TIP3    H1  285   4.375   3.435   1.884 -1.3657  0.2859  0.3115
  107TIP3    H2  286   4.410   3.374   2.018 -0.3951 -0.8531 -0.4403
  108TIP3   OH2  287   2.260   3.013   1.774  0.0298 -0.4409  0.3638
  108TIP3    H1  288   2.271   3.043   1.864  0.5693  2.3194 -0.5257
  108TIP3    H2  289   2.321   2.940   1.765  0.7291 -0.0834  1.9421
  109TIP3   OH2  290   1.209   4.144   1.765 -0.2330  0.0115 -0.3356
  109TIP3    H1  291   1.150   4.148   1.690  0.4999 -1.2428 -1.0191
  109TIP3    H2  292   1.295   4.163   1.729 -0.1120  1.1565  0.5312
  110TIP3   OH2  293   6.408   0.274   2.749  0.7940  0.1318  0.1325
  110TIP3    H1  294   6.369   0.281   2.836 -0.5695 -2.1718 -0.2053
  110TIP3    H2  295   6.447   0.186   2.748  0.7962  0.1326 -1.5776
  111TIP3   OH2  296   4.244   2.100   4.114  0.1920  0.5625 -0.0927
  111TIP3    H1  297   4.222   2.155   4.040 -0.2117 -2.1156 -2.1227
  111TIP3    H2  298   4.167   2.101   4.170 -1.1418 -0.4862 -1.8121
  112TIP3   OH2  299   1.218   2.175   0.120  0.2068 -0.3855 -0.7949
  112TIP3    H1  300   1.182   2.262   0.140 -0.7439 -1.1045  0.7802
  112TIP3    H2  301   1.250   2.183   0.030 -2.8869  0.6838 -1.9551
  113TIP3   OH2  302   4.953   1.102   1.097 -0.9745  0.2377  0.1442
  113TIP3    H1  303   4.983   1.015   1.122 -0.9931 -0.0487 -0.7798
  113TIP3    H2  304   4.872   1.114   1.147 -1.3605 -0.5824 -0.2499
  114TIP3   OH2  305   5.896   1.906   2.252 -0.5241  0.4303 -0.1087
  114TIP3    H1  306   5.845   1.983   2.279  2.7371  2.1273  1.8882
  114TIP3    H2  307   5.978   1.943   2.220  0.9222 -2.2215  0.3089
  115TIP3   OH2  308   5.242   3.404   0.062 -0.0966  0.3707 -0.8745
  115TIP3    H1  309   5.181   3.348   0.110 -0.8277  1.2060 -0.8084
  115TIP3    H2  310   5.233   3.490   0.104  2.0787  0.2357  0.0108
  116TIP3   OH2  311   3.700   1.134   3.219 -0.1532 -0.2028 -0.2383
  116TIP3    H1  312   3.684   1.054   3.268 -1.2771  0.3256  0.2916
  116TIP3    H2  313   3.795   1.146   3.223 -0.1720 -0.4376  1.3903
  117TIP3   OH2  314   1.322   0.759   5.392 -0.5863  0.3661  0.0770
  117TIP3    H1  315   1.283   0.676   5.419  0.9198  0.2868  2.2508
  117TIP3    H2  316   1.346   0.745   5.300 -1.7516 -1.0470 -0.0505
  118TIP3   OH2  317   6.608   4.371   1.612  0.6642 -0.4983 -0.2565
  118TIP3    H1  318   6.524   4.342   1.648  1.1915 -1.0683  0.5720
  118TIP3    H2  319   6.597   4.366   1.517 -0.7840  1.0566 -0.2199
  119TIP3   OH2  320   7.125   3.161   3.078  0.3102 -0.4546 -0.7455
  119TIP3    H1  321   7.219   3.167   3.058  0.4979 -2.2921 -0.5374
  119TIP3    H2  322   7.121   3.117   3.163 -0.7451  0.3533 -0.3468
  120TIP3   OH2  323   2.554   2.828   3.073  0.4515  0.1085 -0.2315
  120TIP3    H1  324   2.534   2.917   3.044 -0.0222 -0.3756 -1.4373
  120TIP3    H2  325   2.536   2.829   3.167 -0.3873  1.0575 -0.3830
  121TIP3   OH2  326   4.621   3.370   3.418  0.0494 -0.0927 -0.7063
  121TIP3    H1  327   4.533   3.401   3.395 -0.5296 -0.7477  0.5124
  121TIP3    H2  328   4.662   3.443   3.464 -0.0352  0.0471 -0.8535
  122TIP3   OH2  329   0.485   3.913   1.172  0.0874 -0.1347  0.3903
  122TIP3    H1  330   0.457   3.829   1.207 -0.1546 -0.6136 -0.9192
  122TIP3    H2  331   0.551   3.891   1.106  1.6543  0.8251  1.5587
  123TIP3   OH2  332   3.958   5.498   1.604  0.1991  0.4591 -0.4315
  123TIP3    H1  333   4.040   5.527   1.643 -1.2856  1.7232  2.0650
  123TIP3    H2  334   3.945   5.555   1.529  1.1251  0.9082 -0.2585
  124TIP3   OH2  335   3.447   1.653   3.093  0.2482  0.0466 -0.1167
  124TIP3    H1  336   3.412   1.612   3.014 -1.5080 -0.8956  1.0791
  124TIP3    H2  337   3.375   1.648   3.156  1.4389  1.1949  1.3978
  125TIP3   OH2  338   1.202   2.879   4.449  0.1880  0.0822 -0.2645
  125TIP3    H1  339   1.190   2.848   4.360 -0.3057  2.8212 -1.2546
  125TIP3    H2  340   1.293   2.908   4.453 -0.2961  1.7381 -0.5436
  126TIP3   OH2  341   4.062   4.651   1.150  0.9004 -0.5952 -0.2240
  126TIP3    H1  342   4.062   4.742   1.180  0.1167 -0.7458  0.2740
  126TIP3    H2  343   4.113   4.652   1.069 -0.1126  0.5228 -0.8857
  127TIP3   OH2  344   4.506   1.581   3.205  1.0657  0.2676 -0.1656
  127TIP3    H1  345   4.484   1.492   3.180  2.5403 -0.6596  1.5775
  127TIP3    H2  346   4.558   1.615   3.132 -1.4355  0.6465 -1.9208
  128TIP3   OH2  347   4.498   5.107   2.667  0.5087 -0.4509  0.5735
  128TIP3    H1  348   4.435   5.119   2.738  0.1691 -0.2484  0.2416
  128TIP3    H2  349   4.504   5.193   2.626  1.9988 -0.1264  1.4129
  129TIP3   OH2  350   3.344   2.002   1.066  0.2962  0.2158 -0.2316
  129TIP3    H1  351   3.408   2.053   1.017  1.6086 -0.9757  0.1727
  129TIP3    H2  352   3.342   2.043   1.153 -0.9281  1.4083 -0.7853
  130TIP3   OH2  353   1.106   1.060   1.390  0.6246  0.2757 -0.0069
  130TIP3    H1  354   1.104   1.128   1.323  0.4203  1.2630  0.9787
  130TIP3    H2  355   1.030   1.004   1.370  0.8840  0.2334 -0.9069
  131TIP3   OH2  356   2.840   0.094   0.788 -0.1206  0.1944  0.4352
  131TIP3    H1  357   2.915   0.153   0.776  0.3583 -0.1946  1.4119
  131TIP3    H2  358   2.770   0.150   0.821  0.4477  0.1712  1.7297
  132TIP3   OH2  359   3.172   6.198   4.616  0.0894  0.2075 -0.3817
  132TIP3    H1  360   3.221   6.145   4.554 -0.1780 -0.0393 -0.3862
  132TIP3    H2  361   3.093   6.147   4.634 -0.5293  0.9392 -0.9539
  133TIP3   OH2  362   2.628   4.305   0.928  0.1794  0.3688  0.0587
  133TIP3    H1  363   2.618   4.213   0.904  1.6167  0.5691 -1.4880
  133TIP3    H2  364   2.655   4.303   1.021  1.0798 -0.8357 -0.2025
  134TIP3   OH2  365   1.360   4.191   4.148 -0.4254 -0.0460  0.1961
  134TIP3    H1  366   1.376   4.101   4.121 -0.2429 -0.5000  1.6827
  134TIP3    H2  367   1.338   4.184   4.241 -0.2177  1.4582  0.3865
  135TIP3   OH2  368   2.147   0.064   5.653 -0.8150  0.1423 -0.0870
  135TIP3    H1  369   2.129   0.063   5.747 -2.5218 -0.5467 -0.3867
  135TIP3    H2  370   2.181  -0.023   5.634  0.5962  0.6466  0.0629
  136TIP3   OH2  371   4.188   2.638   0.209  0.5088  0.5114  0.2989
  136TIP3    H1  372   4.260   2.604   0.262  0.2209  1.3184  1.2277
  136TIP3    H2  373   4.143   2.701   0.265 -0.5856  0.4524 -0.4599
  137TIP3   OH2  374   1.854   6.155   2.504 -0.2709  0.1245  0.8106
  137TIP3    H1  375   1.909   6.079   2.520 -2.7315 -2.2433 -1.0011
  137TIP3    H2  376   1.774   6.119   2.465 -2.7440  3.3566  2.3348
  138TIP3   OH2  377   2.211   4.821   4.231 -0.2191 -0.0081  0.2406
  138TIP3    H1  378   2.121   4.794   4.249 -0.7305  0.4219 -1.5139
  138TIP3    H2  379   2.216   4.911   4.264 -0.3281 -0.1452  0.6376
  139TIP3   OH2  380   1.753   2.953   1.754 -0.5031 -0.3030  1.0564
  139TIP3    H1  381   1.840   2.923   1.778  0.9039  1.0076 -1.8289
  139TIP3    H2  382   1.711   2.877   1.714  0.2860 -0.3628  0.2999
  140TIP3   OH2  383   3.818   2.349   1.974  0.5946  0.2431 -0.0211
  140TIP3    H1  384   3.897   2.295   1.981  0.0778 -0.5451 -0.1302
  140TIP3    H2  385   3.776   2.342   2.059  0.1393 -0.1495 -0.2701
  141TIP3   OH2  386   0.946   4.392   1.631 -0.3051 -0.2953  0.4072
  141TIP3    H1  387   0.998   4.440   1.567 -2.0030  0.0276 -0.8265
  141TIP3    H2  388   0.911   4.460   1.690 -0.5465 -0.3131  0.2887
  142TIP3   OH2  389   4.303   4.895   2.010  0.0220  0.0150 -0.2231
  142TIP3    H1  390   4.351   4.817   2.037  0.6854  0.2972 -0.5746
  142TIP3    H2  391   4.352   4.968   2.047  0.7717  0.3927 -1.8858
  143TIP3   OH2  392   1.374   1.647   1.956 -0.2206 -0.0119  0.2426
  143TIP3    H1  393   1.386   1.553   1.965 -0.3537  0.1063  1.9144
  143TIP3    H2  394   1.282   1.662   1.977  0.0782  0.6108  1.1696
  144TIP3   OH2  395   4.406   3.721   3.673 -0.1071  0.0824  0.0481
  144TIP3    H1  396   4.392   3.794   3.733 -0.4292  0.2385 -0.2159
  144TIP3    H2  397   4.403   3.760   3.585  1.1170 -0.0169 -0.0555
  145TIP3   OH2  398   6.210   3.020   0.186 -0.0953 -0.5495 -0.5621
  145TIP3    H1  399   6.196   2.934   0.147  0.1185 -0.1524 -1.5510
  145TIP3    H2  400   6.302   3.040   0.168 -0.3126  0.1605 -0.9189
  146TIP3   OH2  401   4.128   5.296   4.396  0.4484  0.3247 -0.6663
  146TIP3    H1  402   4.070   5.239   4.346  1.6439 -0.0179 -1.7120
  146TIP3    H2  403   4.203   5.312   4.338  1.3283  0.8796  0.5685
  147TIP3   OH2  404   5.304   3.890   1.485 -0.4960 -0.4569  0.6647
  147TIP3    H1  405   5.354   3.816   1.450 -1.6768 -0.3613 -1.3987
  147TIP3    H2  406   5.369   3.958   1.499  0.1490 -0.6934 -0.9213
  148TIP3   OH2  407   6.881   6.012   3.498 -0.0691 -0.1363  0.5885
  148TIP3    H1  408   6.794   6.014   3.458  0.1023 -0.6213  0.1805
  148TIP3    H2  409   6.938   6.056   3.434  0.3306 -1.5017 -0.0355
  149TIP3   OH2  410   0.442   0.277   1.452  0.3299 -0.2626 -0.0920
  149TIP3    H1  411   0.407   0.225   1.524  0.8804 -0.2985  0.1519
  149TIP3    H2  412   0.501   0.340   1.493  1.7117 -1.1691 -0.6152
  150TIP3   OH2  413   3.506   5.257   0.539 -0.8238  0.0385 -0.6008
  150TIP3    H1  414   3.507   5.209   0.622 -2.6193  0.6301 -0.1844
  150TIP3    H2  415   3.597   5.286   0.527 -0.4661 -0.3136  1.0136
  151TIP3   OH2  416   3.118   4.727   5.750  0.0777 -0.2760  0.1436
  151TIP3    H1  417   3.088   4.658   5.809 -1.3126 -0.1938 -0.4276
  151TIP3    H2  418   3.138   4.681   5.668 -0.6797 -0.0395 -0.1815
  152TIP3   OH2  419   2.827   4.287   3.836 -0.5920  0.0577  0.2716
  152TIP3    H1  420   2.815   4.363   3.893 -1.4710  0.4165 -0.3815
  152TIP3    H2  421   2.754   4.290   3.775  0.1294 -0.5395 -0.6477
  153TIP3   OH2  422   2.844   3.868   2.842  0.0690  0.0206 -0.0570
  153TIP3    H1  423   2.854   3.786   2.890  1.0033  0.4846  0.5767
  153TIP3    H2  424   2.851   3.936   2.909 -0.8366  0.6261 -0.5542
  154TIP3   OH2  425   2.185   1.001   5.541 -0.2988 -0.7191  0.4724
  154TIP3    H1  426   2.236   1.056   5.601 -1.0465 -0.0453  0.5098
  154TIP3    H2  427   2.101   1.046   5.533 -1.3541 -2.4127  1.3622
  155TIP3   OH2  428   6.844   4.333   2.775 -0.6143  0.6667  0.3688
  155TIP3    H1  429   6.810   4.365   2.692  0.0900 -0.3890 -0.3567
  155TIP3    H2  430   6.931   4.372   2.782 -0.3848  0.1837  0.2498
  156TIP3   OH2  431   4.661   5.944   4.314 -0.1406 -0.3522 -0.1869
  156TIP3    H1  432   4.718   6.012   4.350 -2.1724  0.6799  1.2531
  156TIP3    H2  433   4.706   5.915   4.234  3.1457 -0.7204  1.6148
  157TIP3   OH2  434   0.296   3.075   5.569  0.8415  0.1141  0.1396
  157TIP3    H1  435   0.231   3.128   5.615  0.4673 -0.2208  0.0006
  157TIP3    H2  436   0.244   3.013   5.518  1.2356  0.8255 -1.1741
  158TIP3   OH2  437   6.443   1.153   4.112  0.2755  0.1460 -0.1959
  158TIP3    H1  438   6.486   1.079   4.068 -1.2944 -0.0189 -1.5913
  158TIP3    H2  439   6.479   1.230   4.068  0.3756  0.0987 -0.1987
  159TIP3   OH2  440   1.867   5.568   3.364 -0.2213  0.3154  0.3132
  159TIP3    H1  441   1.891   5.512   3.290 -1.4629  0.3008 -0.0896
  159TIP3    H2  442   1.883   5.514   3.441  1.4618  0.4594  0.1121
  160TIP3   OH2  443   6.139   4.139   3.068  0.5242  0.2085  0.1147
  160TIP3    H1  444   6.158   4.191   2.990  1.5081 -0.0449  0.1712
  160TIP3    H2  445   6.163   4.196   3.141  1.7838 -0.3565  0.1734
  161TIP3   OH2  446   6.982   6.724   5.216  0.1271 -0.1860  0.1880
  161TIP3    H1  447   6.989   6.780   5.293  1.7594 -2.3228  1.7397
  161TIP3    H2  448   6.906   6.757   5.168  0.0688  2.2720  1.8158
  162TIP3   OH2  449   2.738   1.292   5.058 -0.1051  0.8252 -0.0800
  162TIP3    H1  450   2.723   1.384   5.038 -1.2084  0.6341 -0.1820
  162TIP3    H2  451   2.783   1.293   5.143  2.2910  1.5355 -1.2522
  163TIP3   OH2  452   4.201   6.530   4.316  0.3978  0.3438 -0.5015
  163TIP3    H1  453   4.208   6.579   4.398 -1.6811  1.0197 -0.6742
  163TIP3    H2  454   4.255   6.452   4.330  1.9155  1.5353  0.6372
  164TIP3   OH2  455   4.491   4.606   3.612  0.0977 -0.1925 -0.0202
  164TIP3    H1  456   4.571   4.651   3.584 -0.3821  0.7676  0.1014
  164TIP3    H2  457   4.515   4.514   3.614  0.5192 -0.2097 -2.4001
  165TIP3   OH2  458   0.035   1.181   1.957 -0.1365 -0.7265 -0.2983
  165TIP3    H1  459   0.106   1.129   1.918 -1.4484 -1.1401 -2.2554
  165TIP3    H2  460   0.002   1.234   1.886 -0.1545  1.3965  1.2030
  166TIP3   OH2  461   5.527   3.237   5.847 -0.0301 -0.2535  0.1765
  166TIP3    H1  462   5.519   3.245   5.942  2.0177 -1.4252  0.5076
  166TIP3    H2  463   5.579   3.158   5.834 -0.9070 -0.5226 -1.9679
  167TIP3   OH2  464   0.797   3.238   5.901  0.0595 -0.0733  0.0106
  167TIP3    H1  465   0.782   3.240   5.806 -0.6619  0.3207  0.1255
  167TIP3    H2  466   0.880   3.191   5.911 -0.2238 -0.7731 -0.7699
  168TIP3   OH2  467   4.911   4.777   0.044 -0.5505  0.9101  0.1198
  168TIP3    H1  468   4.932   4.865   0.012 -0.2484  0.6658 -0.3707
  168TIP3    H2  469   4.981   4.722   0.010 -0.9690  0.4049  0.0637
  169TIP3   OH2  470   2.919   1.151   0.101 -0.3244 -0.4613 -0.0785
  169TIP3    H1  471   2.985   1.109   0.155  0.7679  0.3103 -0.7769
  169TIP3    H2  472   2.845   1.090   0.102  1.3242 -2.6528 -1.3780
  170TIP3   OH2  473   6.523   4.725   5.035 -0.4229  0.4969 -0.1526
  170TIP3    H1  474   6.433   4.691   5.038 -0.5821  0.9286  0.0334
  170TIP3    H2  475   6.514   4.814   5.000  0.0004  0.3249 -0.7093
  171TIP3   OH2  476   1.043   0.709   4.693 -0.0254  0.0359  0.2994
  171TIP3    H1  477   0.955   0.683   4.719 -0.6976  1.5620 -0.3027
  171TIP3    H2  478   1.060   0.659   4.613 -1.0847  1.0099 -0.5670
  172TIP3   OH2  479   0.408   5.867   0.292 -0.3222  0.2215  0.1103
  172TIP3    H1  480   0.345   5.924   0.249 -1.0847  0.3187  1.3169
  172TIP3    H2  481   0.356   5.812   0.350  0.6015 -0.3848  0.4045
  173TIP3   OH2  482   6.295   4.399   5.778  0.3973  0.1918  0.3182
  173TIP3    H1  483   6.223   4.407   5.715 -0.6246 -0.0877  1.4148
  173TIP3    H2  484   6.259   4.432   5.860  1.4976 -0.0407  0.9119
  174TIP3   OH2  485   0.135   1.845   4.540 -0.3410  0.5522 -0.5300
  174TIP3    H1  486   0.073   1.869   4.471 -0.6995  1.9731  0.2478
  174TIP3    H2  487   0.093   1.774   4.587 -0.6028  0.3527 -1.0545
  175TIP3   OH2  488   1.923   2.829   4.906  0.6010 -0.1739  0.4691
  175TIP3    H1  489   1.926   2.843   5.000  2.4396 -0.5257  0.4969
  175TIP3    H2  490   1.960   2.742   4.892 -1.0401 -0.7800 -0.4988
  176TIP3   OH2  491   4.958   4.085   4.214 -0.2556 -0.5847  0.7579
  176TIP3    H1  492   4.946   4.175   4.243 -0.5461 -1.5721  4.1148
  176TIP3    H2  493   4.931   4.086   4.122 -0.0198  2.7462  0.5892
  177TIP3   OH2  494   4.345   5.368   4.157 -0.5645 -0.3405 -0.0128
  177TIP3    H1  495   4.297   5.295   4.119  1.0943 -0.4281 -2.1518
  177TIP3    H2  496   4.420   5.328   4.201 -0.3749 -0.0076 -0.0250
  178TIP3   OH2  497   3.088   0.321   4.725 -0.2369  0.1518  0.0928
  178TIP3    H1  498   3.165   0.357   4.768 -0.4878  1.6765 -0.6750
  178TIP3    H2  499   3.100   0.343   4.632  0.1764 -2.8439 -0.6574
  179TIP3   OH2  500   5.570   4.671   5.102  0.0363  0.5689 -0.1298
  179TIP3    H1  501   5.593   4.750   5.053  2.2062  0.4830  0.6269
  179TIP3    H2  502   5.636   4.665   5.171  0.4375 -2.3146 -0.6239
  180TIP3   OH2  503   4.925   1.346   4.283  0.0903 -0.0071 -0.6210
  180TIP3    H1  504   4.964   1.265   4.250 -0.5737  0.0008 -1.4398
  180TIP3    H2  505   4.950   1.348   4.375  0.1922 -1.1010 -0.6104
  181TIP3   OH2  506   3.670   2.412   5.801 -0.2951 -0.2717  0.2575
  181TIP3    H1  507   3.580   2.380   5.794 -0.3405  0.1893 -1.6861
  181TIP3    H2  508   3.668   2.472   5.876 -0.9933 -2.1326  1.8130
  182TIP3   OH2  509   1.473   5.339   2.189 -0.4875 -0.2528 -0.1208
  182TIP3    H1  510   1.453   5.412   2.247  0.4886  1.1554 -1.4740
  182TIP3    H2  511   1.404   5.341   2.123 -1.6186 -1.8739  0.9368
  183TIP3   OH2  512   0.610   6.279   4.445 -0.8813  0.3306  0.1319
  183TIP3    H1  513   0.547   6.339   4.485  0.7713  1.4210  1.2879
  183TIP3    H2  514   0.695   6.311   4.477  0.3918 -0.0855 -2.5840
  184TIP3   OH2  515   6.084   2.123   2.186  0.1586 -0.0330  0.5360
  184TIP3    H1  516   6.144   2.194   2.207 -0.4774  0.0838  2.1870
  184TIP3    H2  517   6.062   2.135   2.094  0.0791  1.9116  0.7714
  185TIP3   OH2  518   0.460   1.186   4.834 -0.2119 -0.1426 -0.6111
  185TIP3    H1  519   0.554   1.204   4.828 -0.3740  1.3967  0.7988
  185TIP3    H2  520   0.420   1.273   4.834 -1.7316 -0.7910 -2.0807
  186TIP3   OH2  521   4.613   1.282   5.769  0.2142  0.4711 -0.1427
  186TIP3    H1  522   4.604   1.376   5.783  1.1379  0.3360  1.5946
  186TIP3    H2  523   4.697   1.260   5.808 -0.5092 -1.2680  0.5408
  187TIP3   OH2  524   0.031   1.177   1.393 -0.3887  0.3410  0.1341
  187TIP3    H1  525  -0.017   1.169   1.310 -0.6433  1.0752  0.2075
  187TIP3    H2  526   0.123   1.165   1.368 -0.5978 -1.4059  0.0394
  188TIP3   OH2  527   2.518   6.438   1.515 -0.1809  0.8991 -0.2649
  188TIP3    H1  528   2.436   6.410   1.474  1.5193 -2.7346 -1.6825
  188TIP3    H2  529   2.499   6.441   1.609 -1.4011 -2.5398 -0.2753
  189TIP3   OH2  530   4.893   6.253   1.010 -0.2393  0.2392 -0.1454
  189TIP3    H1  531   4.975   6.277   1.053 -1.5647  1.4529  1.8330
  189TIP3    H2  532   4.921   6.202   0.933  2.3432  0.6650  0.4113
  190TIP3   OH2  533   3.719   1.954   3.822  0.1416 -0.1043 -0.3830
  190TIP3    H1  534   3.650   2.020   3.824 -0.0341 -0.2591  2.4552
  190TIP3    H2  535   3.800   2.003   3.834  0.4834 -0.0649 -2.4119
  191TIP3   OH2  536   4.782   6.510   4.030  0.1244  0.0755  0.7874
  191TIP3    H1  537   4.697   6.471   4.050  0.3109 -0.7279  0.0658
  191TIP3    H2  538   4.816   6.539   4.115 -1.2551  1.2569  0.9884
  192TIP3   OH2  539   4.143   1.723   1.867  0.4801  0.5297 -0.2166
  192TIP3    H1  540   4.101   1.793   1.817 -0.7957  0.7507  1.1222
  192TIP3    H2  541   4.141   1.753   1.958 -0.2854 -1.3041  0.4262
  193TIP3   OH2  542   1.082   2.091   2.449 -0.4993 -0.5092 -0.1297
  193TIP3    H1  543   1.168   2.125   2.475 -1.4420  0.6604  1.5962
  193TIP3    H2  544   1.058   2.143   2.372 -0.9979  1.3657  1.2314
  194TIP3   OH2  545   3.552   6.678   4.183  0.2760 -0.3264 -0.2858
  194TIP3    H1  546   3.555   6.752   4.243 -0.1425 -0.2763 -0.3249
  194TIP3    H2  547   3.640   6.673   4.146 -0.0210  0.9224 -1.2198
  195TIP3   OH2  548   3.918   4.299   1.269 -0.4866  0.2516  0.1161
  195TIP3    H1  549   3.908   4.390   1.298  0.7336  0.3346  0.3563
  195TIP3    H2  550   4.009   4.294   1.238 -1.2494 -0.2355 -2.2702
  196TIP3   OH2  551   2.958   2.311   0.331 -0.4223  0.1754  0.3510
  196TIP3    H1  552   2.935   2.229   0.287  1.2063  0.1601 -0.5436
  196TIP3    H2  553   2.880   2.366   0.322 -1.3656 -1.0694  0.5265
  197TIP3   OH2  554   0.490   0.401   3.080  0.2687 -0.4313 -0.0307
  197TIP3    H1  555   0.567   0.456   3.069  0.6382 -0.8689  0.3326
  197TIP3    H2  556   0.516   0.316   3.044 -0.3155 -0.3593 -0.6498
  198TIP3   OH2  557   2.914   5.736   3.242  0.3694 -0.0258 -0.0667
  198TIP3    H1  558   2.968   5.659   3.228  1.1316  0.4338  0.2730
  198TIP3    H2  559   2.825   5.702   3.254  0.7384 -0.8654  0.3261
  199TIP3   OH2  560   0.058   4.049   1.607 -0.1038 -0.5455  0.6524
  199TIP3    H1  561   0.046   4.072   1.699 -1.9755 -1.5531  0.7333
  199TIP3    H2  562   0.017   3.962   1.599  1.1947 -1.0689 -0.8586
  200TIP3   OH2  563   3.326   4.225   0.805  0.3749  0.5586  0.4172
  200TIP3    H1  564   3.231   4.234   0.803  0.0340 -1.9949  1.0923
  200TIP3    H2  565   3.356   4.260   0.722 -0.7850  4.1517  1.3578
  201TIP3   OH2  566   6.755   5.897   2.145  0.1028  0.1256  0.1059
  201TIP3    H1  567   6.841   5.857   2.139  0.3324  0.8191 -1.8906
  201TIP3    H2  568   6.694   5.826   2.122  0.2903  0.1617 -0.5017
  202TIP3   OH2  569   5.045   0.578   2.700  0.0492  0.2358 -0.3679
  202TIP3    H1  570   5.079   0.641   2.764 -0.3804 -0.9939  1.1486
  202TIP3    H2  571   4.956   0.608   2.683 -0.3967 -0.2974  0.8795
  203TIP3   OH2  572   1.149   1.845   4.294  0.0915  0.0494  0.9360
  203TIP3    H1  573   1.233   1.848   4.339  0.5424  0.2832  0.1106
  203TIP3    H2  574   1.086   1.820   4.361  1.0011 -1.4058  1.2890
  204TIP3   OH2  575   1.930   2.616   2.917  0.0420  0.1367  0.1688
  204TIP3    H1  576   1.865   2.547   2.937  0.8960 -0.1319  2.2830
  204TIP3    H2  577   2.012   2.581   2.951  0.9070  1.3425 -0.6426
  205TIP3   OH2  578   4.903   0.204   4.210 -0.2582 -0.0555  0.0110
  205TIP3    H1  579   4.856   0.231   4.131 -0.6503 -2.5853 -0.6945
  205TIP3    H2  580   4.959   0.132   4.182 -0.8908 -1.4738  2.1130
  206TIP3   OH2  581   1.160   3.476   3.198 -0.2159  0.0201 -0.4648
  206TIP3    H1  582   1.195   3.560   3.169 -0.3020  0.3042  0.2306
  206TIP3    H2  583   1.222   3.411   3.165  1.0619  0.5222  0.8706
  207TIP3   OH2  584   6.662   0.976   4.312  0.7239 -0.0246  0.3206
  207TIP3    H1  585   6.695   0.892   4.342  0.5336  0.1279  0.9653
  207TIP3    H2  586   6.574   0.982   4.349  0.2917 -0.0441 -0.6644
  208TIP3   OH2  587   0.795   4.072   4.571 -0.8745 -0.1175  0.6229
  208TIP3    H1  588   0.874   4.043   4.524 -0.9247  0.6731  0.0316
  208TIP3    H2  589   0.728   4.078   4.503 -0.9120  1.1799  0.7517
  209TIP3   OH2  590   7.140   5.247   1.623  0.2910 -0.0552  0.4732
  209TIP3    H1  591   7.219   5.213   1.664  0.6008  1.5166  1.2562
  209TIP3    H2  592   7.166   5.265   1.533  0.4865 -0.6191  0.4108
  210TIP3   OH2  593   2.440   4.609   3.253 -0.3659  0.0735  0.1749
  210TIP3    H1  594   2.525   4.573   3.230 -0.6778  0.2323 -1.3511
  210TIP3    H2  595   2.442   4.700   3.222 -1.1711  0.0041 -0.1174
  211TIP3   OH2  596   1.143   6.758   1.775 -0.3549 -0.1845 -0.6254
  211TIP3    H1  597   1.078   6.689   1.786  0.2405 -0.6231  0.2540
  211TIP3    H2  598   1.185   6.739   1.691 -0.6216 -0.5228 -0.6822
  212TIP3   OH2  599   3.501   4.396   2.335  0.1383 -0.0068  0.0727
  212TIP3    H1  600   3.553   4.396   2.416  0.6022  0.6367 -0.2089
  212TIP3    H2  601   3.558   4.355   2.270  0.4063  0.9187 -0.2948
  213TIP3   OH2  602   5.164   4.511   4.779  0.2554  0.2594 -0.2428
  213TIP3    H1  603   5.129   4.508   4.690 -0.4661  1.5576 -0.0186
  213TIP3    H2  604   5.245   4.460   4.774  1.1290  1.6914 -2.0651
  214TIP3   OH2  605   6.080   6.302   3.980  0.0970 -0.0642 -0.0448
  214TIP3    H1  606   6.043   6.216   3.997 -0.7805  0.5520  1.3841
  214TIP3    H2  607   6.174   6.290   3.991 -0.2047 -0.2315  3.4964
  215TIP3   OH2  608   5.554   6.500   0.913  0.4193 -0.1131 -0.1563
  215TIP3    H1  609   5.543   6.583   0.959 -1.2298  0.0043 -0.7206
  215TIP3    H2  610   5.478   6.493   0.856  0.1788 -2.3243  0.3452
  216TIP3   OH2  611   1.266   6.337   0.236 -0.8836  0.3667  0.6216
  216TIP3    H1  612   1.278   6.384   0.153  0.5933 -0.1744  0.5156
  216TIP3    H2  613   1.323   6.381   0.298 -1.3734  0.2575  1.1640
  217TIP3   OH2  614   4.690   4.302   2.723  0.3173 -0.4961 -0.0081
  217TIP3    H1  615   4.711   4.355   2.800 -3.0663  2.4643 -0.8792
  217TIP3    H2  616   4.629   4.236   2.755  1.7878 -1.7022  0.4232
  218TIP3   OH2  617   0.192   0.446   4.968  0.3408  0.6141 -0.7395
  218TIP3    H1  618   0.162   0.507   5.036  2.2323  2.7838 -1.7018
  218TIP3    H2  619   0.242   0.501   4.907  0.2142 -1.5497 -2.9418
  219TIP3   OH2  620   1.542   0.293   3.295  0.0319 -0.3254 -0.2384
  219TIP3    H1  621   1.479   0.227   3.268 -0.9756  0.5093  0.0379
  219TIP3    H2  622   1.513   0.374   3.253  0.4117  0.2544  0.5740
  220TIP3   OH2  623   1.597   4.585   5.603 -0.5360  0.4278 -0.2039
  220TIP3    H1  624   1.611   4.679   5.607 -1.8384  0.7045 -1.1957
  220TIP3    H2  625   1.682   4.547   5.623 -0.2473  1.7764  1.3418
  221TIP3   OH2  626   6.695   2.884   0.323 -0.1780 -0.1248  0.1567
  221TIP3    H1  627   6.768   2.946   0.319 -0.2998 -0.0138 -0.4193
  221TIP3    H2  628   6.693   2.856   0.414 -1.5734  2.4788  1.0441
  222TIP3   OH2  629   1.048  -0.004   2.255  0.8352  0.8940 -0.4612
  222TIP3    H1  630   1.027   0.077   2.301  2.0775  1.4445 -0.8384
  222TIP3    H2  631   1.108   0.022   2.185  2.2340 -0.4982  0.1470
  223TIP3   OH2  632   7.209   0.306   0.601 -0.5142 -0.1787 -0.1085
  223TIP3    H1  633   7.121   0.276   0.621 -0.2258 -0.2993  1.0755
  223TIP3    H2  634   7.223   0.381   0.660  0.8410 -1.3307  1.1159
  224TIP3   OH2  635   5.207   5.016   0.894 -0.0520  0.5840 -0.1043
  224TIP3    H1  636   5.253   4.954   0.951 -1.6777  0.9065  1.6736
  224TIP3    H2  637   5.240   4.997   0.806  2.0687 -0.4036  0.8261
  225TIP3   OH2  638   6.551   2.173   4.303 -0.3574  0.1516  0.0965
  225TIP3    H1  639   6.605   2.201   4.230 -2.4001  1.7037 -0.9315
  225TIP3    H2  640   6.574   2.233   4.374  1.1855 -0.9681  0.5977
  226TIP3   OH2  641   5.895   5.803   0.322  0.2707  0.0352 -0.1789
  226TIP3    H1  642   5.856   5.793   0.408 -0.0562  1.6089 -0.1122
  226TIP3    H2  643   5.965   5.867   0.334  0.5408 -0.0904 -0.9878
  227TIP3   OH2  644   6.846   4.077   2.239  0.4849  0.0835  0.0687
  227TIP3    H1  645   6.754   4.097   2.256  0.4877  0.0533  0.1200
  227TIP3    H2  646   6.874   4.025   2.314  0.3406 -0.5311 -0.2913
  228TIP3   OH2  647   2.027   5.261   5.112  0.5370  0.3494  0.4848
  228TIP3    H1  648   2.073   5.332   5.155 -1.0944  2.2588 -0.7449
  228TIP3    H2  649   2.089   5.188   5.113  3.4668  2.6381 -0.8272
  229TIP3   OH2  650   0.623   6.701   0.687 -0.3321  0.2186  0.1418
  229TIP3    H1  651   0.536   6.740   0.693 -0.5785 -0.5347  1.6692
  229TIP3    H2  652   0.608   6.607   0.687  0.5209  0.0738  1.1285
  230TIP3   OH2  653   0.011   2.122   4.978  0.1958 -0.4155  0.2542
  230TIP3    H1  654   0.074   2.162   4.918 -0.1602 -0.9883 -0.5249
  230TIP3    H2  655  -0.067   2.177   4.971  0.0858 -0.5962  0.0267
  231TIP3   OH2  656   2.619   6.282   4.274 -0.6866 -0.1727  0.4342
  231TIP3    H1  657   2.650   6.357   4.326 -1.6304  1.1312 -0.8132
  231TIP3    H2  658   2.679   6.279   4.199 -2.3948  1.2852 -1.0895
  232TIP3   OH2  659   1.202   0.917   4.603  0.0040 -0.0004  0.2567
  232TIP3    H1  660   1.154   0.936   4.523  1.4525 -1.6595 -1.0863
  232TIP3    H2  661   1.139   0.869   4.658 -0.4207 -0.5811 -0.7157
  233TIP3   OH2  662   5.169   1.015   5.616  0.0505  0.6129  0.2744
  233TIP3    H1  663   5.183   0.956   5.542 -0.9553  0.4721  0.1839
  233TIP3    H2  664   5.120   1.089   5.579 -2.8994 -0.6902  1.2412
  234TIP3   OH2  665   5.831   4.379   4.191  0.1181  0.4929 -0.0262
  234TIP3    H1  666   5.770   4.395   4.264  0.8957  0.1324  0.7135
  234TIP3    H2  667   5.860   4.467   4.166  0.9561  0.5525  1.0752
  235TIP3   OH2  668   4.557   4.403   1.883 -0.0234 -0.0954  0.7074
  235TIP3    H1  669   4.613   4.339   1.928  2.9554  2.0210  0.2931
  235TIP3    H2  670   4.592   4.407   1.794 -1.7662  0.3831 -0.0052
  236TIP3   OH2  671   7.124   4.713   1.519  0.3830  0.2608 -0.5015
  236TIP3    H1  672   7.037   4.739   1.488 -0.7434  0.0208  2.2278
  236TIP3    H2  673   7.155   4.789   1.568  0.0354 -0.9723  1.7210
  237TIP3   OH2  674   4.854   2.792   3.976 -0.3864  0.1538 -0.0891
  237TIP3    H1  675   4.927   2.803   4.037 -1.1324 -0.9393  1.0448
  237TIP3    H2  676   4.871   2.857   3.907 -0.2140  2.4544  1.9577
  238TIP3   OH2  677   1.958   2.473   5.446 -0.1930  0.1988 -0.2115
  238TIP3    H1  678   1.914   2.555   5.468  1.4097  1.3041 -0.9447
  238TIP3    H2  679   1.994   2.488   5.358  1.7385 -0.5781  0.4030
  239TIP3   OH2  680   6.289   5.582   1.135  0.0957 -0.0525  0.0703
  239TIP3    H1  681   6.229   5.538   1.075  1.4930 -2.0228  0.0113
  239TIP3    H2  682   6.344   5.637   1.079 -1.1034  1.1729  0.0450
  240TIP3   OH2  683   2.256   6.194   5.450  0.0117  0.0934  0.2430
  240TIP3    H1  684   2.292   6.274   5.411 -0.5617  0.8516  1.2156
  240TIP3    H2  685   2.324   6.164   5.511  0.8874 -1.0648 -1.2386
  241TIP3   OH2  686   4.993   6.700   5.739 -0.3321  0.4318 -0.1905
  241TIP3    H1  687   4.976   6.730   5.649 -0.1606  0.1066 -0.3346
  241TIP3    H2  688   4.962   6.772   5.794  2.1009  1.9243 -0.5811
  242TIP3   OH2  689   3.287   3.701   1.812 -0.2578 -0.2618 -0.2824
  242TIP3    H1  690   3.258   3.611   1.795 -0.5100  0.1001 -1.9714
  242TIP3    H2  691   3.318   3.732   1.727  1.2894  0.7383  0.6158
  243TIP3   OH2  692   5.199   6.162   5.275 -0.0360  0.1283 -0.4071
  243TIP3    H1  693   5.144   6.230   5.314 -0.0861 -0.0116 -0.2359
  243TIP3    H2  694   5.137   6.101   5.236 -0.0791 -0.8346  1.0797
  244TIP3   OH2  695   2.203   3.537   5.849 -0.1659  0.5896  0.1004
  244TIP3    H1  696   2.127   3.593   5.833 -0.6136 -0.3785 -1.3340
  244TIP3    H2  697   2.167   3.459   5.892  0.2811  0.8548  0.9809
  245TIP3   OH2  698   6.401   5.006   2.520 -0.1298 -0.4838  0.3663
  245TIP3    H1  699   6.492   5.034   2.523 -0.3595  0.2474  0.7077
  245TIP3    H2  700   6.379   5.005   2.427 -0.0750  0.3617  0.3367
  246TIP3   OH2  701   4.304   2.574   2.492  0.1836 -0.3302  0.7341
  246TIP3    H1  702   4.212   2.546   2.495 -1.1207  3.3285  0.1212
  246TIP3    H2  703   4.323   2.603   2.581  0.8239 -1.1436  0.8751
  247TIP3   OH2  704   6.501   5.782   4.512  0.1359 -0.4441 -0.1690
  247TIP3    H1  705   6.461   5.810   4.430 -0.9601  0.0721  0.5179
  247TIP3    H2  706   6.472   5.692   4.524  0.2481 -0.4998 -0.3204
  248TIP3   OH2  707   3.251   1.003   1.205 -0.3488 -0.0539 -0.0283
  248TIP3    H1  708   3.261   1.037   1.116 -1.1013  1.2960  0.3850
  248TIP3    H2  709   3.334   0.958   1.222  0.0453  0.1955 -1.1761
  249TIP3   OH2  710   6.725   1.515   3.534 -0.5538 -0.1684  0.0260
  249TIP3    H1  711   6.753   1.491   3.622  0.0112 -1.4321 -0.4672
  249TIP3    H2  712   6.772   1.455   3.477 -0.1177  1.3071 -1.2237
  250TIP3   OH2  713   5.769   6.370   2.067  0.6536  1.0034  0.5459
  250TIP3    H1  714   5.686   6.331   2.039  1.3359 -0.5012  0.5158
  250TIP3    H2  715   5.781   6.446   2.010 -0.7988  1.3845  0.7114
  251TIP3   OH2  716   5.822   5.596   3.427 -0.4934 -0.0704 -0.6017
  251TIP3    H1  717   5.736   5.623   3.459  1.4185  2.9967  2.6254
  251TIP3    H2  718   5.864   5.555   3.502  0.6079 -2.5902 -2.4445
  252TIP3   OH2  719   6.352   6.229   4.010 -0.6422  0.2507  0.2438
  252TIP3    H1  720   6.387   6.279   3.936  0.9281  0.3832  1.0363
  252TIP3    H2  721   6.429   6.205   4.061 -1.3074 -3.0508 -0.1012
  253TIP3   OH2  722   6.294   1.917   2.108  0.1371 -0.5335 -0.4268
  253TIP3    H1  723   6.349   1.970   2.164  0.8326  0.3537 -1.8809
  253TIP3    H2  724   6.276   1.972   2.032  1.6759 -2.6372 -2.4618
  254TIP3   OH2  725   4.248   6.637   5.419  0.3027  0.0431 -0.0054
  254TIP3    H1  726   4.254   6.590   5.503  0.8480 -2.0461 -1.1325
  254TIP3    H2  727   4.303   6.714   5.431 -0.5542  0.4169  1.9125
  255TIP3   OH2  728   0.880   3.159   4.074  0.3229  0.0585  0.0776
  255TIP3    H1  729   0.819   3.200   4.136 -1.2914  0.6526 -1.8034
  255TIP3    H2  730   0.882   3.220   4.000  1.0297 -1.3474 -1.0900
  256TIP3   OH2  731   1.588   0.372   2.366  0.0690 -0.7252  0.3049
  256TIP3    H1  732   1.493   0.370   2.376 -0.0656  1.8095 -0.0665
  256TIP3    H2  733   1.603   0.363   2.272  0.1943 -0.7364  0.3249
  257TIP3   OH2  734   3.810   3.814   4.509  0.2632  0.7106  0.2947
  257TIP3    H1  735   3.749   3.844   4.576 -1.9613 -0.0815 -1.2943
  257TIP3    H2  736   3.804   3.881   4.440 -1.0525 -0.8065 -1.1269
  258TIP3   OH2  737   5.892   3.690   4.552  0.5058  0.1721  0.1683
  258TIP3    H1  738   5.834   3.673   4.479  0.3393 -1.3906  0.6394
  258TIP3    H2  739   5.835   3.726   4.620  0.1287 -1.0249  0.5035
  259TIP3   OH2  740   6.607   5.116   0.418 -0.0016  0.5956 -0.0294
  259TIP3    H1  741   6.524   5.074   0.437  0.3179 -0.7108 -1.3611
  259TIP3    H2  742   6.585   5.187   0.358 -0.1634  0.2946 -0.3264
  260TIP3   OH2  743   0.791   3.463   1.163  0.2154 -0.0074 -0.2431
  260TIP3    H1  744   0.850   3.518   1.112 -0.0392  3.2848  2.6781
  260TIP3    H2  745   0.847   3.391   1.194  1.7458  0.9605 -0.6486
  261TIP3   OH2  746   7.014   1.137   0.967  0.0242  0.3360 -0.3015
  261TIP3    H1  747   7.018   1.218   0.916  0.7067  0.1520 -0.5556
  261TIP3    H2  748   7.014   1.166   1.058  0.5624  0.6239 -0.3856
  262TIP3   OH2  749   1.145   4.894   3.496  0.5909  0.4060 -1.0478
  262TIP3    H1  750   1.196   4.819   3.467 -1.2814 -1.3301 -0.1182
  262TIP3    H2  751   1.133   4.881   3.590  1.4408  2.6990 -0.5380
  263TIP3   OH2  752   5.150   5.657   2.648  0.1198 -0.3479  0.6146
  263TIP3    H1  753   5.183   5.586   2.703  0.9914 -1.3928 -1.1648
  263TIP3    H2  754   5.170   5.630   2.559 -0.6424  1.5873 -0.2114
  264TIP3   OH2  755   4.147   5.123   3.837 -0.2560  0.1699 -0.5386
  264TIP3    H1  756   4.155   5.194   3.901  1.4428  0.1921 -0.7310
  264TIP3    H2  757   4.184   5.047   3.881 -1.1835 -0.3952 -0.6927
  265TIP3   OH2  758   5.972   4.006   5.548  0.0252 -0.2992 -0.0056
  265TIP3    H1  759   6.016   3.931   5.588  0.9681  0.0767 -0.3197
  265TIP3    H2  760   5.916   4.041   5.617 -0.0586 -0.9919  0.2883
  266TIP3   OH2  761   1.074   4.587   1.406  0.1433 -0.1045 -0.2613
  266TIP3    H1  762   0.985   4.618   1.422  0.0471  0.1146 -1.2068
  266TIP3    H2  763   1.114   4.655   1.352  0.1464 -1.2812 -1.7994
  267TIP3   OH2  764   5.376   6.271   4.629  0.3971 -0.3339 -0.8192
  267TIP3    H1  765   5.362   6.283   4.535  0.1778  0.6339 -0.6744
  267TIP3    H2  766   5.394   6.177   4.638 -1.7444 -0.8899 -1.5772
  268TIP3   OH2  767   4.725   0.542   3.705 -0.2888  0.3121  0.3650
  268TIP3    H1  768   4.665   0.483   3.751  1.3215 -0.1600  1.9518
  268TIP3    H2  769   4.687   0.629   3.719 -0.5516  0.0379  1.4536
  269TIP3   OH2  770   0.751   5.606   1.476 -0.2366 -0.4270  0.1308
  269TIP3    H1  771   0.710   5.693   1.473 -0.1946 -0.4074  0.1278
  269TIP3    H2  772   0.782   5.598   1.566 -0.7614 -0.6759  0.2957
  270TIP3   OH2  773   7.111   0.573   5.632  0.2145 -0.5203  0.5057
  270TIP3    H1  774   7.095   0.577   5.726 -1.4226  2.0604  0.2134
  270TIP3    H2  775   7.057   0.500   5.601  0.0811 -0.8292  1.4444
  271TIP3   OH2  776   1.557   4.082   1.477 -0.4784  0.5818 -0.2674
  271TIP3    H1  777   1.504   4.047   1.406  0.7907  0.3494 -1.1385
  271TIP3    H2  778   1.503   4.151   1.516 -1.2443  0.6279 -1.3707
  272TIP3   OH2  779   0.828   1.956   1.382  0.2592 -0.0191  0.0644
  272TIP3    H1  780   0.899   1.903   1.345 -0.1712 -0.5815  0.0290
  272TIP3    H2  781   0.768   1.970   1.309 -1.3909 -2.4595  0.8187
  273TIP3   OH2  782   5.847   6.121   3.059 -0.7669 -0.1014  0.3364
  273TIP3    H1  783   5.932   6.154   3.031 -1.5528  0.3647 -1.6586
  273TIP3    H2  784   5.867   6.038   3.103  0.6535 -0.5031 -0.9700
  274TIP3   OH2  785   5.150   2.406   5.819  0.2231  0.0422  0.3526
  274TIP3    H1  786   5.080   2.449   5.869 -1.5271 -0.7693 -1.2773
  274TIP3    H2  787   5.214   2.476   5.802 -1.5364  1.5422 -0.4506
  275TIP3   OH2  788   0.766   0.719   1.004  0.2109 -0.2760  0.2112
  275TIP3    H1  789   0.847   0.668   1.003  0.8535  0.6892  1.0024
  275TIP3    H2  790   0.775   0.780   0.930  0.1992 -0.1830  0.2860
  276TIP3   OH2  791   1.974   1.552   1.509 -0.0148 -0.5402 -0.4913
  276TIP3    H1  792   2.020   1.625   1.549  0.6355 -0.9708 -0.4464
  276TIP3    H2  793   2.037   1.513   1.449 -1.0235  0.2117 -2.1157
  277TIP3   OH2  794   0.448   2.797   4.570  0.3739  0.0212  0.4510
  277TIP3    H1  795   0.376   2.860   4.575 -0.1605 -0.6721  1.9260
  277TIP3    H2  796   0.527   2.849   4.585  0.1301  0.6635 -0.4239
  278TIP3   OH2  797   1.649   4.863   1.307 -0.2300  0.4544 -0.0266
  278TIP3    H1  798   1.570   4.871   1.252 -1.3519  0.3817  1.5054
  278TIP3    H2  799   1.659   4.948   1.348 -1.3573 -0.3788  2.1284
  279TIP3   OH2  800   6.100   0.247   3.838 -0.1777 -0.0673  0.2827
  279TIP3    H1  801   6.028   0.221   3.895 -0.8543 -1.0788 -0.9737
  279TIP3    H2  802   6.150   0.167   3.824  2.0739  0.8679  2.2336
  280TIP3   OH2  803   3.597   3.175   3.378  0.5864 -0.3647  0.0813
  280TIP3    H1  804   3.674   3.194   3.431  1.4457  0.1218 -1.2887
  280TIP3    H2  805   3.567   3.090   3.410  2.0009 -0.8119  0.3067
  281TIP3   OH2  806   5.197   2.925   2.635  0.0559 -0.1875 -0.1222
  281TIP3    H1  807   5.146   2.850   2.605 -1.4872  0.6968  0.1824
  281TIP3    H2  808   5.143   3.001   2.614  2.4051  1.0444 -2.1882
  282TIP3   OH2  809   4.520   0.093   3.323  0.1114 -0.2638  0.5824
  282TIP3    H1  810   4.558   0.072   3.238  1.4145  0.4225  0.9717
  282TIP3    H2  811   4.591   0.074   3.385 -0.7224 -0.4581  1.4864
  283TIP3   OH2  812   2.205   5.785   1.129  0.0030  0.5745 -0.3560
  283TIP3    H1  813   2.288   5.745   1.104 -0.7978 -0.5518 -1.2958
  283TIP3    H2  814   2.229   5.872   1.161  1.7405 -0.4084  1.2340
  284TIP3   OH2  815   5.115   1.159   5.121 -0.4091  0.4230  0.0103
  284TIP3    H1  816   5.185   1.178   5.058  0.8588  0.2243  1.3080
  284TIP3    H2  817   5.047   1.117   5.068  0.4752  0.5424 -1.2852
  285TIP3   OH2  818   6.630   0.322   4.203  0.3552  0.6647  0.4641
  285TIP3    H1  819   6.557   0.353   4.149 -0.5163  1.0446  1.8064
  285TIP3    H2  820   6.706   0.326   4.146 -1.1314 -3.1056 -2.2476
  286TIP3   OH2  821   1.437   0.025   2.415  0.2502 -0.3794 -0.1041
  286TIP3    H1  822   1.379  -0.027   2.471  1.3352 -0.5910  0.8604
  286TIP3    H2  823   1.386   0.104   2.396 -1.6150 -1.9020 -1.9799
  287TIP3   OH2  824   4.425   5.524   1.088 -0.5076 -0.3204 -0.1225
  287TIP3    H1  825   4.460   5.439   1.062 -2.1283 -0.8822 -0.6011
  287TIP3    H2  826   4.369   5.550   1.015 -1.5449  0.2492  0.8467
  288TIP3   OH2  827   6.973   3.817   0.917  0.5392  0.3768 -0.0973
  288TIP3    H1  828   7.009   3.757   0.981 -0.2816  1.9971  2.0122
  288TIP3    H2  829   6.940   3.761   0.847  1.0903 -1.4911  1.0677
  289TIP3   OH2  830   3.275   3.743   2.450 -0.3227 -0.1727  0.8042
  289TIP3    H1  831   3.272   3.677   2.519 -1.7513 -1.8411 -0.7712
  289TIP3    H2  832   3.366   3.774   2.450 -0.1601 -0.4954  3.0250
  290TIP3   OH2  833   1.192   5.721   1.234  0.2049 -0.1593 -0.4177
  290TIP3    H1  834   1.114   5.674   1.265  0.3134 -0.3783 -0.4767
  290TIP3    H2  835   1.198   5.797   1.292 -0.1400 -0.0611 -0.5074
  291TIP3   OH2  836   4.749   4.722   1.268 -0.5171  0.9225  0.0170
  291TIP3    H1  837   4.840   4.734   1.296  0.5335  0.3260 -2.8442
  291TIP3    H2  838   4.713   4.659   1.330  0.7422  1.7280  1.6593
  292TIP3   OH2  839   0.262   6.471   3.200 -0.3111  0.5043  0.4085
  292TIP3    H1  840   0.245   6.526   3.124 -0.8459  0.2482  0.3402
  292TIP3    H2  841   0.347   6.501   3.233 -0.1156  0.6649 -0.2407
  293TIP3   OH2  842   1.162   1.504   5.378 -0.0697  0.1891 -0.0037
  293TIP3    H1  843   1.240   1.485   5.430  2.1092  3.0041 -1.9115
  293TIP3    H2  844   1.126   1.583   5.418  0.5308  1.2756 -1.5239
  294TIP3   OH2  845   3.829   4.668   0.845  0.1706 -0.0633  0.2269
  294TIP3    H1  846   3.838   4.759   0.817 -1.0180 -0.8292 -3.0568
  294TIP3    H2  847   3.801   4.674   0.937 -0.2164  2.8682  0.0109
  295TIP3   OH2  848   6.713   2.739   5.452 -0.0480 -0.6529 -0.0084
  295TIP3    H1  849   6.737   2.831   5.462  0.3450 -0.7088 -0.3783
  295TIP3    H2  850   6.664   2.718   5.531  0.2440 -0.2424  0.2872
  296TIP3   OH2  851   0.962   5.552   4.855 -0.1332 -0.0653  0.0337
  296TIP3    H1  852   1.039   5.577   4.905 -0.1478  1.1359 -0.5252
  296TIP3    H2  853   0.888   5.564   4.915 -0.0094 -0.0454  0.1803
  297TIP3   OH2  854   3.955   4.386   0.977 -0.3786  0.8036 -0.3715
  297TIP3    H1  855   4.012   4.461   0.960 -1.7246  1.9993  0.1672
  297TIP3    H2  856   3.944   4.386   1.072  0.9857 -1.1717 -0.1550
  298TIP3   OH2  857   0.486   3.824   4.044 -0.3072  0.0560  0.2598
  298TIP3    H1  858   0.441   3.742   4.067  0.9980 -0.8241 -0.2133
  298TIP3    H2  859   0.441   3.854   3.965  0.2343 -1.1124 -0.5317
  299TIP3   OH2  860   6.738   1.004   2.599 -0.1873  0.0607 -0.1722
  299TIP3    H1  861   6.656   0.986   2.645  1.0304  0.0694  2.1676
  299TIP3    H2  862   6.761   0.921   2.557  0.6441 -1.2543  2.6469
  300TIP3   OH2  863   5.463   0.814   4.247 -0.1278  0.5297  0.0859
  300TIP3    H1  864   5.494   0.768   4.168  1.3581  1.8303 -0.1513
  300TIP3    H2  865   5.448   0.904   4.217  0.9811  1.1785  1.3559
  301TIP3   OH2  866   0.101   3.598   2.240 -0.0929 -0.1352  0.0386
  301TIP3    H1  867   0.025   3.561   2.194 -0.1641 -2.8246  2.0295
  301TIP3    H2  868   0.104   3.549   2.322  3.2878  0.5159  0.4316
  302TIP3   OH2  869   2.046   3.119   4.392 -0.4659 -0.7641 -0.1658
  302TIP3    H1  870   2.029   3.202   4.437 -1.4611 -1.1568  0.2004
  302TIP3    H2  871   1.966   3.102   4.342 -1.2157 -2.6188  1.5403
  303TIP3   OH2  872   6.286   1.769   4.634 -0.5549  0.6443  0.0282
  303TIP3    H1  873   6.350   1.815   4.579 -0.6517  0.8766  0.1100
  303TIP3    H2  874   6.332   1.755   4.717 -0.4710  0.4519 -0.0499
  304TIP3   OH2  875   4.979   1.672   1.112 -0.0995  0.2001  0.4644
  304TIP3    H1  876   5.062   1.676   1.065 -0.1909  0.3968  0.3135
  304TIP3    H2  877   4.979   1.749   1.169  1.0270 -1.2622  2.5507
  305TIP3   OH2  878  -0.004   1.011   2.980 -0.8847  0.0939 -0.5781
  305TIP3    H1  879  -0.030   0.965   2.900 -0.5021  0.7870 -1.1031
  305TIP3    H2  880   0.054   1.081   2.950 -0.8594  0.4510  0.2919
  306TIP3   OH2  881   3.559   6.064   2.071  0.0467 -0.4224  0.1927
  306TIP3    H1  882   3.476   6.099   2.039  0.4895  0.1987 -0.3055
  306TIP3    H2  883   3.626   6.118   2.028  0.7100 -0.9899  0.4954
  307TIP3   OH2  884   0.653   3.222   0.866 -0.6398  0.8991  0.1784
  307TIP3    H1  885   0.690   3.194   0.950 -0.6953  0.1716 -0.0310
  307TIP3    H2  886   0.562   3.242   0.886 -0.8498  0.0020  0.1496
  308TIP3   OH2  887   5.279   5.430   0.875  0.3003 -0.0036 -0.7407
  308TIP3    H1  888   5.356   5.398   0.829  0.2663 -1.1577 -0.0229
  308TIP3    H2  889   5.312   5.462   0.959  0.0767  0.0747 -0.6808
  309TIP3   OH2  890   6.969   5.521   2.286 -0.3041 -0.4177 -0.6128
  309TIP3    H1  891   6.984   5.494   2.195  0.2633  2.0121 -1.2930
  309TIP3    H2  892   7.036   5.475   2.335  0.3924 -0.5514 -1.6511
  310TIP3   OH2  893   4.846   0.703   0.309  0.5817  0.0594 -0.3409
  310TIP3    H1  894   4.808   0.618   0.333 -0.0739  0.7031  0.9877
  310TIP3    H2  895   4.778   0.767   0.329  1.6480  1.0593  0.2227
  311TIP3   OH2  896   1.748   0.184   4.295  1.0245 -0.3869  0.4693
  311TIP3    H1  897   1.810   0.133   4.243  2.5333  1.4363  0.3552
  311TIP3    H2  898   1.794   0.266   4.313 -1.0507  0.6934  1.1635
  312TIP3   OH2  899   4.153   5.213   1.729 -0.0452 -0.2502  0.0267
  312TIP3    H1  900   4.192   5.128   1.748  1.0460  0.2824  0.2363
  312TIP3    H2  901   4.070   5.192   1.687 -0.7227 -1.4448  1.8382
  313TIP3   OH2  902   3.190   1.976   3.075  0.0202 -0.3772  0.2940
  313TIP3    H1  903   3.116   2.013   3.123  0.1160 -0.7723  0.7568
  313TIP3    H2  904   3.264   2.033   3.097 -0.4666  1.0498 -1.5164
  314TIP3   OH2  905   2.947   3.975   0.667  0.0272  0.2580  0.2323
  314TIP3    H1  906   2.990   4.028   0.733  0.7999 -0.3666  0.2478
  314TIP3    H2  907   3.018   3.949   0.607 -0.7825  1.5980 -1.4073
  315TIP3   OH2  908   5.079   1.448   1.641 -0.4517 -0.5480 -0.3908
  315TIP3    H1  909   5.074   1.512   1.712 -0.5602  0.3770 -1.2096
  315TIP3    H2  910   5.066   1.499   1.561 -1.7591 -1.7707 -1.0071
  316TIP3   OH2  911   2.118   4.778   4.973  0.5401  0.7458  0.4693
  316TIP3    H1  912   2.119   4.768   5.068 -2.3584  0.0206  0.5192
  316TIP3    H2  913   2.178   4.711   4.940  3.0315  2.1968  1.7527
  317TIP3   OH2  914   6.044   5.936   3.645  0.3881  0.2365  0.3598
  317TIP3    H1  915   5.959   5.908   3.680  0.4901 -0.1608  0.2972
  317TIP3    H2  916   6.107   5.880   3.690  0.7540  1.4875  1.4651
  318TIP3   OH2  917   6.586   2.197   2.474 -0.6434  0.5328  0.5595
  318TIP3    H1  918   6.654   2.218   2.538  0.9995 -2.3756 -0.0344
  318TIP3    H2  919   6.526   2.139   2.521  0.3695 -1.3148 -0.3128
  319TIP3   OH2  920   1.008   0.886   5.367  0.0813  0.2302 -0.2780
  319TIP3    H1  921   0.937   0.941   5.333 -1.4114 -0.0050  2.2136
  319TIP3    H2  922   1.022   0.918   5.456  0.4267 -2.1960  0.6065
  320TIP3   OH2  923   1.321   1.947   5.570  0.1149  0.1387  0.5595
  320TIP3    H1  924   1.309   2.027   5.518  1.8233  0.4511  0.6007
  320TIP3    H2  925   1.239   1.898   5.557 -1.8110  2.7188  2.0848
  321TIP3   OH2  926   0.757   0.038   2.466 -0.0147  0.7030 -0.2293
  321TIP3    H1  927   0.666   0.020   2.445 -0.6646  1.3274  1.7885
  321TIP3    H2  928   0.786   0.102   2.400 -0.7687 -0.0913 -1.3488
  322TIP3   OH2  929   5.292   6.104   2.315  0.2976 -0.1175  0.4941
  322TIP3    H1  930   5.290   6.132   2.406  0.7383  2.4154 -0.1943
  322TIP3    H2  931   5.254   6.016   2.316 -1.9075  0.7300  2.7900
  323TIP3   OH2  932   6.142   5.228   1.160  0.3448 -0.0547  0.0666
  323TIP3    H1  933   6.194   5.153   1.190  0.6960  0.6001  1.1589
  323TIP3    H2  934   6.105   5.266   1.240 -0.2505  0.6327 -0.5171
  324TIP3   OH2  935   4.182   3.768   1.048  0.3965  0.0114 -0.1685
  324TIP3    H1  936   4.100   3.816   1.039  1.0109  1.4255  1.2187
  324TIP3    H2  937   4.243   3.814   0.991  0.7283  0.2566  0.3728
  325TIP3   OH2  938   3.499   1.334   0.970  0.5369  0.3313 -0.0309
  325TIP3    H1  939   3.445   1.326   0.891  1.6515 -0.4125 -0.7517
  325TIP3    H2  940   3.463   1.410   1.016  0.7687  1.7701 -2.0294
  326TIP3   OH2  941   1.080   2.430   2.758 -0.6603 -0.3404 -1.0416
  326TIP3    H1  942   1.038   2.361   2.809  0.5791  0.0407  0.6059
  326TIP3    H2  943   1.172   2.425   2.783 -0.3539  1.1436 -1.7834
  327TIP3   OH2  944   0.304   5.027   3.015 -0.1859  0.1498 -0.0729
  327TIP3    H1  945   0.264   5.038   3.101 -0.0314  0.8990 -0.0878
  327TIP3    H2  946   0.349   5.110   2.999 -1.1914  0.4680 -1.3874
  328TIP3   OH2  947   6.447   3.190   5.632 -0.0985  0.1413  0.2223
  328TIP3    H1  948   6.472   3.167   5.543  0.0691  1.7865 -0.1677
  328TIP3    H2  949   6.471   3.112   5.684  0.7132 -0.4511 -0.9943
  329TIP3   OH2  950   4.837   5.260   4.174  0.5953  0.4465  0.8272
  329TIP3    H1  951   4.880   5.174   4.175 -0.6431 -0.2748 -1.1010
  329TIP3    H2  952   4.894   5.316   4.226  2.3357 -1.1298  0.7339
  330TIP3   OH2  953   5.371   5.480   2.782  0.3550  0.0286 -0.8448
  330TIP3    H1  954   5.408   5.444   2.701  1.5308  1.9220 -1.2202
  330TIP3    H2  955   5.448   5.500   2.836 -0.4038 -1.0438  0.7224
  331TIP3   OH2  956   5.825   3.603   2.823  0.3824  0.0221  0.6937
  331TIP3    H1  957   5.774   3.580   2.900  1.6815 -0.5772  1.4075
  331TIP3    H2  958   5.777   3.675   2.783 -0.7640 -0.2127  1.5783
  332TIP3   OH2  959   0.284   5.610   2.773 -0.0932  0.0240  0.7897
  332TIP3    H1  960   0.334   5.690   2.791  0.4914 -0.2728  0.5259
  332TIP3    H2  961   0.350   5.541   2.768 -0.5710 -0.4430  0.8062
  333TIP3   OH2  962   3.729   2.609   1.814  0.1981 -0.5771  0.2378
  333TIP3    H1  963   3.675   2.534   1.842 -1.0725  1.1213  2.7293
  333TIP3    H2  964   3.814   2.592   1.853 -0.1197 -0.6892  0.9000
  334TIP3   OH2  965   2.881   5.142   4.957 -0.3109 -0.2911  0.0863
  334TIP3    H1  966   2.800   5.105   4.924 -0.9667  0.9904  0.1914
  334TIP3    H2  967   2.950   5.098   4.908 -1.0827 -1.1735 -0.2173
  335TIP3   OH2  968   3.668   6.609   3.312  0.0317 -0.3957  0.1561
  335TIP3    H1  969   3.692   6.633   3.402 -0.6718 -0.5623  0.4027
  335TIP3    H2  970   3.590   6.663   3.294  1.2722  1.0673 -1.0684
  336TIP3   OH2  971   6.625   2.520   1.847  0.3305 -0.8983  0.3029
  336TIP3    H1  972   6.597   2.530   1.756 -0.1892  0.8944  0.6226
  336TIP3    H2  973   6.555   2.561   1.898  1.4837 -0.2296  1.3948
  337TIP3   OH2  974   1.205   3.560   4.633  0.2656  0.2787  0.2339
  337TIP3    H1  975   1.296   3.565   4.662  0.0189  0.4022  0.9811
  337TIP3    H2  976   1.158   3.523   4.707 -0.6371  2.0345  0.5739
  338TIP3   OH2  977   1.807   0.948   0.199 -0.2458  0.3376 -0.0291
  338TIP3    H1  978   1.813   0.860   0.162  0.5307  0.0545  0.7445
  338TIP3    H2  979   1.753   0.996   0.136 -0.5731 -0.6451 -0.5305
  339TIP3   OH2  980   4.512   5.924   0.927  0.2347  0.0763  0.0971
  339TIP3    H1  981   4.530   6.017   0.940  1.7314 -0.1035 -0.4871
  339TIP3    H2  982   4.542   5.906   0.837  3.0492 -1.6269  1.2544
  340TIP3   OH2  983   6.917   5.699   3.135  0.3269 -0.4875  0.9329
  340TIP3    H1  984   6.942   5.791   3.135  2.0466 -0.9149  0.6627
  340TIP3    H2  985   6.919   5.673   3.043  4.0480 -1.7730  1.2199
  341TIP3   OH2  986   6.498   0.396   3.422 -0.0194  0.0925  0.2634
  341TIP3    H1  987   6.494   0.491   3.419  1.2209  0.1899  0.8856
  341TIP3    H2  988   6.586   0.375   3.390 -0.2037 -0.8247  0.3316
  342TIP3   OH2  989   1.377   1.813   3.341 -0.1317  0.1253 -0.0118
  342TIP3    H1  990   1.395   1.784   3.430 -0.4245  0.9366  0.3177
  342TIP3    H2  991   1.296   1.767   3.317  0.5040 -0.9042 -0.2592
  343TIP3   OH2  992   1.547   4.801   0.883  0.7498  0.2668  0.2097
  343TIP3    H1  993   1.627   4.767   0.923 -1.2563 -1.8589  2.7783
  343TIP3    H2  994   1.529   4.882   0.930  0.3720 -0.3155  1.1035
  344TIP3   OH2  995   2.009   6.755   5.449  0.3159  0.2677 -0.2401
  344TIP3    H1  996   1.959   6.837   5.452  1.3188  0.8777  1.3853
  344TIP3    H2  997   1.942   6.687   5.449 -0.5833  1.0667  1.3301
  345TIP3   OH2  998   2.607   2.694   3.299  0.4844 -0.6559  0.2278
  345TIP3    H1  999   2.686   2.719   3.251  1.3388 -0.8710  1.4691
  345TIP3    H2 1000   2.630   2.612   3.342 -0.7312 -1.1903 -0.1042
  346TIP3   OH2 1001   2.746   3.429   1.435  0.5810  0.0987 -0.1690
  346TIP3    H1 1002   2.729   3.343   1.474  1.3511 -0.1111 -0.2850
  346TIP3    H2 1003   2.686   3.488   1.481  0.3037 -0.4331  0.1667
  347TIP3   OH2 1004   2.043   5.799   4.248  0.5444  0.1586 -0.1323
  347TIP3    H1 1005   2.066   5.892   4.255 -0.7236  0.5744 -1.0744
  347TIP3    H2 1006   2.068   5.761   4.332  1.2572  1.3032  0.1975
  348TIP3   OH2 1007   0.966   4.399   4.667 -0.3426  0.0095  0.1731
  348TIP3    H1 1008   1.013   4.361   4.592  0.7901  0.7256  0.5083
  348TIP3    H2 1009   0.963   4.328   4.731  1.4110  0.3166  0.6377
  349TIP3   OH2 1010   5.583   5.749   0.804 -0.5517  0.2678 -0.0729
  349TIP3    H1 1011   5.604   5.842   0.811  1.3802 -0.2536  1.9393
  349TIP3    H2 1012   5.559   5.737   0.712  1.1103  2.3761 -0.8584
  350TIP3   OH2 1013   6.750   0.442   1.204 -0.6508 -0.4366  0.3018
  350TIP3    H1 1014   6.745   0.376   1.273  0.5649  0.5059  1.3294
  350TIP3    H2 1015   6.810   0.508   1.238 -1.2933  0.8667 -0.9930
  351TIP3   OH2 1016   5.652   5.802   5.190  0.2331  0.1210 -0.6132
  351TIP3    H1 1017   5.621   5.873   5.245  0.2962  0.2295 -0.7155
  351TIP3    H2 1018   5.744   5.791   5.215  0.1599 -0.0750 -0.4397
  352TIP3   OH2 1019   7.091   3.555   1.794  0.5882  0.3905  0.0941
  352TIP3    H1 1020   7.186   3.549   1.797  0.5325 -1.3133 -0.5523
  352TIP3    H2 1021   7.069   3.534   1.703 -0.4628 -0.3673  0.5101
  353TIP3   OH2 1022   5.500   1.123   4.244 -0.7149  0.0070 -0.2949
  353TIP3    H1 1023   5.458   1.205   4.268  0.1259  0.5730 -0.6900
  353TIP3    H2 1024   5.435   1.076   4.192 -0.8502  0.8685 -0.9240
  354TIP3   OH2 1025   3.284   6.644   4.260 -0.2699 -1.3430  0.3695
  354TIP3    H1 1026   3.373   6.647   4.226 -0.8636 -1.1758 -1.2826
  354TIP3    H2 1027   3.293   6.613   4.350  1.3720 -2.2104 -0.0606
  355TIP3   OH2 1028   1.382   1.884   4.427  0.0730  0.1874 -0.0392
  355TIP3    H1 1029   1.383   1.945   4.501  0.2861 -0.8490  0.8350
  355TIP3    H2 1030   1.460   1.906   4.376 -0.2657  1.1393 -0.1566
  356TIP3   OH2 1031   3.534   0.420   5.663  0.0782 -0.3426  0.0590
  356TIP3    H1 1032   3.599   0.474   5.618  0.5398  0.2246  1.3509
  356TIP3    H2 1033   3.496   0.478   5.728 -1.9373 -0.5842 -0.8170
  357TIP3   OH2 1034   0.190   4.002   4.820 -0.3980 -0.1727  0.0440
  357TIP3    H1 1035   0.206   4.004   4.726  1.3272  0.0203  0.3222
  357TIP3    H2 1036   0.160   4.090   4.841  0.5899  0.2068 -0.1088
  358TIP3   OH2 1037   1.070   0.597   4.001 -0.2954  0.0276 -0.1777
  358TIP3    H1 1038   1.104   0.687   4.004 -0.3108  0.0291 -0.0403
  358TIP3    H2 1039   1.084   0.563   4.089  1.1501 -0.6407 -0.6337
  359TIP3   OH2 1040   4.570   3.861   0.152 -0.2055 -0.2872  0.2825
  359TIP3    H1 1041   4.601   3.833   0.067  1.0788  0.1951  0.5677
  359TIP3    H2 1042   4.571   3.957   0.147 -0.9841 -0.2582  0.5451
  360TIP3   OH2 1043   2.540   5.343   0.316 -0.6589  1.2130 -0.0057
  360TIP3    H1 1044   2.511   5.424   0.275 -0.4769  1.1165 -0.3252
  360TIP3    H2 1045   2.532   5.359   0.410 -2.2262  1.0208 -0.0770
  361TIP3   OH2 1046   3.984   5.965   0.419 -0.1057  0.0495  0.3757
  361TIP3    H1 1047   3.897   6.005   0.419  0.0109  0.3275  1.3097
  361TIP3    H2 1048   4.003   5.950   0.327 -0.5578  1.2596  0.0652
  362TIP3   OH2 1049   6.292   4.859   0.251 -0.3852 -0.1839  0.1182
  362TIP3    H1 1050   6.217   4.808   0.280 -0.1296 -0.3468  0.5002
  362TIP3    H2 1051   6.356   4.850   0.322 -0.5839  1.2068  0.4977
  363TIP3   OH2 1052   4.787   1.472   2.194 -0.3884  0.1212  0.5440
  363TIP3    H1 1053   4.843   1.507   2.263 -0.6966  0.3973  0.6521
  363TIP3    H2 1054   4.749   1.393   2.232 -0.4955  0.2295  0.6612
  364TIP3   OH2 1055   4.034   4.297   0.129  0.5629 -0.0752 -0.1591
  364TIP3    H1 1056   3.958   4.253   0.089  1.1389  0.3332 -1.7846
  364TIP3    H2 1057   4.095   4.227   0.149  0.8509 -0.1730 -1.3399
  365TIP3   OH2 1058   7.101   3.186   0.677  0.3648  0.4836  0.0144
  365TIP3    H1 1059   7.072   3.216   0.764 -0.8413 -0.0568 -0.1762
  365TIP3    H2 1060   7.145   3.261   0.639 -0.7998  1.3634  0.3470
  366TIP3   OH2 1061   3.839   0.342   4.666  0.6048 -0.4138  0.1404
  366TIP3    H1 1062   3.924   0.338   4.711 -0.8454 -0.8846  3.0972
  366TIP3    H2 1063   3.816   0.250   4.651 -0.2984 -0.4024  1.3291
  367TIP3   OH2 1064   0.047   0.448   2.591 -0.7665  0.1692 -0.0407
  367TIP3    H1 1065   0.052   0.544   2.584 -0.3823  0.0746 -1.3885
  367TIP3    H2 1066  -0.027   0.424   2.536 -0.5794 -0.3416 -0.0715
  368TIP3   OH2 1067   3.588   1.533   0.111  0.3985 -0.2597  0.3975
  368TIP3    H1 1068   3.650   1.479   0.062 -0.2056 -0.9140  0.3444
  368TIP3    H2 1069   3.585   1.493   0.198  2.3764  1.5823  1.4376
  369TIP3   OH2 1070   4.343   3.217   4.784 -0.0587  0.1410 -0.2509
  369TIP3    H1 1071   4.373   3.255   4.866  0.6777 -1.2987  0.1802
  369TIP3    H2 1072   4.256   3.254   4.770  0.1675  1.0684  0.7226
  370TIP3   OH2 1073   3.433   6.714   1.903 -0.1933 -0.4688 -0.5579
  370TIP3    H1 1074   3.387   6.711   1.987 -1.7887 -0.1747 -1.3850
  370TIP3    H2 1075   3.388   6.783   1.854  2.1750  0.9556 -0.8456
  371TIP3   OH2 1076   2.564   2.458   4.537  0.1158 -0.3064 -0.2046
  371TIP3    H1 1077   2.634   2.393   4.545  0.4893  0.1785  0.5634
  371TIP3    H2 1078   2.508   2.442   4.612 -0.7931 -0.8984 -0.9874
  372TIP3   OH2 1079   7.073   3.922   2.987 -0.0200 -0.5248 -0.2792
  372TIP3    H1 1080   7.054   4.016   2.984 -0.4518 -0.5712  0.5567
  372TIP3    H2 1081   7.072   3.894   2.896  1.2706  0.4963 -0.6542
  373TIP3   OH2 1082   3.966   1.242   1.391  0.0080  0.0234 -0.6688
  373TIP3    H1 1083   3.921   1.178   1.446 -1.9934  0.6872 -1.4672
  373TIP3    H2 1084   4.050   1.200   1.369 -0.1301 -1.2013  0.9584
  374TIP3   OH2 1085   4.486   1.429   2.817 -0.0915 -0.3985 -0.0279
  374TIP3    H1 1086   4.527   1.498   2.870  0.5111 -0.2995 -0.6103
  374TIP3    H2 1087   4.394   1.455   2.811  0.0957  0.2659 -0.0943
  375TIP3   OH2 1088   5.377   3.474   2.675  0.1953  0.0742  0.0107
  375TIP3    H1 1089   5.329   3.444   2.598  0.8462 -0.5390 -0.1636
  375TIP3    H2 1090   5.309   3.504   2.736 -0.4484 -1.2187 -0.0386
  376TIP3   OH2 1091   0.908   0.986   5.613  0.1153  0.3619  0.2553
  376TIP3    H1 1092   0.837   0.923   5.600  0.3792 -0.1675  1.3050
  376TIP3    H2 1093   0.870   1.070   5.589 -0.3471 -0.1411 -0.8249
  377TIP3   OH2 1094   1.499   6.011   3.220  0.2924 -0.2060 -0.1960
  377TIP3    H1 1095   1.527   5.991   3.309  0.6146 -1.2770 -0.5238
  377TIP3    H2 1096   1.545   5.948   3.165 -0.2630  0.1310 -1.0763
  378TIP3   OH2 1097   3.842   3.041   1.107 -0.2036 -0.3719 -0.0388
  378TIP3    H1 1098   3.870   2.978   1.040  0.3912  0.2656 -0.4041
  378TIP3    H2 1099   3.864   2.999   1.190 -0.9120 -1.1551 -0.2343
  379TIP3   OH2 1100   5.509   5.051   3.295 -0.0058  0.1560  0.1056
  379TIP3    H1 1101   5.455   5.120   3.333  0.2962  1.9738 -2.5334
  379TIP3    H2 1102   5.588   5.096   3.265  1.1481 -1.7289  0.1591
  380TIP3   OH2 1103   4.604   1.619   5.148  0.0454 -0.0606  0.9925
  380TIP3    H1 1104   4.557   1.541   5.177 -1.6114  0.8555  0.9525
  380TIP3    H2 1105   4.673   1.631   5.213 -0.2075 -1.0820  1.4688
  381TIP3   OH2 1106   6.787   2.127   5.646 -0.0848  0.0263  0.0819
  381TIP3    H1 1107   6.790   2.032   5.636 -0.8120  0.0596 -0.4662
  381TIP3    H2 1108   6.805   2.141   5.739 -1.6715 -0.7554  0.5426
  382TIP3   OH2 1109   5.983   4.600   4.703 -0.4923 -0.6721  0.2839
  382TIP3    H1 1110   6.013   4.603   4.794  0.3613 -1.5692  0.0456
  382TIP3    H2 1111   5.970   4.692   4.680 -1.4918 -0.4624  1.5452
  383TIP3   OH2 1112   5.039   6.646   5.156 -0.1867 -0.0762  0.3755
  383TIP3    H1 1113   4.982   6.619   5.084 -2.0990  0.7118  1.5011
  383TIP3    H2 1114   5.091   6.718   5.120 -1.2382  0.4238 -0.1872
  384TIP3   OH2 1115   4.948   2.013   3.468  0.4878  0.0745 -0.3628
  384TIP3    H1 1116   4.967   1.923   3.445 -1.1245 -0.7916  1.4251
  384TIP3    H2 1117   4.989   2.025   3.554  0.3599  0.9322 -0.4099
  385TIP3   OH2 1118   0.284   5.103   5.485  0.7798  0.2160 -0.6984
  385TIP3    H1 1119   0.246   5.189   5.503 -0.9537 -0.7575  0.5159
  385TIP3    H2 1120   0.235   5.071   5.409  1.8588  0.5248 -1.5538
  386TIP3   OH2 1121   2.103   4.867   0.358 -0.5390  0.3410 -0.3186
  386TIP3    H1 1122   2.017   4.834   0.333 -0.4782 -0.3495  0.3454
  386TIP3    H2 1123   2.150   4.790   0.390  1.3007  0.1177 -3.1704
  387TIP3   OH2 1124   4.431   5.352   1.339 -0.1008  0.2623  0.1041
  387TIP3    H1 1125   4.498   5.375   1.274 -0.7158 -0.4897 -0.8415
  387TIP3    H2 1126   4.361   5.416   1.324 -0.7473 -0.6197 -0.8206
  388TIP3   OH2 1127   6.419   4.104   3.541 -0.3478 -0.0897 -0.5311
  388TIP3    H1 1128   6.417   4.085   3.447 -2.0869  1.3964 -0.8545
  388TIP3    H2 1129   6.456   4.192   3.547  0.4105 -0.4469  0.2621
  389TIP3   OH2 1130   5.333   6.433   4.868 -0.3341 -0.7183 -0.6734
  389TIP3    H1 1131   5.408   6.386   4.903  0.5138 -0.1632 -1.6491
  389TIP3    H2 1132   5.303   6.379   4.795 -0.0788 -0.3329 -1.0717
  390TIP3   OH2 1133   2.694   0.282   5.146  0.5315 -0.3612  0.0255
  390TIP3    H1 1134   2.718   0.347   5.081 -0.2440  1.7689  1.7180
  390TIP3    H2 1135   2.771   0.274   5.202 -0.0524  0.7831  1.0530
  391TIP3   OH2 1136   1.687   6.701   1.355  0.5927  0.1513  0.0531
  391TIP3    H1 1137   1.714   6.760   1.284 -0.8332  1.4702  0.5524
  391TIP3    H2 1138   1.708   6.750   1.435  0.6277 -0.6031  0.5119
  392TIP3   OH2 1139   5.520   2.078   5.438  0.5856  0.5140  0.6266
  392TIP3    H1 1140   5.534   1.987   5.412 -1.2201  0.0676  1.0684
  392TIP3    H2 1141   5.466   2.114   5.369 -0.6263  0.5618  1.5645
  393TIP3   OH2 1142   6.875   4.605   3.166  0.5870  0.1059 -0.2160
  393TIP3    H1 1143   6.854   4.549   3.091 -0.3300 -0.8741  0.7452
  393TIP3    H2 1144   6.818   4.682   3.154  0.7974  0.1819 -0.7753
  394TIP3   OH2 1145   6.741   0.563   5.836  0.0397  0.1449 -0.0108
  394TIP3    H1 1146   6.669   0.533   5.892 -0.2928 -0.3424 -0.6739
  394TIP3    H2 1147   6.708   0.643   5.796 -0.8446 -0.9521 -1.6082
  395TIP3   OH2 1148   4.833   4.549   3.701 -0.1223 -0.2113 -0.3599
  395TIP3    H1 1149   4.800   4.512   3.783 -2.1775  1.4899 -0.3063
  395TIP3    H2 1150   4.826   4.478   3.638  1.4036 -1.5200  0.8757
  396TIP3   OH2 1151   0.356   5.987   3.880  0.6058  0.0818 -0.3405
  396TIP3    H1 1152   0.361   5.942   3.796 -0.6650  0.5021 -0.6699
  396TIP3    H2 1153   0.262   6.000   3.894  0.9140  2.4574 -0.1543
  397TIP3   OH2 1154   3.293   3.339   2.361 -0.1791  0.3295  0.0309
  397TIP3    H1 1155   3.324   3.292   2.283 -0.8623 -0.6188  0.3147
  397TIP3    H2 1156   3.374   3.361   2.408  0.2037  0.3143 -0.5938
  398TIP3   OH2 1157   0.616   0.826   5.269 -0.1779  0.1270  0.0792
  398TIP3    H1 1158   0.619   0.877   5.188  2.6174  1.0035  0.6148
  398TIP3    H2 1159   0.588   0.889   5.336 -2.7810 -0.6670 -0.1594
  399TIP3   OH2 1160   4.457   5.137   4.841  0.5162 -0.6828  0.3878
  399TIP3    H1 1161   4.412   5.153   4.924  2.9867 -2.9977  2.3743
  399TIP3    H2 1162   4.405   5.069   4.798 -0.0706 -0.4017  0.6500
  400TIP3   OH2 1163   3.742   3.407   3.678 -0.2441  0.0620 -0.1403
  400TIP3    H1 1164   3.724   3.333   3.735  1.0528  0.2306  0.5265
  400TIP3    H2 1165   3.656   3.447   3.662 -1.1493 -2.1989 -1.4403
  401TIP3   OH2 1166   6.446   2.554   5.907 -0.7649 -0.3894  0.2207
  401TIP3    H1 1167   6.516   2.529   5.847 -1.4257  1.2804 -1.3272
  401TIP3    H2 1168   6.367   2.555   5.853 -1.6990 -0.5218  1.5330
  402TIP3   OH2 1169   2.253   1.311   0.095  0.0720  0.2389 -0.0434
  402TIP3    H1 1170   2.336   1.269   0.072  0.1980  0.1941  0.4589
  402TIP3    H2 1171   2.278   1.375   0.162 -0.3387  0.0397  0.3006
  403TIP3   OH2 1172   3.120   1.357   1.038  0.1886 -0.1365  0.2116
  403TIP3    H1 1173   3.085   1.269   1.024  1.0763 -0.7822  1.7536
  403TIP3    H2 1174   3.104   1.375   1.131 -0.9828  1.8241 -0.3025
  404TIP3   OH2 1175   0.653   0.571   2.896  0.1842 -0.0905  0.5402
  404TIP3    H1 1176   0.737   0.524   2.892  0.3647  0.1124  1.7322
  404TIP3    H2 1177   0.677   0.664   2.893 -0.1029 -0.0327 -0.5796
  405TIP3   OH2 1178   1.845   4.343   3.782  0.2288 -0.5281  0.3778
  405TIP3    H1 1179   1.804   4.353   3.867  0.9412 -0.6455  0.7504
  405TIP3    H2 1180   1.846   4.248   3.767 -0.0724 -0.4961  0.1467
  406TIP3   OH2 1181   1.360   1.161   5.342 -0.3151  0.2710  0.0498
  406TIP3    H1 1182   1.298   1.216   5.294 -0.2743  0.0470 -0.2655
  406TIP3    H2 1183   1.339   1.175   5.434 -0.0416  1.1292 -0.0007
  407TIP3   OH2 1184   0.623   4.974   2.407  0.6305 -0.1012  0.2554
  407TIP3    H1 1185   0.594   4.883   2.403  1.2184 -0.3824  1.8521
  407TIP3    H2 1186   0.707   4.975   2.360  0.3495 -0.2448 -0.2611
  408TIP3   OH2 1187   0.021   1.735   3.772 -0.2828  0.3941 -0.2504
  408TIP3    H1 1188   0.094   1.719   3.712 -0.1761  1.5411 -0.4426
  408TIP3    H2 1189   0.050   1.807   3.827 -0.7768  0.0130  0.5240
  409TIP3   OH2 1190   2.606   2.115   4.214  0.0432 -0.2816 -0.1335
  409TIP3    H1 1191   2.648   2.032   4.191 -0.0522 -0.1542 -0.7772
  409TIP3    H2 1192   2.633   2.131   4.305 -0.8702 -1.5866  0.3928
  410TIP3   OH2 1193   6.432   4.954   2.230  0.1178  0.3772  0.1656
  410TIP3    H1 1194   6.475   4.871   2.206 -0.4667  0.4687 -1.2893
  410TIP3    H2 1195   6.341   4.941   2.206 -0.5312  0.5344  2.3459
  411TIP3   OH2 1196   5.710   1.565   5.082  0.3709  0.6116  0.2587
  411TIP3    H1 1197   5.653   1.638   5.058 -0.4554 -0.4826 -1.3010
  411TIP3    H2 1198   5.679   1.539   5.169 -1.6413  0.0014 -0.5721
  412TIP3   OH2 1199   6.028   3.233   2.747 -1.0030 -0.1286 -0.0024
  412TIP3    H1 1200   6.019   3.222   2.842 -2.5727  0.1774 -0.0913
  412TIP3    H2 1201   5.998   3.149   2.711  0.0485 -0.4226 -0.2362
  413TIP3   OH2 1202   3.725   0.844   0.657 -0.0603 -0.2256  0.0290
  413TIP3    H1 1203   3.717   0.843   0.562 -1.9543  0.7432  0.1215
  413TIP3    H2 1204   3.809   0.887   0.674  0.6807 -1.1533 -1.1908
  414TIP3   OH2 1205   2.811   0.858   0.407  0.0900 -0.2570  0.3593
  414TIP3    H1 1206   2.828   0.796   0.336  1.5870  0.4911  0.0201
  414TIP3    H2 1207   2.810   0.804   0.486 -0.7664 -0.9834 -0.1250
  415TIP3   OH2 1208   4.870   6.373   2.866  0.3532 -0.2483 -0.2006
  415TIP3    H1 1209   4.818   6.426   2.805  0.2232 -1.9509 -1.6559
  415TIP3    H2 1210   4.951   6.354   2.817  0.3860 -1.3831  0.2660
  416TIP3   OH2 1211   3.240   5.233   5.094 -0.3781  0.2783  0.4720
  416TIP3    H1 1212   3.330   5.237   5.125 -0.5817 -0.4912  1.1807
  416TIP3    H2 1213   3.218   5.324   5.074  1.2669  0.2604 -1.8439
  417TIP3   OH2 1214   1.370   0.199   3.574 -0.2245  0.1630 -0.2754
  417TIP3    H1 1215   1.437   0.267   3.570 -0.8301  0.8422  0.7342
  417TIP3    H2 1216   1.292   0.241   3.539 -1.0710  0.6127  2.0014
  418TIP3   OH2 1217   6.273   5.346   2.138 -0.3239  0.1812  0.1968
  418TIP3    H1 1218   6.246   5.307   2.221 -0.5801 -0.6771 -0.2690
  418TIP3    H2 1219   6.202   5.407   2.116 -0.6461 -0.1785  0.2252
  419TIP3   OH2 1220   5.364   0.644   1.567 -0.4740 -0.2104  0.5808
  419TIP3    H1 1221   5.372   0.694   1.486  1.7077 -0.7457  0.3867
  419TIP3    H2 1222   5.341   0.709   1.634  0.9080  0.8517  0.0785
  420TIP3   OH2 1223   3.789   5.763   4.858  0.0781  0.2094  0.3589
  420TIP3    H1 1224   3.810   5.851   4.826  1.9079  0.0707  1.0664
  420TIP3    H2 1225   3.704   5.743   4.818 -1.0948  2.8303  1.2927
  421TIP3   OH2 1226   1.684   1.993   0.545 -0.2421 -0.0601  0.0257
  421TIP3    H1 1227   1.593   1.985   0.514 -0.3170 -0.2348  0.2901
  421TIP3    H2 1228   1.688   1.936   0.622  0.1356 -0.1802 -0.0819
  422TIP3   OH2 1229   6.240   6.417   0.485  0.3232  0.3320 -0.2443
  422TIP3    H1 1230   6.179   6.448   0.417  0.5220  0.1751 -0.4974
  422TIP3    H2 1231   6.225   6.475   0.559 -1.1199 -0.5289  0.1905
  423TIP3   OH2 1232   1.026   4.012   2.201 -0.2596  0.2692 -0.1368
  423TIP3    H1 1233   1.083   4.073   2.247 -1.4234  0.3705  1.2376
  423TIP3    H2 1234   0.949   4.064   2.178 -2.2727 -1.0378  3.0015
  424TIP3   OH2 1235   5.565   5.613   3.484  0.0472 -0.1961 -0.2451
  424TIP3    H1 1236   5.523   5.698   3.499 -0.5013 -0.6706  1.0590
  424TIP3    H2 1237   5.493   5.553   3.468  0.4679 -0.3229 -1.8197
  425TIP3   OH2 1238   3.404   0.962   4.234 -0.0746 -0.4037 -0.2393
  425TIP3    H1 1239   3.422   1.033   4.173 -0.7888 -0.4230 -0.4860
  425TIP3    H2 1240   3.463   0.891   4.207 -0.6840 -0.5633 -1.1897
  426TIP3   OH2 1241   0.083   1.832   0.180  0.3119  0.2490  0.1982
  426TIP3    H1 1242   0.042   1.911   0.143 -0.8085 -1.1505 -1.8167
  426TIP3    H2 1243   0.150   1.808   0.116  0.1303 -0.8159  0.3862
  427TIP3   OH2 1244   5.405   0.321   2.881 -0.7073 -0.9764  0.3687
  427TIP3    H1 1245   5.431   0.377   2.808 -2.0623 -0.2243  0.4467
  427TIP3    H2 1246   5.430   0.370   2.960  0.3462 -1.5915  0.4421
  428TIP3   OH2 1247   2.497   5.707   5.476 -0.0561 -0.1296 -0.7697
  428TIP3    H1 1248   2.436   5.639   5.449  1.1461 -1.3703 -0.4377
  428TIP3    H2 1249   2.572   5.660   5.512  0.1955  1.4025  0.8272
  429TIP3   OH2 1250   3.518   4.979   5.575 -0.0870 -0.2356 -0.3751
  429TIP3    H1 1251   3.526   5.062   5.622 -0.5600 -0.2366 -0.2893
  429TIP3    H2 1252   3.609   4.954   5.554  0.0169  0.5912 -0.9181
  430TIP3   OH2 1253   1.474   1.517   0.197 -0.3094  0.3190  0.2834
  430TIP3    H1 1254   1.421   1.494   0.121  1.2871 -1.0301 -0.5060
  430TIP3    H2 1255   1.564   1.518   0.164  0.4357 -0.2632  2.1332
  431TIP3   OH2 1256   6.290   6.743   2.815  0.3747  0.0074 -0.0700
  431TIP3    H1 1257   6.245   6.729   2.732 -1.2371  2.4177  0.2860
  431TIP3    H2 1258   6.382   6.727   2.795  0.2095  1.6907 -2.6904
  432TIP3   OH2 1259   4.373   4.790   5.544 -0.1810  0.0763 -0.0525
  432TIP3    H1 1260   4.439   4.835   5.598  0.4504 -1.4430  0.4921
  432TIP3    H2 1261   4.423   4.755   5.471 -0.4447 -0.7237  0.1415
  433TIP3   OH2 1262   5.638   6.199   5.550  0.6154  0.3320 -0.2974
  433TIP3    H1 1263   5.730   6.180   5.566  0.6618  2.2160  2.5997
  433TIP3    H2 1264   5.627   6.290   5.580 -2.2465 -0.0023 -0.0285
  434TIP3   OH2 1265   2.608   2.148   3.367 -0.6257  0.4838  0.7948
  434TIP3    H1 1266   2.636   2.168   3.277 -2.1684 -0.0773  0.1536
  434TIP3    H2 1267   2.652   2.065   3.387  0.2937  0.9641  0.8548
  435TIP3   OH2 1268   0.729   2.176   0.753  0.0510 -0.2939  0.0372
  435TIP3    H1 1269   0.772   2.205   0.834  1.0010  0.2260 -0.6360
  435TIP3    H2 1270   0.646   2.138   0.783 -1.0584  2.6105  1.0503
  436TIP3   OH2 1271   5.983   4.899   3.541  0.5197  0.0205 -0.6323
  436TIP3    H1 1272   5.910   4.895   3.602  2.0138  0.1385  1.2464
  436TIP3    H2 1273   5.944   4.882   3.455 -1.6343 -0.2227  0.3452
  437TIP3   OH2 1274   6.296   5.760   3.645 -0.2517  0.3613  0.0284
  437TIP3    H1 1275   6.356   5.712   3.702  0.0250  0.4967 -0.1472
  437TIP3    H2 1276   6.351   5.792   3.574 -0.4875  0.7061  0.0008
  438TIP3   OH2 1277   1.334   5.378   0.928 -0.4289  0.0011  0.6713
  438TIP3    H1 1278   1.275   5.327   0.871 -0.9314  0.6536  0.5885
  438TIP3    H2 1279   1.280   5.451   0.957  0.9605  1.9160 -1.2357
  439TIP3   OH2 1280   0.450   4.858   2.156  0.1945  0.0072  0.4685
  439TIP3    H1 1281   0.394   4.903   2.219 -0.4017 -0.1175  0.0443
  439TIP3    H2 1282   0.494   4.790   2.207 -0.4037 -0.1988  0.7220
  440TIP3   OH2 1283   7.193   1.870   4.303  0.0634  0.1398  0.2781
  440TIP3    H1 1284   7.131   1.821   4.356  1.1411 -0.0216  1.4350
  440TIP3    H2 1285   7.173   1.962   4.323 -0.7694  0.1392 -0.5047
  441TIP3   OH2 1286   4.660   2.668   1.102  0.3955  0.0528  0.3817
  441TIP3    H1 1287   4.678   2.746   1.155  1.0478 -0.3806  0.8172
  441TIP3    H2 1288   4.665   2.596   1.164 -0.5146 -0.3157  0.0421
  442TIP3   OH2 1289   1.577   2.128   5.114 -0.8130 -0.2722  0.2901
  442TIP3    H1 1290   1.646   2.129   5.048 -0.5897 -1.1283  0.4960
  442TIP3    H2 1291   1.617   2.084   5.190 -1.9201 -1.9019 -0.0065
  443TIP3   OH2 1292   3.653   0.356   4.353  0.2447  0.3177  0.1012
  443TIP3    H1 1293   3.565   0.379   4.322 -0.0396 -0.2127  0.4946
  443TIP3    H2 1294   3.700   0.440   4.357 -0.7328  0.8459  1.3972
  444TIP3   OH2 1295   1.097   5.685   1.518  0.2953  0.5170 -0.5330
  444TIP3    H1 1296   1.053   5.700   1.601  0.6832 -2.9788  0.4912
  444TIP3    H2 1297   1.148   5.764   1.502  0.7826  1.0418  2.9488
  445TIP3   OH2 1298   0.542   0.126   4.737 -0.2653 -0.6889  0.1457
  445TIP3    H1 1299   0.536   0.130   4.642 -0.8790 -0.6162  0.1872
  445TIP3    H2 1300   0.602   0.053   4.754  0.1367 -0.4690 -0.2961
  446TIP3   OH2 1301   5.987   4.769   0.993 -0.7936  1.0746 -0.3886
  446TIP3    H1 1302   6.037   4.803   1.067 -2.4779  0.7846  0.9429
  446TIP3    H2 1303   5.984   4.674   1.008 -1.2004  1.0211 -0.7932
  447TIP3   OH2 1304   3.855   2.431   1.235 -0.1183  0.0943 -0.3170
  447TIP3    H1 1305   3.840   2.490   1.309 -1.8630 -0.5027 -0.1556
  447TIP3    H2 1306   3.896   2.353   1.274 -0.3894  0.0660 -0.0870
  448TIP3   OH2 1307   4.854   0.580   2.130  0.0997 -0.0732  0.0116
  448TIP3    H1 1308   4.842   0.626   2.047  0.3484 -0.6551 -0.3573
  448TIP3    H2 1309   4.791   0.507   2.125  0.0979 -0.0940  0.3451
  449TIP3   OH2 1310   2.910   2.459   1.712 -0.4300  0.9684 -0.3611
  449TIP3    H1 1311   2.997   2.489   1.737 -0.3062  1.4045 -1.2525
  449TIP3    H2 1312   2.854   2.480   1.787  0.1093  1.2955 -0.0471
  450TIP3   OH2 1313   5.856   6.655   5.815 -0.4566  0.1886 -0.1086
  450TIP3    H1 1314   5.761   6.661   5.809 -0.6986  0.9778  2.7713
  450TIP3    H2 1315   5.888   6.738   5.782 -0.7648 -0.0542 -1.0244
  451TIP3   OH2 1316   4.876   2.929   0.977 -0.5882 -0.1157  0.4754
  451TIP3    H1 1317   4.945   2.881   0.932 -0.2252  0.0059  0.8952
  451TIP3    H2 1318   4.795   2.899   0.935 -0.1690  1.4046 -1.6220
  452TIP3   OH2 1319   6.883   3.529   3.193 -0.1944 -0.3582 -0.1006
  452TIP3    H1 1320   6.888   3.623   3.177  0.3757 -0.4302 -0.3741
  452TIP3    H2 1321   6.930   3.517   3.276  0.0449 -0.4414 -0.2463
  453TIP3   OH2 1322   4.677   0.909   5.820  0.2022  0.4153  0.0311
  453TIP3    H1 1323   4.676   0.975   5.889  0.4195 -1.4841  1.9692
  453TIP3    H2 1324   4.769   0.905   5.792 -0.0330  1.7821 -1.0327
  454TIP3   OH2 1325   4.212   1.228   5.662  0.7271  0.3308  0.5890
  454TIP3    H1 1326   4.256   1.157   5.709  0.6070  0.4509  0.8875
  454TIP3    H2 1327   4.283   1.280   5.625  0.8258 -1.5676 -2.1409
  455TIP3   OH2 1328   6.096   3.184   1.626  0.2028 -0.5128  0.6469
  455TIP3    H1 1329   6.128   3.097   1.649  1.1648 -0.1093  0.8959
  455TIP3    H2 1330   6.003   3.182   1.649  0.5157 -1.0346  2.0097
  456TIP3   OH2 1331   0.718   3.266   4.278 -0.4462  0.2680  0.6385
  456TIP3    H1 1332   0.695   3.193   4.336 -3.3024  1.5502  1.2798
  456TIP3    H2 1333   0.726   3.341   4.336 -0.2970  1.0025 -0.3085
  457TIP3   OH2 1334   5.163   2.578   1.135 -0.4389  0.1134  0.0209
  457TIP3    H1 1335   5.226   2.515   1.101 -0.9226 -0.5005  0.2475
  457TIP3    H2 1336   5.212   2.628   1.200 -0.1623 -0.2931  0.1275
  458TIP3   OH2 1337   1.788   5.007   3.821  0.0548  0.1550  0.0953
  458TIP3    H1 1338   1.857   5.061   3.860  0.8321 -0.9587  0.3142
  458TIP3    H2 1339   1.802   5.015   3.727  0.6377 -0.2514  0.1439
  459TIP3   OH2 1340   6.183   2.003   3.733  0.1845 -0.0701 -0.2755
  459TIP3    H1 1341   6.159   2.067   3.667 -1.4751 -0.8549 -0.4872
  459TIP3    H2 1342   6.211   1.926   3.684 -1.2802 -0.7401 -0.1171
  460TIP3   OH2 1343   1.996   5.392   2.864 -0.6284 -0.5850 -0.5406
  460TIP3    H1 1344   2.002   5.297   2.853 -1.1738 -0.4811 -1.9643
  460TIP3    H2 1345   1.904   5.412   2.848 -0.7885  0.0577  1.0269
  461TIP3   OH2 1346   6.697   5.579   1.053  0.0108 -0.2533 -0.2120
  461TIP3    H1 1347   6.668   5.531   1.131  1.1264 -0.5866  0.0072
  461TIP3    H2 1348   6.620   5.580   0.996 -0.5519 -0.7819  0.5156
  462TIP3   OH2 1349   1.862   0.415   3.656  0.3715  0.1558 -0.4759
  462TIP3    H1 1350   1.864   0.481   3.587  2.4589  2.0900  1.2858
  462TIP3    H2 1351   1.954   0.391   3.670 -0.1694 -1.6830  0.3148
  463TIP3   OH2 1352  -0.016   5.615   3.350  0.0485 -0.0310 -0.3987
  463TIP3    H1 1353  -0.010   5.677   3.277  0.5165  0.4778  0.0626
  463TIP3    H2 1354   0.060   5.635   3.404  0.4840 -1.3502 -0.4957
  464TIP3   OH2 1355   1.329   1.320   2.808 -0.2666  0.4969 -0.5532
  464TIP3    H1 1356   1.421   1.299   2.792 -0.3542  0.8347 -1.6028
  464TIP3    H2 1357   1.304   1.376   2.734 -1.9968 -1.5926 -1.6673
  465TIP3   OH2 1358   7.218   4.093   0.848  0.1721 -0.1997 -0.0657
  465TIP3    H1 1359   7.224   4.169   0.904  0.4531 -1.4039  1.6137
  465TIP3    H2 1360   7.134   4.102   0.802  0.9084  1.8741 -1.1398
  466TIP3   OH2 1361   5.672   5.846   0.173  0.2643 -0.0849  0.1760
  466TIP3    H1 1362   5.749   5.833   0.229  0.9766  0.5638 -0.6422
  466TIP3    H2 1363   5.611   5.896   0.228  0.7887  0.1884  0.5193
  467TIP3   OH2 1364   5.418   3.492   3.739  0.4468  0.1324 -0.1143
  467TIP3    H1 1365   5.450   3.580   3.760 -0.5437  0.6223 -0.5711
  467TIP3    H2 1366   5.417   3.446   3.823  0.5966  0.6826  0.1969
  468TIP3   OH2 1367   6.980   5.741   5.478 -0.5074 -0.7168 -0.4422
  468TIP3    H1 1368   7.023   5.706   5.557  0.6207 -0.2198 -0.8148
  468TIP3    H2 1369   6.889   5.714   5.487 -0.8026  0.7287  1.8733
  469TIP3   OH2 1370   4.555   3.785   4.323 -0.0639 -0.0172  0.0854
  469TIP3    H1 1371   4.547   3.724   4.250  0.1066 -0.8041  0.7152
  469TIP3    H2 1372   4.470   3.828   4.327  0.0399  0.3041 -0.8010
  470TIP3   OH2 1373   0.783   3.512   0.265 -0.9205 -0.1828 -0.0204
  470TIP3    H1 1374   0.799   3.502   0.359  1.4154  0.0041 -0.3319
  470TIP3    H2 1375   0.860   3.473   0.223 -1.8874 -0.2189 -1.8631
  471TIP3   OH2 1376   5.105   1.740   0.301  0.0939  0.1846 -0.1403
  471TIP3    H1 1377   5.114   1.826   0.261 -1.9584  0.2960 -0.5064
  471TIP3    H2 1378   5.011   1.723   0.299  0.4047 -1.8737  0.3437
  472TIP3   OH2 1379   7.039   0.092   1.774 -0.3026 -0.7522  0.1822
  472TIP3    H1 1380   7.134   0.093   1.781  0.0618  1.3931 -2.9880
  472TIP3    H2 1381   7.021   0.044   1.693 -1.6125  1.5354 -0.9824
  473TIP3   OH2 1382   6.111   1.982   0.126 -0.2171 -0.3991 -0.0121
  473TIP3    H1 1383   6.083   1.915   0.064 -1.8319  0.3103 -0.0816
  473TIP3    H2 1384   6.112   2.063   0.076  1.3050 -0.2549  0.1889
  474TIP3   OH2 1385   6.733   1.848   0.424 -0.8126 -0.0571 -0.4480
  474TIP3    H1 1386   6.812   1.899   0.440 -2.6500  2.1380  2.6261
  474TIP3    H2 1387   6.709   1.869   0.334  0.7075  1.2346 -0.5945
  475TIP3   OH2 1388   1.444   6.658   5.206 -0.1593  0.5475 -0.1594
  475TIP3    H1 1389   1.526   6.649   5.157 -0.1253 -2.1670  0.2604
  475TIP3    H2 1390   1.376   6.654   5.140 -0.0597 -1.9082 -0.2226
  476TIP3   OH2 1391   0.193   6.038   4.419  0.0333  0.1473  0.2169
  476TIP3    H1 1392   0.196   6.128   4.453 -3.5626  0.2080  0.7629
  476TIP3    H2 1393   0.176   6.049   4.326 -0.3281  0.0422  0.2701
  477TIP3   OH2 1394   2.440   4.505   1.141 -0.8353 -0.2988 -0.1822
  477TIP3    H1 1395   2.490   4.571   1.189  0.6320 -0.2780 -1.6539
  477TIP3    H2 1396   2.499   4.430   1.134 -1.1073 -0.4098 -1.6308
  478TIP3   OH2 1397   0.795   4.969   4.055 -0.2778  0.3091  0.0709
  478TIP3    H1 1398   0.849   4.940   4.128 -1.3513 -2.6312 -0.1864
  478TIP3    H2 1399   0.710   4.989   4.094 -0.1377  1.2476 -0.0653
  479TIP3   OH2 1400   2.359   5.241   3.664 -0.1556  0.4166 -0.5963
  479TIP3    H1 1401   2.429   5.305   3.648 -1.3328  1.6840 -0.8357
  479TIP3    H2 1402   2.299   5.252   3.590  0.1215 -1.7212 -1.2098
  480TIP3   OH2 1403   3.016   6.497   1.904  0.3018  0.6956  0.4314
  480TIP3    H1 1404   3.109   6.478   1.918 -0.1255 -3.1797 -0.7773
  480TIP3    H2 1405   3.014   6.546   1.823  1.2988  0.9742  0.5548
  481TIP3   OH2 1406   6.117   6.576   1.609  0.1825  0.4255 -0.2582
  481TIP3    H1 1407   6.046   6.558   1.547 -0.6770  0.3770  0.6952
  481TIP3    H2 1408   6.134   6.492   1.651 -0.8059  0.8720  1.1171
  482TIP3   OH2 1409   0.840   2.676   1.360  0.0330  0.2698 -0.0603
  482TIP3    H1 1410   0.872   2.765   1.371  0.1914 -0.0610  3.0347
  482TIP3    H2 1411   0.918   2.624   1.340  0.0649  0.6889 -1.0526
  483TIP3   OH2 1412   3.391   0.690   5.659 -0.4665  0.2937 -0.8108
  483TIP3    H1 1413   3.449   0.759   5.692  0.1565 -1.0027  0.9360
  483TIP3    H2 1414   3.309   0.705   5.705  0.2874 -1.2862  1.1777
  484TIP3   OH2 1415   5.113   5.179   5.224 -0.9328  0.1271  0.2502
  484TIP3    H1 1416   5.140   5.252   5.168 -1.6130  0.0993 -0.1326
  484TIP3    H2 1417   5.071   5.118   5.163 -1.3565 -0.0729  0.7420
  485TIP3   OH2 1418   5.188   5.997   1.509 -0.3170 -0.5928  0.3863
  485TIP3    H1 1419   5.202   5.916   1.559  1.0877  0.9637  2.7021
  485TIP3    H2 1420   5.272   6.013   1.465 -1.1229 -1.2244 -1.5032
  486TIP3   OH2 1421   0.277   0.098   3.945 -1.0903  0.0071 -0.0430
  486TIP3    H1 1422   0.278   0.093   4.041  3.5429  0.1476  0.1436
  486TIP3    H2 1423   0.271   0.007   3.916  1.2906 -0.4516  0.6393
  487TIP3   OH2 1424   1.093   5.060   2.743 -0.4119  0.2990  0.2053
  487TIP3    H1 1425   1.030   5.057   2.671 -0.0128 -0.4081 -0.1292
  487TIP3    H2 1426   1.105   5.154   2.760 -0.3103  0.4913 -0.8344
  488TIP3   OH2 1427   4.133   0.420   3.390  0.1925 -0.0313  0.4274
  488TIP3    H1 1428   4.147   0.448   3.480  1.1412 -0.4531  0.4209
  488TIP3    H2 1429   4.178   0.486   3.337  0.0653 -0.0626  0.2774
  489TIP3   OH2 1430   1.982   4.795   2.310  0.4695  0.0940  0.5347
  489TIP3    H1 1431   1.888   4.814   2.304  0.3045 -0.6356  0.6041
  489TIP3    H2 1432   2.001   4.794   2.404  0.9155  1.8638  0.4848
  490TIP3   OH2 1433   2.713   3.572   5.149  0.0316  0.1866 -0.1143
  490TIP3    H1 1434   2.684   3.483   5.130 -0.0958 -0.0409  1.0964
  490TIP3    H2 1435   2.633   3.625   5.145 -0.0962  0.0335  0.4251
  491TIP3   OH2 1436   3.109   6.517   5.859  0.1645  0.2573  0.2722
  491TIP3    H1 1437   3.141   6.518   5.769 -0.8437 -1.5923 -0.1443
  491TIP3    H2 1438   3.075   6.428   5.872 -1.6450  1.1075  1.7921
  492TIP3   OH2 1439   6.105   5.093   4.685 -0.1046 -0.0692  0.0205
  492TIP3    H1 1440   6.126   5.029   4.753  0.2584  0.3078  0.2726
  492TIP3    H2 1441   6.175   5.159   4.692 -0.1479  0.0529 -0.6178
  493TIP3   OH2 1442   5.928   4.650   5.478  0.0475  0.7698 -0.4621
  493TIP3    H1 1443   6.008   4.691   5.445  1.1568 -1.2158 -0.3773
  493TIP3    H2 1444   5.896   4.599   5.404 -0.2400  0.2656  0.0065
  494TIP3   OH2 1445   4.331   3.164   5.551 -0.4272  0.0832  0.4742
  494TIP3    H1 1446   4.364   3.253   5.537 -0.5267 -0.0860 -1.0526
  494TIP3    H2 1447   4.409   3.109   5.551 -0.3967  0.1205  1.0460
  495TIP3   OH2 1448   3.816   6.147   1.601 -0.9885  0.8828  0.5031
  495TIP3    H1 1449   3.907   6.130   1.575 -1.1465 -0.6939  0.8710
  495TIP3    H2 1450   3.813   6.241   1.618  0.4310  1.0556 -0.0613
  496TIP3   OH2 1451   7.105   1.689   0.897 -0.4006 -0.5762 -0.9756
  496TIP3    H1 1452   7.179   1.690   0.837 -0.3856 -0.1919 -0.9489
  496TIP3    H2 1453   7.034   1.731   0.848 -0.6459 -1.0694 -1.0552
  497TIP3   OH2 1454   2.496   3.692   3.984  0.1179  0.4305  0.2281
  497TIP3    H1 1455   2.529   3.653   3.903 -1.2646 -0.1151 -0.0904
  497TIP3    H2 1456   2.403   3.668   3.987  0.0689  0.6796  1.8266
  498TIP3   OH2 1457   6.626   6.018   1.367 -0.1249 -0.2285 -0.9286
  498TIP3    H1 1458   6.671   5.934   1.366 -0.1459 -0.2342 -1.8290
  498TIP3    H2 1459   6.536   5.996   1.394  0.8173  0.0374  3.0445
  499TIP3   OH2 1460   0.626   5.512   2.337 -0.1428  0.3618  0.5402
  499TIP3    H1 1461   0.604   5.424   2.367 -2.9766  1.3921  1.7970
  499TIP3    H2 1462   0.610   5.568   2.412 -1.6223  2.3328 -1.1285
  500TIP3   OH2 1463   0.490   5.441   1.331 -0.1676  0.1866  0.0168
  500TIP3    H1 1464   0.541   5.514   1.296 -1.3229  0.2795 -1.5534
  500TIP3    H2 1465   0.467   5.470   1.420  3.1311 -0.2342  1.1521
  501TIP3   OH2 1466   1.477   2.460   5.223  0.3531  0.2654  0.0199
  501TIP3    H1 1467   1.413   2.468   5.293  2.4612  1.7622  1.9400
  501TIP3    H2 1468   1.520   2.376   5.238 -0.2683 -0.1615 -0.5138
  502TIP3   OH2 1469   5.099   4.320   2.753 -0.1279 -0.3596 -0.0345
  502TIP3    H1 1470   5.009   4.299   2.775  0.4283 -2.5497  0.4846
  502TIP3    H2 1471   5.150   4.248   2.792  1.9253  1.2530  0.4237
  503TIP3   OH2 1472   6.818   2.580   5.240  0.8745  0.6459  0.1966
  503TIP3    H1 1473   6.821   2.636   5.317  2.3515  0.0112  0.6401
  503TIP3    H2 1474   6.883   2.512   5.257 -0.4718 -0.9190 -0.5470
  504TIP3   OH2 1475   2.356   4.309   0.259 -0.2216 -0.4467 -0.4022
  504TIP3    H1 1476   2.369   4.224   0.299  0.4792  0.1515  0.6894
  504TIP3    H2 1477   2.326   4.365   0.330  0.6239  0.5373 -0.7933
  505TIP3   OH2 1478   3.455   5.698   0.442  0.0836  0.2822  0.0590
  505TIP3    H1 1479   3.505   5.679   0.522  0.7168  0.4652 -0.2925
  505TIP3    H2 1480   3.363   5.697   0.471  0.2894  0.0491  0.7271
  506TIP3   OH2 1481   0.965   5.422   2.079 -1.2565  0.4583  0.0677
  506TIP3    H1 1482   1.026   5.353   2.055  0.6835  2.3368 -0.6861
  506TIP3    H2 1483   0.881   5.377   2.089  0.0528 -2.0958  0.3660
  507TIP3   OH2 1484   6.055   5.458   5.394  0.8468 -0.7957  0.1210
  507TIP3    H1 1485   5.994   5.432   5.325  0.0418 -2.0153  1.2465
  507TIP3    H2 1486   6.047   5.390   5.461  1.4171  0.4597  1.5371
  508TIP3   OH2 1487   1.988   5.263   5.762 -0.0714  0.6217  0.4651
  508TIP3    H1 1488   2.052   5.263   5.690  0.1274  2.8705  0.5522
  508TIP3    H2 1489   2.035   5.226   5.836 -0.2939 -1.7936 -0.5011
  509TIP3   OH2 1490   0.260   0.770   4.415  0.0238 -0.1729 -0.7838
  509TIP3    H1 1491   0.232   0.861   4.404  0.9628  0.2853  0.2905
  509TIP3    H2 1492   0.330   0.775   4.482 -0.9048 -1.8557  0.3876
  510TIP3   OH2 1493   3.188   1.534   4.309  0.4472  0.2666  0.2464
  510TIP3    H1 1494   3.180   1.610   4.251  0.1384 -0.0012 -0.0628
  510TIP3    H2 1495   3.192   1.459   4.250 -0.5598 -0.0665  0.5741
  511TIP3   OH2 1496   6.456   5.978   0.590 -0.2449 -0.2360 -0.1728
  511TIP3    H1 1497   6.423   6.042   0.526  0.8169  0.9487  0.4282
  511TIP3    H2 1498   6.522   5.928   0.542  1.3151  1.3460  0.2107
  512TIP3   OH2 1499   2.432   4.105   4.466  0.3241  0.3489 -0.3444
  512TIP3    H1 1500   2.513   4.065   4.496 -0.0338 -0.3642 -0.3207
  512TIP3    H2 1501   2.434   4.094   4.371 -0.0861 -0.3251 -0.2785
  513TIP3   OH2 1502   0.420   2.287   0.680 -0.3944 -0.1788  0.0652
  513TIP3    H1 1503   0.454   2.201   0.656 -1.2772 -0.6038  0.3123
  513TIP3    H2 1504   0.383   2.322   0.599 -0.6867 -0.3419  0.1275
  514TIP3   OH2 1505   2.157   2.693   4.787 -0.3065  0.0932 -0.5196
  514TIP3    H1 1506   2.225   2.647   4.736 -1.2141 -1.9457  0.0043
  514TIP3    H2 1507   2.077   2.680   4.737 -0.6965  0.6152 -0.0389
  515TIP3   OH2 1508   2.279   5.066   1.933  0.1267  0.1990  0.2419
  515TIP3    H1 1509   2.340   5.001   1.898  2.1471  1.3352  1.3976
  515TIP3    H2 1510   2.306   5.148   1.892 -1.1734  0.6021  0.1729
  516TIP3   OH2 1511   5.905   5.647   0.583 -0.0735 -0.1463  0.1184
  516TIP3    H1 1512   5.940   5.637   0.671  0.4355  0.8814  0.0447
  516TIP3    H2 1513   5.877   5.739   0.579 -0.6216 -0.3389 -0.5993
  517TIP3   OH2 1514   4.215   4.291   2.902  0.3856 -0.1805  0.4773
  517TIP3    H1 1515   4.242   4.383   2.902  0.9823 -0.3210 -0.7418
  517TIP3    H2 1516   4.246   4.256   2.985 -1.6482  1.1791  1.8916
  518TIP3   OH2 1517   3.405   5.860   4.026 -0.1301 -0.3430  0.7223
  518TIP3    H1 1518   3.391   5.802   4.101  0.4738  0.0159  1.1208
  518TIP3    H2 1519   3.318   5.893   4.004 -0.5061 -1.4930  0.4076
  519TIP3   OH2 1520   2.167   0.185   2.354 -0.1804 -0.2501  0.3069
  519TIP3    H1 1521   2.124   0.269   2.372  0.4586  0.6110 -1.8536
  519TIP3    H2 1522   2.096   0.121   2.350 -1.2490  0.9778 -2.3139
  520TIP3   OH2 1523   4.383   2.170   1.152 -0.5918  0.1526  0.3891
  520TIP3    H1 1524   4.417   2.121   1.228  2.0772  1.1048 -0.1022
  520TIP3    H2 1525   4.421   2.257   1.161  0.7219 -0.0076 -2.5822
  521TIP3   OH2 1526   6.598   2.883   4.821 -0.1997  0.3147 -0.8864
  521TIP3    H1 1527   6.616   2.971   4.790 -1.4658  0.8093 -0.2722
  521TIP3    H2 1528   6.681   2.853   4.859 -0.2188  1.9793  0.5954
  522TIP3   OH2 1529   5.044   6.438   4.932  0.1827  0.2427  0.3208
  522TIP3    H1 1530   4.999   6.397   5.006 -1.6954  1.6587  0.0607
  522TIP3    H2 1531   4.999   6.403   4.855 -1.4764  2.6196  0.0917
  523TIP3   OH2 1532   1.428   5.157   3.997  0.1260  0.2309  0.0399
  523TIP3    H1 1533   1.421   5.099   3.921  1.2257  0.6858 -0.4266
  523TIP3    H2 1534   1.346   5.144   4.044 -0.7287  0.2089 -1.4099
  524TIP3   OH2 1535   2.518   5.403   5.690 -0.4236 -0.2407  0.2107
  524TIP3    H1 1536   2.560   5.333   5.740 -2.2564 -0.3183  1.7546
  524TIP3    H2 1537   2.576   5.417   5.616  0.6989 -2.4638  0.5702
  525TIP3   OH2 1538   6.414   6.157   5.701 -0.0866 -0.0139  0.1519
  525TIP3    H1 1539   6.376   6.148   5.788  0.3495 -0.9920  0.2587
  525TIP3    H2 1540   6.480   6.227   5.711 -0.1795  0.0200  0.5533
  526TIP3   OH2 1541   2.663   6.221   5.797 -0.1124  0.5243  0.6026
  526TIP3    H1 1542   2.738   6.267   5.761  0.1958 -0.3540  0.1018
  526TIP3    H2 1543   2.624   6.283   5.859 -1.8138  2.8950 -2.5665
  527TIP3   OH2 1544   3.023   3.563   3.824 -0.3085  0.1877  0.0675
  527TIP3    H1 1545   3.025   3.580   3.918  0.2241 -1.1469  0.3168
  527TIP3    H2 1546   3.056   3.474   3.815  2.7255  1.3413 -1.6371
  528TIP3   OH2 1547   3.187   3.508   4.544 -0.0761 -0.4050 -0.1401
  528TIP3    H1 1548   3.145   3.434   4.499  0.7474 -0.3342 -1.0779
  528TIP3    H2 1549   3.240   3.549   4.476  1.5440 -0.5234  1.0004
  529TIP3   OH2 1550   6.035   0.168   2.717  0.0853 -0.1688 -0.0588
  529TIP3    H1 1551   6.011   0.261   2.718  1.0874  0.1474 -1.6825
  529TIP3    H2 1552   6.035   0.143   2.809  1.0045  1.7896  0.5410
  530TIP3   OH2 1553   3.126   5.635   5.713  0.8178 -0.2772 -0.2470
  530TIP3    H1 1554   3.073   5.606   5.787 -0.8553  0.0574 -1.2788
  530TIP3    H2 1555   3.204   5.578   5.716 -0.2313 -1.7340  0.4838
  531TIP3   OH2 1556   5.749   4.318   5.014  0.1602  0.8243  0.7495
  531TIP3    H1 1557   5.674   4.292   5.067  0.3520 -0.5632  0.3987
  531TIP3    H2 1558   5.711   4.347   4.931 -0.1962  3.7600  1.8157
  532TIP3   OH2 1559   4.361   6.569   4.007  0.5420  0.5185  0.0443
  532TIP3    H1 1560   4.368   6.628   3.933 -0.5088  1.5246  0.7090
  532TIP3    H2 1561   4.267   6.566   4.027  0.4398 -2.0234 -0.4498
  533TIP3   OH2 1562   3.512   4.693   1.442  0.4679 -0.3726 -0.0527
  533TIP3    H1 1563   3.482   4.682   1.533  1.5472  2.0370  0.6660
  533TIP3    H2 1564   3.444   4.746   1.401  0.2168 -1.0655 -0.5511
  534TIP3   OH2 1565   1.959   3.147   0.522 -0.5567  0.3284  0.3613
  534TIP3    H1 1566   1.881   3.093   0.530 -1.4551  1.7795  2.3836
  534TIP3    H2 1567   2.029   3.094   0.561 -1.4028  0.5000  2.2213
  535TIP3   OH2 1568   5.805   3.000   3.019  0.7259 -0.1685  0.0147
  535TIP3    H1 1569   5.784   2.993   3.112 -1.1140  0.2626 -0.3254
  535TIP3    H2 1570   5.896   2.973   3.013  1.1888  0.7632  2.0709
  536TIP3   OH2 1571   3.405   0.556   2.092 -0.0608  0.2838  0.3847
  536TIP3    H1 1572   3.478   0.520   2.142  1.2488 -1.0774 -2.2841
  536TIP3    H2 1573   3.364   0.480   2.052 -1.4012  1.2619 -0.1800
  537TIP3   OH2 1574   4.512   3.003   1.441  0.1940 -0.1037  0.1423
  537TIP3    H1 1575   4.435   3.056   1.424  1.1469  1.0593 -0.7131
  537TIP3    H2 1576   4.493   2.958   1.524 -0.8299  1.2028  0.6475
  538TIP3   OH2 1577   2.441   3.687   0.837  0.3130  0.1926 -0.2398
  538TIP3    H1 1578   2.452   3.669   0.744 -1.0258 -0.1329 -0.3692
  538TIP3    H2 1579   2.372   3.753   0.841  1.1241  1.0278  0.4938
  539TIP3   OH2 1580   1.963   2.624   0.516  0.2262  0.3052 -0.1179
  539TIP3    H1 1581   1.974   2.591   0.426  1.3739 -0.7202  0.3844
  539TIP3    H2 1582   1.923   2.551   0.563 -1.6768  1.3013 -0.0593
  540TIP3   OH2 1583   6.540   1.514   2.632  0.1122  0.0492 -0.4441
  540TIP3    H1 1584   6.577   1.592   2.672 -1.7653  2.1795 -2.5395
  540TIP3    H2 1585   6.600   1.493   2.559 -1.3202  2.0099 -2.3048
  541TIP3   OH2 1586   5.487   5.820   2.935  0.5967  0.2020 -0.8670
  541TIP3    H1 1587   5.397   5.798   2.962  1.4076  0.2202  2.1393
  541TIP3    H2 1588   5.533   5.736   2.935  0.8676  0.3471 -1.2601
  542TIP3   OH2 1589   1.790   5.633   5.054 -0.2256 -0.1622  0.7012
  542TIP3    H1 1590   1.785   5.717   5.008  0.1446 -0.9727 -0.8837
  542TIP3    H2 1591   1.845   5.652   5.131 -1.5180  1.4068  1.3009
  543TIP3   OH2 1592   0.933   1.722   3.124 -0.1173 -0.0414  0.0288
  543TIP3    H1 1593   0.838   1.725   3.137 -0.3408 -2.3771 -0.5646
  543TIP3    H2 1594   0.948   1.641   3.075  2.0761  0.9106 -1.0242
  544TIP3   OH2 1595   0.508   0.530   1.284  0.5889 -0.7480 -0.0467
  544TIP3    H1 1596   0.448   0.467   1.324  1.4866 -1.9849 -0.5802
  544TIP3    H2 1597   0.463   0.560   1.205 -0.3409  0.2120  0.8020
  545TIP3   OH2 1598   4.442   6.319   5.438 -0.6157 -0.2113 -0.6014
  545TIP3    H1 1599   4.483   6.326   5.352  2.2176 -0.1306  0.6533
  545TIP3    H2 1600   4.361   6.271   5.422  0.2405 -0.9457 -3.1866
  546TIP3   OH2 1601   3.311   0.606   0.703  1.0112  0.3766 -0.3673
  546TIP3    H1 1602   3.280   0.525   0.663 -1.7647  0.0057  2.1174
  546TIP3    H2 1603   3.406   0.604   0.691  0.8105 -2.0141 -2.4665
  547TIP3   OH2 1604   3.231   5.037   1.632  0.3818 -0.6069 -0.1193
  547TIP3    H1 1605   3.171   4.985   1.579 -0.6250  1.6125 -1.3278
  547TIP3    H2 1606   3.222   5.126   1.598  3.0660  0.1513  0.8517
  548TIP3   OH2 1607   0.599   1.985   5.127 -0.3406  0.2435 -0.0950
  548TIP3    H1 1608   0.571   1.911   5.073  0.7982  1.3074 -2.2425
  548TIP3    H2 1609   0.693   1.991   5.113 -0.2635  1.5157  0.8263
  549TIP3   OH2 1610   5.358   5.276   5.901  0.3220 -0.0163  0.1137
  549TIP3    H1 1611   5.420   5.325   5.847 -1.3929  0.5715 -1.4395
  549TIP3    H2 1612   5.305   5.226   5.838 -1.7943  0.7331  1.1791
  550TIP3   OH2 1613   0.995   0.423   4.235  0.0028  0.6455 -0.3323
  550TIP3    H1 1614   1.046   0.342   4.230  0.1786  0.7011  0.4184
  550TIP3    H2 1615   0.908   0.398   4.206  0.0934  0.2173 -0.2436
  551TIP3   OH2 1616   4.239   0.892   4.948  0.7579 -0.0388  0.4150
  551TIP3    H1 1617   4.209   0.907   4.858  0.9590 -1.9334 -0.0254
  551TIP3    H2 1618   4.314   0.950   4.958  0.8157  0.1021 -0.7030
  552TIP3   OH2 1619   3.521   1.260   5.829  1.1719 -0.1006  0.2364
  552TIP3    H1 1620   3.459   1.236   5.898  0.0298  2.5537  0.2614
  552TIP3    H2 1621   3.588   1.311   5.874  1.7775 -0.4371 -0.2667
  553TIP3   OH2 1622   7.067   6.143   0.405 -0.8999  0.0436 -0.1024
  553TIP3    H1 1623   6.983   6.098   0.407 -0.5774 -0.6383 -1.1153
  553TIP3    H2 1624   7.053   6.223   0.456 -1.8907 -0.5009  0.5008
  554TIP3   OH2 1625   5.940   5.268   5.623  0.5831 -0.1740 -0.0345
  554TIP3    H1 1626   5.889   5.222   5.690 -0.1622 -0.2466 -0.6415
  554TIP3    H2 1627   5.991   5.332   5.673 -0.1954 -0.0095  0.5846
  555TIP3   OH2 1628   6.557   0.518   2.144  0.2215 -0.3415 -0.5013
  555TIP3    H1 1629   6.635   0.483   2.101  0.6288  0.2830 -0.2912
  555TIP3    H2 1630   6.543   0.460   2.219  0.1971 -0.7405 -0.8127
  556TIP3   OH2 1631   3.514   3.726   5.841  0.2347  0.3602 -0.3491
  556TIP3    H1 1632   3.511   3.726   5.746 -0.5777  1.0036 -0.3283
  556TIP3    H2 1633   3.523   3.818   5.865 -0.9860  0.3479  0.2219
  557TIP3   OH2 1634   4.797   4.221   1.067  0.1456  0.2430  0.3440
  557TIP3    H1 1635   4.836   4.239   1.152  2.1253  0.8124 -0.6036
  557TIP3    H2 1636   4.852   4.151   1.030 -0.7884 -0.1242 -0.4053
  558TIP3   OH2 1637   6.722   4.999   2.340 -0.0243 -0.2746 -0.6894
  558TIP3    H1 1638   6.675   5.073   2.378  1.8460  0.7383 -0.2020
  558TIP3    H2 1639   6.694   4.923   2.391  0.5162  0.6533  1.0475
  559TIP3   OH2 1640   6.825   2.741   4.890 -0.4513  0.4666 -0.5423
  559TIP3    H1 1641   6.915   2.766   4.912 -0.8117  0.9534  0.4239
  559TIP3    H2 1642   6.818   2.650   4.920  0.1441 -0.0793 -1.9493
  560TIP3   OH2 1643   0.385   2.549   2.648  0.3200 -0.2338 -0.2253
  560TIP3    H1 1644   0.329   2.497   2.590  1.5704 -1.7066 -0.1774
  560TIP3    H2 1645   0.363   2.518   2.736 -0.1583  0.5897 -0.0409
  561TIP3   OH2 1646   3.990   6.769   1.182  0.2814 -0.1572 -0.1967
  561TIP3    H1 1647   4.015   6.784   1.273  1.3017  1.7680 -0.7457
  561TIP3    H2 1648   3.895   6.779   1.180  0.0060 -2.0077  0.9298
  562TIP3   OH2 1649   3.492   0.950   4.754 -0.3878  0.3983 -0.1544
  562TIP3    H1 1650   3.451   0.881   4.808  0.3393  1.2670  1.5851
  562TIP3    H2 1651   3.418   0.999   4.718 -0.9140 -1.0481 -1.1504
  563TIP3   OH2 1652   0.881   5.259   0.695  0.3150  0.2794  0.5380
  563TIP3    H1 1653   0.821   5.283   0.766  1.7568  0.7278  1.6562
  563TIP3    H2 1654   0.832   5.195   0.643 -1.4703  1.3253  0.8403
  564TIP3   OH2 1655   6.136   6.110   1.200  0.4850  0.2051  0.2419
  564TIP3    H1 1656   6.131   6.021   1.164  0.7563  1.3682 -2.9863
  564TIP3    H2 1657   6.228   6.120   1.225  1.0142  0.2735 -1.5733
  565TIP3   OH2 1658   1.248   3.611   0.950 -0.7358  0.3970 -0.9797
  565TIP3    H1 1659   1.294   3.611   0.866  0.3772  0.1081 -0.3993
  565TIP3    H2 1660   1.190   3.535   0.946 -0.0543 -0.1226 -1.1682
  566TIP3   OH2 1661   3.330   0.144   5.864  0.1803 -0.7039 -0.5873
  566TIP3    H1 1662   3.395   0.164   5.798  0.1963  1.3663 -0.0178
  566TIP3    H2 1663   3.251   0.122   5.815  1.3525 -3.8412 -1.2955
  567TIP3   OH2 1664   3.588   6.153   4.740  0.3477 -0.3816  0.5599
  567TIP3    H1 1665   3.636   6.163   4.822  1.4750  1.4438 -0.2502
  567TIP3    H2 1666   3.514   6.213   4.748  2.7513  3.1794 -1.2447
  568TIP3   OH2 1667   5.597   2.749   0.750 -0.5692 -0.0729 -0.5132
  568TIP3    H1 1668   5.681   2.731   0.794  0.0507  2.0191 -0.7231
  568TIP3    H2 1669   5.588   2.678   0.686 -0.0064 -1.4944  0.9201
  569TIP3   OH2 1670   3.257   3.543   3.638 -0.1006 -0.4281 -0.0404
  569TIP3    H1 1671   3.268   3.478   3.707 -0.6213  0.7908  1.2410
  569TIP3    H2 1672   3.214   3.496   3.567 -0.7198 -1.4113  0.9630
  570TIP3   OH2 1673   3.182   6.118   1.456  0.2900 -0.2726 -0.3801
  570TIP3    H1 1674   3.231   6.048   1.413  1.3324  0.2281 -0.0534
  570TIP3    H2 1675   3.213   6.116   1.547 -0.2533  0.1000 -0.1819
  571TIP3   OH2 1676   6.242   6.202   5.230  0.0665 -0.3136 -0.1105
  571TIP3    H1 1677   6.182   6.202   5.305 -0.6170  2.4807 -0.5442
  571TIP3    H2 1678   6.196   6.155   5.161  0.3958 -2.2711  0.9308
  572TIP3   OH2 1679   6.042   5.503   4.029 -0.0909 -0.1819 -0.2714
  572TIP3    H1 1680   5.958   5.548   4.022 -1.1566 -2.1378 -0.9413
  572TIP3    H2 1681   6.020   5.414   4.057  1.8175 -0.6000  0.0867
  573TIP3   OH2 1682   7.021   5.530   4.697  0.2415  0.1466 -0.2533
  573TIP3    H1 1683   7.093   5.583   4.665  1.6394 -1.5784 -0.1399
  573TIP3    H2 1684   6.956   5.531   4.627  2.2129 -1.6294 -2.2274
  574TIP3   OH2 1685   0.196   2.782   5.752 -0.2585  0.7379 -0.0681
  574TIP3    H1 1686   0.118   2.737   5.717 -0.1986 -0.8144  1.6796
  574TIP3    H2 1687   0.259   2.778   5.680 -1.4650  1.2138 -1.1976
  575TIP3   OH2 1688   2.165   3.289   1.725 -0.5554  0.4922 -0.2046
  575TIP3    H1 1689   2.080   3.304   1.685 -0.4428 -1.8807 -1.5189
  575TIP3    H2 1690   2.171   3.193   1.733  2.0638  0.5654 -0.4336
  576TIP3   OH2 1691   3.067   0.799   3.440  0.6087  0.4222 -0.1539
  576TIP3    H1 1692   3.085   0.788   3.346 -2.3243 -1.7318 -0.6231
  576TIP3    H2 1693   2.972   0.810   3.445  0.6289  0.0048  2.5927
  577TIP3   OH2 1694   6.244   6.520   4.207  0.2218  0.4879  0.7690
  577TIP3    H1 1695   6.265   6.528   4.114  1.9913  0.2220  1.1160
  577TIP3    H2 1696   6.261   6.607   4.243 -0.3632  0.5628  0.8747
  578TIP3   OH2 1697   5.832   2.921   3.828  0.7782  0.0349 -0.3980
  578TIP3    H1 1698   5.776   2.945   3.901  0.0234  2.0289 -1.5547
  578TIP3    H2 1699   5.916   2.897   3.869  1.2217  3.5211  1.0731
  579TIP3   OH2 1700   1.181   2.327   5.188  0.0918  0.1923  0.0198
  579TIP3    H1 1701   1.235   2.288   5.119 -0.1141  1.2349 -0.7682
  579TIP3    H2 1702   1.108   2.266   5.198  0.1121  0.0277 -0.7187
  580TIP3   OH2 1703   7.096   4.395   2.793 -0.5332  0.2545  0.0505
  580TIP3    H1 1704   7.181   4.354   2.777  0.5597  2.7089 -1.0525
  580TIP3    H2 1705   7.118   4.483   2.823 -2.7281  0.4768  1.1495
  581TIP3   OH2 1706   1.327   1.824   0.680 -0.2159 -0.3322  0.5518
  581TIP3    H1 1707   1.387   1.856   0.613 -1.3018  1.2620  0.2829
  581TIP3    H2 1708   1.338   1.729   0.678  0.6627 -0.2426 -1.0270
  582TIP3   OH2 1709   1.484   6.536   1.845  0.2027 -0.2192  0.3304
  582TIP3    H1 1710   1.500   6.490   1.762 -0.7442  0.0459 -0.0197
  582TIP3    H2 1711   1.421   6.481   1.891 -0.4130  0.3659  0.2063
  583TIP3   OH2 1712   4.534   2.951   5.577  0.1165  0.1774  0.7079
  583TIP3    H1 1713   4.497   2.864   5.588 -0.3242  0.4137  1.1213
  583TIP3    H2 1714   4.558   2.979   5.665 -0.5147  0.8043  0.6924
  584TIP3   OH2 1715   5.781   3.752   4.796 -0.9872  0.0308 -0.0927
  584TIP3    H1 1716   5.796   3.809   4.872 -2.2264 -0.1065  0.2863
  584TIP3    H2 1717   5.732   3.807   4.735 -3.7104 -1.0530  0.9731
  585TIP3   OH2 1718   2.762   5.897   1.669  0.4738  0.3180  0.0031
  585TIP3    H1 1719   2.746   5.978   1.718  2.0753 -0.5172  2.0858
  585TIP3    H2 1720   2.726   5.828   1.726  0.4422 -0.5489 -1.0453
  586TIP3   OH2 1721   6.405   2.532   1.098 -0.0638 -0.6841  0.3729
  586TIP3    H1 1722   6.447   2.503   1.017  0.0916  0.7494 -0.0921
  586TIP3    H2 1723   6.327   2.579   1.068  0.3221  0.3895  1.0111
  587TIP3   OH2 1724   5.342   6.566   1.736  0.3943  0.1256 -0.3639
  587TIP3    H1 1725   5.272   6.527   1.789 -0.8873  1.0567 -1.2971
  587TIP3    H2 1726   5.406   6.597   1.800 -0.2811 -0.2935  0.5441
  588TIP3   OH2 1727   5.155   3.589   4.483  0.0962  0.2611 -0.2063
  588TIP3    H1 1728   5.080   3.541   4.447  0.1521  0.7668 -1.0278
  588TIP3    H2 1729   5.122   3.677   4.500  0.1760  0.1334  0.6347
  589TIP3   OH2 1730   5.566   3.445   2.873 -0.5241 -0.5909 -0.4366
  589TIP3    H1 1731   5.614   3.363   2.875 -2.6184 -1.8911 -0.0351
  589TIP3    H2 1732   5.513   3.441   2.793 -0.6123  0.3860 -0.4439
  590TIP3   OH2 1733   2.726   1.014   1.550 -0.5534  0.0186  0.1926
  590TIP3    H1 1734   2.773   1.090   1.516 -0.8951  0.0232 -0.2709
  590TIP3    H2 1735   2.750   0.942   1.492 -0.8931 -0.0438  0.1276
  591TIP3   OH2 1736   5.285   0.153   2.267  0.0830 -0.4828 -0.4271
  591TIP3    H1 1737   5.361   0.103   2.295  1.2133  0.6812 -1.3311
  591TIP3    H2 1738   5.229   0.089   2.223  0.6667 -1.2906 -0.0174
  592TIP3   OH2 1739   4.992   4.873   2.055  0.1628  0.2642  0.0754
  592TIP3    H1 1740   5.020   4.946   2.000 -1.3270  0.7698 -0.0597
  592TIP3    H2 1741   4.993   4.908   2.144 -0.8507  0.5856 -0.0192
  593TIP3   OH2 1742   0.732   5.411   3.493 -0.4996  0.0314  0.1036
  593TIP3    H1 1743   0.682   5.481   3.453 -0.5291 -0.0362  0.0224
  593TIP3    H2 1744   0.802   5.456   3.541 -0.5948  0.1220  0.1578
  594TIP3   OH2 1745   2.244   0.405   5.539 -0.5717 -1.4310 -0.2671
  594TIP3    H1 1746   2.277   0.462   5.470 -1.9734 -0.2018  0.0376
  594TIP3    H2 1747   2.322   0.375   5.585  0.1894  0.9779  0.1344
  595TIP3   OH2 1748   1.917   1.992   0.408 -0.5166 -0.3353  0.6785
  595TIP3    H1 1749   1.922   2.076   0.363 -1.2482 -0.0356  1.1425
  595TIP3    H2 1750   1.827   1.987   0.439 -0.7932 -1.7576 -0.2399
  596TIP3   OH2 1751   3.138   1.892   2.801  0.9222 -0.5437 -0.1423
  596TIP3    H1 1752   3.177   1.941   2.874 -0.3447  2.6878 -1.4346
  596TIP3    H2 1753   3.194   1.912   2.726 -1.5840  2.2786 -1.5141
  597TIP3   OH2 1754   4.038   2.093   4.299 -0.3213 -0.0821  0.1362
  597TIP3    H1 1755   3.955   2.053   4.273 -0.9391  0.9264  0.4745
  597TIP3    H2 1756   4.015   2.149   4.374  0.7648 -0.1978  0.5645
  598TIP3   OH2 1757   3.805   6.495   4.837  0.2550 -0.1418 -0.2578
  598TIP3    H1 1758   3.829   6.493   4.745  2.0562 -0.5392  0.1883
  598TIP3    H2 1759   3.785   6.404   4.859  1.8043 -0.3938  0.2055
  599TIP3   OH2 1760   6.423   3.262   0.589 -0.6936  0.5929 -0.6887
  599TIP3    H1 1761   6.328   3.251   0.590 -0.7679  1.2148 -0.8661
  599TIP3    H2 1762   6.453   3.211   0.665 -1.0802 -0.3228 -1.1303
  600TIP3   OH2 1763   4.810   2.660   3.683 -0.4146 -0.1615 -0.7854
  600TIP3    H1 1764   4.891   2.700   3.652 -0.8133 -1.2368 -3.4634
  600TIP3    H2 1765   4.746   2.731   3.685 -0.0240  0.2017 -1.1442
  601TIP3   OH2 1766   5.387   1.862   3.347 -0.8879 -0.0793 -0.0347
  601TIP3    H1 1767   5.363   1.939   3.295 -1.0013  0.1899  0.4118
  601TIP3    H2 1768   5.479   1.846   3.325 -1.0136 -0.1407 -0.5325
  602TIP3   OH2 1769   6.128   2.506   4.347  0.0366 -0.2940  0.2312
  602TIP3    H1 1770   6.183   2.470   4.416  0.1292 -3.3317 -1.2777
  602TIP3    H2 1771   6.189   2.532   4.278 -0.2186 -0.3851 -0.0310
  603TIP3   OH2 1772   4.078   4.335   2.453 -0.2577 -0.0235  0.0504
  603TIP3    H1 1773   4.048   4.424   2.470  0.0714 -0.1377  1.3117
  603TIP3    H2 1774   4.040   4.282   2.524 -0.2941 -0.8574 -0.5697
  604TIP3   OH2 1775   0.961   2.713   5.281  0.1897 -0.8366 -0.4726
  604TIP3    H1 1776   1.055   2.721   5.262  0.2108 -0.1045 -0.0906
  604TIP3    H2 1777   0.943   2.619   5.274  0.6015 -0.8255 -2.1526
  605TIP3   OH2 1778   6.723   4.519   5.090 -0.5954  0.2256  0.3861
  605TIP3    H1 1779   6.644   4.569   5.069 -0.7670 -0.2504 -0.1266
  605TIP3    H2 1780   6.737   4.464   5.013  0.7903  0.9989  0.0588
  606TIP3   OH2 1781   6.828   6.644   2.815  0.2954 -0.4885  0.4012
  606TIP3    H1 1782   6.861   6.555   2.828  0.5253 -0.3910  0.4858
  606TIP3    H2 1783   6.889   6.699   2.864 -0.2872 -0.3584  0.9868
  607TIP3   OH2 1784   3.199   4.882   3.517 -1.0751  0.0155  0.2875
  607TIP3    H1 1785   3.157   4.853   3.436 -0.2695 -1.1211  0.2480
  607TIP3    H2 1786   3.150   4.838   3.586 -0.3521 -0.8472  0.2720
  608TIP3   OH2 1787   2.360   2.757   1.703  0.7148  0.9180 -0.5518
  608TIP3    H1 1788   2.412   2.739   1.625  0.1148 -1.1687 -0.5404
  608TIP3    H2 1789   2.273   2.721   1.684  0.3001  1.1625  0.7357
  609TIP3   OH2 1790   3.540   0.258   2.295 -0.1198 -0.0122  0.1119
  609TIP3    H1 1791   3.580   0.289   2.214 -0.6196 -0.6090 -0.3782
  609TIP3    H2 1792   3.499   0.336   2.333 -0.7282  0.0845 -0.7235
  610TIP3   OH2 1793   3.160   1.414   3.185 -0.0553  0.2343 -0.4127
  610TIP3    H1 1794   3.107   1.488   3.158 -0.6010 -0.1975 -0.5393
  610TIP3    H2 1795   3.101   1.360   3.238  0.5720  0.3140  0.4035
  611TIP3   OH2 1796   6.108   5.388   5.833  0.2742  0.1007 -0.0859
  611TIP3    H1 1797   6.142   5.313   5.881  0.5682  0.0690 -0.3374
  611TIP3    H2 1798   6.149   5.464   5.874 -0.0508  0.1299  0.1913
  612TIP3   OH2 1799   2.801   2.940   0.263  0.8372 -0.3290  0.4430
  612TIP3    H1 1800   2.747   3.009   0.303  0.1351 -1.4481  1.4940
  612TIP3    H2 1801   2.759   2.924   0.179  1.6730  1.2792 -0.3285
  613TIP3   OH2 1802   4.493   2.007   4.387  0.1093 -0.0515 -0.8882
  613TIP3    H1 1803   4.549   1.982   4.460 -0.7861 -0.2928 -0.2561
  613TIP3    H2 1804   4.551   2.052   4.326  0.7558  0.8262  0.3085
  614TIP3   OH2 1805   4.852   5.351   5.127 -0.4412 -0.4609  0.2784
  614TIP3    H1 1806   4.801   5.279   5.163  0.5315 -1.7978 -0.8991
  614TIP3    H2 1807   4.878   5.320   5.040  0.0353  1.3088 -0.2445
  615TIP3   OH2 1808   5.459   3.762   5.246 -0.2525  0.2595 -0.0610
  615TIP3    H1 1809   5.418   3.709   5.178 -2.2003 -0.6274  1.6966
  615TIP3    H2 1810   5.471   3.848   5.205 -1.1436 -0.2940 -1.5883
  616TIP3   OH2 1811   6.137   0.935   5.794 -0.0669 -0.2948  0.6520
  616TIP3    H1 1812   6.155   0.988   5.872  0.1870  0.1543  0.3017
  616TIP3    H2 1813   6.043   0.917   5.797 -0.5964  1.8831 -0.2263
  617TIP3   OH2 1814   4.692   6.356   0.500  0.6993 -0.7221 -0.1833
  617TIP3    H1 1815   4.649   6.439   0.523  0.3136 -0.9478 -0.0863
  617TIP3    H2 1816   4.621   6.292   0.497  0.8188 -0.8130 -1.4636
  618TIP3   OH2 1817   6.779   1.305   4.525 -0.0378 -0.0956 -0.3099
  618TIP3    H1 1818   6.777   1.215   4.558 -2.2890 -0.3884 -1.0524
  618TIP3    H2 1819   6.764   1.296   4.431  0.4265  1.0375 -0.5121
  619TIP3   OH2 1820   0.720   4.395   5.199  0.4824 -0.4882  0.0343
  619TIP3    H1 1821   0.669   4.476   5.203 -0.0526 -0.8055 -0.1944
  619TIP3    H2 1822   0.712   4.366   5.108 -1.2798 -2.0156  0.6216
  620TIP3   OH2 1823   4.980   3.676   5.311  0.3365  0.2116 -0.0686
  620TIP3    H1 1824   4.982   3.592   5.266  0.5470  0.7631 -1.1232
  620TIP3    H2 1825   5.072   3.695   5.331  0.1489 -0.6394  1.8164
  621TIP3   OH2 1826   1.538   6.211   4.431  0.5110 -0.1591  0.7275
  621TIP3    H1 1827   1.509   6.152   4.500 -0.7556 -1.6267 -0.9833
  621TIP3    H2 1828   1.481   6.192   4.357  0.4121  2.8570 -0.1116
  622TIP3   OH2 1829   5.851   5.027   1.211 -0.2163 -0.6148  0.5253
  622TIP3    H1 1830   5.935   5.010   1.255 -0.1594  0.2285  0.7728
  622TIP3    H2 1831   5.786   5.024   1.282 -0.3998 -1.3117  0.3262
  623TIP3   OH2 1832   1.622   2.155   4.675 -0.1701  0.6178  0.1477
  623TIP3    H1 1833   1.634   2.154   4.580  1.0485 -0.8528  0.2705
  623TIP3    H2 1834   1.572   2.076   4.694  2.3322 -0.8910  0.9588
  624TIP3   OH2 1835   3.303   6.447   1.344  0.3693  1.1040  0.2456
  624TIP3    H1 1836   3.354   6.388   1.289 -0.1158  1.3155 -0.4561
  624TIP3    H2 1837   3.267   6.391   1.413  0.0759  0.6143 -0.2989
  625TIP3   OH2 1838   5.628   4.360   1.027  0.2578  0.1859  0.2434
  625TIP3    H1 1839   5.563   4.328   1.089  0.0152 -1.0410 -0.5965
  625TIP3    H2 1840   5.711   4.323   1.058 -0.1789 -2.3887 -1.3608
  626TIP3   OH2 1841   0.826   2.400   4.351  0.3625  0.1827  0.2905
  626TIP3    H1 1842   0.773   2.322   4.369  0.3716 -0.0316 -0.5254
  626TIP3    H2 1843   0.913   2.377   4.382  1.0627 -1.2745 -2.4129
  627TIP3   OH2 1844   2.514   4.808   5.496 -0.0408 -0.1246 -0.1767
  627TIP3    H1 1845   2.461   4.785   5.419  2.0537 -1.9720 -1.2047
  627TIP3    H2 1846   2.589   4.747   5.492  1.9039  1.9913  1.4360
  628TIP3   OH2 1847   3.215   2.275   4.891 -0.1010  0.7938 -0.7559
  628TIP3    H1 1848   3.125   2.253   4.868 -0.5258  0.3956  1.1341
  628TIP3    H2 1849   3.265   2.257   4.811 -1.7082  1.2479 -1.9050
  629TIP3   OH2 1850   4.485   3.905   5.318  0.5226 -0.7402  0.0464
  629TIP3    H1 1851   4.431   3.930   5.243  0.7623  0.9708  0.3909
  629TIP3    H2 1852   4.423   3.876   5.384  0.3765 -3.5130 -1.1864
  630TIP3   OH2 1853   0.480   0.333   5.516 -0.6373  0.6712 -0.5501
  630TIP3    H1 1854   0.518   0.409   5.561  0.5994 -0.2957  0.1120
  630TIP3    H2 1855   0.468   0.268   5.585 -0.6781 -0.1158 -1.2815
  631TIP3   OH2 1856   4.800   5.776   2.700  0.5849  0.3976 -1.0513
  631TIP3    H1 1857   4.854   5.772   2.620  0.2657 -0.6685 -1.2347
  631TIP3    H2 1858   4.855   5.734   2.767  0.5078  0.5136 -0.9161
  632TIP3   OH2 1859   3.124   1.067   3.598 -0.6240  0.1727  0.0521
  632TIP3    H1 1860   3.048   1.122   3.579 -0.2705  1.1612  1.3498
  632TIP3    H2 1861   3.107   0.986   3.551 -1.8649  0.8474 -0.7263
  633TIP3   OH2 1862   6.874   4.764   1.441  0.0159 -0.0966 -0.3553
  633TIP3    H1 1863   6.843   4.830   1.379  0.2523  2.0738  1.6886
  633TIP3    H2 1864   6.794   4.735   1.486 -0.0226 -0.8846 -0.9066
  634TIP3   OH2 1865   0.416   4.771   1.298 -0.0963 -0.0796 -0.2535
  634TIP3    H1 1866   0.322   4.758   1.311 -0.2744  1.4976  0.2067
  634TIP3    H2 1867   0.457   4.692   1.333 -1.2421 -0.7336 -0.3646
  635TIP3   OH2 1868   3.056  -0.008   1.009 -0.1900  0.4643 -0.0778
  635TIP3    H1 1869   3.020  -0.024   0.921  2.0890  1.3434 -1.2438
  635TIP3    H2 1870   2.984   0.034   1.056 -1.8149 -0.9140 -1.1542
  636TIP3   OH2 1871   2.653   4.964   5.706  0.0574 -0.2953  0.3217
  636TIP3    H1 1872   2.699   4.889   5.743  0.4158  0.5937  1.7612
  636TIP3    H2 1873   2.618   4.932   5.623  2.0562 -1.4002 -0.1587
  637TIP3   OH2 1874   6.658   1.667   5.070 -0.4350  0.2573 -0.4202
  637TIP3    H1 1875   6.719   1.596   5.092 -0.4422  0.2143 -0.5356
  637TIP3    H2 1876   6.616   1.689   5.153  1.6878  2.1635  0.2299
  638TIP3   OH2 1877   1.075   1.868   0.552  0.7494  0.1486 -0.5370
  638TIP3    H1 1878   1.159   1.841   0.590 -0.6876 -1.8967  1.4918
  638TIP3    H2 1879   1.042   1.936   0.611  0.4067  0.0028 -0.5570
  639TIP3   OH2 1880   3.644   5.208   5.703 -0.7653  0.3696  0.0155
  639TIP3    H1 1881   3.601   5.262   5.770 -0.1315  1.4464 -0.4207
  639TIP3    H2 1882   3.723   5.175   5.746  0.2823  2.0531 -0.5316
  640TIP3   OH2 1883   2.226   3.684   1.254  0.0265  0.2492  0.1683
  640TIP3    H1 1884   2.293   3.638   1.304  1.4383  0.6682 -1.2490
  640TIP3    H2 1885   2.254   3.776   1.256 -0.0704  0.3245 -1.0401
  641TIP3   OH2 1886   6.375   2.978   2.064 -0.6260  0.3524  0.2023
  641TIP3    H1 1887   6.301   3.037   2.080 -2.1715 -1.7929  1.5733
  641TIP3    H2 1888   6.392   2.938   2.149  2.1789  0.7376 -0.0788
  642TIP3   OH2 1889   1.112   6.241   3.515  0.2236 -0.4977 -0.2742
  642TIP3    H1 1890   1.166   6.266   3.590 -0.5677  0.3494  0.0361
  642TIP3    H2 1891   1.154   6.163   3.479  0.0336 -1.5408  1.6743
  643TIP3   OH2 1892   7.164   6.410   4.906 -1.0160  0.1597 -0.2357
  643TIP3    H1 1893   7.147   6.322   4.873 -0.2458  0.0297 -0.2924
  643TIP3    H2 1894   7.162   6.401   5.002 -0.0113 -0.1151 -0.2285
  644TIP3   OH2 1895   0.693   5.679   4.231 -0.9420  0.1752 -0.1884
  644TIP3    H1 1896   0.764   5.652   4.172  0.3670 -0.9049  1.7561
  644TIP3    H2 1897   0.627   5.716   4.173 -0.0726 -1.4754 -2.4040
  645TIP3   OH2 1898   0.085   6.748   5.319  0.2378  0.4127 -0.0679
  645TIP3    H1 1899   0.096   6.730   5.412 -0.1180 -1.1586 -0.3072
  645TIP3    H2 1900   0.003   6.705   5.296  1.1087 -0.5964 -1.4339
  646TIP3   OH2 1901   0.346   3.679   2.100  0.5453 -0.4242 -0.4602
  646TIP3    H1 1902   0.336   3.767   2.065 -0.6507 -0.9698 -1.6076
  646TIP3    H2 1903   0.257   3.654   2.127  0.8936 -1.2318 -0.0151
  647TIP3   OH2 1904   6.029   6.229   5.441 -0.3554  0.2800  0.1127
  647TIP3    H1 1905   6.055   6.157   5.499 -0.5315 -0.6373 -0.9119
  647TIP3    H2 1906   6.034   6.307   5.496 -1.7536 -0.7051  1.7306
  648TIP3   OH2 1907   2.673   1.289   1.652  0.4925 -0.3700  0.4664
  648TIP3    H1 1908   2.680   1.288   1.557  0.5842  0.2983  0.4649
  648TIP3    H2 1909   2.579   1.278   1.669  0.2692  1.0020  0.2541
  649TIP3   OH2 1910   0.790   5.850   5.393 -0.5150  0.5840 -0.7533
  649TIP3    H1 1911   0.737   5.896   5.458 -0.3662  1.9243 -1.5542
  649TIP3    H2 1912   0.840   5.786   5.444 -2.2812 -0.1577  0.1108
  650TIP3   OH2 1913   1.295   3.608   2.205  0.7527  0.3941  0.3953
  650TIP3    H1 1914   1.325   3.612   2.296  0.1734  0.8053  0.5735
  650TIP3    H2 1915   1.200   3.620   2.211  0.5077 -1.1948 -0.1360
  651TIP3   OH2 1916   4.102   5.048   0.997  0.2133  0.4886 -0.2423
  651TIP3    H1 1917   4.063   5.015   0.917  2.6749  0.5560 -1.5838
  651TIP3    H2 1918   4.155   4.976   1.031 -0.3055  0.6579  1.0061
  652TIP3   OH2 1919   1.000   1.431   1.104 -0.3159  0.1925 -0.3329
  652TIP3    H1 1920   0.914   1.390   1.116 -0.5646 -0.5942 -3.7852
  652TIP3    H2 1921   0.981   1.520   1.075  0.1145  0.7155  0.9376
  653TIP3   OH2 1922   2.758   5.620   5.556 -0.2320 -0.0310  0.4515
  653TIP3    H1 1923   2.817   5.615   5.480 -1.0665 -0.3157 -0.1936
  653TIP3    H2 1924   2.809   5.582   5.627  0.1097 -1.0141 -0.2786
  654TIP3   OH2 1925   5.842   4.691   4.077 -0.7133  0.2498 -0.1956
  654TIP3    H1 1926   5.905   4.763   4.078  3.4332 -2.9345 -1.6339
  654TIP3    H2 1927   5.840   4.662   3.986 -0.3523 -2.7763  0.6535
  655TIP3   OH2 1928   5.259   4.202   5.218 -0.5044 -0.0316  0.3109
  655TIP3    H1 1929   5.232   4.184   5.128 -1.9238  2.0430  0.2309
  655TIP3    H2 1930   5.221   4.131   5.269 -2.9023  0.6855 -0.3227
  656TIP3   OH2 1931   2.751   3.036   1.745  0.0105  0.5093 -0.3139
  656TIP3    H1 1932   2.703   3.100   1.693 -0.7026  0.5850  0.4135
  656TIP3    H2 1933   2.807   2.991   1.682 -0.7618  0.6593 -1.1321
  657TIP3   OH2 1934   1.352   2.474   1.142 -0.3430  0.3169 -0.7740
  657TIP3    H1 1935   1.343   2.387   1.104  2.1365  0.4851 -1.9525
  657TIP3    H2 1936   1.344   2.461   1.236 -0.0196 -1.1961 -0.9357
  658TIP3   OH2 1937   5.076   5.470   1.783 -0.1786  0.1829 -0.2592
  658TIP3    H1 1938   5.042   5.555   1.755  1.3558  0.2554 -2.0857
  658TIP3    H2 1939   5.021   5.446   1.857 -0.3153  3.0249  0.6999
  659TIP3   OH2 1940   6.855   5.009   4.539  0.1352 -0.3441  0.3839
  659TIP3    H1 1941   6.828   5.004   4.630 -0.1319  0.9471  0.3894
  659TIP3    H2 1942   6.936   5.061   4.541 -0.1063  0.0610 -0.1512
  660TIP3   OH2 1943   6.363   6.316   4.615 -0.2009 -0.1433  0.3111
  660TIP3    H1 1944   6.423   6.270   4.674 -0.0542 -1.7139 -0.9909
  660TIP3    H2 1945   6.403   6.402   4.602  0.7324 -0.4512  1.0162
  661TIP3   OH2 1946   3.675   5.491   3.788 -0.6585 -0.2215  0.2018
  661TIP3    H1 1947   3.740   5.428   3.818  1.5045  1.0112 -1.5344
  661TIP3    H2 1948   3.707   5.518   3.701 -2.9254  1.2805 -0.2498
  662TIP3   OH2 1949   2.556   2.772   1.461 -0.2186 -0.3663  0.1883
  662TIP3    H1 1950   2.575   2.764   1.368 -0.1683  0.3125  0.1300
  662TIP3    H2 1951   2.635   2.743   1.505 -0.0903 -0.2949  0.0054
  663TIP3   OH2 1952   6.706   4.435   5.735  0.0030  0.1915  0.0659
  663TIP3    H1 1953   6.641   4.399   5.795 -1.5532  1.3189 -0.8768
  663TIP3    H2 1954   6.785   4.384   5.752 -0.9680 -0.8777  1.6116
  664TIP3   OH2 1955   3.473   5.446   2.075 -0.6450  0.1460 -1.0744
  664TIP3    H1 1956   3.537   5.389   2.118 -0.6947  0.3344 -0.7545
  664TIP3    H2 1957   3.390   5.401   2.086 -0.6333  0.1143 -1.1149
  665TIP3   OH2 1958   6.756   0.091   0.245  0.6018 -1.0353 -0.4026
  665TIP3    H1 1959   6.741   0.037   0.323  1.5873 -0.0627  0.4948
  665TIP3    H2 1960   6.718   0.176   0.266  1.0135 -0.7147 -0.9158
  666TIP3   OH2 1961   2.301   5.355   2.121  0.0488 -0.2504  0.3761
  666TIP3    H1 1962   2.302   5.264   2.151  0.4801 -0.3664  0.0233
  666TIP3    H2 1963   2.310   5.407   2.201  0.0104 -0.5204  0.5578
  667TIP3   OH2 1964   6.169   5.798   4.716 -0.2735 -0.3534  0.1699
  667TIP3    H1 1965   6.094   5.799   4.775 -0.9110 -0.0614 -0.6349
  667TIP3    H2 1966   6.180   5.890   4.690 -1.2398 -0.7323 -1.7053
  668TIP3   OH2 1967   5.110   5.425   3.483 -0.2619  0.0489 -0.4870
  668TIP3    H1 1968   5.021   5.459   3.493 -0.4393 -0.0827 -1.4957
  668TIP3    H2 1969   5.120   5.411   3.389  1.2179  1.1220 -0.5338
  669TIP3   OH2 1970   6.560   6.320   4.195  0.5253 -0.3855  0.0690
  669TIP3    H1 1971   6.617   6.369   4.255 -1.4516  1.8083  0.2779
  669TIP3    H2 1972   6.499   6.273   4.253 -0.6324  0.7895 -0.1672
  670TIP3   OH2 1973   4.613   4.060   3.792 -0.7746  0.6653 -0.2688
  670TIP3    H1 1974   4.621   4.153   3.813  0.1144  1.1796 -2.6083
  670TIP3    H2 1975   4.520   4.041   3.805 -1.1818  2.1641 -0.7103
  671TIP3   OH2 1976   2.870   4.400   1.380  0.5033 -0.2064 -0.8922
  671TIP3    H1 1977   2.807   4.329   1.386  0.6672 -0.5435 -2.4975
  671TIP3    H2 1978   2.855   4.437   1.293  1.5329  0.6559 -0.7230
  672TIP3   OH2 1979   7.022   2.252   0.752 -0.3369  0.3728  0.0909
  672TIP3    H1 1980   7.015   2.303   0.672 -0.0704  1.1065  0.5252
  672TIP3    H2 1981   6.953   2.186   0.745 -1.8024  1.8263  0.2569
  673TIP3   OH2 1982   6.544   2.693   1.325  0.0595  0.0265  0.0812
  673TIP3    H1 1983   6.456   2.726   1.345 -0.4233 -1.0341 -0.2149
  673TIP3    H2 1984   6.529   2.622   1.262  1.2359  0.7360 -1.0497
  674TIP3   OH2 1985   2.314   3.474   4.926  0.3362  0.3854 -0.5440
  674TIP3    H1 1986   2.374   3.426   4.869 -0.8427 -1.6255 -0.1654
  674TIP3    H2 1987   2.334   3.442   5.014  0.4009  1.5718 -0.1087
  675TIP3   OH2 1988   4.092   5.503   5.599 -0.1839  0.2744  0.1814
  675TIP3    H1 1989   4.100   5.536   5.509 -1.1752 -0.1899 -0.0836
  675TIP3    H2 1990   4.154   5.430   5.603 -1.5273 -0.9666 -0.7461
  676TIP3   OH2 1991   3.842   1.798   0.404 -0.0986 -0.3861 -0.2497
  676TIP3    H1 1992   3.917   1.754   0.444 -0.0294 -0.9622 -1.0068
  676TIP3    H2 1993   3.819   1.867   0.467  1.8989  0.7097 -0.6054
  677TIP3   OH2 1994   4.042   4.143   2.718 -0.5685 -0.3786 -0.3309
  677TIP3    H1 1995   4.109   4.203   2.752  0.6274 -0.4413 -2.4135
  677TIP3    H2 1996   4.053   4.063   2.770 -0.5000  0.3349  0.7904
  678TIP3   OH2 1997   6.814   0.246   1.390 -0.2933 -0.5020 -0.2884
  678TIP3    H1 1998   6.904   0.215   1.401 -0.1990 -0.0032  0.4257
  678TIP3    H2 1999   6.769   0.217   1.469 -0.5156  0.0966 -0.1908
  679TIP3   OH2 2000   2.992   6.027   3.847  0.9302  0.4538  0.1900
  679TIP3    H1 2001   2.963   6.049   3.935 -0.3226  1.1950 -0.3832
  679TIP3    H2 2002   2.943   6.087   3.790  0.7916 -0.8296 -1.0894
  680TIP3   OH2 2003   0.584   5.364   4.894  0.6196  0.2472  0.3952
  680TIP3    H1 2004   0.499   5.339   4.929  0.2085  1.2715  0.1475
  680TIP3    H2 2005   0.589   5.459   4.908  0.6793  0.5989 -1.7770
  681TIP3   OH2 2006   6.316   5.228   4.920  0.2251 -0.2147 -0.2083
  681TIP3    H1 2007   6.305   5.310   4.872 -1.3487 -0.9220 -1.1398
  681TIP3    H2 2008   6.251   5.232   4.990 -0.0161 -0.7474 -0.3942
  682TIP3   OH2 2009   5.383   4.103   4.509 -0.1432 -0.2214 -0.0244
  682TIP3    H1 2010   5.442   4.031   4.534  1.5014 -0.6124 -4.1754
  682TIP3    H2 2011   5.326   4.064   4.442 -1.0507  1.6931 -0.4243
  683TIP3   OH2 2012   6.319   5.349   1.466  0.0301  0.6027 -0.0064
  683TIP3    H1 2013   6.244   5.289   1.465  0.8858 -0.5953 -3.2574
  683TIP3    H2 2014   6.281   5.435   1.448 -0.7027  0.2692 -0.1131
  684TIP3   OH2 2015   2.872   4.060   1.372  0.7198  0.0411  0.2687
  684TIP3    H1 2016   2.803   4.089   1.431  1.4255  1.8676  0.2469
  684TIP3    H2 2017   2.845   3.972   1.345 -1.3657  0.5377  0.6009
  685TIP3   OH2 2018   3.543   3.069   1.119 -0.2202 -0.1034 -0.0524
  685TIP3    H1 2019   3.499   2.990   1.087 -0.3623  0.9699 -2.7566
  685TIP3    H2 2020   3.636   3.054   1.102 -0.0799 -0.2517  0.7985
  686TIP3   OH2 2021   0.752   0.638   1.320  0.9827  0.0657  0.9346
  686TIP3    H1 2022   0.833   0.609   1.279  1.1523  1.0022  0.5796
  686TIP3    H2 2023   0.685   0.578   1.286  1.0285  1.0976 -1.1584
  687TIP3   OH2 2024   6.642   0.950   3.195  0.0780 -0.4244  0.1637
  687TIP3    H1 2025   6.712   0.989   3.247 -0.3925 -0.2018  0.6373
  687TIP3    H2 2026   6.650   0.992   3.109 -2.1376  2.9458  1.3879
  688TIP3   OH2 2027   3.138   3.549   4.255  0.1501  0.2476  0.3412
  688TIP3    H1 2028   3.104   3.461   4.271  0.7364 -0.2764 -1.1339
  688TIP3    H2 2029   3.068   3.608   4.284 -0.4173 -0.7015  0.9356
  689TIP3   OH2 2030   3.553   3.441   4.356 -0.6049  0.2581 -0.1227
  689TIP3    H1 2031   3.578   3.482   4.438  1.1870 -1.8582  0.4933
  689TIP3    H2 2032   3.622   3.465   4.295 -0.3429 -0.5560 -0.1617
  690TIP3   OH2 2033   4.766   5.234   2.711  0.2105 -1.1270 -0.4516
  690TIP3    H1 2034   4.789   5.142   2.724 -1.9444 -1.5354  1.1101
  690TIP3    H2 2035   4.689   5.231   2.654  0.2850 -0.2766 -0.6063
  691TIP3   OH2 2036   4.236   4.213   3.708  0.1624  0.7013 -0.0099
  691TIP3    H1 2037   4.245   4.200   3.803  3.9311 -3.9522 -0.6490
  691TIP3    H2 2038   4.151   4.172   3.687 -0.0709  0.5095  1.1918
  692TIP3   OH2 2039   6.479   4.726   2.006  0.4086 -0.3423 -0.0708
  692TIP3    H1 2040   6.558   4.777   1.988 -0.3195  1.4530  1.4375
  692TIP3    H2 2041   6.407   4.789   1.994 -0.5055 -0.8302  2.2424
  693TIP3   OH2 2042   5.457   5.533   4.057 -0.0077 -0.0729  0.0663
  693TIP3    H1 2043   5.429   5.617   4.092  1.0868 -0.6596  2.6077
  693TIP3    H2 2044   5.419   5.468   4.116  0.7144 -1.2524 -0.7041
  694TIP3   OH2 2045   5.961   2.393   4.011  0.3311 -0.4201 -0.4901
  694TIP3    H1 2046   6.023   2.465   4.007 -1.5572  1.3332 -0.1897
  694TIP3    H2 2047   5.990   2.340   4.085  1.2707  0.5147 -0.1680
  695TIP3   OH2 2048   3.229   4.816   4.394 -0.2639  0.2729  0.3445
  695TIP3    H1 2049   3.201   4.788   4.306 -1.3176  0.5850  0.5663
  695TIP3    H2 2050   3.244   4.734   4.441  1.6833  0.0708 -0.5071
  696TIP3   OH2 2051   3.590   2.661   4.053 -0.0645 -0.2321 -0.0845
  696TIP3    H1 2052   3.499   2.646   4.082 -0.7990  0.7106 -1.8008
  696TIP3    H2 2053   3.595   2.617   3.968  0.6308  0.9917 -0.6868
  697TIP3   OH2 2054   6.318   5.005   4.484  0.2157 -0.6043  0.3298
  697TIP3    H1 2055   6.250   5.056   4.528  0.8166 -1.0578  1.8557
  697TIP3    H2 2056   6.314   4.920   4.526  2.6447 -0.2187  1.4611
  698TIP3   OH2 2057   2.729   3.533   0.430 -0.2063  0.1030 -0.1678
  698TIP3    H1 2058   2.786   3.462   0.460 -0.2873 -0.6435 -1.6569
  698TIP3    H2 2059   2.755   3.609   0.482 -1.1319 -1.3095  2.6011
  699TIP3   OH2 2060   4.588   3.090   5.177 -0.1627 -0.2765  0.1132
  699TIP3    H1 2061   4.659   3.074   5.240  0.4527 -0.3812 -0.5871
  699TIP3    H2 2062   4.558   3.003   5.153 -0.8218 -0.2250  0.7146
  700TIP3   OH2 2063   2.069   1.754   4.376 -0.0631 -0.4371  0.8742
  700TIP3    H1 2064   2.128   1.704   4.320 -1.2989  1.1105 -2.0281
  700TIP3    H2 2065   1.985   1.709   4.369 -0.2756 -0.1397  1.4291
  701TIP3   OH2 2066   6.314   1.879   1.229  0.2362 -0.3132  0.0341
  701TIP3    H1 2067   6.322   1.958   1.175  1.0160 -0.2596  0.2084
  701TIP3    H2 2068   6.228   1.843   1.207  0.3630 -0.0591 -0.9301
  702TIP3   OH2 2069   3.978   1.234   2.838 -0.2460 -0.2757  0.1872
  702TIP3    H1 2070   3.902   1.180   2.859  0.6421 -1.0044  1.6479
  702TIP3    H2 2071   3.940   1.316   2.805 -1.6388 -1.0320 -0.1602
  703TIP3   OH2 2072   2.325   5.503   5.541 -0.2591 -0.5030 -0.3008
  703TIP3    H1 2073   2.359   5.438   5.603  1.0451  0.4711  0.0631
  703TIP3    H2 2074   2.301   5.578   5.596  0.6629  0.2690 -0.9259
  704TIP3   OH2 2075   6.723   4.353   4.880  0.5286  0.2549  0.1888
  704TIP3    H1 2076   6.658   4.293   4.917 -0.4661  1.1961  0.0082
  704TIP3    H2 2077   6.679   4.395   4.806  1.6876  0.1758 -0.5694
  705TIP3   OH2 2078   3.521   3.851   1.075 -0.1919  0.5831 -0.4569
  705TIP3    H1 2079   3.595   3.811   1.029  0.6717  0.7312  0.7557
  705TIP3    H2 2080   3.512   3.938   1.036  0.3855  0.6236 -0.5071
  706TIP3   OH2 2081   4.657   1.216   2.255 -0.4847 -0.1634 -0.3786
  706TIP3    H1 2082   4.622   1.188   2.339 -0.8263  1.9749  0.2489
  706TIP3    H2 2083   4.596   1.181   2.190  0.2928 -2.6303  0.1176
  707TIP3   OH2 2084   6.759   5.179   1.067  0.3144  0.0863 -0.2148
  707TIP3    H1 2085   6.852   5.201   1.053  0.1663 -0.2424 -1.8025
  707TIP3    H2 2086   6.734   5.127   0.991 -1.4741  1.0589 -0.3451
  708TIP3   OH2 2087   4.844   5.761   3.402 -0.1011  0.2426  0.5327
  708TIP3    H1 2088   4.912   5.798   3.458  0.0497  0.8741 -0.0561
  708TIP3    H2 2089   4.766   5.812   3.423 -0.7577 -1.2872  2.1213
  709TIP3   OH2 2090   6.775   1.279   2.623  0.1059  0.4323 -0.4309
  709TIP3    H1 2091   6.751   1.186   2.622 -0.3980  0.5659 -0.7525
  709TIP3    H2 2092   6.796   1.297   2.715  4.7014 -1.1469 -0.8985
  710TIP3   OH2 2093   6.494   6.389   5.509  0.0034 -0.1825 -0.9345
  710TIP3    H1 2094   6.561   6.454   5.532  0.1428 -0.0590 -1.6534
  710TIP3    H2 2095   6.416   6.417   5.556  0.3180 -0.0395 -0.4850
  711TIP3   OH2 2096   3.479   3.429   3.490  0.1858  0.3282 -0.0463
  711TIP3    H1 2097   3.436   3.456   3.409  0.7113  0.9600 -0.1246
  711TIP3    H2 2098   3.424   3.359   3.525 -2.1526  2.5214  0.9780
  712TIP3   OH2 2099   5.969   4.308   0.327 -0.2603  0.0293  0.2193
  712TIP3    H1 2100   6.010   4.394   0.317  1.5514 -0.6561  1.2310
  712TIP3    H2 2101   5.876   4.323   0.310  0.2420  1.8664 -1.1928
  713TIP3   OH2 2102   5.960   3.593   3.558  0.3031  0.2544  0.2946
  713TIP3    H1 2103   5.904   3.670   3.561  0.0535  0.0463  1.3635
  713TIP3    H2 2104   6.029   3.611   3.621  0.2503 -0.3927  0.5387
  714TIP3   OH2 2105   4.436   6.029   0.223 -0.1388  0.5901  0.2345
  714TIP3    H1 2106   4.468   6.109   0.265  0.8158  0.1861  0.3043
  714TIP3    H2 2107   4.497   6.014   0.151 -0.0833 -0.2849  0.4591
  715TIP3   OH2 2108   3.890   2.926   0.261 -0.0648  0.0492  0.4085
  715TIP3    H1 2109   3.978   2.962   0.261  1.3797 -3.1286  1.8813
  715TIP3    H2 2110   3.859   2.936   0.351  0.2395 -1.9112  0.7690
  716TIP3   OH2 2111   1.281   5.137   1.062  0.4025  0.3491 -0.3225
  716TIP3    H1 2112   1.330   5.205   1.017 -0.2832  1.3286  0.3541
  716TIP3    H2 2113   1.210   5.184   1.106 -0.7548 -0.9379 -0.7352
  717TIP3   OH2 2114   2.994   3.333   1.021  0.1211  0.0251 -0.5036
  717TIP3    H1 2115   2.978   3.387   1.098 -0.7352  1.2450 -1.4822
  717TIP3    H2 2116   3.077   3.288   1.040  0.7201  1.4603  0.4960
  718TIP3   OH2 2117   4.638   3.565   4.172  0.5263  0.2862  1.1268
  718TIP3    H1 2118   4.653   3.524   4.257  1.6462 -0.9544  0.3634
  718TIP3    H2 2119   4.635   3.492   4.110  0.5320  1.2178 -0.0029
  719TIP3   OH2 2120   0.587   4.764   0.718 -0.1493 -0.0043 -0.1117
  719TIP3    H1 2121   0.663   4.774   0.660 -0.3269  2.4811 -0.0215
  719TIP3    H2 2122   0.574   4.851   0.756 -3.2364 -0.2319 -0.3692
  720TIP3   OH2 2123   3.953   6.682   2.080  0.2400  0.1032 -0.1907
  720TIP3    H1 2124   3.940   6.595   2.042  0.8161 -1.5538  3.0739
  720TIP3    H2 2125   3.871   6.702   2.124  0.5226  0.6305  0.1075
  721TIP3   OH2 2126   2.371   2.229   2.096  0.4090  0.0397 -0.6685
  721TIP3    H1 2127   2.377   2.144   2.052  0.8019  0.0847 -0.7114
  721TIP3    H2 2128   2.427   2.220   2.174 -0.1382  0.0196 -0.2740
  722TIP3   OH2 2129   6.893   2.193   3.022  0.3970 -0.2475 -0.0663
  722TIP3    H1 2130   6.969   2.170   2.968  0.2287 -0.0489 -0.3961
  722TIP3    H2 2131   6.818   2.170   2.967  0.1870 -1.8788  0.8514
  723TIP3   OH2 2132   1.627   5.110   0.272 -0.3223  0.0866  0.1734
  723TIP3    H1 2133   1.706   5.127   0.219 -0.7983  0.9833 -0.2790
  723TIP3    H2 2134   1.652   5.135   0.361  0.0137  0.0062  0.1058
  724TIP3   OH2 2135   5.857   6.715   1.693 -0.5190 -0.1489  0.1770
  724TIP3    H1 2136   5.793   6.647   1.673 -1.3738  0.0045  2.1281
  724TIP3    H2 2137   5.933   6.668   1.725  0.3226 -0.3216 -1.9537
  725TIP3   OH2 2138   3.469   4.916   1.626 -0.3972 -0.1433 -0.3072
  725TIP3    H1 2139   3.377   4.942   1.620 -0.6463 -0.7117  0.7491
  725TIP3    H2 2140   3.515   4.980   1.572 -1.6252 -1.1401 -2.6689
  726TIP3   OH2 2141   4.188   1.543   3.134  0.4608  0.6627 -0.3081
  726TIP3    H1 2142   4.095   1.556   3.154  0.3768  0.9841 -0.8892
  726TIP3    H2 2143   4.233   1.603   3.193  0.1570  2.4898 -1.8252
  727TIP3   OH2 2144   2.048   6.198   4.634 -0.2855 -0.1522 -0.4823
  727TIP3    H1 2145   1.966   6.153   4.610 -1.6764  1.3418  1.2062
  727TIP3    H2 2146   2.045   6.280   4.584 -1.4549  1.3416  1.8611
  728TIP3   OH2 2147   4.570   6.115   2.465  0.2536  0.3500 -0.1673
  728TIP3    H1 2148   4.490   6.064   2.473 -0.1787  0.9305 -0.7078
  728TIP3    H2 2149   4.612   6.108   2.551  0.2355 -0.9536 -0.2406
  729TIP3   OH2 2150   0.629   2.740   1.560  0.2510 -0.1109  0.0951
  729TIP3    H1 2151   0.559   2.737   1.495  0.3378  0.7430 -0.0500
  729TIP3    H2 2152   0.705   2.703   1.516 -0.0643 -0.9340  0.2148
  730TIP3   OH2 2153   1.222   3.815   5.306 -0.3326  0.8184 -0.1838
  730TIP3    H1 2154   1.135   3.778   5.320  0.4744 -1.4793 -0.8042
  730TIP3    H2 2155   1.275   3.742   5.275  1.8997  2.0963  0.3548
  731TIP3   OH2 2156   6.110   5.846   4.122  0.7033  0.0815  0.3102
  731TIP3    H1 2157   6.112   5.804   4.208  2.5631  1.6393  1.1054
  731TIP3    H2 2158   6.179   5.802   4.072  1.1666  0.6774  0.4095
  732TIP3   OH2 2159   5.162   5.403   5.077 -0.2059  0.0652 -0.5847
  732TIP3    H1 2160   5.213   5.484   5.071  1.3115 -0.8975 -1.6621
  732TIP3    H2 2161   5.145   5.379   4.985  0.8518 -1.6786 -0.3790
  733TIP3   OH2 2162   4.460   5.395   3.377 -0.3311  0.1175 -0.2426
  733TIP3    H1 2163   4.413   5.478   3.385  0.8319  1.1376 -2.9982
  733TIP3    H2 2164   4.406   5.341   3.320  0.0647 -0.1083 -0.4120
  734TIP3   OH2 2165   7.122   3.146   1.998 -0.4468  0.1573 -0.1253
  734TIP3    H1 2166   7.045   3.193   1.966 -0.8062 -0.9359 -0.9072
  734TIP3    H2 2167   7.107   3.136   2.092 -1.7530 -0.9115 -0.4242
  735TIP3   OH2 2168   1.908   1.582   1.008 -0.2050 -0.1354 -1.1047
  735TIP3    H1 2169   1.929   1.557   0.918 -0.1026 -0.8926 -0.8778
  735TIP3    H2 2170   1.897   1.499   1.054  0.2454  0.2384 -0.3014
  736TIP3   OH2 2171   6.558   1.231  -0.002  0.1541 -0.8343  0.1174
  736TIP3    H1 2172   6.578   1.200   0.086 -2.8310 -0.8539  0.9096
  736TIP3    H2 2173   6.502   1.307   0.012 -0.1783 -0.6923 -1.7727
  737TIP3   OH2 2174   2.300   2.946   4.743 -0.5926 -0.0022 -0.4338
  737TIP3    H1 2175   2.214   2.933   4.703 -0.5845 -1.3176 -0.0831
  737TIP3    H2 2176   2.352   2.872   4.711  0.5498  1.0081 -0.9868
  738TIP3   OH2 2177   4.118   5.570   4.397 -0.3093 -0.2539  0.1007
  738TIP3    H1 2178   4.197   5.606   4.357 -0.4499 -0.4943 -0.4044
  738TIP3    H2 2179   4.132   5.476   4.400  0.4077 -0.1417  2.1851
  739TIP3   OH2 2180   4.249   0.184   5.460  0.5040  0.0916 -0.3333
  739TIP3    H1 2181   4.230   0.208   5.369  0.1720 -0.3060 -0.3723
  739TIP3    H2 2182   4.267   0.268   5.503  0.7792  0.2761 -0.7874
  740TIP3   OH2 2183   6.126   2.593   3.823 -0.3481  0.1653  0.0317
  740TIP3    H1 2184   6.059   2.647   3.783  0.7358  0.3899 -1.5523
  740TIP3    H2 2185   6.162   2.541   3.751  1.4429  0.3403  0.7485
  741TIP3   OH2 2186   5.825   5.297   4.401 -0.5366 -0.4599 -0.6209
  741TIP3    H1 2187   5.834   5.277   4.494 -1.6856 -0.4909 -0.4941
  741TIP3    H2 2188   5.869   5.381   4.389  0.0564 -0.7023 -0.1530
  742TIP3   OH2 2189   1.546   5.495   5.716 -0.1637  0.3921  0.1446
  742TIP3    H1 2190   1.515   5.407   5.738 -0.6790  0.1416 -1.5191
  742TIP3    H2 2191   1.468   5.549   5.718 -0.2382  0.3476 -1.1066
  743TIP3   OH2 2192   6.244   0.155   4.339  0.2102  0.0371  0.5309
  743TIP3    H1 2193   6.153   0.126   4.335  0.3722 -0.7909  1.9054
  743TIP3    H2 2194   6.281   0.106   4.413  1.2275  1.8217  1.2700
  744TIP3   OH2 2195   6.117   2.178   1.135 -0.2410  0.3891 -0.0260
  744TIP3    H1 2196   6.170   2.203   1.060 -1.5734  2.0912 -0.4377
  744TIP3    H2 2197   6.142   2.238   1.204 -1.5705  1.2078 -0.2187
  745TIP3   OH2 2198   1.179   1.309   5.179  0.1531  0.0234  0.4063
  745TIP3    H1 2199   1.264   1.307   5.134  0.9361 -0.4528  1.8477
  745TIP3    H2 2200   1.184   1.385   5.237 -0.1557 -0.3844  0.9724
  746TIP3   OH2 2201   1.625   6.124   0.214 -0.3371 -0.4092  0.1390
  746TIP3    H1 2202   1.645   6.047   0.161  1.1183 -1.1276  1.6227
  746TIP3    H2 2203   1.670   6.196   0.169  0.9585 -1.0200  0.3909
  747TIP3   OH2 2204   0.196   3.857   0.447 -0.5188 -0.4568 -0.1472
  747TIP3    H1 2205   0.176   3.938   0.493 -1.2244 -0.8479  0.2583
  747TIP3    H2 2206   0.123   3.845   0.386  0.7847  0.4572 -1.9733
  748TIP3   OH2 2207   5.571   6.333   1.460  0.4188  0.2051 -0.5614
  748TIP3    H1 2208   5.652   6.314   1.507 -0.7443 -0.6424  1.2132
  748TIP3    H2 2209   5.544   6.419   1.493 -0.0066 -0.0506 -0.2260
  749TIP3   OH2 2210   5.754   1.328   3.956 -0.6635 -0.0072 -0.1447
  749TIP3    H1 2211   5.763   1.240   3.918 -0.3203  0.5542 -1.4101
  749TIP3    H2 2212   5.662   1.332   3.985 -1.0260 -0.3526 -1.2009
  750TIP3   OH2 2213   5.942   1.480   1.539  0.4396  0.2970  0.5499
  750TIP3    H1 2214   5.986   1.403   1.575  1.4356  0.3309 -0.5284
  750TIP3    H2 2215   5.923   1.457   1.448  2.1070  1.8086 -0.2626
  751TIP3   OH2 2216   5.418   2.158   5.694  0.0022 -0.0538  0.2385
  751TIP3    H1 2217   5.453   2.158   5.605 -2.1299 -0.3784 -0.6676
  751TIP3    H2 2218   5.426   2.249   5.723  0.6290  0.0688 -0.3014
  752TIP3   OH2 2219   0.399   3.565   1.015 -0.5566  0.1838  0.0099
  752TIP3    H1 2220   0.304   3.566   1.026 -0.4478 -0.9177  1.2981
  752TIP3    H2 2221   0.433   3.546   1.102  0.9311  1.8263 -0.1414
  753TIP3   OH2 2222   1.700   1.120   3.291  0.0395 -0.5193 -0.1198
  753TIP3    H1 2223   1.705   1.208   3.329  2.2937 -0.5053 -0.3482
  753TIP3    H2 2224   1.612   1.116   3.254 -1.0907  0.6212  2.2269
  754TIP3   OH2 2225   1.698   0.622   1.620  0.5347 -0.1058  0.1281
  754TIP3    H1 2226   1.757   0.577   1.560  1.4996  1.1271  0.1170
  754TIP3    H2 2227   1.701   0.570   1.700 -0.6370 -1.6767 -0.7801
  755TIP3   OH2 2228   1.500   2.424   4.800  0.3923 -0.3855 -1.0697
  755TIP3    H1 2229   1.534   2.342   4.764 -0.8738 -0.7663 -1.4715
  755TIP3    H2 2230   1.503   2.485   4.726 -1.2402 -0.8794 -1.6053
  756TIP3   OH2 2231   4.150   5.198   0.196 -0.0580 -0.0570  0.4509
  756TIP3    H1 2232   4.169   5.115   0.151  0.7025 -0.1660  0.9488
  756TIP3    H2 2233   4.188   5.265   0.139  1.0640 -0.2082  0.9998
  757TIP3   OH2 2234   6.133   2.707   2.570 -0.1981 -0.4185 -0.1059
  757TIP3    H1 2235   6.067   2.679   2.507 -1.6042 -0.3109  1.2659
  757TIP3    H2 2236   6.111   2.661   2.651  0.8853  0.2902  0.6330
  758TIP3   OH2 2237   6.964   4.490   5.285 -0.1436  0.0346 -0.0466
  758TIP3    H1 2238   6.891   4.495   5.224 -0.9604  0.1257  0.9208
  758TIP3    H2 2239   6.970   4.578   5.323 -1.8321 -0.8164  2.4522
  759TIP3   OH2 2240   2.600   0.052   0.539  0.3841  0.2110  0.7659
  759TIP3    H1 2241   2.629   0.141   0.524  0.8723 -0.0304  0.2581
  759TIP3    H2 2242   2.585   0.047   0.634 -2.8005  1.7733  0.4880
  760TIP3   OH2 2243   4.292   0.965   0.477 -0.6530  0.1207 -0.8147
  760TIP3    H1 2244   4.322   0.930   0.394 -2.7939 -2.2136 -0.7050
  760TIP3    H2 2245   4.197   0.954   0.475 -1.0162  2.3059  0.9541
  761TIP3   OH2 2246   3.026   5.402   0.100 -0.0702  0.4816  0.1189
  761TIP3    H1 2247   2.952   5.351   0.132  0.4051  0.4586  1.2374
  761TIP3    H2 2248   2.994   5.446   0.021 -0.8834 -0.4984 -0.1137
  762TIP3   OH2 2249   6.944   5.473   2.026 -0.2432  0.0583  0.2587
  762TIP3    H1 2250   6.973   5.403   1.967 -1.6002 -0.5942  0.3322
  762TIP3    H2 2251   6.849   5.468   2.023 -0.3373  0.9534  1.4162
  763TIP3   OH2 2252   6.674   0.179   2.114  0.1639  0.3138  0.1126
  763TIP3    H1 2253   6.703   0.096   2.075  1.2985  0.4926  0.5210
  763TIP3    H2 2254   6.755   0.222   2.142 -0.1143  2.8508 -2.5544
  764TIP3   OH2 2255   1.685   0.268   4.042 -0.4905  0.1139  0.7666
  764TIP3    H1 2256   1.595   0.244   4.020 -0.0646 -0.8361 -0.0529
  764TIP3    H2 2257   1.699   0.233   4.130 -0.1583 -2.0584 -0.0758
  765TIP3   OH2 2258   2.653   5.164   0.120  0.3012  0.3015 -0.0015
  765TIP3    H1 2259   2.648   5.229   0.190 -0.3271  0.8523 -0.5416
  765TIP3    H2 2260   2.650   5.080   0.165  1.8879  0.6280  0.7618
  766TIP3   OH2 2261   2.573   1.768   2.361  0.0055  0.2601 -0.5969
  766TIP3    H1 2262   2.498   1.812   2.322 -0.4993  0.0010  0.0616
  766TIP3    H2 2263   2.633   1.752   2.288 -0.4689  0.6838 -1.0866
  767TIP3   OH2 2264   1.061   6.651   4.647 -0.0687 -0.1429 -0.1473
  767TIP3    H1 2265   1.073   6.605   4.730 -0.7938 -0.9974 -0.5045
  767TIP3    H2 2266   1.045   6.582   4.583 -0.1176  0.5454 -0.8931
  768TIP3   OH2 2267   0.768   3.416   1.546  0.4732 -0.5687 -0.2736
  768TIP3    H1 2268   0.786   3.322   1.552  1.3476 -0.3896  0.0797
  768TIP3    H2 2269   0.854   3.457   1.543  0.0998  0.1977 -0.9749
  769TIP3   OH2 2270   1.605   0.085   2.198  0.3178  0.2348  0.4034
  769TIP3    H1 2271   1.557   0.047   2.272  1.5882  0.2791  1.2690
  769TIP3    H2 2272   1.618   0.177   2.221 -0.6976  0.6806 -0.6416
  770TIP3   OH2 2273   4.322   0.483   2.012 -0.2934  0.0386 -0.2792
  770TIP3    H1 2274   4.392   0.541   2.042 -1.3319  0.0926  2.2864
  770TIP3    H2 2275   4.330   0.483   1.917  2.1768  1.2799 -0.1530
  771TIP3   OH2 2276   3.165   1.189   4.740 -0.2969 -0.3306 -0.0583
  771TIP3    H1 2277   3.154   1.114   4.798 -2.7080 -0.3085 -0.3773
  771TIP3    H2 2278   3.115   1.259   4.782 -1.4018 -0.0845 -1.6946
  772TIP3   OH2 2279   6.920   4.720   5.017  0.0014  0.2252 -0.0895
  772TIP3    H1 2280   6.933   4.800   5.067  1.9634  0.0016 -0.1588
  772TIP3    H2 2281   6.831   4.692   5.038  0.3102  0.8256  2.2682
  773TIP3   OH2 2282   2.755   2.098   2.428 -0.5383  0.3794 -0.6597
  773TIP3    H1 2283   2.787   2.054   2.507  1.7907  0.4288 -1.5081
  773TIP3    H2 2284   2.738   2.188   2.456 -1.6773 -0.0876  0.2162
  774TIP3   OH2 2285   3.882   2.295   0.386  0.0283 -0.5913 -0.0996
  774TIP3    H1 2286   3.855   2.213   0.344 -2.8019 -0.4208  1.1302
  774TIP3    H2 2287   3.952   2.270   0.446  0.7218 -1.6801 -1.3030
  775TIP3   OH2 2288   0.157   3.754   1.352 -0.4483 -0.7103  0.2374
  775TIP3    H1 2289   0.251   3.757   1.338 -0.3497 -0.2613  0.9182
  775TIP3    H2 2290   0.120   3.796   1.274  0.0331  0.9870  0.8672
  776TIP3   OH2 2291   1.397   1.231   3.546  0.0778 -0.0504  0.4255
  776TIP3    H1 2292   1.331   1.266   3.606 -1.4319 -1.4267 -0.3408
  776TIP3    H2 2293   1.411   1.301   3.482 -0.3583  0.3977  0.8134
  777TIP3   OH2 2294   6.489   4.483   5.569  0.0187  0.1016 -0.2572
  777TIP3    H1 2295   6.570   4.477   5.620 -0.0887 -1.3872 -0.2130
  777TIP3    H2 2296   6.419   4.464   5.632 -0.3702  1.2725 -0.3171
  778TIP3   OH2 2297   6.394   3.825   3.137  0.0279 -0.0703 -0.4529
  778TIP3    H1 2298   6.319   3.808   3.194  1.0400 -1.3592  0.5769
  778TIP3    H2 2299   6.429   3.738   3.117  0.6916  0.4538 -1.6907
  779TIP3   OH2 2300   1.081   6.376   4.188 -0.3372 -0.3375 -0.7014
  779TIP3    H1 2301   1.171   6.409   4.185 -0.2399 -0.3265  1.1007
  779TIP3    H2 2302   1.034   6.439   4.242 -1.1971 -0.8618 -0.8228
  780TIP3   OH2 2303   5.759   2.039   1.516 -0.2063  0.6225  0.1548
  780TIP3    H1 2304   5.773   2.056   1.609 -0.1093 -1.4468  0.5787
  780TIP3    H2 2305   5.848   2.034   1.479 -0.2536  2.0296 -0.2019
  781TIP3   OH2 2306   5.358   2.095   4.816  0.1180 -0.2682 -0.4298
  781TIP3    H1 2307   5.299   2.146   4.871  0.7793  0.7245 -0.6000
  781TIP3    H2 2308   5.426   2.158   4.790  1.2564 -1.3767 -0.2188
  782TIP3   OH2 2309   0.330   2.053   5.148 -0.1063  0.2236  0.1811
  782TIP3    H1 2310   0.323   2.145   5.174  1.1301  0.5327 -0.4950
  782TIP3    H2 2311   0.420   2.044   5.117 -0.8363 -0.6462 -1.8699
  783TIP3   OH2 2312   5.184   6.589   2.430  0.2346 -0.6450  0.2587
  783TIP3    H1 2313   5.117   6.545   2.378 -1.6833  2.4539 -0.0672
  783TIP3    H2 2314   5.231   6.644   2.367  1.2850 -0.6559  0.9973
  784TIP3   OH2 2315   0.716   5.202   3.175  0.1607 -0.1926  0.0226
  784TIP3    H1 2316   0.699   5.126   3.230  0.5115 -0.2539  0.0530
  784TIP3    H2 2317   0.809   5.220   3.188 -0.5077  2.1448  2.4540
  785TIP3   OH2 2318   3.778   6.683   0.339  0.1692 -0.7379  0.3916
  785TIP3    H1 2319   3.798   6.602   0.293  1.8171  0.0286 -0.3415
  785TIP3    H2 2320   3.785   6.751   0.272 -0.3555  0.1056  1.1608
  786TIP3   OH2 2321   2.842   5.713   2.362 -0.1262 -0.1519 -0.1053
  786TIP3    H1 2322   2.811   5.797   2.329 -2.9157 -0.8293  0.4653
  786TIP3    H2 2323   2.899   5.735   2.435  1.2569  1.2333 -1.5288
  787TIP3   OH2 2324   7.169   1.386   4.827  0.0323  0.0542 -0.0875
  787TIP3    H1 2325   7.126   1.365   4.745 -2.2618 -1.5848  1.4079
  787TIP3    H2 2326   7.194   1.302   4.864  0.0097  0.6542  1.3882
  788TIP3   OH2 2327   4.773   1.976   4.951  0.7047 -0.0332 -0.1089
  788TIP3    H1 2328   4.801   2.067   4.943  1.0027  0.0787  1.7526
  788TIP3    H2 2329   4.694   1.980   5.005  2.8752 -1.0709  3.5010
  789TIP3   OH2 2330   1.112   0.045   3.325 -0.1265  0.2844  0.8119
  789TIP3    H1 2331   1.042   0.035   3.260  0.2960  1.7747  0.0764
  789TIP3    H2 2332   1.067   0.042   3.409 -0.9511  0.2471  0.3836
  790TIP3   OH2 2333   1.557   4.380   0.355 -0.3026 -0.4000 -0.0993
  790TIP3    H1 2334   1.632   4.353   0.408 -1.1608  1.2991  2.1732
  790TIP3    H2 2335   1.489   4.316   0.376 -0.2787 -0.4334 -0.1233
  791TIP3   OH2 2336   0.528   6.482   3.279 -0.2836 -0.0811  0.0812
  791TIP3    H1 2337   0.565   6.393   3.281 -1.5198 -0.6121  0.7264
  791TIP3    H2 2338   0.543   6.516   3.367 -0.0636  0.2350 -0.0812
  792TIP3   OH2 2339   1.186   5.661   0.596 -0.2196 -0.2776  0.1280
  792TIP3    H1 2340   1.230   5.723   0.538 -0.1231 -0.8342 -0.4034
  792TIP3    H2 2341   1.143   5.599   0.537  0.8447 -1.5353  0.6185
  793TIP3   OH2 2342   3.691   1.618   2.560  0.3061 -0.3316 -0.1819
  793TIP3    H1 2343   3.692   1.584   2.650  0.9839  0.6117  0.1833
  793TIP3    H2 2344   3.771   1.582   2.521 -0.1352 -0.9732 -0.5033
  794TIP3   OH2 2345   6.406   1.464   5.048 -0.5631 -0.3873  0.4130
  794TIP3    H1 2346   6.392   1.501   5.135  3.0400  0.4572  0.7694
  794TIP3    H2 2347   6.410   1.370   5.062 -0.8473 -0.3126  1.0101
  795TIP3   OH2 2348   0.314   3.612   4.832 -0.4909  0.2949 -0.3037
  795TIP3    H1 2349   0.244   3.659   4.787 -1.6042 -0.0058  1.0229
  795TIP3    H2 2350   0.345   3.548   4.768 -2.6971 -0.7993 -0.3793
  796TIP3   OH2 2351   4.820   4.307   3.588  0.7702 -0.0978  0.0586
  796TIP3    H1 2352   4.847   4.216   3.587  0.1566 -0.2882  0.3270
  796TIP3    H2 2353   4.734   4.307   3.545  1.1362  0.4786 -0.7125
  797TIP3   OH2 2354   1.362   6.089   0.299  0.3578  0.2745  0.2744
  797TIP3    H1 2355   1.451   6.094   0.263 -0.0349 -0.2280 -0.7949
  797TIP3    H2 2356   1.321   6.170   0.269  0.5177  0.6197  0.9702
  798TIP3   OH2 2357   2.657   0.065   2.342  0.5289 -0.2539 -0.4801
  798TIP3    H1 2358   2.623   0.145   2.383  0.3453  0.3802 -1.8249
  798TIP3    H2 2359   2.601   0.051   2.266  0.2572 -1.9600 -0.0028
  799TIP3   OH2 2360   5.015   3.077   1.488 -0.0998 -0.0061  0.2957
  799TIP3    H1 2361   4.989   3.011   1.424 -0.5399  2.5614 -2.4533
  799TIP3    H2 2362   4.933   3.101   1.532 -0.1541 -0.4406  0.4345
  800TIP3   OH2 2363   2.393   2.840   2.595 -0.1291 -0.1141 -0.2075
  800TIP3    H1 2364   2.332   2.836   2.669 -0.7519  0.3353 -0.6926
  800TIP3    H2 2365   2.459   2.904   2.622  0.0970 -0.5441  0.2845
  801TIP3   OH2 2366   2.511   5.879   5.844 -0.0354 -0.1586  0.2394
  801TIP3    H1 2367   2.597   5.898   5.807  0.0325 -0.1432  0.4005
  801TIP3    H2 2368   2.530   5.852   5.934 -0.0728 -1.5542 -0.1403
  802TIP3   OH2 2369   2.988   4.401   1.619 -0.9526  0.7961  0.2843
  802TIP3    H1 2370   3.026   4.314   1.626  0.9189  1.5243 -0.0450
  802TIP3    H2 2371   2.963   4.410   1.528  1.4097  1.5134 -0.3750
  803TIP3   OH2 2372   0.864   2.339   0.061  0.0730 -0.1474  0.2669
  803TIP3    H1 2373   0.811   2.296   0.129  0.3717  1.3098  1.4886
  803TIP3    H2 2374   0.828   2.307  -0.021 -1.0588 -1.1055  1.0944
  804TIP3   OH2 2375   4.202   6.099   0.528  0.2583  0.0501  0.3997
  804TIP3    H1 2376   4.128   6.040   0.512 -0.2731  1.1016 -1.1851
  804TIP3    H2 2377   4.170   6.159   0.595 -0.7743  1.2049 -1.0775
  805TIP3   OH2 2378   4.570   2.054   1.616  0.0929 -0.9563 -0.1205
  805TIP3    H1 2379   4.636   2.073   1.682  0.4126 -1.2207 -0.3614
  805TIP3    H2 2380   4.527   1.974   1.647 -0.5125 -0.4578  0.3351
  806TIP3   OH2 2381   5.848   2.870   0.708  0.0264  0.2345 -0.2404
  806TIP3    H1 2382   5.821   2.860   0.617  0.7904  1.3666 -0.6073
  806TIP3    H2 2383   5.787   2.934   0.745 -0.0596  0.0464 -0.0543
  807TIP3   OH2 2384   1.193   5.757   5.420 -0.1886  0.0648  0.3618
  807TIP3    H1 2385   1.242   5.801   5.490  2.6387 -2.0926 -0.0976
  807TIP3    H2 2386   1.226   5.668   5.419  0.3654  0.0836 -4.0400
  808TIP3   OH2 2387   3.743   3.535   4.200 -0.0412  0.0869  0.6307
  808TIP3    H1 2388   3.830   3.574   4.203 -0.0447  0.3011 -1.2172
  808TIP3    H2 2389   3.683   3.608   4.216  0.0725  0.0302  1.3816
  809TIP3   OH2 2390   1.020   4.796   5.440  0.1718 -0.4649  0.1537
  809TIP3    H1 2391   1.018   4.764   5.350  0.6521 -0.0128 -0.0289
  809TIP3    H2 2392   1.113   4.791   5.465 -0.0753 -1.3801  0.9238
  810TIP3   OH2 2393   3.402   1.077   0.979 -0.0975  0.8117 -0.1152
  810TIP3    H1 2394   3.432   1.020   0.909  0.3602  1.9930 -0.9097
  810TIP3    H2 2395   3.453   1.158   0.969  0.2606  0.8949  1.8087
  811TIP3   OH2 2396   3.665   1.730   5.154  0.0533  0.1951 -0.0541
  811TIP3    H1 2397   3.740   1.707   5.099  0.1126 -2.0474  0.8341
  811TIP3    H2 2398   3.699   1.795   5.215  1.2201 -0.6131  0.1852
  812TIP3   OH2 2399   5.640   3.507   1.582  0.1588  0.1722 -0.3466
  812TIP3    H1 2400   5.689   3.574   1.630 -1.3316  0.7767  0.3920
  812TIP3    H2 2401   5.693   3.428   1.592  0.8180  0.7146  0.7205
  813TIP3   OH2 2402   7.000   3.336   0.892 -0.7043  0.1312  0.0769
  813TIP3    H1 2403   7.049   3.417   0.907  0.2097 -0.3724 -0.0689
  813TIP3    H2 2404   6.910   3.364   0.877 -0.9018  0.9691  2.3865
  814TIP3   OH2 2405   0.657   0.895   3.931  0.1785 -0.3122  0.1664
  814TIP3    H1 2406   0.635   0.982   3.963  0.3145 -0.2774  0.1630
  814TIP3    H2 2407   0.572   0.856   3.909  0.0794 -0.3702  0.6482
  815TIP3   OH2 2408   5.941   2.681   3.308 -0.0025 -0.5848 -0.1748
  815TIP3    H1 2409   5.923   2.774   3.298 -0.8077 -0.7673 -0.4835
  815TIP3    H2 2410   5.998   2.660   3.235 -0.3561 -0.4685 -0.4877
  816TIP3   OH2 2411   4.776   6.411   3.121 -0.2440 -0.0599  0.6049
  816TIP3    H1 2412   4.808   6.402   3.031 -1.7354 -3.0707  0.2410
  816TIP3    H2 2413   4.836   6.356   3.173 -1.2302 -0.9277  0.8679
  817TIP3   OH2 2414   2.423   6.504   3.382 -0.5690  0.7438 -0.4646
  817TIP3    H1 2415   2.449   6.552   3.461  0.0961  2.4912 -1.6716
  817TIP3    H2 2416   2.332   6.479   3.397 -0.2017  0.3097  1.1742
  818TIP3   OH2 2417   2.019   5.041   0.603  0.4238  0.3262  0.5638
  818TIP3    H1 2418   2.055   4.962   0.565 -1.1738 -0.3991  0.4960
  818TIP3    H2 2419   1.925   5.026   0.607  0.1851  1.7945  1.5331
  819TIP3   OH2 2420   6.373   4.631   5.362 -0.0749 -0.5368 -0.1750
  819TIP3    H1 2421   6.435   4.591   5.423 -0.5045  0.6977  1.1479
  819TIP3    H2 2422   6.352   4.562   5.300  1.0709 -1.5830  0.5546
  820TIP3   OH2 2423   0.394   3.164   5.306  0.1072 -0.0704  0.5150
  820TIP3    H1 2424   0.310   3.184   5.264  0.6404  2.3242  0.4412
  820TIP3    H2 2425   0.369   3.122   5.389 -1.0670 -1.2907 -0.4085
  821TIP3   OH2 2426   4.152   2.450   3.190  0.5447  0.4271  0.7477
  821TIP3    H1 2427   4.247   2.447   3.196  0.5914  1.2549  0.5656
  821TIP3    H2 2428   4.135   2.494   3.107 -0.0294 -2.2154 -0.6544
  822TIP3   OH2 2429   1.983   2.598   4.567 -0.5270  0.0313 -0.0066
  822TIP3    H1 2430   2.047   2.528   4.560 -2.5322 -1.8850 -0.4581
  822TIP3    H2 2431   1.938   2.598   4.482 -0.7878  1.6806  0.0976
  823TIP3   OH2 2432   1.675   1.348   5.547  0.2578  0.6223 -0.3944
  823TIP3    H1 2433   1.744   1.306   5.496  0.3441  0.0189  0.2146
  823TIP3    H2 2434   1.691   1.442   5.536  0.5720  0.4989 -1.0685
  824TIP3   OH2 2435   3.613   1.861   1.706  0.5846  0.1054 -0.4949
  824TIP3    H1 2436   3.546   1.903   1.652  0.6247 -0.8549 -1.3147
  824TIP3    H2 2437   3.628   1.776   1.664  1.0776 -0.4018  0.6639
  825TIP3   OH2 2438   5.609   6.791   4.548 -0.0005  0.0339  0.4757
  825TIP3    H1 2439   5.527   6.841   4.548 -0.4546 -0.5998 -1.6104
  825TIP3    H2 2440   5.588   6.711   4.500  1.6857 -0.4186  0.4364
  826TIP3   OH2 2441   2.900   0.200   1.146 -0.0585  0.0788  0.3511
  826TIP3    H1 2442   2.905   0.265   1.217 -0.8687  2.5965 -1.7335
  826TIP3    H2 2443   2.807   0.195   1.125  0.2513  0.1153 -1.1230
  827TIP3   OH2 2444   1.363   1.088   5.808  0.1702  0.0433  0.0348
  827TIP3    H1 2445   1.320   1.094   5.893 -1.1837  0.4358 -0.6535
  827TIP3    H2 2446   1.341   1.001   5.776  1.6901 -0.5758  0.5787
  828TIP3   OH2 2447   3.317   2.679   4.159 -0.3455 -0.3139 -0.0108
  828TIP3    H1 2448   3.322   2.600   4.213  1.1597  0.4560  1.0362
  828TIP3    H2 2449   3.247   2.731   4.199  0.9573  0.3913  1.4741
  829TIP3   OH2 2450   2.458   5.325  -0.015  0.6582 -0.1125  0.4393
  829TIP3    H1 2451   2.451   5.396   0.049  0.8196  0.0971  0.2268
  829TIP3    H2 2452   2.546   5.291  -0.003  0.1626 -1.1186  1.4100
  830TIP3   OH2 2453   1.944   4.844   4.240  0.2841 -0.3720 -0.0677
  830TIP3    H1 2454   1.986   4.929   4.228 -1.6556  0.5169 -0.9011
  830TIP3    H2 2455   1.892   4.852   4.319 -1.0670 -0.2448 -0.9299
  831TIP3   OH2 2456   2.630   6.441   3.209 -0.0999  0.5610  0.1932
  831TIP3    H1 2457   2.577   6.493   3.269  0.4996  1.8586 -0.3821
  831TIP3    H2 2458   2.684   6.504   3.163  1.4555 -0.6561  0.2592
  832TIP3   OH2 2459   5.658   2.284   3.357 -0.8966  0.5188 -0.1181
  832TIP3    H1 2460   5.732   2.345   3.345 -0.2027 -0.4271 -0.7648
  832TIP3    H2 2461   5.667   2.221   3.286 -0.9487 -0.9843  1.1540
  833TIP3   OH2 2462   5.913   4.954   4.038  0.4019 -0.1063 -0.0754
  833TIP3    H1 2463   5.828   4.965   3.995  0.5897 -0.4813 -0.5546
  833TIP3    H2 2464   5.897   4.974   4.130 -0.0436  0.5523 -0.2890
  834TIP3   OH2 2465   4.999   1.724   3.796  0.3050 -0.1051  0.3448
  834TIP3    H1 2466   5.078   1.691   3.754  0.7686  1.7570 -0.3256
  834TIP3    H2 2467   5.011   1.819   3.801 -0.9927  0.0261  2.1169
  835TIP3   OH2 2468   1.815   6.273   2.741  0.3577 -0.1107  0.0538
  835TIP3    H1 2469   1.726   6.265   2.774  0.1723 -1.4699 -0.6905
  835TIP3    H2 2470   1.815   6.223   2.659  1.6886  0.2384 -0.1907
  836TIP3   OH2 2471   6.226   0.240   5.615 -0.0695 -0.4772 -0.4171
  836TIP3    H1 2472   6.320   0.242   5.632 -0.3205  0.7270  1.1048
  836TIP3    H2 2473   6.195   0.328   5.638 -1.7349 -1.2012  0.3428
  837TIP3   OH2 2474   3.278   6.729   3.319  0.0414 -0.0359  0.0293
  837TIP3    H1 2475   3.201   6.768   3.278  0.2787 -0.9168 -1.3306
  837TIP3    H2 2476   3.352   6.773   3.276  0.2924 -0.5540 -0.0729
  838TIP3   OH2 2477   0.366   2.231   2.629  0.7794  0.3292 -0.0617
  838TIP3    H1 2478   0.270   2.231   2.638  0.8438  2.1686  1.0786
  838TIP3    H2 2479   0.398   2.273   2.709  2.5950 -0.7872 -0.1467
  839TIP3   OH2 2480   7.023   3.823   3.456 -0.0643 -0.7622 -0.6220
  839TIP3    H1 2481   6.951   3.784   3.506 -0.4603  0.5561 -0.1106
  839TIP3    H2 2482   7.072   3.874   3.521  1.8982 -2.3274 -0.7562
  840TIP3   OH2 2483   0.019   2.753   1.228  0.5803  0.3517  0.2291
  840TIP3    H1 2484   0.088   2.750   1.161  1.4753 -0.7915  1.1553
  840TIP3    H2 2485  -0.044   2.686   1.201  1.5271 -0.9363  1.0930
  841TIP3   OH2 2486   4.364   6.514   3.417 -0.2879 -0.2972  0.4202
  841TIP3    H1 2487   4.376   6.581   3.484  0.5244  1.2889 -1.2258
  841TIP3    H2 2488   4.452   6.479   3.402  0.1502  1.6026 -1.9607
  842TIP3   OH2 2489   6.972   0.900   1.459  0.7622 -0.2325  0.4898
  842TIP3    H1 2490   6.906   0.968   1.461  0.1290 -0.8196  0.1079
  842TIP3    H2 2491   7.013   0.903   1.545  1.4653  1.3122  0.1354
  843TIP3   OH2 2492   1.750   4.428   4.040 -0.7687 -0.2109 -0.3182
  843TIP3    H1 2493   1.785   4.516   4.030 -1.0718 -0.1721 -1.1244
  843TIP3    H2 2494   1.656   4.438   4.029 -0.7302 -0.7398 -1.2968
  844TIP3   OH2 2495   3.066   1.780   5.308  0.1294 -0.0630  0.2401
  844TIP3    H1 2496   3.061   1.808   5.216  2.0696 -0.9024 -0.1874
  844TIP3    H2 2497   3.022   1.695   5.309 -1.4358  0.7303  0.4843
  845TIP3   OH2 2498   1.948   3.795   1.149 -0.4003 -0.6402 -0.2369
  845TIP3    H1 2499   1.951   3.775   1.056 -0.2655  1.0126 -0.6142
  845TIP3    H2 2500   2.040   3.791   1.177 -0.1723  0.8136 -0.6574
  846TIP3   OH2 2501   6.245   3.801   4.970 -0.2067 -0.7080 -0.2754
  846TIP3    H1 2502   6.167   3.772   4.922 -0.9193 -0.2407  0.5696
  846TIP3    H2 2503   6.215   3.876   5.021  0.3351 -1.6082  1.4396
  847TIP3   OH2 2504   3.141   5.236   5.605 -0.0223 -0.5472 -0.4481
  847TIP3    H1 2505   3.216   5.293   5.618 -1.4928  1.3565  0.0927
  847TIP3    H2 2506   3.125   5.237   5.511 -0.9438  1.2308 -0.3123
  848TIP3   OH2 2507   2.717   0.614   3.922  0.1364 -0.3034 -0.3197
  848TIP3    H1 2508   2.708   0.706   3.896 -1.5779 -0.7618 -1.4949
  848TIP3    H2 2509   2.804   0.589   3.891  0.9333  1.1012  0.6779
  849TIP3   OH2 2510   6.651   5.552   0.213 -0.4067  0.3503  0.6064
  849TIP3    H1 2511   6.617   5.485   0.273  1.9679 -0.7629  0.8357
  849TIP3    H2 2512   6.643   5.513   0.126  0.5879 -0.1149  0.7024
  850TIP3   OH2 2513   6.769   0.084   2.670 -0.4322  0.1512 -0.0141
  850TIP3    H1 2514   6.841   0.024   2.688 -0.9748 -0.0484  1.6051
  850TIP3    H2 2515   6.797   0.168   2.707 -0.6613  0.3063 -0.1848
  851TIP3   OH2 2516   2.745   5.868   5.689  0.0017 -0.0585  0.9393
  851TIP3    H1 2517   2.764   5.941   5.630  1.4355 -0.9507  0.2567
  851TIP3    H2 2518   2.749   5.790   5.634 -0.0531 -0.7880  1.9415
  852TIP3   OH2 2519   0.431   1.132   2.859 -0.1976 -0.4833 -0.1667
  852TIP3    H1 2520   0.517   1.090   2.868  0.8513  1.5473 -0.2130
  852TIP3    H2 2521   0.445   1.223   2.885 -2.2258  0.0427 -0.7071
  853TIP3   OH2 2522   5.027   3.014   4.770 -0.1785  0.4140 -0.5792
  853TIP3    H1 2523   4.981   3.026   4.854  0.9315 -2.2702  0.5278
  853TIP3    H2 2524   5.105   2.965   4.793  0.0481 -0.6267 -3.2627
  854TIP3   OH2 2525   1.816   6.171   4.439 -0.5771 -0.1043 -0.0921
  854TIP3    H1 2526   1.839   6.083   4.469  0.7167  0.0587 -0.5286
  854TIP3    H2 2527   1.730   6.188   4.477 -0.2119 -0.9820  1.2047
  855TIP3   OH2 2528   5.885   0.412   4.122  0.2374 -0.5339  0.2993
  855TIP3    H1 2529   5.790   0.404   4.124  0.3195 -1.6519 -0.0164
  855TIP3    H2 2530   5.917   0.323   4.108  1.3791 -0.4137  1.8177
  856TIP3   OH2 2531   6.963   2.169   4.748  0.3473  0.2829  0.1779
  856TIP3    H1 2532   7.055   2.151   4.730  0.2286  0.4007 -0.5757
  856TIP3    H2 2533   6.944   2.120   4.829  0.6696 -1.0027 -0.4904
  857TIP3   OH2 2534   1.368   1.021   0.689  0.0152 -0.0029 -0.0281
  857TIP3    H1 2535   1.329   0.990   0.771 -0.8203 -1.4443 -0.9194
  857TIP3    H2 2536   1.458   1.044   0.712 -0.2050 -0.3648  1.2940
  858TIP3   OH2 2537   3.716   4.548   0.530 -0.1398 -0.1057  0.3477
  858TIP3    H1 2538   3.791   4.585   0.483 -0.5644  0.8400  0.3927
  858TIP3    H2 2539   3.739   4.456   0.544  1.1347  0.2359  0.5965
  859TIP3   OH2 2540   1.220   5.255   5.437 -0.0731 -0.5720 -0.0037
  859TIP3    H1 2541   1.269   5.245   5.356 -2.4738 -0.2999 -1.5739
  859TIP3    H2 2542   1.179   5.170   5.452 -0.5798 -0.2826  0.2914
  860TIP3   OH2 2543   0.850   6.206   0.098 -0.1557  0.3132  0.0014
  860TIP3    H1 2544   0.835   6.172   0.010 -1.0801  0.5117  0.0717
  860TIP3    H2 2545   0.860   6.301   0.086 -2.0671  0.5853  0.2812
  861TIP3   OH2 2546   4.783   1.635   4.641  0.5056  0.0400  0.7564
  861TIP3    H1 2547   4.769   1.723   4.608 -2.9482 -0.6536  0.0270
  861TIP3    H2 2548   4.772   1.643   4.736  1.4987  0.5457  0.8466
  862TIP3   OH2 2549   4.950   0.892   5.744 -0.0722 -0.4519 -0.1930
  862TIP3    H1 2550   4.988   0.826   5.801  1.0689 -1.3004 -1.8573
  862TIP3    H2 2551   5.024   0.932   5.700 -0.9220  0.0980 -1.1724
  863TIP3   OH2 2552   0.362   2.731   2.378  0.2780 -0.1810 -1.0503
  863TIP3    H1 2553   0.346   2.709   2.470 -1.0071 -0.1195 -1.2281
  863TIP3    H2 2554   0.439   2.680   2.353 -1.1471 -2.6106 -0.7697
  864TIP3   OH2 2555   1.975   1.543   1.927 -0.2090  0.1095  0.5365
  864TIP3    H1 2556   1.934   1.568   1.844  0.9267 -0.3254 -0.1854
  864TIP3    H2 2557   1.903   1.538   1.989 -1.4821 -1.9651 -0.9947
  865TIP3   OH2 2558   1.159   5.913   3.741  0.0282 -0.0586  0.5389
  865TIP3    H1 2559   1.088   5.864   3.699 -0.6821 -0.3497  2.0253
  865TIP3    H2 2560   1.114   5.978   3.795  0.8497 -0.7474  2.1100
  866TIP3   OH2 2561   2.030   0.313   4.189  0.3881 -0.3773 -0.1034
  866TIP3    H1 2562   2.046   0.269   4.272 -0.1638  1.2117  0.8894
  866TIP3    H2 2563   1.955   0.371   4.206  1.5935  1.5724 -1.0755
  867TIP3   OH2 2564   6.030   5.928   4.952 -0.4507  0.2263  0.0281
  867TIP3    H1 2565   5.986   6.009   4.928 -1.2302 -0.4131 -0.7956
  867TIP3    H2 2566   5.963   5.860   4.943  0.0235 -0.4397  1.2769
  868TIP3   OH2 2567   5.240   6.368  -0.007  0.0671 -0.1269 -0.5944
  868TIP3    H1 2568   5.186   6.393   0.068  0.2629 -0.3244 -0.3868
  868TIP3    H2 2569   5.191   6.297  -0.049  0.4422 -0.7062 -0.0687
  869TIP3   OH2 2570   1.195   0.458   4.992 -0.4888 -0.1707  0.2928
  869TIP3    H1 2571   1.114   0.507   5.004 -0.9537 -1.1383  1.2907
  869TIP3    H2 2572   1.180   0.407   4.912 -0.3153  0.6723 -0.2910
  870TIP3   OH2 2573   4.644   4.187   0.831  1.1400 -0.2998  0.5402
  870TIP3    H1 2574   4.695   4.248   0.884  0.2248  0.2488  0.8113
  870TIP3    H2 2575   4.604   4.128   0.896  0.2055  0.2267  0.4547
  871TIP3   OH2 2576   7.118   5.871   5.291  0.4144  0.2249  0.1944
  871TIP3    H1 2577   7.107   5.820   5.211 -0.2331  0.2711  0.2477
  871TIP3    H2 2578   7.048   5.841   5.349  0.0913  1.0708  0.2685
  872TIP3   OH2 2579   0.522   0.213   2.422 -0.1798  0.2269  0.1213
  872TIP3    H1 2580   0.445   0.265   2.445 -1.3053 -0.7997 -1.1510
  872TIP3    H2 2581   0.589   0.242   2.483 -1.2518  1.9298  0.5817
  873TIP3   OH2 2582   0.234   0.480   4.526  0.7332 -0.1471 -0.5835
  873TIP3    H1 2583   0.151   0.432   4.522  1.1581 -0.8281 -1.6854
  873TIP3    H2 2584   0.235   0.535   4.448  1.4802 -0.4549 -0.8100
  874TIP3   OH2 2585   0.863   1.090   0.109  0.1767  0.5743 -0.2399
  874TIP3    H1 2586   0.876   1.048   0.194 -1.1464 -1.1580 -0.8499
  874TIP3    H2 2587   0.952   1.107   0.077  0.7320 -0.6677  0.5762
  875TIP3   OH2 2588   3.843   0.849   4.421 -0.3218  0.4018  0.8559
  875TIP3    H1 2589   3.768   0.834   4.480 -0.7900 -1.0129 -0.0666
  875TIP3    H2 2590   3.837   0.780   4.356  1.0107  1.1042 -0.0574
  876TIP3   OH2 2591   3.871   3.740   0.635  0.6750  0.0162  0.3921
  876TIP3    H1 2592   3.825   3.714   0.555 -0.6583 -0.7242  1.3466
  876TIP3    H2 2593   3.851   3.670   0.697  0.4465  1.2912  1.8067
  877TIP3   OH2 2594   3.253   0.425   3.007 -0.0197  0.1012  0.2694
  877TIP3    H1 2595   3.230   0.365   3.078 -0.1844  0.4414  0.5064
  877TIP3    H2 2596   3.190   0.496   3.014 -0.4886 -0.1978 -0.6579
  878TIP3   OH2 2597   5.041   0.031   3.337 -0.3139  0.0535  0.3066
  878TIP3    H1 2598   5.047   0.034   3.241  0.2744  0.8275  0.3498
  878TIP3    H2 2599   4.956  -0.009   3.355 -0.2941 -0.3865 -0.5376
  879TIP3   OH2 2600   0.508   2.589   4.392 -0.4417 -0.0496 -0.3226
  879TIP3    H1 2601   0.491   2.624   4.480 -1.7496  0.5108 -0.7650
  879TIP3    H2 2602   0.456   2.645   4.334  1.2921  0.3183 -1.5993
  880TIP3   OH2 2603   4.249   1.475   2.499  0.1085  0.0288 -0.1107
  880TIP3    H1 2604   4.325   1.520   2.537 -0.0771 -1.2975  1.9915
  880TIP3    H2 2605   4.184   1.544   2.486  0.0678  0.5396  2.3951
  881TIP3   OH2 2606   2.617   5.732   3.247 -0.5166  0.2618 -0.4105
  881TIP3    H1 2607   2.644   5.640   3.242  1.2195  0.7015  0.2449
  881TIP3    H2 2608   2.622   5.763   3.156 -0.2225 -0.0481 -0.5015
  882TIP3   OH2 2609   0.178   3.905   4.286 -0.0765  0.2042 -0.3182
  882TIP3    H1 2610   0.193   3.974   4.222  0.0843 -0.0470 -0.5524
  882TIP3    H2 2611   0.212   3.826   4.245  1.2905  0.2691  0.6098
  883TIP3   OH2 2612   6.186   5.050   1.786  0.0825 -0.2810  0.2031
  883TIP3    H1 2613   6.158   5.131   1.827  0.6255  0.0933 -0.1540
  883TIP3    H2 2614   6.108   5.016   1.742  0.0872  0.5393 -0.4498
  884TIP3   OH2 2615   0.241   4.497   3.840 -0.3453 -0.0363  0.3805
  884TIP3    H1 2616   0.207   4.441   3.771 -0.7043  0.1786  0.3801
  884TIP3    H2 2617   0.177   4.490   3.911  0.5935 -1.1501  1.1495
  885TIP3   OH2 2618   6.794   5.920   2.419  0.0475 -0.5364 -0.0496
  885TIP3    H1 2619   6.769   5.931   2.327  1.0458 -0.4176 -0.3199
  885TIP3    H2 2620   6.849   5.996   2.438 -1.2397  0.1475  1.0510
  886TIP3   OH2 2621   2.192   1.613   4.184  0.2681  0.3585  0.3501
  886TIP3    H1 2622   2.214   1.521   4.167  0.7325  0.3351  1.0464
  886TIP3    H2 2623   2.261   1.663   4.141  0.7924  0.3330  1.1421
  887TIP3   OH2 2624   0.558   2.743   5.440 -0.0425  0.0934 -0.5540
  887TIP3    H1 2625   0.469   2.707   5.452 -0.4095  0.6854 -1.4666
  887TIP3    H2 2626   0.578   2.784   5.524 -0.5484 -0.2133 -0.2738
  888TIP3   OH2 2627  -0.005   4.497   4.617 -0.0774 -0.1254 -0.0489
  888TIP3    H1 2628   0.085   4.524   4.637 -0.0510 -1.5075  2.0970
  888TIP3    H2 2629  -0.059   4.546   4.678 -0.5100 -1.1369  0.4000
  889TIP3   OH2 2630   4.163   1.907   3.701  0.6839  0.3117  0.4664
  889TIP3    H1 2631   4.069   1.885   3.695  0.8986 -0.5440  0.0457
  889TIP3    H2 2632   4.192   1.866   3.782  0.5098  1.3462  1.0720
  890TIP3   OH2 2633   1.191   0.378   2.117 -0.9509 -0.1934 -0.0143
  890TIP3    H1 2634   1.166   0.471   2.116 -4.0253 -0.8271  2.1827
  890TIP3    H2 2635   1.109   0.331   2.101  0.7130 -2.6147 -2.2379
  891TIP3   OH2 2636   6.321   4.372   4.877 -0.0434 -0.2595  0.1307
  891TIP3    H1 2637   6.388   4.314   4.913 -1.6369 -2.9693 -1.0067
  891TIP3    H2 2638   6.361   4.407   4.797  0.3610 -1.1508 -0.0782
  892TIP3   OH2 2639   6.920   1.592   0.181  0.6164 -0.0685  0.4291
  892TIP3    H1 2640   6.934   1.660   0.116  0.3681 -1.5130 -1.2053
  892TIP3    H2 2641   7.004   1.584   0.226  0.8534  0.8038  0.1670
  893TIP3   OH2 2642   1.489   5.228   5.691  0.3902 -0.6183  0.8665
  893TIP3    H1 2643   1.511   5.231   5.598 -1.4339 -1.6564  0.3556
  893TIP3    H2 2644   1.569   5.198   5.734  1.1882 -0.3400 -0.3704
  894TIP3   OH2 2645   2.043   2.551   0.237 -0.3228  0.9432  0.6250
  894TIP3    H1 2646   2.137   2.535   0.228 -0.6784 -0.5100 -1.1719
  894TIP3    H2 2647   2.024   2.616   0.169 -0.4074  2.4918  2.0484
  895TIP3   OH2 2648   2.070   1.181   5.810  0.3403  0.0632 -0.3346
  895TIP3    H1 2649   2.160   1.178   5.778  0.3374  0.2192 -0.3582
  895TIP3    H2 2650   2.047   1.090   5.827  1.0303  0.1226  1.1207
  896TIP3   OH2 2651   6.719   0.933   5.270 -0.3334 -0.1002  0.3323
  896TIP3    H1 2652   6.640   0.913   5.219 -0.3697  0.0599  0.3259
  896TIP3    H2 2653   6.780   0.863   5.246 -0.5904 -0.4194  0.5960
  897TIP3   OH2 2654   5.075   1.510   4.829 -0.4515  0.5458  0.1875
  897TIP3    H1 2655   5.074   1.582   4.766  0.5898  1.4367  1.1398
  897TIP3    H2 2656   5.160   1.469   4.817 -0.0687  0.9879  1.2737
  898TIP3   OH2 2657   1.146   4.556   4.867 -0.1994 -0.3273 -0.5022
  898TIP3    H1 2658   1.196   4.621   4.916  2.0050 -1.7871 -0.6508
  898TIP3    H2 2659   1.121   4.491   4.933 -0.4868 -0.4151 -0.6992
  899TIP3   OH2 2660   5.440   4.219   5.476 -1.0762  0.0961  0.5198
  899TIP3    H1 2661   5.407   4.240   5.563 -0.9559  0.7415  0.4211
  899TIP3    H2 2662   5.363   4.194   5.425 -0.9256 -2.2595  1.3256
  900TIP3   OH2 2663   0.041   1.421   1.494  0.3594  0.1711  0.8282
  900TIP3    H1 2664   0.070   1.330   1.496 -1.0172 -0.3476 -0.4351
  900TIP3    H2 2665  -0.022   1.424   1.422  2.1731  2.6888 -0.8402
  901TIP3   OH2 2666   6.068   3.335   4.980 -0.1949 -0.1665  0.5346
  901TIP3    H1 2667   6.026   3.338   4.894  0.7020  0.0525  0.0933
  901TIP3    H2 2668   5.996   3.343   5.043 -0.7675  0.6586 -0.2081
  902TIP3   OH2 2669   5.610   6.400   4.181  0.2093  0.3062 -0.2599
  902TIP3    H1 2670   5.532   6.372   4.134  0.6488  1.0284 -1.4711
  902TIP3    H2 2671   5.678   6.339   4.154  0.1157 -0.2223  0.6661
  903TIP3   OH2 2672   5.860   4.935   0.710 -0.8154 -0.2468  0.8401
  903TIP3    H1 2673   5.775   4.930   0.665 -0.7573  1.8150  0.3664
  903TIP3    H2 2674   5.842   4.908   0.800 -1.7223 -0.8917  0.4802
  904TIP3   OH2 2675   2.729   1.575   1.904 -0.1593 -0.4525  0.2322
  904TIP3    H1 2676   2.656   1.546   1.958 -0.0530  1.3399  1.4334
  904TIP3    H2 2677   2.761   1.495   1.862 -1.6898 -1.5441  1.0301
  905TIP3   OH2 2678   7.123   1.890   2.784 -0.6813 -0.1060  0.4813
  905TIP3    H1 2679   7.030   1.903   2.803 -0.5817  0.7817  0.3971
  905TIP3    H2 2680   7.132   1.915   2.692 -0.4663 -0.7956  0.3054
  906TIP3   OH2 2681   3.263   5.936   3.323 -0.3034  0.1088 -0.3630
  906TIP3    H1 2682   3.179   5.926   3.279  0.6531 -0.7081 -2.0803
  906TIP3    H2 2683   3.326   5.892   3.266  1.1700 -0.0568  1.3124
  907TIP3   OH2 2684   4.825  -0.003   2.703  0.2555  0.2340 -0.0624
  907TIP3    H1 2685   4.743  -0.003   2.654 -0.9222  0.8996  1.8200
  907TIP3    H2 2686   4.867   0.080   2.678 -0.8035  1.0471  0.7645
  908TIP3   OH2 2687   5.575   6.557   2.521  0.3808 -0.1930  0.2096
  908TIP3    H1 2688   5.544   6.547   2.611  0.0069  0.3868  0.1555
  908TIP3    H2 2689   5.593   6.651   2.513 -0.5405 -0.0720 -0.6156
  909TIP3   OH2 2690   6.749   1.462   2.436  0.2150 -0.3996  0.0495
  909TIP3    H1 2691   6.822   1.498   2.385  0.3309  2.3043  1.9497
  909TIP3    H2 2692   6.789   1.395   2.492  0.6806 -0.9186 -0.8767
  910TIP3   OH2 2693   6.787   4.271   3.472  0.4620  0.0205 -0.4530
  910TIP3    H1 2694   6.824   4.191   3.434 -0.6759 -0.2254 -1.0806
  910TIP3    H2 2695   6.765   4.325   3.397 -2.3459 -0.7038 -0.2545
  911TIP3   OH2 2696   4.521   2.750   3.007 -0.7372 -0.9372  0.4799
  911TIP3    H1 2697   4.481   2.774   3.091 -0.8132  0.5509  0.0595
  911TIP3    H2 2698   4.469   2.798   2.942  0.3436 -0.7405 -0.2651
  912TIP3   OH2 2699   0.813   1.084   3.261  0.0077 -0.0192 -0.1314
  912TIP3    H1 2700   0.820   0.999   3.304  0.5322  1.3317  2.6889
  912TIP3    H2 2701   0.888   1.087   3.201  0.0357 -1.4790 -0.2020
  913TIP3   OH2 2702   0.390   0.585   0.767 -0.2375 -0.2564  0.3854
  913TIP3    H1 2703   0.340   0.577   0.848 -1.2878  0.0315 -0.2162
  913TIP3    H2 2704   0.431   0.671   0.772  1.2657 -0.9833  1.4412
  914TIP3   OH2 2705   4.186   6.652   0.068  0.3674  0.4650  0.2952
  914TIP3    H1 2706   4.168   6.746   0.063 -2.2371  0.1331  1.9888
  914TIP3    H2 2707   4.155   6.626   0.155  0.7368 -2.0324 -0.2521
  915TIP3   OH2 2708   6.933   3.881   2.423  0.2402 -0.5659  0.6075
  915TIP3    H1 2709   6.901   3.805   2.375  0.4596 -0.3618  0.1339
  915TIP3    H2 2710   6.914   3.861   2.515  0.0858 -1.0869  0.4647
  916TIP3   OH2 2711   5.875   4.655   2.379 -1.0534 -0.0415  0.2481
  916TIP3    H1 2712   5.914   4.733   2.339  0.3547  0.2954  2.1102
  916TIP3    H2 2713   5.794   4.641   2.331  0.6550  0.0675 -2.9424
  917TIP3   OH2 2714   6.888   6.564   2.324  0.2245 -0.1342  0.1141
  917TIP3    H1 2715   6.842   6.522   2.251 -1.2548 -0.8261  1.3763
  917TIP3    H2 2716   6.874   6.658   2.310 -1.9386 -0.3275  0.6233
  918TIP3   OH2 2717   5.067   1.049   1.772  0.2632  0.5121 -0.0697
  918TIP3    H1 2718   5.041   0.978   1.830  1.4319  0.0188 -0.1268
  918TIP3    H2 2719   5.073   1.009   1.685  1.0792  0.6304 -0.0777
  919TIP3   OH2 2720   0.171   5.700   5.327  0.6469  0.3696  0.0763
  919TIP3    H1 2721   0.170   5.611   5.291 -0.0881  0.9481 -1.4136
  919TIP3    H2 2722   0.148   5.756   5.253 -0.8375  1.6412  1.4323
  920TIP3   OH2 2723   2.649   0.853   2.128 -0.2434  0.4247  0.2577
  920TIP3    H1 2724   2.735   0.847   2.087 -0.5833  1.7903 -0.7344
  920TIP3    H2 2725   2.594   0.793   2.078 -0.7625  2.3980 -1.6873
  921TIP3   OH2 2726   5.239   2.546   3.531  0.0284 -0.0041  0.4802
  921TIP3    H1 2727   5.303   2.475   3.534 -0.0140 -0.1831 -1.3666
  921TIP3    H2 2728   5.232   2.576   3.621  1.7981 -0.7880  0.9319
  922TIP3   OH2 2729   4.631   2.719   4.911  0.1415 -0.3101 -0.6467
  922TIP3    H1 2730   4.727   2.715   4.912  0.1672 -0.4534  1.5277
  922TIP3    H2 2731   4.608   2.711   4.818  2.2307  0.0734 -1.2613
  923TIP3   OH2 2732   4.050   6.493   2.355  0.3417 -0.1192 -0.0521
  923TIP3    H1 2733   3.970   6.544   2.369  0.7810  0.7601 -0.6141
  923TIP3    H2 2734   4.101   6.546   2.294  1.1811 -0.8616 -0.0104
  924TIP3   OH2 2735   0.740   5.418   3.837 -0.1469  0.1943  0.0312
  924TIP3    H1 2736   0.809   5.384   3.780 -0.7886  2.0728 -2.0164
  924TIP3    H2 2737   0.672   5.351   3.835 -0.3152  0.3631 -1.8113
  925TIP3   OH2 2738   1.292   0.288   0.959 -0.3478 -0.1516 -0.2062
  925TIP3    H1 2739   1.239   0.300   1.038  0.5926 -0.1498  0.4414
  925TIP3    H2 2740   1.256   0.351   0.897  0.8107  2.0387  1.2214
  926TIP3   OH2 2741   6.081   0.246   2.285  0.5706 -0.0380 -0.4932
  926TIP3    H1 2742   6.033   0.228   2.366  2.4704 -2.6128  0.2207
  926TIP3    H2 2743   6.165   0.281   2.315  0.9701 -0.1813 -1.4110
  927TIP3   OH2 2744   4.924   0.869   3.146  0.0166  0.3039  0.0797
  927TIP3    H1 2745   4.841   0.883   3.099  0.6867  0.1842 -1.2067
  927TIP3    H2 2746   4.901   0.816   3.221 -1.1637  0.7435  0.0501
  928TIP3   OH2 2747   4.589   4.798   5.718  0.0481 -0.0509  0.1202
  928TIP3    H1 2748   4.624   4.741   5.649 -0.2296  0.4530 -0.4447
  928TIP3    H2 2749   4.604   4.749   5.799  1.6377 -0.0450 -0.1487
  929TIP3   OH2 2750   1.062   4.314   5.421  0.0021 -0.3070 -0.7005
  929TIP3    H1 2751   0.990   4.276   5.472  0.0682  1.1376  0.5307
  929TIP3    H2 2752   1.115   4.238   5.395 -1.1418 -1.2580 -0.3519
  930TIP3   OH2 2753   6.532   5.503   4.062  0.2684 -0.0821  0.5895
  930TIP3    H1 2754   6.626   5.515   4.058  0.4977 -0.1160  3.6328
  930TIP3    H2 2755   6.505   5.547   4.143 -2.0020 -1.7037  0.8352
  931TIP3   OH2 2756   5.316   1.947   2.775  0.0819 -0.1105  0.0846
  931TIP3    H1 2757   5.405   1.947   2.810 -0.6400  1.1321  2.1100
  931TIP3    H2 2758   5.310   2.027   2.723 -0.4879  1.0311  1.8472
  932TIP3   OH2 2759   5.230   0.743   3.411 -0.1881  0.4414 -0.2726
  932TIP3    H1 2760   5.154   0.688   3.428  1.2554 -1.4548  0.4134
  932TIP3    H2 2761   5.242   0.740   3.316  1.3223 -2.6465 -0.1085
  933TIP3   OH2 2762   2.070   6.510   3.159  0.1967  0.3974  0.4269
  933TIP3    H1 2763   2.100   6.591   3.119  1.3620  0.1035  0.6613
  933TIP3    H2 2764   1.985   6.494   3.119 -0.2655  1.9665  0.7234
  934TIP3   OH2 2765   2.480   4.372   4.212 -0.4346  0.1943 -0.9643
  934TIP3    H1 2766   2.569   4.405   4.223 -0.2300 -0.3138 -1.0783
  934TIP3    H2 2767   2.486   4.308   4.142 -0.5614 -1.0330  0.1000
  935TIP3   OH2 2768   6.228   5.046   2.758  0.2600 -0.3179  0.0276
  935TIP3    H1 2769   6.304   5.049   2.700  0.9416 -1.0016  0.8472
  935TIP3    H2 2770   6.191   4.959   2.744  0.0544 -0.2484  0.1466
  936TIP3   OH2 2771   3.751   5.397   4.282 -0.2471 -0.3167  0.2998
  936TIP3    H1 2772   3.812   5.466   4.254 -1.0292  0.9013  1.4659
  936TIP3    H2 2773   3.747   5.406   4.378 -0.3732 -2.0035  0.4863
  937TIP3   OH2 2774   4.909   0.548   1.810 -0.3039  0.2592 -0.2189
  937TIP3    H1 2775   4.960   0.629   1.818  0.9008 -0.5021  0.1234
  937TIP3    H2 2776   4.963   0.491   1.755 -0.7324 -0.6045  0.2330
  938TIP3   OH2 2777   7.220   0.508   3.995 -0.1711 -0.1925  0.2800
  938TIP3    H1 2778   7.238   0.427   3.947  0.3245 -0.8343  1.5334
  938TIP3    H2 2779   7.124   0.513   3.999 -0.1963 -1.0311  0.7339
  939TIP3   OH2 2780   2.387   3.035   3.557 -0.6541 -0.4785 -0.3946
  939TIP3    H1 2781   2.429   3.051   3.642 -2.0851  1.2724  0.0298
  939TIP3    H2 2782   2.453   3.060   3.493  0.2176 -1.2165  0.1886
  940TIP3   OH2 2783   6.255   0.891   3.002  0.2003 -0.3228  0.2825
  940TIP3    H1 2784   6.307   0.818   2.970  1.1173  0.2103  0.5291
  940TIP3    H2 2785   6.230   0.940   2.923 -0.3529 -0.8457  0.1245
  941TIP3   OH2 2786   2.740   5.410   1.640  0.1006 -0.3005 -0.5358
  941TIP3    H1 2787   2.765   5.322   1.668 -0.7725 -0.6870 -0.9508
  941TIP3    H2 2788   2.773   5.467   1.710 -1.5334 -1.1914  1.0644
  942TIP3   OH2 2789   5.240   1.093   3.130  0.0700  0.0502 -0.5380
  942TIP3    H1 2790   5.151   1.099   3.163  0.0881 -1.4549 -0.1304
  942TIP3    H2 2791   5.290   1.154   3.183 -0.3293 -0.6865  0.7314
  943TIP3   OH2 2792   2.263   0.354   3.649 -0.2191 -0.1703 -0.5338
  943TIP3    H1 2793   2.342   0.305   3.670 -1.7607 -2.1419  0.9618
  943TIP3    H2 2794   2.218   0.301   3.583 -0.6643  0.5930 -0.8639
  944TIP3   OH2 2795   6.683   5.548   3.452  0.1709 -0.2057  0.7008
  944TIP3    H1 2796   6.766   5.545   3.405  0.5331 -3.7227  1.3185
  944TIP3    H2 2797   6.635   5.472   3.422 -1.6214  0.1402  2.4781
  945TIP3   OH2 2798   1.856   6.699   3.831 -0.5366 -0.3272  0.5027
  945TIP3    H1 2799   1.914   6.715   3.906  1.5944 -1.0678 -0.8680
  945TIP3    H2 2800   1.817   6.613   3.849 -0.9508  0.0187  1.2815
  946TIP3   OH2 2801   0.211   0.754   3.474  0.5048  0.4960 -0.3655
  946TIP3    H1 2802   0.153   0.771   3.548  0.3824 -0.6544 -0.1856
  946TIP3    H2 2803   0.173   0.678   3.430  2.2926 -0.8152  0.2353
  947TIP3   OH2 2804   5.599   5.025   4.642  0.2508  0.5853  0.0356
  947TIP3    H1 2805   5.535   4.966   4.680 -1.3020  0.5184 -2.4795
  947TIP3    H2 2806   5.585   5.108   4.687 -2.1415  0.7618 -0.9030
  948TIP3   OH2 2807   5.492   0.231   5.519  0.2403 -0.1641 -0.1710
  948TIP3    H1 2808   5.398   0.213   5.520  0.1398  0.3333 -0.4642
  948TIP3    H2 2809   5.513   0.256   5.609 -0.0182  0.2682 -0.2277
  949TIP3   OH2 2810   5.489   0.205   0.549  0.1034  0.4336 -0.3989
  949TIP3    H1 2811   5.462   0.158   0.628 -1.4692  2.0387  0.0815
  949TIP3    H2 2812   5.543   0.143   0.501  1.1003 -0.5906  1.9329
  950TIP3   OH2 2813   6.816   5.579   4.526  0.1867 -0.0843 -0.4136
  950TIP3    H1 2814   6.735   5.560   4.574  0.3502  0.5648  0.1302
  950TIP3    H2 2815   6.833   5.671   4.543  0.6652 -0.0423 -1.1077
  951TIP3   OH2 2816   0.876   2.432   4.071 -0.5573  0.1570 -0.3669
  951TIP3    H1 2817   0.812   2.496   4.040 -2.0302 -0.5378  1.0454
  951TIP3    H2 2818   0.847   2.411   4.160  2.0679  0.3232  0.6189
  952TIP3   OH2 2819   1.393   6.471   3.239  0.2419 -0.1544  0.1476
  952TIP3    H1 2820   1.399   6.557   3.279  0.4616 -0.6856  1.3051
  952TIP3    H2 2821   1.302   6.445   3.250  0.1991 -0.1164 -0.1070
  953TIP3   OH2 2822   0.761   4.875   1.880 -0.1891 -0.6153  0.5487
  953TIP3    H1 2823   0.737   4.833   1.962 -0.9949  0.6091  0.9758
  953TIP3    H2 2824   0.850   4.908   1.895 -0.5037 -0.0033  1.0994
  954TIP3   OH2 2825   2.039   1.359   4.539  0.3712 -0.1854  0.2058
  954TIP3    H1 2826   2.103   1.351   4.469  1.4549  2.1790  0.8063
  954TIP3    H2 2827   1.968   1.412   4.502 -0.0252 -0.6199  0.3218
  955TIP3   OH2 2828   0.666   3.746   4.872  0.2173  0.2560 -0.2152
  955TIP3    H1 2829   0.685   3.665   4.919 -1.7258 -1.8351 -2.7741
  955TIP3    H2 2830   0.752   3.777   4.843  0.9396 -1.3152  0.1429
  956TIP3   OH2 2831   6.189   1.655   0.143 -0.0781 -0.0478 -0.0117
  956TIP3    H1 2832   6.264   1.621   0.094  0.3070  0.0978  0.4710
  956TIP3    H2 2833   6.154   1.725   0.088 -0.2135 -0.4943 -0.5062
  957TIP3   OH2 2834   7.014   4.447   2.503  0.0522  0.3692  0.7993
  957TIP3    H1 2835   7.065   4.395   2.566  0.7767 -0.3911 -0.3829
  957TIP3    H2 2836   7.034   4.538   2.525  0.7721  0.1014  1.2772
  958TIP3   OH2 2837   4.971   5.748   4.884 -0.0967 -0.1683  0.3287
  958TIP3    H1 2838   4.935   5.724   4.969  0.7123  2.0250  1.3685
  958TIP3    H2 2839   4.923   5.827   4.859 -0.5219 -0.9320 -1.4259
  959TIP3   OH2 2840   1.748   5.142   5.714  0.3021  0.0086  0.6642
  959TIP3    H1 2841   1.736   5.082   5.788  0.1611 -1.4989 -0.5367
  959TIP3    H2 2842   1.840   5.168   5.719  0.6431 -1.1383  0.6282
  960TIP3   OH2 2843   2.464   5.403   3.137 -0.6742 -0.5785  0.1885
  960TIP3    H1 2844   2.409   5.330   3.111 -0.5996 -0.7180  0.4176
  960TIP3    H2 2845   2.507   5.373   3.217 -0.4015 -0.4050  0.1086
  961TIP3   OH2 2846   0.713   3.002   2.317 -0.0888 -0.2670 -0.5101
  961TIP3    H1 2847   0.663   2.976   2.240  0.9282 -1.2978 -0.8462
  961TIP3    H2 2848   0.646   3.020   2.383 -0.9358 -0.6579 -1.2315
  962TIP3   OH2 2849   4.934   3.432   2.002 -0.3720  0.0574  0.3887
  962TIP3    H1 2850   4.846   3.407   2.032 -1.0681  0.3929 -1.2659
  962TIP3    H2 2851   4.921   3.463   1.913  1.6963 -1.5345 -0.5450
  963TIP3   OH2 2852   6.355   6.004   1.427  0.1123 -0.0030  0.1784
  963TIP3    H1 2853   6.265   6.031   1.447 -0.9805 -2.0923 -1.5395
  963TIP3    H2 2854   6.370   5.927   1.481  0.5250 -0.2132 -0.2255
  964TIP3   OH2 2855   5.977   1.470   4.633 -0.0908 -0.2166 -0.7156
  964TIP3    H1 2856   5.942   1.550   4.671 -2.8813 -1.0255 -1.3617
  964TIP3    H2 2857   6.001   1.416   4.709 -0.3352  0.3579 -0.2247
  965TIP3   OH2 2858   4.673   5.674   1.735  0.1741 -0.2000  0.0546
  965TIP3    H1 2859   4.654   5.618   1.659 -1.5924  1.3637 -0.7406
  965TIP3    H2 2860   4.768   5.684   1.735  0.1526  0.7637 -2.7367
  966TIP3   OH2 2861   4.079   2.367   5.177 -0.3068  0.0982  0.4236
  966TIP3    H1 2862   3.987   2.360   5.202 -0.6088  1.1021 -0.3217
  966TIP3    H2 2863   4.079   2.431   5.105  0.9785  0.1773  0.4777
  967TIP3   OH2 2864   2.348   4.002   1.105 -0.3460  0.4985 -0.3738
  967TIP3    H1 2865   2.290   4.013   1.181 -0.3132 -0.2486 -0.2296
  967TIP3    H2 2866   2.434   3.983   1.143  0.1423  2.1443 -0.5788
  968TIP3   OH2 2867   6.826   5.100   0.811 -0.4752  0.0528  0.3104
  968TIP3    H1 2868   6.837   5.075   0.719  0.9602  1.2978  0.1008
  968TIP3    H2 2869   6.889   5.171   0.824 -2.8146  2.0520  1.4223
  969TIP3   OH2 2870   7.167   2.860   2.444 -0.0251 -0.1995  0.2064
  969TIP3    H1 2871   7.198   2.855   2.354 -0.9757  1.5716 -0.2798
  969TIP3    H2 2872   7.216   2.933   2.482 -0.8190  0.1549  0.5792
  970TIP3   OH2 2873   6.352   4.327   1.701  0.5976  0.5327  0.5448
  970TIP3    H1 2874   6.329   4.265   1.769  0.8755  0.4003  0.5223
  970TIP3    H2 2875   6.272   4.341   1.651  0.6509 -0.1881  0.2475
  971TIP3   OH2 2876   3.912   6.225   3.016 -0.4836  0.2064  0.4857
  971TIP3    H1 2877   3.981   6.188   3.071 -3.2881 -4.1268  1.6159
  971TIP3    H2 2878   3.935   6.197   2.927  0.6735  1.4268  0.3780
  972TIP3   OH2 2879   3.628   3.040   1.660 -0.1981 -0.1398 -0.2645
  972TIP3    H1 2880   3.660   2.953   1.638  0.4122  0.4280 -1.7798
  972TIP3    H2 2881   3.665   3.058   1.747 -1.1036 -1.7252  0.4785
  973TIP3   OH2 2882   0.907   4.875   4.643 -1.1591  0.3904  0.2258
  973TIP3    H1 2883   0.937   4.938   4.708 -0.4031  0.8629 -0.5528
  973TIP3    H2 2884   0.897   4.793   4.692 -0.6732  0.7538  0.9538
  974TIP3   OH2 2885   3.894   6.136   2.458  0.5139  0.4943  0.4846
  974TIP3    H1 2886   3.986   6.162   2.449  0.8297 -1.0567 -1.3407
  974TIP3    H2 2887   3.898   6.053   2.506 -0.0669  1.0931  1.6018
  975TIP3   OH2 2888   6.234   0.768   5.152 -0.1991 -0.2171  0.1000
  975TIP3    H1 2889   6.161   0.707   5.146  0.4684 -0.9144 -1.5176
  975TIP3    H2 2890   6.196   0.854   5.132 -0.9311 -0.2302  1.3149
  976TIP3   OH2 2891   4.132   3.632   5.177 -0.6647 -0.4568 -0.3827
  976TIP3    H1 2892   4.134   3.598   5.266 -2.4495 -1.2031 -0.5718
  976TIP3    H2 2893   4.038   3.635   5.155 -0.4270  1.8855 -1.4194
  977TIP3   OH2 2894   2.163   3.520   3.718 -0.2810  0.8932  0.2441
  977TIP3    H1 2895   2.162   3.537   3.812 -1.2922  0.9584  0.2336
  977TIP3    H2 2896   2.112   3.440   3.707  1.3482 -0.1667 -0.0897
  978TIP3   OH2 2897   7.136   4.952   4.982 -0.0641  0.1239 -0.0771
  978TIP3    H1 2898   7.191   4.892   4.932  0.7932  0.5192  0.3593
  978TIP3    H2 2899   7.160   5.039   4.950  0.6084  0.3949  1.0787
  979TIP3   OH2 2900   5.423   0.312   4.176  0.1146 -0.4476 -0.5099
  979TIP3    H1 2901   5.468   0.372   4.116 -1.5089 -0.0672 -1.3910
  979TIP3    H2 2902   5.444   0.224   4.142 -1.7767 -0.2251 -2.4827
  980TIP3   OH2 2903   4.488   2.832   5.109  0.1032  0.3343 -0.2933
  980TIP3    H1 2904   4.542   2.787   5.044  0.3402  1.4441 -0.8875
  980TIP3    H2 2905   4.408   2.855   5.062 -1.4147 -2.1761  0.8363
  981TIP3   OH2 2906   6.478   2.619   2.344  0.3130  0.2449  0.1971
  981TIP3    H1 2907   6.547   2.685   2.333 -0.0696  0.9620  1.8543
  981TIP3    H2 2908   6.455   2.623   2.437 -0.4751 -1.4911  0.1224
  982TIP3   OH2 2909   3.646   5.119   1.567 -0.3956 -0.1800  0.1577
  982TIP3    H1 2910   3.592   5.198   1.570 -1.9635 -1.1764 -0.4649
  982TIP3    H2 2911   3.709   5.130   1.639 -1.6091  0.9122  1.1074
  983TIP3   OH2 2912   7.130   1.438   4.530  0.7800 -0.2213  0.5820
  983TIP3    H1 2913   7.121   1.524   4.488  2.4000  0.3834  1.4132
  983TIP3    H2 2914   7.060   1.386   4.491  0.1398  1.2871 -0.3969
  984TIP3   OH2 2915   3.487   5.721   4.504 -0.3724 -0.5540 -0.4073
  984TIP3    H1 2916   3.513   5.747   4.592 -0.2509  1.4191 -0.9862
  984TIP3    H2 2917   3.396   5.695   4.512 -0.5128  0.1228  0.2156
  985TIP3   OH2 2918   2.886   6.310   5.661 -0.4726 -0.1038  0.0452
  985TIP3    H1 2919   2.861   6.226   5.621 -0.1741 -0.4354  0.5525
  985TIP3    H2 2920   2.905   6.366   5.586  0.0013 -0.6995 -0.2965
  986TIP3   OH2 2921   4.650   2.633   4.606  0.0189  0.3291 -0.4220
  986TIP3    H1 2922   4.559   2.625   4.634 -0.2967 -0.1975 -1.5217
  986TIP3    H2 2923   4.644   2.673   4.519  0.8205  0.1114 -0.5811
  987TIP3   OH2 2924   1.447   0.663   1.887  0.6255  0.5034  1.0392
  987TIP3    H1 2925   1.503   0.640   1.813  0.8250  1.1634  0.9869
  987TIP3    H2 2926   1.507   0.669   1.961  0.3787 -0.5205  1.3442
  988TIP3   OH2 2927   0.043   0.268   4.496 -0.2105 -0.1163  0.7699
  988TIP3    H1 2928  -0.014   0.276   4.420 -0.0056  0.9876  0.7195
  988TIP3    H2 2929  -0.017   0.260   4.570 -0.4645  1.6712  0.7870
  989TIP3   OH2 2930   2.438   4.421   5.848  0.1355 -0.2489 -0.1192
  989TIP3    H1 2931   2.479   4.463   5.772  2.2866 -1.2625  0.4380
  989TIP3    H2 2932   2.505   4.365   5.885 -0.9959 -0.1462  2.3019
  990TIP3   OH2 2933   2.710   0.209   2.633 -0.7408 -0.0018  0.2301
  990TIP3    H1 2934   2.753   0.242   2.554 -1.0648 -0.4048 -0.1129
  990TIP3    H2 2935   2.635   0.267   2.645 -1.6315 -0.9329 -0.6887
  991TIP3   OH2 2936   3.283   5.519   2.411  0.2189  0.4073  0.0251
  991TIP3    H1 2937   3.203   5.508   2.361  0.2448  0.6268 -0.0637
  991TIP3    H2 2938   3.275   5.605   2.451  1.2357  1.2386 -1.4724
  992TIP3   OH2 2939   3.666   6.084   2.688  0.1465  0.0327  0.5071
  992TIP3    H1 2940   3.583   6.069   2.642  1.3226 -2.7112 -0.9050
  992TIP3    H2 2941   3.688   6.175   2.668 -1.3976  0.1332 -0.9434
  993TIP3   OH2 2942   4.894   4.412   2.287  0.3843  0.0203  1.0256
  993TIP3    H1 2943   4.826   4.475   2.311 -0.5994  0.5049 -2.4766
  993TIP3    H2 2944   4.870   4.332   2.332 -0.9207  0.9307  2.0247
  994TIP3   OH2 2945   3.157   3.571   0.561 -0.2422 -0.0974 -0.5875
  994TIP3    H1 2946   3.134   3.487   0.601 -1.7179  0.8045  0.5530
  994TIP3    H2 2947   3.074   3.617   0.552  0.2426  0.4049 -3.2675
  995TIP3   OH2 2948   2.521   6.607   0.433 -0.0095 -0.5017 -0.7597
  995TIP3    H1 2949   2.572   6.678   0.473 -1.4303 -0.3139  0.8115
  995TIP3    H2 2950   2.565   6.527   0.461  0.4393 -0.3041 -0.8907
  996TIP3   OH2 2951   5.120   5.136   0.386 -0.2894  0.6132  0.2362
  996TIP3    H1 2952   5.192   5.195   0.406 -1.0160  1.9305 -0.8816
  996TIP3    H2 2953   5.162   5.058   0.350  0.6134  1.0782  0.2661
  997TIP3   OH2 2954   5.659   1.571   0.340 -0.0195 -0.4234  0.6613
  997TIP3    H1 2955   5.705   1.576   0.424  0.2227  0.9417  0.4749
  997TIP3    H2 2956   5.579   1.524   0.360  0.7503 -1.5094  1.3138
  998TIP3   OH2 2957   0.327   6.278   4.988  0.1428 -1.0977  0.8238
  998TIP3    H1 2958   0.299   6.302   5.076 -0.4915 -0.0567  0.3708
  998TIP3    H2 2959   0.360   6.360   4.951  1.7353 -1.8176  0.5582
  999TIP3   OH2 2960   1.924   3.080   3.880  0.5328  0.3616 -0.1051
  999TIP3    H1 2961   1.856   3.025   3.918  1.4007 -0.2545  0.5958
  999TIP3    H2 2962   1.930   3.052   3.789  1.3564 -1.1611  0.3748
 1000TIP3   OH2 2963   3.068   6.546   3.397  0.2979  0.4715 -0.2098
 1000TIP3    H1 2964   3.065   6.638   3.372  0.2652  0.4175 -0.3997
 1000TIP3    H2 2965   3.128   6.505   3.335 -1.5484 -0.1237 -1.6722
 1001TIP3   OH2 2966   4.958   6.210   3.590  0.3346 -0.3217  0.7601
 1001TIP3    H1 2967   5.052   6.203   3.570  0.5176  1.3768  0.8413
 1001TIP3    H2 2968   4.949   6.298   3.627 -1.5227  0.0945 -0.5725
 1002TIP3   OH2 2969   1.755   0.043   4.531  0.1918 -0.2736  0.6536
 1002TIP3    H1 2970   1.765   0.078   4.442 -0.5048  0.1855  0.7507
 1002TIP3    H2 2971   1.684   0.095   4.569 -0.5965 -1.5116  0.9391
 1003TIP3   OH2 2972   0.345   1.574   5.109 -0.1983 -0.2972  0.3531
 1003TIP3    H1 2973   0.305   1.515   5.173 -0.0293  1.2075  1.9346
 1003TIP3    H2 2974   0.320   1.538   5.024 -1.5438 -1.6439  1.2623
 1004TIP3   OH2 2975   6.973   2.198   0.278 -0.2036 -0.6719  0.4229
 1004TIP3    H1 2976   6.920   2.266   0.320  1.5888  1.0531  0.0611
 1004TIP3    H2 2977   6.960   2.212   0.184  3.1880  2.0128  0.1186
 1005TIP3   OH2 2978   0.371   0.073   1.629 -0.0048  0.7572  0.2250
 1005TIP3    H1 2979   0.409   0.040   1.710  1.4613  0.5451 -0.5195
 1005TIP3    H2 2980   0.307   0.005   1.604  0.8641 -0.0967  0.2542
 1006TIP3   OH2 2981   3.852   0.706   2.358 -0.1491 -0.2344 -0.1486
 1006TIP3    H1 2982   3.911   0.651   2.409 -1.0496  0.3531  1.5955
 1006TIP3    H2 2983   3.768   0.699   2.402 -0.7152  1.1089 -0.9533
 1007TIP3   OH2 2984   2.040   5.106   0.884 -0.6307  0.6894 -0.2171
 1007TIP3    H1 2985   2.004   5.193   0.898 -3.0034 -0.2265 -0.1707
 1007TIP3    H2 2986   2.033   5.092   0.789  0.6772  0.8798 -0.3691
 1008TIP3   OH2 2987   4.450   3.514   5.475  0.0872 -0.4784 -0.1630
 1008TIP3    H1 2988   4.531   3.563   5.485  0.5722 -1.6440  2.5793
 1008TIP3    H2 2989   4.471   3.446   5.410  0.9715 -0.1381 -0.2479
 1009TIP3   OH2 2990   4.985   5.925   4.097  0.3581 -0.2629  0.0079
 1009TIP3    H1 2991   5.035   5.953   4.174  0.7991 -0.9668 -0.0179
 1009TIP3    H2 2992   5.010   5.987   4.029  0.6260 -0.1585  0.1981
 1010TIP3   OH2 2993   4.148   4.292   4.782  0.6169 -0.2016  0.0904
 1010TIP3    H1 2994   4.164   4.285   4.876  0.0653  0.7893  0.2758
 1010TIP3    H2 2995   4.230   4.328   4.746  1.0014 -1.0355  0.1096
 1011TIP3   OH2 2996   3.146   2.632   3.656 -0.2099  0.4971 -0.3607
 1011TIP3    H1 2997   3.198   2.639   3.576 -1.6244  0.1856 -1.3533
 1011TIP3    H2 2998   3.163   2.543   3.687 -0.3122  0.3206 -0.8000
 1012TIP3   OH2 2999   3.990   2.689   0.631  0.3051 -0.0763 -0.2723
 1012TIP3    H1 3000   3.942   2.625   0.578 -1.1868  0.8667 -0.1168
 1012TIP3    H2 3001   3.922   2.742   0.672  1.5023  1.3008  0.0023
 1013TIP3   OH2 3002   0.272   6.636   0.130  0.2668  0.5597 -0.9335
 1013TIP3    H1 3003   0.341   6.690   0.170  0.7421 -0.8211  0.2266
 1013TIP3    H2 3004   0.316   6.554   0.106 -0.7882 -0.0281 -0.9505
 1014TIP3   OH2 3005   5.300   1.306   4.973  0.2369  0.4206 -0.7370
 1014TIP3    H1 3006   5.335   1.361   4.903 -0.1556  0.8085 -0.6327
 1014TIP3    H2 3007   5.315   1.357   5.053  0.3207  0.1552 -0.5818
 1015TIP3   OH2 3008   2.415   2.532   5.047  0.0086  0.4624 -0.5217
 1015TIP3    H1 3009   2.437   2.625   5.045  1.0143  0.2515 -0.0221
 1015TIP3    H2 3010   2.324   2.528   5.018  0.5182  1.4165 -2.4720
 1016TIP3   OH2 3011   1.790   6.295   1.220  0.7172 -0.3634 -0.0739
 1016TIP3    H1 3012   1.881   6.299   1.192  0.9064  1.2722  0.6564
 1016TIP3    H2 3013   1.739   6.313   1.141  1.1427  1.4425  0.0383
 1017TIP3   OH2 3014   6.401   4.243   3.012  0.2087 -0.3545 -0.6622
 1017TIP3    H1 3015   6.445   4.299   3.075 -0.1864 -0.7304 -0.0405
 1017TIP3    H2 3016   6.331   4.298   2.977  0.9925  0.1543 -1.4567
 1018TIP3   OH2 3017   6.738   3.208   1.945 -1.0457  0.3191 -0.6474
 1018TIP3    H1 3018   6.773   3.187   2.032  2.3579 -2.1050 -2.3515
 1018TIP3    H2 3019   6.683   3.133   1.924 -2.2449  1.1257 -0.4659
 1019TIP3   OH2 3020   4.276   2.451   5.484  0.3477  0.1270  0.5583
 1019TIP3    H1 3021   4.306   2.466   5.395 -1.8894 -2.8509 -0.8913
 1019TIP3    H2 3022   4.230   2.531   5.508  0.5092  0.7918 -1.2017
 1020TIP3   OH2 3023   3.767   4.289   0.458  0.4267  0.4014  0.7143
 1020TIP3    H1 3024   3.757   4.308   0.365 -2.5077 -0.3449  0.7617
 1020TIP3    H2 3025   3.811   4.204   0.461 -1.0710 -0.4428 -0.1192
 1021TIP3   OH2 3026   6.296   4.331   3.432 -0.4052 -0.0997 -0.3299
 1021TIP3    H1 3027   6.239   4.261   3.464 -0.2792 -0.5396 -1.0368
 1021TIP3    H2 3028   6.240   4.409   3.431 -0.2902  0.0373  1.3395
 1022TIP3   OH2 3029   5.518   5.701   1.714 -0.1803  0.0006 -0.4142
 1022TIP3    H1 3030   5.444   5.718   1.656 -0.6454 -0.1325  0.1300
 1022TIP3    H2 3031   5.595   5.709   1.658 -0.6578 -0.9234 -1.2288
 1023TIP3   OH2 3032   1.656   3.763   1.815  0.0531  0.2696  0.2061
 1023TIP3    H1 3033   1.589   3.728   1.874  0.7760  0.4431  1.1640
 1023TIP3    H2 3034   1.610   3.827   1.761 -0.8998 -0.8174 -0.3135
 1024TIP3   OH2 3035   1.007   2.346   3.700  0.3872 -0.4093  0.0735
 1024TIP3    H1 3036   0.952   2.310   3.631 -1.0780 -0.3287  1.1448
 1024TIP3    H2 3037   0.974   2.306   3.781  0.4373  1.3221  0.9993
 1025TIP3   OH2 3038   4.519   5.725   4.392  0.1680 -0.0889 -0.2820
 1025TIP3    H1 3039   4.578   5.682   4.453 -0.6693 -0.7019  0.1251
 1025TIP3    H2 3040   4.541   5.818   4.398  2.3492 -0.4677 -1.5427
 1026TIP3   OH2 3041   5.915   5.517   1.824  0.0106 -0.2458  0.0163
 1026TIP3    H1 3042   5.869   5.597   1.850 -1.2034 -0.9882  0.2245
 1026TIP3    H2 3043   6.004   5.530   1.856 -0.3967  0.6319  0.8539
 1027TIP3   OH2 3044   0.688   6.557   4.813  0.2203  0.7939  0.9135
 1027TIP3    H1 3045   0.677   6.493   4.884  1.9346  1.6019  1.9757
 1027TIP3    H2 3046   0.738   6.510   4.746  0.7284  0.7506  1.3178
 1028TIP3   OH2 3047   2.874   3.022   4.633  0.0245 -0.6989 -0.1503
 1028TIP3    H1 3048   2.810   3.036   4.704 -1.4700 -0.9840 -1.3981
 1028TIP3    H2 3049   2.955   3.058   4.668 -0.6584 -0.8469  1.7221
 1029TIP3   OH2 3050   2.900   5.169   2.965  0.0043 -0.5490  0.1254
 1029TIP3    H1 3051   2.972   5.153   3.026  1.0689 -0.5601 -1.1069
 1029TIP3    H2 3052   2.898   5.092   2.908 -1.3951 -0.8394  0.5109
 1030TIP3   OH2 3053   1.983   0.426   5.494  0.7544 -0.3404 -0.3555
 1030TIP3    H1 3054   1.931   0.379   5.559  1.0728 -1.6856 -1.0390
 1030TIP3    H2 3055   2.073   0.415   5.523  0.7774  0.6317 -0.0386
 1031TIP3   OH2 3056   3.573   0.436   0.980  0.2465 -0.3266  0.0127
 1031TIP3    H1 3057   3.528   0.517   1.005  0.0359 -0.9359  1.7768
 1031TIP3    H2 3058   3.623   0.459   0.902 -2.0334  0.7522 -1.2165
 1032TIP3   OH2 3059   6.469   5.286   5.205  0.3163  0.0964  0.3351
 1032TIP3    H1 3060   6.406   5.283   5.133  1.0728  0.7500 -0.3695
 1032TIP3    H2 3061   6.505   5.197   5.209 -0.9422 -0.4129  1.0394
 1033TIP3   OH2 3062   5.047   2.744   0.773  0.2652 -0.4406 -0.0375
 1033TIP3    H1 3063   5.137   2.721   0.796 -0.2452 -1.3274  1.1796
 1033TIP3    H2 3064   4.998   2.662   0.781 -1.1476  0.5085  1.9710
 1034TIP3   OH2 3065   5.147   2.727   3.956  0.3649  0.1085  0.5619
 1034TIP3    H1 3066   5.205   2.679   3.897 -0.0268  0.8543 -0.4629
 1034TIP3    H2 3067   5.197   2.804   3.981  0.8392 -0.6017  1.8818
 1035TIP3   OH2 3068   2.203   3.811   1.929 -0.2899  0.1376  0.6143
 1035TIP3    H1 3069   2.248   3.895   1.925  0.8512 -0.5059 -1.4946
 1035TIP3    H2 3070   2.132   3.818   1.866  1.2339 -1.1906 -1.3693
 1036TIP3   OH2 3071   1.615   1.028   5.512 -0.0804 -0.0625 -0.4828
 1036TIP3    H1 3072   1.654   1.089   5.449 -1.7128 -0.0063 -1.4768
 1036TIP3    H2 3073   1.551   1.081   5.560 -0.4475 -0.6531 -0.3113
 1037TIP3   OH2 3074   0.878   3.271   5.420  0.1221 -0.2719 -0.1872
 1037TIP3    H1 3075   0.823   3.200   5.452 -0.7527  0.6400  0.4021
 1037TIP3    H2 3076   0.963   3.256   5.462 -0.5844  0.0611  1.4448
 1038TIP3   OH2 3077   1.583   6.131   1.921  0.0759 -0.0580 -0.4669
 1038TIP3    H1 3078   1.551   6.078   1.848  0.5813 -1.2710  0.1542
 1038TIP3    H2 3079   1.673   6.154   1.897  0.4468 -0.9619  0.0173
 1039TIP3   OH2 3080   1.179   6.677   2.646 -0.0567  0.4230  0.1115
 1039TIP3    H1 3081   1.224   6.681   2.730  1.5048  1.3958 -0.7141
 1039TIP3    H2 3082   1.172   6.769   2.618 -3.7310  0.4921  0.7219
 1040TIP3   OH2 3083   3.353   2.061   5.741  0.2646 -0.1141 -0.1216
 1040TIP3    H1 3084   3.363   2.149   5.776 -0.8432 -0.1737  0.3672
 1040TIP3    H2 3085   3.345   2.073   5.646  2.5786  0.0969 -0.3404
 1041TIP3   OH2 3086   0.879   2.465   5.579  0.5713 -0.6221 -0.7632
 1041TIP3    H1 3087   0.942   2.407   5.622  0.1306 -0.2503  0.3927
 1041TIP3    H2 3088   0.910   2.469   5.488  1.0833 -2.0054 -0.6860
 1042TIP3   OH2 3089   1.922   4.085   1.187 -0.0396  0.9079  0.2064
 1042TIP3    H1 3090   1.961   3.999   1.173 -0.2683  0.5580  1.5191
 1042TIP3    H2 3091   1.831   4.074   1.160 -0.5987  0.1108  2.2176
 1043TIP3   OH2 3092   1.195   0.801   3.183 -0.0724  0.1608  0.6222
 1043TIP3    H1 3093   1.226   0.852   3.108 -0.6409 -0.2903  0.0692
 1043TIP3    H2 3094   1.271   0.749   3.210  1.0426  2.4903  2.2706
 1044TIP3   OH2 3095   1.951   6.273   3.895  0.8278  0.2969  0.2099
 1044TIP3    H1 3096   1.901   6.249   3.818 -0.1429 -2.4146  1.5385
 1044TIP3    H2 3097   1.942   6.368   3.902 -3.2144  0.1000 -0.2647
 1045TIP3   OH2 3098   1.450   5.376   4.753 -0.5433 -0.0038  0.1985
 1045TIP3    H1 3099   1.533   5.393   4.797 -0.4490 -0.1156  0.0665
 1045TIP3    H2 3100   1.394   5.450   4.777 -0.6871 -0.3611  0.9789
 1046TIP3   OH2 3101   1.067   1.358   3.408  0.1541  0.1776 -0.4302
 1046TIP3    H1 3102   1.068   1.264   3.421 -1.1829  0.2006  0.0356
 1046TIP3    H2 3103   1.110   1.394   3.486  1.5124 -0.0595 -1.0466
 1047TIP3   OH2 3104   3.967   1.167   3.114  0.0077 -0.4929 -0.0758
 1047TIP3    H1 3105   4.007   1.220   3.045  0.9897 -0.7098  0.3207
 1047TIP3    H2 3106   3.977   1.218   3.194 -1.6734  0.0345 -0.1589
 1048TIP3   OH2 3107   3.343   4.951   0.750 -0.1453  0.7101 -0.2975
 1048TIP3    H1 3108   3.423   4.929   0.703  0.4560 -0.5105  1.2220
 1048TIP3    H2 3109   3.337   5.046   0.744  1.3478  0.8090 -0.5812
 1049TIP3   OH2 3110   0.704   0.952   4.331 -0.3520 -0.2763  0.3211
 1049TIP3    H1 3111   0.773   1.018   4.332 -1.0768  0.5014 -0.0730
 1049TIP3    H2 3112   0.625   0.999   4.304 -1.3737 -0.8058  2.1476
 1050TIP3   OH2 3113   4.250   6.529   0.786 -0.9060  0.0128  0.6372
 1050TIP3    H1 3114   4.270   6.620   0.806 -1.4068  0.1705  0.4305
 1050TIP3    H2 3115   4.276   6.518   0.695 -2.9418  0.5848 -0.0508
 1051TIP3   OH2 3116   0.707   6.454   2.609 -0.1589  0.0923 -0.6554
 1051TIP3    H1 3117   0.691   6.532   2.661  1.8725 -0.1743  0.4635
 1051TIP3    H2 3118   0.663   6.384   2.657  1.8650 -0.1879  0.9198
 1052TIP3   OH2 3119   6.599   0.560   5.084  0.0500  0.2313 -0.1365
 1052TIP3    H1 3120   6.526   0.501   5.104  1.1519 -1.4352 -0.7874
 1052TIP3    H2 3121   6.656   0.554   5.161  0.8985 -0.7537 -0.8273
 1053TIP3   OH2 3122   1.687   2.251   1.595 -0.4186  0.1736  0.0201
 1053TIP3    H1 3123   1.653   2.162   1.591  0.8924 -0.4063  0.9877
 1053TIP3    H2 3124   1.714   2.271   1.506  0.4544 -0.9016  0.0264
 1054TIP3   OH2 3125   5.040   1.387   2.065 -0.8002  0.1285  0.1529
 1054TIP3    H1 3126   5.017   1.463   2.012 -0.8858  0.3581  0.5185
 1054TIP3    H2 3127   4.967   1.377   2.126 -1.5842 -1.2165 -0.9354
 1055TIP3   OH2 3128   1.702   4.203   0.094 -0.2423 -0.3586 -0.5062
 1055TIP3    H1 3129   1.783   4.239   0.058 -1.9720  1.4549 -2.8818
 1055TIP3    H2 3130   1.691   4.248   0.178  1.2362 -0.7485 -0.0740
 1056TIP3   OH2 3131   0.449   6.299   3.833  0.2995  0.5103  0.3050
 1056TIP3    H1 3132   0.535   6.260   3.847 -0.3304 -0.9210  0.3591
 1056TIP3    H2 3133   0.387   6.233   3.863 -0.8501  1.2239 -0.3857
 1057TIP3   OH2 3134   4.136   2.829   1.272 -0.0791  0.0046 -0.0400
 1057TIP3    H1 3135   4.113   2.754   1.218 -0.1594  0.4375 -0.6158
 1057TIP3    H2 3136   4.195   2.881   1.217 -1.0329  1.0062 -0.1316
 1058TIP3   OH2 3137   3.741   1.083   2.819 -0.6886 -0.0698  0.1040
 1058TIP3    H1 3138   3.717   1.161   2.868 -1.3892  0.9323 -1.7466
 1058TIP3    H2 3139   3.659   1.055   2.777 -0.0525 -0.7014 -0.7469
 1059TIP3   OH2 3140   5.702   0.841   1.765  0.5513 -0.0722 -0.0267
 1059TIP3    H1 3141   5.624   0.844   1.820 -0.6825 -0.9731 -1.6547
 1059TIP3    H2 3142   5.755   0.915   1.796 -1.8828  1.8749 -0.2228
 1060TIP3   OH2 3143   0.074   0.307   2.809  0.5709 -0.2165 -0.8191
 1060TIP3    H1 3144   0.122   0.373   2.859  0.5757 -0.3652 -0.6250
 1060TIP3    H2 3145   0.074   0.340   2.719 -0.8623  0.8618 -0.4522
 1061TIP3   OH2 3146   0.584   4.389   2.110  0.0819 -0.0298 -0.1601
 1061TIP3    H1 3147   0.557   4.394   2.018 -0.6657  1.5002  0.0961
 1061TIP3    H2 3148   0.502   4.399   2.159  0.4044 -1.3278  0.6887
 1062TIP3   OH2 3149   6.949   0.805   4.709 -0.4064  0.1749  0.3140
 1062TIP3    H1 3150   6.916   0.716   4.700 -0.0300  0.0999 -0.4114
 1062TIP3    H2 3151   7.042   0.798   4.687 -0.4130  0.7692  0.0830
 1063TIP3   OH2 3152   1.808   2.475   0.960 -0.2882  0.2793 -0.2512
 1063TIP3    H1 3153   1.889   2.469   0.911 -0.8718  0.7904 -1.3208
 1063TIP3    H2 3154   1.827   2.537   1.031  0.8073 -1.1170  0.7231
 1064TIP3   OH2 3155   5.099   3.360   4.857 -0.4733  0.3028  0.4319
 1064TIP3    H1 3156   5.118   3.452   4.843  2.1635 -0.1485  0.5165
 1064TIP3    H2 3157   5.005   3.352   4.839 -0.8074  2.9817  0.5502
 1065TIP3   OH2 3158   1.028   3.964   4.451  0.5434  0.2657  0.1866
 1065TIP3    H1 3159   1.063   3.920   4.374  0.9956  0.2092  0.4180
 1065TIP3    H2 3160   1.087   3.938   4.522 -0.3757 -0.3956  0.7294
 1066TIP3   OH2 3161   0.124   6.297   4.489 -0.7521  0.0110  0.1735
 1066TIP3    H1 3162   0.062   6.332   4.553  1.6298  1.5916  1.7802
 1066TIP3    H2 3163   0.101   6.341   4.407 -1.1576  1.2929  0.9526
 1067TIP3   OH2 3164   2.327   4.295   2.712  0.1933  0.0692 -0.7536
 1067TIP3    H1 3165   2.311   4.308   2.619 -1.0620  0.1074 -0.5496
 1067TIP3    H2 3166   2.241   4.307   2.753  0.5236 -0.9387  0.2968
 1068TIP3   OH2 3167   0.521   2.102   3.095  0.4477 -0.1369  0.1721
 1068TIP3    H1 3168   0.596   2.159   3.076  0.5952 -1.0091 -2.2314
 1068TIP3    H2 3169   0.445   2.160   3.090  0.7263  0.1722 -0.6465
 1069TIP3   OH2 3170   5.523   6.660   4.068 -0.1781  0.5229  0.3067
 1069TIP3    H1 3171   5.505   6.585   4.125  0.0272  0.2716  0.0450
 1069TIP3    H2 3172   5.601   6.634   4.018  0.2416  1.1406  0.6242
 1070TIP3   OH2 3173   5.888   1.900   3.422 -0.4543  0.0002 -0.7712
 1070TIP3    H1 3174   5.965   1.957   3.422  0.3298 -1.0305 -0.3332
 1070TIP3    H2 3175   5.827   1.942   3.482 -0.4195  1.0535 -1.4491
 1071TIP3   OH2 3176   2.358   3.212   4.762  0.3795 -0.0143 -0.0629
 1071TIP3    H1 3177   2.308   3.247   4.688  0.3688 -0.4206 -0.2498
 1071TIP3    H2 3178   2.345   3.117   4.757  2.2717 -0.2885 -0.9334
 1072TIP3   OH2 3179   2.985   2.611   2.481 -0.4680 -0.4913  0.3429
 1072TIP3    H1 3180   3.045   2.673   2.521  0.3916 -0.7840 -0.4569
 1072TIP3    H2 3181   3.039   2.561   2.420 -1.6742 -0.2280 -0.9992
 1073TIP3   OH2 3182   3.666   2.152   4.890 -0.2731 -0.0861  0.6035
 1073TIP3    H1 3183   3.644   2.079   4.831 -1.5760  0.0005  0.9616
 1073TIP3    H2 3184   3.751   2.127   4.928  1.1581  0.3337 -2.0506
 1074TIP3   OH2 3185   1.028   6.492   0.725 -0.0750  0.3610 -0.6628
 1074TIP3    H1 3186   1.079   6.418   0.760 -0.3269 -0.3019 -1.6538
 1074TIP3    H2 3187   0.974   6.520   0.799  0.8608  0.3084  0.0626
 1075TIP3   OH2 3188   5.715   3.299   4.506 -0.6300  0.1683 -0.2087
 1075TIP3    H1 3189   5.627   3.273   4.535  0.0207 -1.2861  0.5488
 1075TIP3    H2 3190   5.702   3.331   4.417 -1.7933 -1.0275 -0.5034
 1076TIP3   OH2 3191   2.387   1.524   3.785  0.3073 -0.2830 -0.1442
 1076TIP3    H1 3192   2.439   1.463   3.837 -2.8394 -2.1839  1.0832
 1076TIP3    H2 3193   2.305   1.477   3.768 -0.6857  2.1107 -2.7540
 1077TIP3   OH2 3194   4.909   3.568   4.986 -0.0176  0.0974  0.0333
 1077TIP3    H1 3195   4.865   3.623   5.051  1.5219  1.8628 -0.3435
 1077TIP3    H2 3196   4.871   3.595   4.902  0.5405  0.3989 -0.1253
 1078TIP3   OH2 3197   4.690   0.785   0.588  0.2353  0.1530 -0.7473
 1078TIP3    H1 3198   4.648   0.807   0.505 -2.2410 -0.3081  0.2805
 1078TIP3    H2 3199   4.665   0.857   0.647 -0.5941 -0.9757  0.3392
 1079TIP3   OH2 3200   3.622   5.553   5.634  0.1657 -0.6787  0.0162
 1079TIP3    H1 3201   3.686   5.483   5.619 -0.0633 -1.0521  0.7155
 1079TIP3    H2 3202   3.674   5.626   5.667  0.4614 -0.3729 -1.0903
 1080TIP3   OH2 3203   4.771   6.401   5.339  0.2438 -0.0137  0.0879
 1080TIP3    H1 3204   4.793   6.384   5.247  0.0936  2.1917 -0.4314
 1080TIP3    H2 3205   4.676   6.408   5.340  0.3068  1.2424  0.0958
 1081TIP3   OH2 3206   0.261   2.566   2.192 -0.5780  0.1840  0.0586
 1081TIP3    H1 3207   0.170   2.568   2.221 -0.8065  0.8858 -0.6492
 1081TIP3    H2 3208   0.307   2.626   2.250 -1.0795  1.7744 -1.1253
 1082TIP3   OH2 3209   4.805   1.484   2.478 -0.3700  0.9559  0.1160
 1082TIP3    H1 3210   4.735   1.432   2.518 -0.4521  1.3687  0.5222
 1082TIP3    H2 3211   4.861   1.420   2.435 -1.2572  0.6464 -0.6391
 1083TIP3   OH2 3212   4.853   2.971   1.865 -0.6101 -0.0302  0.4581
 1083TIP3    H1 3213   4.944   2.999   1.873 -0.8673  0.6740  1.0403
 1083TIP3    H2 3214   4.844   2.944   1.774  0.1725 -0.0795  0.3909
 1084TIP3   OH2 3215   2.954   1.366   4.868  0.3829  0.0361 -0.5797
 1084TIP3    H1 3216   2.893   1.389   4.798  0.7968 -0.1639 -1.0151
 1084TIP3    H2 3217   2.937   1.274   4.887 -1.2814  0.6658  1.1732
 1085TIP3   OH2 3218   0.784   4.290   2.586 -0.0031 -0.0345  0.7211
 1085TIP3    H1 3219   0.828   4.216   2.546  1.8352  0.3411  1.9277
 1085TIP3    H2 3220   0.777   4.267   2.678 -0.9230  0.5982  0.8248
 1086TIP3   OH2 3221   5.948   1.511   0.183  0.1680 -0.3083  0.1244
 1086TIP3    H1 3222   5.882   1.564   0.227  1.0126 -1.0413  2.4286
 1086TIP3    H2 3223   6.028   1.563   0.189  0.9412 -1.6132  2.1515
 1087TIP3   OH2 3224   6.179   3.059   0.882 -0.5016  1.0027  0.3418
 1087TIP3    H1 3225   6.196   3.153   0.869 -0.4020  0.8660 -0.6158
 1087TIP3    H2 3226   6.202   3.020   0.797 -0.5871  0.1198  0.7270
 1088TIP3   OH2 3227   5.010   1.569   1.403  0.2155  0.4842  0.2039
 1088TIP3    H1 3228   5.020   1.523   1.320  0.9439 -0.4346  0.7835
 1088TIP3    H2 3229   4.971   1.654   1.379  1.9272  0.9023 -1.2617
 1089TIP3   OH2 3230   0.505   2.459   1.619 -0.6169  0.6600 -0.5004
 1089TIP3    H1 3231   0.448   2.401   1.569  0.5499 -0.7174 -0.3197
 1089TIP3    H2 3232   0.564   2.498   1.554  1.1173 -1.3837 -0.2726
 1090TIP3   OH2 3233   3.911   3.072   3.029  0.2376  0.2272  0.0659
 1090TIP3    H1 3234   3.971   3.125   3.082  0.0055  0.1082  0.4511
 1090TIP3    H2 3235   3.831   3.068   3.081 -0.5808  1.5092 -1.0405
 1091TIP3   OH2 3236   3.661   3.617   1.695 -0.3377  0.4737  0.3507
 1091TIP3    H1 3237   3.634   3.690   1.751  0.0111  1.1127 -0.2909
 1091TIP3    H2 3238   3.723   3.657   1.633  0.4522 -0.5296  0.4746
 1092TIP3   OH2 3239   2.096   2.644   1.674  0.0238  0.6205 -0.1379
 1092TIP3    H1 3240   2.023   2.609   1.623 -0.2727  0.9994  0.0212
 1092TIP3    H2 3241   2.058   2.716   1.723  0.8630  1.9279 -1.3224
 1093TIP3   OH2 3242   5.799   1.384   5.657 -0.1291 -0.0749 -0.3013
 1093TIP3    H1 3243   5.798   1.293   5.628 -0.6845  0.1372 -0.9766
 1093TIP3    H2 3244   5.879   1.421   5.619  1.4034 -0.8653  1.9349
 1094TIP3   OH2 3245   3.705   4.767   3.312  0.5754  0.4018  0.3859
 1094TIP3    H1 3246   3.745   4.792   3.395  0.4858 -1.4725  1.0504
 1094TIP3    H2 3247   3.705   4.671   3.314  0.4048  0.3199 -1.7062
 1095TIP3   OH2 3248   7.172   4.719   1.086 -0.2521  0.7224 -0.0058
 1095TIP3    H1 3249   7.146   4.678   1.004  0.4326  1.9626 -0.8762
 1095TIP3    H2 3250   7.219   4.798   1.060  0.4748  0.8553  1.5756
 1096TIP3   OH2 3251   6.241   5.783   3.158 -0.1245 -0.5451  0.2857
 1096TIP3    H1 3252   6.316   5.812   3.106 -1.4071  0.3032 -1.2066
 1096TIP3    H2 3253   6.228   5.851   3.223  0.1631 -0.4903  0.2847
 1097TIP3   OH2 3254   0.862   4.813   0.642  0.0953 -0.0059 -0.8511
 1097TIP3    H1 3255   0.873   4.837   0.734 -1.2866  0.2926 -0.7429
 1097TIP3    H2 3256   0.925   4.742   0.629  3.1318  2.4388 -0.7399
 1098TIP3   OH2 3257   6.825   0.491   0.305 -0.2064  0.0808  0.3663
 1098TIP3    H1 3258   6.908   0.472   0.347 -0.2723  1.0145  0.9471
 1098TIP3    H2 3259   6.773   0.411   0.316  0.1924 -0.0890  1.0537
 1099TIP3   OH2 3260   0.314   6.511   5.719  0.0186  0.0780 -0.1706
 1099TIP3    H1 3261   0.304   6.420   5.691 -0.2101 -0.1716  0.7104
 1099TIP3    H2 3262   0.391   6.511   5.775  0.9106  0.7180 -1.3484
 1100TIP3   OH2 3263   6.027   5.220   0.657 -0.2931 -0.5240  0.2089
 1100TIP3    H1 3264   5.968   5.145   0.655  1.2638 -1.8224  0.3808
 1100TIP3    H2 3265   6.114   5.182   0.645  0.4776  1.3683 -0.6029
 1101TIP3   OH2 3266   3.408   4.159   1.724 -0.6555 -0.4573 -0.1749
 1101TIP3    H1 3267   3.422   4.122   1.811 -0.9788  1.5031  0.7731
 1101TIP3    H2 3268   3.472   4.115   1.669 -1.4952 -2.8998  0.6598
 1102TIP3   OH2 3269   4.600   4.907   5.403  0.3081  0.5312 -0.2110
 1102TIP3    H1 3270   4.604   4.881   5.311 -1.0042 -3.0460  0.5909
 1102TIP3    H2 3271   4.683   4.878   5.440  0.8184  1.9307 -0.2078
 1103TIP3   OH2 3272   0.203   0.281   1.765 -0.0135  0.1645 -0.5839
 1103TIP3    H1 3273   0.255   0.246   1.692 -0.6903  2.5892 -2.3852
 1103TIP3    H2 3274   0.144   0.210   1.789 -0.0846 -0.5821 -2.7532
 1104TIP3   OH2 3275   1.438   5.411   0.597 -0.9421  0.1389 -0.4002
 1104TIP3    H1 3276   1.372   5.469   0.635 -1.8858 -1.5042  0.5497
 1104TIP3    H2 3277   1.486   5.375   0.671 -0.7400 -0.7338 -0.9359
 1105TIP3   OH2 3278   1.512   4.026   4.347 -0.0837 -0.2235  0.5782
 1105TIP3    H1 3279   1.607   4.026   4.336 -0.1920  1.5216 -0.8376
 1105TIP3    H2 3280   1.493   4.111   4.386 -1.2176  0.4332 -1.2657
 1106TIP3   OH2 3281   5.876   3.248   2.210  0.0548 -0.3045  0.1098
 1106TIP3    H1 3282   5.898   3.319   2.270  1.2063 -1.8236  1.5974
 1106TIP3    H2 3283   5.781   3.254   2.198  0.3665  3.3110 -2.3237
 1107TIP3   OH2 3284   3.220   5.927   1.890  0.5057  0.0334 -0.0767
 1107TIP3    H1 3285   3.238   5.845   1.845  0.0137  0.2195 -0.6262
 1107TIP3    H2 3286   3.140   5.960   1.849 -0.2395 -0.0390  1.2797
 1108TIP3   OH2 3287   6.739   2.529   3.800  0.1570 -0.2063 -0.1435
 1108TIP3    H1 3288   6.756   2.456   3.740 -2.8747 -0.4442 -0.8729
 1108TIP3    H2 3289   6.825   2.568   3.816  1.5280 -2.3678 -1.7557
 1109TIP3   OH2 3290   3.846   6.748   5.228 -0.0293  0.0614 -0.4162
 1109TIP3    H1 3291   3.780   6.727   5.295  1.3805 -0.1196  0.9706
 1109TIP3    H2 3292   3.901   6.815   5.269 -0.6899  1.9432 -2.4248
 1110TIP3   OH2 3293   2.149   4.880   3.621  0.1138  1.3622 -0.1518
 1110TIP3    H1 3294   2.135   4.915   3.533 -2.4023  1.4913  0.2266
 1110TIP3    H2 3295   2.185   4.793   3.606 -0.3494  1.3540 -1.3366
 1111TIP3   OH2 3296   3.004   5.795   2.971  0.2928 -0.0813 -0.1709
 1111TIP3    H1 3297   3.059   5.723   2.941  0.9202  0.4698 -0.3830
 1111TIP3    H2 3298   2.976   5.770   3.059  2.1346  0.2784  0.5741
 1112TIP3   OH2 3299   0.758   4.643   2.072  0.2580  0.2645  0.2655
 1112TIP3    H1 3300   0.835   4.598   2.108  1.0458  0.9127 -0.5522
 1112TIP3    H2 3301   0.685   4.583   2.088  1.3574 -1.6422 -1.3293
 1113TIP3   OH2 3302   5.341   1.641   5.006 -0.0637 -0.0191 -0.5655
 1113TIP3    H1 3303   5.277   1.712   5.009 -0.3755 -0.3238  0.1105
 1113TIP3    H2 3304   5.338   1.602   5.093  1.0495 -0.0395 -0.5225
 1114TIP3   OH2 3305   3.567   0.306   5.351  0.3919 -0.2758  0.4466
 1114TIP3    H1 3306   3.569   0.400   5.370 -2.8428  0.0067 -0.1440
 1114TIP3    H2 3307   3.627   0.268   5.415  1.7844  2.1384  0.7299
 1115TIP3   OH2 3308   6.481   5.010   5.014 -0.4195  0.0732  0.0113
 1115TIP3    H1 3309   6.567   5.052   5.009 -0.2475 -0.2985 -0.1867
 1115TIP3    H2 3310   6.423   5.068   4.965  0.1560 -0.7560 -1.7348
 1116TIP3   OH2 3311   4.810   5.568   4.719 -0.3620  0.0028 -0.2323
 1116TIP3    H1 3312   4.827   5.636   4.654  1.1093 -0.2271 -0.1132
 1116TIP3    H2 3313   4.864   5.593   4.794 -1.1219 -0.3863  0.4623
 1117TIP3   OH2 3314   4.070   1.520   1.097  0.0541  0.3342  0.3600
 1117TIP3    H1 3315   4.081   1.444   1.040  0.5447 -0.1133  1.0278
 1117TIP3    H2 3316   4.075   1.596   1.039 -0.2740 -0.1394 -0.2942
 1118TIP3   OH2 3317   4.012   5.773   0.844  0.0327  0.0930  0.7378
 1118TIP3    H1 3318   4.029   5.866   0.829  0.7565 -0.1872 -0.3755
 1118TIP3    H2 3319   3.984   5.768   0.935 -0.8573  1.5020  0.5850
 1119TIP3   OH2 3320   0.563   0.741   0.075 -0.1458  0.6901 -0.6369
 1119TIP3    H1 3321   0.597   0.743  -0.014 -1.6809  1.4027 -1.2360
 1119TIP3    H2 3322   0.641   0.729   0.130  0.6765 -1.2191 -2.1281
 1120TIP3   OH2 3323   2.890   0.979   1.902 -0.0662  0.1775  0.0012
 1120TIP3    H1 3324   2.907   0.973   1.996 -1.9921  0.2379  0.3774
 1120TIP3    H2 3325   2.947   0.913   1.863 -0.1885 -0.7475  1.3379
 1121TIP3   OH2 3326   0.338   4.175   3.093  0.2185 -0.0604  0.3733
 1121TIP3    H1 3327   0.325   4.222   3.011 -1.2565 -2.3896 -0.8479
 1121TIP3    H2 3328   0.279   4.217   3.155  0.6992  1.1738  0.0144
 1122TIP3   OH2 3329   0.351   1.572   0.273 -0.5417  0.0826 -0.2464
 1122TIP3    H1 3330   0.408   1.641   0.240 -1.2553  0.6361 -0.3680
 1122TIP3    H2 3331   0.389   1.491   0.239  1.3688  0.2041  1.4249
 1123TIP3   OH2 3332   0.956   3.236   1.232 -0.2575 -0.0004  0.4227
 1123TIP3    H1 3333   1.030   3.268   1.179 -0.1207 -1.4136 -0.2670
 1123TIP3    H2 3334   0.980   3.259   1.322 -0.3297  2.1192 -0.0434
 1124TIP3   OH2 3335   6.569   1.633   4.034  0.0911 -0.0714 -0.4461
 1124TIP3    H1 3336   6.600   1.697   3.970 -1.3377  1.7903  0.5907
 1124TIP3    H2 3337   6.491   1.595   3.995 -0.4477  0.6417 -0.1017
 1125TIP3   OH2 3338   6.990   5.267   4.830  0.4862 -0.1757  0.4670
 1125TIP3    H1 3339   6.901   5.232   4.826  0.2722  0.2734  1.0671
 1125TIP3    H2 3340   6.980   5.361   4.821  0.8362 -0.0624  1.1571
 1126TIP3   OH2 3341   6.404   2.723   2.596 -0.1585  0.3434 -0.4410
 1126TIP3    H1 3342   6.423   2.790   2.663 -2.0192 -1.7520  2.4498
 1126TIP3    H2 3343   6.310   2.734   2.578 -0.2882 -0.9108 -0.5716
 1127TIP3   OH2 3344   1.450   3.584   3.318  0.4403  0.1294  0.2964
 1127TIP3    H1 3345   1.545   3.592   3.333  0.3839  0.9372  0.3077
 1127TIP3    H2 3346   1.442   3.541   3.234  0.7944 -2.0033  1.2957
 1128TIP3   OH2 3347   5.023   1.180   4.093 -0.3397 -0.4032 -0.3906
 1128TIP3    H1 3348   4.962   1.164   4.021 -0.5416 -1.3742 -0.0105
 1128TIP3    H2 3349   5.070   1.259   4.066 -0.6236 -0.5712 -1.4455
 1129TIP3   OH2 3350   6.452   5.568   3.771  0.0507 -0.7654  0.2716
 1129TIP3    H1 3351   6.437   5.519   3.690 -0.2348 -1.2474  0.6097
 1129TIP3    H2 3352   6.526   5.524   3.812  1.5655  0.7344 -0.7000
 1130TIP3   OH2 3353   3.205   2.092   5.119  0.5561  0.2312  0.1324
 1130TIP3    H1 3354   3.249   2.007   5.118  1.8980  0.8965 -0.6985
 1130TIP3    H2 3355   3.229   2.133   5.036  2.2808  2.5279  1.6219
 1131TIP3   OH2 3356   1.906   5.050   1.533 -0.0321 -0.2457  0.2366
 1131TIP3    H1 3357   1.947   5.087   1.611  1.0308 -0.3102 -0.2831
 1131TIP3    H2 3358   1.837   4.993   1.568  0.3919 -0.2406  1.1266
 1132TIP3   OH2 3359   1.045   2.676   2.212 -0.5563  0.4849 -0.2138
 1132TIP3    H1 3360   1.098   2.750   2.181 -0.1006  0.0212 -0.5538
 1132TIP3    H2 3361   0.959   2.714   2.229 -0.2288  1.1667 -0.0393
 1133TIP3   OH2 3362   4.702   2.405   3.930  0.1200  0.0157 -0.1083
 1133TIP3    H1 3363   4.698   2.486   3.982 -0.7213 -0.3271  0.3913
 1133TIP3    H2 3364   4.621   2.407   3.879  0.3850 -0.2270 -0.5376
 1134TIP3   OH2 3365   6.140   6.468   3.226 -0.0669  0.8412  0.6510
 1134TIP3    H1 3366   6.054   6.454   3.184  0.3938 -1.0622  0.2437
 1134TIP3    H2 3367   6.168   6.380   3.252  1.6433  1.4731  1.0357
 1135TIP3   OH2 3368   4.610   0.025   4.421  0.3323 -0.0367 -0.5172
 1135TIP3    H1 3369   4.534   0.081   4.404  0.6662  0.6974  0.3399
 1135TIP3    H2 3370   4.593  -0.013   4.507  0.0640 -1.3612 -1.1221
 1136TIP3   OH2 3371   5.276   0.580   2.567  0.0983  0.3993 -0.6876
 1136TIP3    H1 3372   5.257   0.527   2.490  0.7568  0.1439 -0.6755
 1136TIP3    H2 3373   5.192   0.585   2.613  0.4885 -2.8765  0.6920
 1137TIP3   OH2 3374   6.864   1.513   4.293 -0.5952 -0.3680 -0.1217
 1137TIP3    H1 3375   6.782   1.553   4.323 -1.4049  0.0443 -2.6538
 1137TIP3    H2 3376   6.847   1.419   4.293 -0.3665 -0.4377  1.1347
 1138TIP3   OH2 3377   2.587   6.580   4.166 -0.0372 -0.5566  0.1115
 1138TIP3    H1 3378   2.656   6.586   4.232 -0.5677 -0.2719  0.6464
 1138TIP3    H2 3379   2.602   6.655   4.109  0.5323 -0.9039 -0.2133
 1139TIP3   OH2 3380   6.063   3.356   1.069  0.1299  0.6612 -0.5372
 1139TIP3    H1 3381   6.147   3.356   1.024  0.3872 -2.1227 -0.2314
 1139TIP3    H2 3382   6.000   3.330   1.003 -0.3567  1.6452 -0.4877
 1140TIP3   OH2 3383   6.949   0.446   0.067  0.2151 -1.3092  0.0919
 1140TIP3    H1 3384   7.022   0.389   0.089  0.4227 -1.5713 -1.2098
 1140TIP3    H2 3385   6.910   0.469   0.151  2.4203 -0.2995  0.9126
 1141TIP3   OH2 3386   4.467   4.376   1.092  0.1260 -0.1719 -0.2835
 1141TIP3    H1 3387   4.439   4.365   1.001  1.6131 -1.1143 -0.6705
 1141TIP3    H2 3388   4.532   4.307   1.105 -0.0616 -0.0506  1.5078
 1142TIP3   OH2 3389   1.986   4.449   5.445 -0.3218  0.1425 -0.0640
 1142TIP3    H1 3390   1.897   4.413   5.442  0.2778 -1.4088 -0.5696
 1142TIP3    H2 3391   1.998   4.475   5.536 -0.6583 -1.4175  0.4658
 1143TIP3   OH2 3392   2.828   2.094   0.966  0.1423  0.0336  0.1893
 1143TIP3    H1 3393   2.901   2.033   0.977 -1.4957 -1.8166  1.7755
 1143TIP3    H2 3394   2.785   2.095   1.052 -0.9303  2.1252 -0.2993
 1144TIP3   OH2 3395   0.016   5.127   5.659 -0.0787 -0.4114 -0.6109
 1144TIP3    H1 3396   0.048   5.213   5.632  0.5478 -0.5964 -0.4775
 1144TIP3    H2 3397   0.083   5.094   5.719 -0.9836 -0.4164  0.4167
 1145TIP3   OH2 3398   2.512   4.268   3.367  0.0466  0.4577  0.0005
 1145TIP3    H1 3399   2.453   4.205   3.409  1.6225 -1.2270 -0.2279
 1145TIP3    H2 3400   2.489   4.352   3.408  0.2816 -0.7955  2.9857
 1146TIP3   OH2 3401   6.701   2.322   4.130 -0.2218  0.3326 -0.1188
 1146TIP3    H1 3402   6.658   2.401   4.162  0.3904  0.9156 -0.7024
 1146TIP3    H2 3403   6.790   2.350   4.107 -0.7448  0.0819 -2.7348
 1147TIP3   OH2 3404   4.643   1.447   3.476  0.5372 -0.0427  0.3390
 1147TIP3    H1 3405   4.682   1.364   3.447 -0.0138 -0.0965 -0.2845
 1147TIP3    H2 3406   4.672   1.511   3.411 -1.1747 -0.2772 -0.7316
 1148TIP3   OH2 3407   2.236   5.945   3.007 -0.1142  0.0534  0.2247
 1148TIP3    H1 3408   2.166   5.965   3.068  0.3715 -1.1593  1.2161
 1148TIP3    H2 3409   2.192   5.907   2.931 -0.6340  0.6401  0.2236
 1149TIP3   OH2 3410   2.838   2.167   1.719 -0.2456 -0.5587 -0.2644
 1149TIP3    H1 3411   2.849   2.262   1.724 -2.1302 -0.3170 -0.0153
 1149TIP3    H2 3412   2.875   2.144   1.634  0.6912  0.3121 -0.1175
 1150TIP3   OH2 3413   6.581   3.845   0.627 -0.3225  0.4279  0.6980
 1150TIP3    H1 3414   6.509   3.908   0.616  1.3371  1.9553 -3.8866
 1150TIP3    H2 3415   6.540   3.759   0.619 -2.0899  0.9453  2.9415
 1151TIP3   OH2 3416   4.821   5.497   2.391  0.1252 -0.0275  0.0205
 1151TIP3    H1 3417   4.872   5.532   2.465  1.9769 -4.1741  1.0121
 1151TIP3    H2 3418   4.740   5.466   2.431 -0.3648  0.7145 -0.3722
 1152TIP3   OH2 3419   3.411   1.685   3.744  0.1701 -0.1433 -0.1941
 1152TIP3    H1 3420   3.483   1.686   3.807 -0.3753 -4.3929  0.8567
 1152TIP3    H2 3421   3.343   1.633   3.788 -1.8853  0.1640 -2.7686
 1153TIP3   OH2 3422   0.973   1.522   1.839 -0.1577 -1.1876  0.2997
 1153TIP3    H1 3423   0.958   1.610   1.805  1.8518 -0.3336  1.4422
 1153TIP3    H2 3424   1.021   1.477   1.769  3.2593  0.3090  1.4562
 1154TIP3   OH2 3425   6.009   1.882   4.960 -0.1595  0.1451  0.6590
 1154TIP3    H1 3426   6.039   1.936   4.887 -0.2130  0.3981  0.8221
 1154TIP3    H2 3427   6.081   1.822   4.977 -0.6295 -0.7688 -0.4222
 1155TIP3   OH2 3428   5.429   5.347   5.450  0.3427  0.8882 -0.7172
 1155TIP3    H1 3429   5.447   5.431   5.407  0.0059  0.5802 -1.4697
 1155TIP3    H2 3430   5.456   5.361   5.541 -0.8849  2.2326 -0.5143
 1156TIP3   OH2 3431   4.544   2.466   4.928 -0.0489  0.2654  0.2246
 1156TIP3    H1 3432   4.604   2.429   4.993  0.1944 -0.2119 -0.2588
 1156TIP3    H2 3433   4.563   2.560   4.928  1.3238  0.0164 -0.5311
 1157TIP3   OH2 3434   3.642   4.678   5.673 -0.2843  0.0593 -0.1111
 1157TIP3    H1 3435   3.691   4.599   5.653 -0.0107  0.2104 -0.0403
 1157TIP3    H2 3436   3.601   4.703   5.590  0.3525  0.3414 -0.3487
 1158TIP3   OH2 3437   6.516   1.564   1.299  0.1731  0.1550  0.1735
 1158TIP3    H1 3438   6.455   1.617   1.248  0.4666 -0.2042 -0.5672
 1158TIP3    H2 3439   6.523   1.482   1.250  0.2417 -0.3075  0.9482
 1159TIP3   OH2 3440   5.538   1.562   4.360  0.1365  0.3258 -0.3817
 1159TIP3    H1 3441   5.617   1.549   4.413  1.6940  1.4436 -2.2843
 1159TIP3    H2 3442   5.508   1.650   4.383 -1.7202 -0.7302  1.6535
 1160TIP3   OH2 3443   4.670   4.336   4.685  0.4013 -0.1582  0.2597
 1160TIP3    H1 3444   4.641   4.290   4.607  0.0125 -1.3900  1.1004
 1160TIP3    H2 3445   4.766   4.335   4.680  0.3860  0.8164 -0.7603
 1161TIP3   OH2 3446   2.347   4.813   0.719 -0.4701 -0.0943  0.0106
 1161TIP3    H1 3447   2.431   4.787   0.757 -0.1296  0.8509 -0.0841
 1161TIP3    H2 3448   2.282   4.782   0.782 -0.0043 -0.0701  0.5080
 1162TIP3   OH2 3449   4.371   4.521   2.384  0.1598  0.3757  0.9566
 1162TIP3    H1 3450   4.393   4.442   2.432 -0.3120 -1.0594 -1.0337
 1162TIP3    H2 3451   4.429   4.588   2.419  1.8473 -1.2906  1.4912
 1163TIP3   OH2 3452   1.745   2.568   4.690  0.1353 -0.3602 -0.1689
 1163TIP3    H1 3453   1.828   2.579   4.642 -0.0066 -1.0279 -0.5716
 1163TIP3    H2 3454   1.681   2.618   4.638  0.5492  1.4282  0.9398
 1164TIP3   OH2 3455   2.188   3.838   3.769  0.2525  0.5840 -0.1294
 1164TIP3    H1 3456   2.251   3.910   3.764  0.1501  0.7193  0.4923
 1164TIP3    H2 3457   2.213   3.789   3.847  0.5022 -0.2333 -0.7078
 1165TIP3   OH2 3458   6.025   2.668   5.148  0.0204 -0.0957 -0.4487
 1165TIP3    H1 3459   5.945   2.642   5.194  0.1397 -0.1603 -0.2761
 1165TIP3    H2 3460   6.031   2.763   5.162  0.8940 -0.3331  1.0280
 1166TIP3   OH2 3461   4.273   6.005   0.819  0.3963 -0.4383  0.3665
 1166TIP3    H1 3462   4.237   6.040   0.901  1.8302 -1.6791  1.5939
 1166TIP3    H2 3463   4.361   6.044   0.814 -0.2931  1.0167 -1.5534
 1167TIP3   OH2 3464   7.177   1.444   1.845  0.0498  0.0420  0.0131
 1167TIP3    H1 3465   7.259   1.469   1.801  1.2169 -0.9521  1.5282
 1167TIP3    H2 3466   7.125   1.402   1.777  1.4282 -0.6546 -0.6524
 1168TIP3   OH2 3467   6.195   5.843   1.133 -0.2491  0.0327  0.2042
 1168TIP3    H1 3468   6.221   5.755   1.163  0.0297  0.7378  2.2143
 1168TIP3    H2 3469   6.170   5.831   1.042  3.2598 -1.4773 -0.7141
 1169TIP3   OH2 3470   2.906   3.127   4.374 -0.5983  0.4366  1.3254
 1169TIP3    H1 3471   2.978   3.188   4.361 -0.4536  0.0120 -0.0348
 1169TIP3    H2 3472   2.921   3.091   4.461  1.0625  0.0995  0.9447
 1170TIP3   OH2 3473   4.177   4.808   2.989  0.5762  0.2617 -0.6297
 1170TIP3    H1 3474   4.117   4.867   2.944 -0.1355 -0.3150 -0.4637
 1170TIP3    H2 3475   4.261   4.852   2.986 -0.4603  2.7364  2.1087
 1171TIP3   OH2 3476   2.896   6.236   4.952 -0.3981 -0.7555  0.6060
 1171TIP3    H1 3477   2.852   6.270   5.030 -1.7492  0.4913 -0.6411
 1171TIP3    H2 3478   2.926   6.314   4.905 -2.0933 -1.2785 -1.4923
 1172TIP3   OH2 3479   3.871   3.467   0.250 -0.4312  0.1316  0.1113
 1172TIP3    H1 3480   3.947   3.447   0.195 -0.0427 -2.8825  1.5589
 1172TIP3    H2 3481   3.801   3.411   0.216 -1.1202  0.6253  0.6856
 1173TIP3   OH2 3482   6.748   4.102   3.233  0.3424 -0.0648 -0.3090
 1173TIP3    H1 3483   6.742   4.157   3.154 -0.9922 -1.4456 -1.2236
 1173TIP3    H2 3484   6.658   4.093   3.262  0.6773 -0.8065  0.5132
 1174TIP3   OH2 3485   5.894   2.674   2.021  0.2503 -0.3396 -0.3197
 1174TIP3    H1 3486   5.833   2.611   1.983 -0.2258 -0.2142  0.2103
 1174TIP3    H2 3487   5.925   2.631   2.101  1.7330 -0.8718 -1.1581
 1175TIP3   OH2 3488   3.387   4.268   0.513 -0.3322 -0.1391 -0.6050
 1175TIP3    H1 3489   3.416   4.252   0.423 -0.0610 -0.4141 -0.4738
 1175TIP3    H2 3490   3.463   4.245   0.567 -0.8978 -1.2183 -0.2279
 1176TIP3   OH2 3491   6.218   2.017   4.005 -0.6206 -0.0371  0.0096
 1176TIP3    H1 3492   6.222   2.039   3.911 -0.2547 -0.7470 -0.1456
 1176TIP3    H2 3493   6.170   2.090   4.044 -0.0345  0.7002 -0.5973
 1177TIP3   OH2 3494   0.729   0.473   1.958  0.2358  0.0033  0.0424
 1177TIP3    H1 3495   0.691   0.531   1.892  1.3684  0.3075 -0.3843
 1177TIP3    H2 3496   0.713   0.517   2.041 -1.5068 -0.5506  0.0358
 1178TIP3   OH2 3497   6.350   2.186   3.235 -0.0162  0.4296  0.5369
 1178TIP3    H1 3498   6.354   2.280   3.249 -0.7920  0.8203 -1.5974
 1178TIP3    H2 3499   6.440   2.161   3.212  0.3759  0.4604  1.9366
 1179TIP3   OH2 3500   6.092   2.726   0.055  0.0937 -0.0592  0.0750
 1179TIP3    H1 3501   6.162   2.704  -0.006 -0.5097 -0.3844 -0.5177
 1179TIP3    H2 3502   6.109   2.672   0.132 -0.5248 -1.5609 -0.7834
 1180TIP3   OH2 3503   2.821   3.719   5.367  0.4438 -0.2358  0.4079
 1180TIP3    H1 3504   2.913   3.714   5.392  0.0442  1.5754  2.6078
 1180TIP3    H2 3505   2.816   3.673   5.284  4.0362  2.5824 -1.6730
 1181TIP3   OH2 3506   2.155   2.642   3.674 -0.4581  0.5508 -0.4599
 1181TIP3    H1 3507   2.206   2.595   3.608 -0.4443  1.7962 -1.3915
 1181TIP3    H2 3508   2.208   2.637   3.754 -0.7416 -1.4571 -0.3587
 1182TIP3   OH2 3509   5.247   2.626   2.767  0.0286 -0.3129 -0.3977
 1182TIP3    H1 3510   5.276   2.684   2.837  0.5496  0.1484 -0.9814
 1182TIP3    H2 3511   5.156   2.606   2.788 -0.5472  1.6781 -0.7762
 1183TIP3   OH2 3512   6.215   4.133   3.725 -0.1141  0.3515 -0.4017
 1183TIP3    H1 3513   6.279   4.204   3.731 -0.2469  0.3882  1.0098
 1183TIP3    H2 3514   6.254   4.071   3.664  1.9027 -0.2294  1.3584
 1184TIP3   OH2 3515   0.650   4.797   5.349  0.9138 -0.7530  0.0306
 1184TIP3    H1 3516   0.688   4.878   5.381  0.5219  0.4158 -2.2493
 1184TIP3    H2 3517   0.603   4.761   5.424  1.3316  0.9707  1.1692
 1185TIP3   OH2 3518   4.112   4.712   2.368  0.2963  0.6431 -0.3223
 1185TIP3    H1 3519   4.128   4.775   2.438 -0.2819 -1.4506  1.8544
 1185TIP3    H2 3520   4.191   4.657   2.367 -0.1553 -0.0169 -0.5048
 1186TIP3   OH2 3521   4.718   0.977   4.491 -0.1652 -0.1534 -0.2575
 1186TIP3    H1 3522   4.684   0.891   4.467  0.0745 -0.3589  0.1469
 1186TIP3    H2 3523   4.801   0.959   4.535  1.1346  0.3793 -2.3126
 1187TIP3   OH2 3524   0.804   5.763   3.320 -0.0554 -0.7352 -0.3429
 1187TIP3    H1 3525   0.801   5.715   3.237  0.7165 -1.0331 -0.2101
 1187TIP3    H2 3526   0.885   5.814   3.316 -0.8919  0.6044 -0.4931
 1188TIP3   OH2 3527   2.919   0.281   0.197  0.3551 -0.2683 -0.2995
 1188TIP3    H1 3528   2.960   0.336   0.264  1.1677  0.9183 -1.7144
 1188TIP3    H2 3529   2.829   0.314   0.191  0.4241 -0.0495 -0.1405
 1189TIP3   OH2 3530   1.804   4.037   0.635  0.2429 -1.1474 -0.3318
 1189TIP3    H1 3531   1.799   3.981   0.712  1.6640  1.6224  1.9912
 1189TIP3    H2 3532   1.717   4.076   0.627  0.3076 -0.8340  0.4154
 1190TIP3   OH2 3533   1.794   4.615   0.653  0.3689  0.3982  0.1197
 1190TIP3    H1 3534   1.839   4.545   0.606  2.5661  1.3300  0.7359
 1190TIP3    H2 3535   1.756   4.572   0.729  0.0669 -0.4242 -0.4746
 1191TIP3   OH2 3536   6.037   6.285   0.250  0.0302 -0.6289  0.0465
 1191TIP3    H1 3537   5.956   6.315   0.291 -0.1348 -1.2361  0.1703
 1191TIP3    H2 3538   6.106   6.312   0.310 -0.2037 -1.4580  0.7062
 1192TIP3   OH2 3539   2.579   6.077   5.328 -0.2048 -0.0105 -0.5216
 1192TIP3    H1 3540   2.495   6.068   5.373  1.9520 -3.3314  3.4770
 1192TIP3    H2 3541   2.573   6.016   5.254 -0.7701 -1.7510  0.8796
 1193TIP3   OH2 3542   1.301   0.605   4.784 -0.0648  0.0055 -0.3520
 1193TIP3    H1 3543   1.291   0.572   4.873  2.8442  0.5893  0.3000
 1193TIP3    H2 3544   1.234   0.673   4.776 -2.5947 -2.2506  0.1261
 1194TIP3   OH2 3545   0.175   0.832   0.097 -0.2393 -0.8095  0.3444
 1194TIP3    H1 3546   0.269   0.834   0.117 -0.9717 -1.9730  5.1109
 1194TIP3    H2 3547   0.154   0.738   0.093 -1.6387 -0.7130  3.0337
 1195TIP3   OH2 3548   4.978   0.598   3.497 -0.1429  0.2487  0.2819
 1195TIP3    H1 3549   4.976   0.641   3.582 -2.3660  0.0176  0.4142
 1195TIP3    H2 3550   4.905   0.536   3.500  0.6423 -0.8316 -1.2720
 1196TIP3   OH2 3551   2.353   1.930   3.776  0.0094  0.1121 -0.5144
 1196TIP3    H1 3552   2.381   2.009   3.823  0.8277  0.6440 -1.8416
 1196TIP3    H2 3553   2.412   1.862   3.807  0.0054  0.2638 -0.1634
 1197TIP3   OH2 3554   3.598   5.861   0.838  0.0178  0.1796  0.3012
 1197TIP3    H1 3555   3.529   5.914   0.878  0.8892  1.3446  0.3278
 1197TIP3    H2 3556   3.679   5.911   0.854  0.7396 -0.6589 -0.5725
 1198TIP3   OH2 3557   3.455   2.962   4.851 -0.0816  0.6288  0.7211
 1198TIP3    H1 3558   3.469   3.010   4.770  1.2852 -0.9034 -0.0115
 1198TIP3    H2 3559   3.520   2.999   4.912  1.7878 -0.9918 -0.1987
 1199TIP3   OH2 3560   4.807   4.962   0.448  0.4517  0.1922  0.6183
 1199TIP3    H1 3561   4.783   5.048   0.415  0.3476  0.3105  0.9984
 1199TIP3    H2 3562   4.855   4.979   0.529  1.1030 -0.0782  0.2952
 1200TIP3   OH2 3563   1.493   4.588   3.851 -0.2874  0.5331 -0.5825
 1200TIP3    H1 3564   1.501   4.521   3.920 -0.8036  0.4029 -0.6434
 1200TIP3    H2 3565   1.484   4.670   3.898  1.5543  0.7288 -0.5053
 1201TIP3   OH2 3566   4.056   5.806   5.252  0.9323 -0.7290 -0.1409
 1201TIP3    H1 3567   4.021   5.850   5.329 -2.6743  0.1417 -2.0475
 1201TIP3    H2 3568   4.130   5.861   5.225 -1.2799  2.3911 -0.4346
 1202TIP3   OH2 3569   6.887   5.729   3.429  0.0736  0.1822 -0.2986
 1202TIP3    H1 3570   6.916   5.711   3.339 -2.3333 -0.4896 -1.0236
 1202TIP3    H2 3571   6.878   5.824   3.432 -1.5855  0.0961 -1.4159
 1203TIP3   OH2 3572   3.633   3.194   0.767  0.1835  0.2411 -0.0134
 1203TIP3    H1 3573   3.559   3.134   0.776  0.2622  0.3155  1.4185
 1203TIP3    H2 3574   3.710   3.138   0.777  0.3508  0.1744 -1.4298
 1204TIP3   OH2 3575   4.859   1.475   5.004 -0.4838 -0.0864  0.2558
 1204TIP3    H1 3576   4.931   1.447   4.948 -0.3216 -0.3250  0.5785
 1204TIP3    H2 3577   4.824   1.554   4.962  2.1910  2.1480  1.8791
 1205TIP3   OH2 3578   6.992   5.198   5.191  0.0460  0.0251  0.1309
 1205TIP3    H1 3579   6.980   5.248   5.111 -0.3622  1.0966  0.8308
 1205TIP3    H2 3580   7.075   5.229   5.227 -0.5249  0.7217  0.9042
 1206TIP3   OH2 3581   5.595   4.561   0.833 -0.0454  0.1790 -0.1333
 1206TIP3    H1 3582   5.547   4.508   0.770  1.1400 -0.1447 -0.7821
 1206TIP3    H2 3583   5.618   4.500   0.903 -1.4575  0.5619  0.7018
 1207TIP3   OH2 3584   2.217   0.774   5.172 -0.3969  0.2151  0.0803
 1207TIP3    H1 3585   2.254   0.862   5.160  0.3973 -0.3017 -1.5892
 1207TIP3    H2 3586   2.142   0.771   5.113  0.7152 -0.8134 -1.3691
 1208TIP3   OH2 3587   4.021   5.831   1.114 -0.4544 -0.3140 -0.0381
 1208TIP3    H1 3588   3.990   5.747   1.146  1.2929 -1.5084 -1.3203
 1208TIP3    H2 3589   4.107   5.842   1.154  0.4726 -0.4328 -1.8974
 1209TIP3   OH2 3590   6.306   1.855   4.274 -0.3627 -0.3752  0.5109
 1209TIP3    H1 3591   6.369   1.861   4.345 -1.0433 -0.2356  1.1215
 1209TIP3    H2 3592   6.307   1.941   4.233 -0.0384 -0.4257  0.4126
 1210TIP3   OH2 3593   0.156   2.364   4.764  0.4928 -0.7198  0.7194
 1210TIP3    H1 3594   0.162   2.284   4.713 -1.2101  0.7905 -2.1183
 1210TIP3    H2 3595   0.246   2.397   4.768  0.9175 -1.7961  0.2958
 1211TIP3   OH2 3596   0.727   5.775   0.628 -0.1751  0.2086  0.1507
 1211TIP3    H1 3597   0.698   5.810   0.544 -0.1673  0.8043  0.3875
 1211TIP3    H2 3598   0.762   5.851   0.674 -0.8621  0.0304  0.9865
 1212TIP3   OH2 3599   0.926   3.365   0.797 -0.2146 -0.0768 -0.3776
 1212TIP3    H1 3600   0.999   3.308   0.772 -2.2566 -2.0128 -2.3576
 1212TIP3    H2 3601   0.860   3.306   0.832 -0.4884  1.7581  2.5545
 1213TIP3   OH2 3602   2.603   5.627   0.325  0.2651  0.0877  0.1336
 1213TIP3    H1 3603   2.685   5.583   0.349  0.4491  0.5216  0.3095
 1213TIP3    H2 3604   2.584   5.685   0.399 -0.4867 -0.4037  0.3286
 1214TIP3   OH2 3605   2.888   3.993   3.875 -0.0755 -0.7254  0.1274
 1214TIP3    H1 3606   2.843   4.077   3.863  1.5928  0.0441 -1.2218
 1214TIP3    H2 3607   2.928   3.976   3.790  0.6886 -2.2656  0.7661
 1215TIP3   OH2 3608   5.458   3.213   5.367  0.4613  0.1761  0.3130
 1215TIP3    H1 3609   5.441   3.179   5.455  1.2591  1.1528  0.8650
 1215TIP3    H2 3610   5.400   3.162   5.311  0.5285 -1.0405  1.2890
 1216TIP3   OH2 3611   6.482   4.945   4.251 -0.4173 -0.0040  0.4280
 1216TIP3    H1 3612   6.567   4.942   4.296  0.0247  0.7441 -0.3186
 1216TIP3    H2 3613   6.429   5.004   4.304 -0.1347  0.3132  0.3623
 1217TIP3   OH2 3614   2.729   6.294   4.638  0.6138  0.1766 -0.2539
 1217TIP3    H1 3615   2.645   6.261   4.670  0.1189  1.0874 -0.5716
 1217TIP3    H2 3616   2.792   6.227   4.662 -0.1856 -0.4566  0.1180
 1218TIP3   OH2 3617   1.285   0.633   2.905  0.0490 -0.1400  0.2220
 1218TIP3    H1 3618   1.368   0.646   2.860 -1.2094  0.2547 -2.1475
 1218TIP3    H2 3619   1.225   0.694   2.863 -1.7219 -1.1939  1.0990
 1219TIP3   OH2 3620   0.280   3.620   0.620 -0.3366  0.0654  0.0134
 1219TIP3    H1 3621   0.350   3.670   0.663  0.0587  0.9280 -1.5806
 1219TIP3    H2 3622   0.212   3.684   0.602  0.8424  0.5398 -3.5406
 1220TIP3   OH2 3623   0.064   6.509   1.883  0.5182 -0.0191 -0.1828
 1220TIP3    H1 3624  -0.009   6.528   1.824  0.7871  0.0675 -0.4965
 1220TIP3    H2 3625   0.060   6.415   1.898 -0.1829  0.1124  0.5147
 1221TIP3   OH2 3626   6.616   3.814   5.510  0.1809 -0.1724 -0.2041
 1221TIP3    H1 3627   6.711   3.805   5.510  0.4911  2.3615 -1.0618
 1221TIP3    H2 3628   6.590   3.788   5.421  0.0999 -0.5257 -0.0790
 1222TIP3   OH2 3629   4.385   0.121   1.370  0.7299  0.0453  0.2910
 1222TIP3    H1 3630   4.355   0.199   1.324  0.4422 -0.2256  0.0048
 1222TIP3    H2 3631   4.313   0.097   1.427  0.6248 -0.2735  0.0336
 1223TIP3   OH2 3632   3.799   6.334   5.400 -0.4810 -0.3942  0.5278
 1223TIP3    H1 3633   3.875   6.385   5.428 -0.5844 -0.9927  1.9641
 1223TIP3    H2 3634   3.806   6.331   5.305  0.8016  0.3176  0.5800
 1224TIP3   OH2 3635   0.169   6.093   0.586  0.6538  0.0164 -0.5097
 1224TIP3    H1 3636   0.154   6.174   0.538  2.8608  0.7693 -0.0217
 1224TIP3    H2 3637   0.132   6.025   0.530 -0.7611  1.2825 -1.1759
 1225TIP3   OH2 3638   4.230   4.789   4.328  0.1424  0.2863 -0.3341
 1225TIP3    H1 3639   4.158   4.816   4.271 -0.9890 -2.5897 -0.4343
 1225TIP3    H2 3640   4.284   4.867   4.338 -0.4273  1.3366 -4.0770
 1226TIP3   OH2 3641   2.270   2.574   5.424  0.3236 -0.2002  0.6838
 1226TIP3    H1 3642   2.344   2.621   5.387  0.1586  0.1962  0.8404
 1226TIP3    H2 3643   2.269   2.600   5.516 -0.1536 -0.0052  0.6296
 1227TIP3   OH2 3644   2.394   1.775   4.094  0.2014  0.7508  0.1026
 1227TIP3    H1 3645   2.454   1.784   4.020  0.6098  0.2921  0.3757
 1227TIP3    H2 3646   2.371   1.865   4.117  1.3424  0.9691  0.4416
 1228TIP3   OH2 3647   0.116   1.263   4.554 -0.2831  1.0105  0.6394
 1228TIP3    H1 3648   0.088   1.229   4.469  1.5549  2.9198 -0.8446
 1228TIP3    H2 3649   0.055   1.334   4.573 -0.4616  0.8342  0.7253
 1229TIP3   OH2 3650   5.656   6.719   1.313  0.2982  0.2729 -0.1199
 1229TIP3    H1 3651   5.742   6.754   1.335 -0.3903  0.5685  2.4122
 1229TIP3    H2 3652   5.594   6.778   1.355 -1.1271 -0.5885 -0.9143
 1230TIP3   OH2 3653   3.876   1.386   0.766 -0.2085 -0.0723 -0.7310
 1230TIP3    H1 3654   3.953   1.345   0.806  0.7978  1.3533 -1.1065
 1230TIP3    H2 3655   3.830   1.428   0.839  0.7533  1.1731 -0.8126
 1231TIP3   OH2 3656   6.567   0.286   0.334 -0.1523 -0.6301  0.1806
 1231TIP3    H1 3657   6.562   0.283   0.430  1.5393 -1.5234  0.2832
 1231TIP3    H2 3658   6.538   0.375   0.312 -1.0338 -0.5687  1.4727
 1232TIP3   OH2 3659   5.917   1.468   2.547  0.5979  0.6939 -0.7039
 1232TIP3    H1 3660   5.840   1.508   2.587 -0.0508 -0.0765 -1.1496
 1232TIP3    H2 3661   5.901   1.475   2.452  0.8651  0.1154 -0.7926
 1233TIP3   OH2 3662   3.342   1.916   4.829  0.1220 -0.0969 -0.6808
 1233TIP3    H1 3663   3.397   1.949   4.901  0.0078 -1.1081 -0.1059
 1233TIP3    H2 3664   3.380   1.831   4.807 -1.0202 -0.6843 -0.4660
 1234TIP3   OH2 3665   1.377   4.785   3.277  0.3418  0.0450 -0.2295
 1234TIP3    H1 3666   1.366   4.756   3.187 -0.3753 -2.6333  0.6408
 1234TIP3    H2 3667   1.466   4.759   3.301 -1.2407 -4.8979  1.5263
 1235TIP3   OH2 3668   2.212   1.867   4.979  0.1765 -0.1545 -0.3501
 1235TIP3    H1 3669   2.215   1.960   5.000 -1.0442 -0.4727  1.4314
 1235TIP3    H2 3670   2.134   1.858   4.923  1.2329  0.1085 -1.9162
 1236TIP3   OH2 3671   6.477   5.410   2.979  0.3049 -0.2995 -0.1872
 1236TIP3    H1 3672   6.400   5.462   2.956 -0.2633 -0.0653  1.9554
 1236TIP3    H2 3673   6.544   5.475   3.002 -0.1561 -0.4418  1.7342
 1237TIP3   OH2 3674   3.139   0.934   1.517  0.4447 -0.1258 -0.0674
 1237TIP3    H1 3675   3.078   0.942   1.443  1.1655 -2.0941 -0.9537
 1237TIP3    H2 3676   3.223   0.912   1.477  1.2380  0.3498  1.2637
 1238TIP3   OH2 3677   4.869   5.739   4.240  0.0069  0.0440 -0.0198
 1238TIP3    H1 3678   4.915   5.804   4.186 -1.3843  2.0043  1.0263
 1238TIP3    H2 3679   4.926   5.663   4.239  0.9155  0.6365 -2.7253
 1239TIP3   OH2 3680   3.324   6.739   1.596  0.1923  0.5101  0.0732
 1239TIP3    H1 3681   3.349   6.824   1.631 -1.7429  1.0377  0.2662
 1239TIP3    H2 3682   3.313   6.754   1.502  0.2733  0.3624  0.0398
 1240TIP3   OH2 3683   6.136   5.095   2.316  0.1062  0.2353 -0.5031
 1240TIP3    H1 3684   6.093   5.176   2.341 -0.1169  0.2956 -1.0610
 1240TIP3    H2 3685   6.214   5.090   2.372  0.9734  1.6319 -1.5169
 1241TIP3   OH2 3686   5.613   4.682   4.211  0.0979 -0.0243 -0.4547
 1241TIP3    H1 3687   5.706   4.687   4.189  0.3768 -0.1703  0.6178
 1241TIP3    H2 3688   5.585   4.773   4.218  0.3101  0.0188 -0.1725
 1242TIP3   OH2 3689   5.113   0.390   3.352  0.0890 -0.0405  0.2169
 1242TIP3    H1 3690   5.061   0.459   3.393  0.2637  0.2676 -0.0691
 1242TIP3    H2 3691   5.050   0.322   3.330  0.1825 -0.8484  2.2576
 1243TIP3   OH2 3692   1.294   4.068   2.267 -0.3952  0.0079 -0.1067
 1243TIP3    H1 3693   1.269   4.157   2.291  0.0829 -0.4811  2.4205
 1243TIP3    H2 3694   1.386   4.076   2.241 -0.1982  0.1627  0.6358
 1244TIP3   OH2 3695   3.089   5.058   3.159 -0.1847  0.3392  0.0580
 1244TIP3    H1 3696   3.177   5.074   3.125 -0.1553  1.2795  0.5692
 1244TIP3    H2 3697   3.077   5.122   3.228 -1.5417  0.6939 -0.4647
 1245TIP3   OH2 3698   5.080   0.145   3.592  0.5600  0.1374 -0.2983
 1245TIP3    H1 3699   5.082   0.117   3.501  2.7626 -1.8841  0.2660
 1245TIP3    H2 3700   5.172   0.146   3.619 -0.0093  0.9447  1.8362
 1246TIP3   OH2 3701   4.856   2.666   1.562  0.4439 -0.1400  0.2604
 1246TIP3    H1 3702   4.866   2.636   1.652  2.8737  0.4737  0.2645
 1246TIP3    H2 3703   4.902   2.601   1.509  0.3959  0.3195 -0.3667
 1247TIP3   OH2 3704   6.483   4.365   3.244 -0.1927  0.3662  0.8162
 1247TIP3    H1 3705   6.430   4.323   3.311 -1.8822  1.2012  0.0478
 1247TIP3    H2 3706   6.560   4.398   3.290 -0.1919 -1.0743  1.9079
 1248TIP3   OH2 3707   6.168   1.461   3.696  0.2576 -0.3565  0.3418
 1248TIP3    H1 3708   6.175   1.395   3.627  1.8092  0.7030 -0.5917
 1248TIP3    H2 3709   6.125   1.415   3.768 -1.3986 -1.5174 -1.2748
 1249TIP3   OH2 3710   4.929   4.176   0.651 -0.0299 -0.2603  0.6759
 1249TIP3    H1 3711   4.862   4.108   0.654 -0.7152  0.3167 -0.6556
 1249TIP3    H2 3712   5.006   4.133   0.614 -1.2673  0.2033 -2.9008
 1250TIP3   OH2 3713   5.777   0.728   4.337  0.3535  0.3968  0.1900
 1250TIP3    H1 3714   5.845   0.726   4.403  0.3914  0.7475  0.1586
 1250TIP3    H2 3715   5.748   0.636   4.330  0.8343  0.2463  0.1842
 1251TIP3   OH2 3716   6.157   3.860   0.625  0.7531 -0.2550  0.2572
 1251TIP3    H1 3717   6.243   3.903   0.624  1.1650 -0.9969 -2.4198
 1251TIP3    H2 3718   6.097   3.930   0.651  2.0327  0.4914  1.3694
 1252TIP3   OH2 3719   4.660   4.241   2.338 -0.5904 -0.1943 -0.0150
 1252TIP3    H1 3720   4.656   4.323   2.386  1.0272 -0.1396  0.0715
 1252TIP3    H2 3721   4.568   4.219   2.320 -1.1032  0.9514  1.0814
 1253TIP3   OH2 3722   1.998   4.929   2.971  0.0555 -0.1842  0.1169
 1253TIP3    H1 3723   2.091   4.911   2.959 -0.3510 -2.5639  0.2261
 1253TIP3    H2 3724   1.953   4.859   2.924 -1.7245  1.1679 -0.3206
 1254TIP3   OH2 3725   2.384   2.619   0.843  0.3075 -0.0808 -0.0430
 1254TIP3    H1 3726   2.369   2.712   0.860  1.4782  0.3578 -1.2511
 1254TIP3    H2 3727   2.440   2.590   0.914 -0.4759 -0.0062  0.6193
 1255TIP3   OH2 3728   5.857   4.431   2.552 -0.2270 -0.0676  0.6998
 1255TIP3    H1 3729   5.879   4.476   2.471  0.4061 -2.0784 -0.3116
 1255TIP3    H2 3730   5.906   4.477   2.620  1.2595  0.1026 -0.4514
 1256TIP3   OH2 3731   0.932   1.410   0.709 -0.1173  0.3305  0.4777
 1256TIP3    H1 3732   0.944   1.416   0.614  1.2994  1.1710  0.6865
 1256TIP3    H2 3733   0.961   1.494   0.742 -0.7232  0.0938  1.6658
 1257TIP3   OH2 3734   7.115   0.026   2.192  0.7977 -0.3615 -0.5647
 1257TIP3    H1 3735   7.126  -0.068   2.203 -0.3775 -0.2321  2.6456
 1257TIP3    H2 3736   7.172   0.065   2.258 -1.3021  1.0027  0.5500
 1258TIP3   OH2 3737   6.493   5.251   3.932  0.2131  0.3148 -0.7585
 1258TIP3    H1 3738   6.486   5.333   3.980  2.1257  0.3429 -0.4612
 1258TIP3    H2 3739   6.542   5.273   3.853 -0.0719 -0.3531 -1.1287
 1259TIP3   OH2 3740   4.218   1.267   2.992 -0.1605  0.6344 -1.0002
 1259TIP3    H1 3741   4.161   1.268   2.915  0.2886  1.2439 -1.3362
 1259TIP3    H2 3742   4.200   1.350   3.037  0.3160  0.7512 -1.0116
 1260TIP3   OH2 3743   6.616   2.376   2.260  0.2117 -0.2160  0.3680
 1260TIP3    H1 3744   6.598   2.308   2.325 -2.0847 -0.7125 -0.6732
 1260TIP3    H2 3745   6.564   2.451   2.290 -0.0993 -0.1315 -0.3674
 1261TIP3   OH2 3746   3.147   1.348   1.939 -0.0928 -0.1239 -0.2366
 1261TIP3    H1 3747   3.110   1.328   2.025 -0.1421  2.2677  0.3463
 1261TIP3    H2 3748   3.236   1.376   1.957  0.5255 -1.3870 -1.1872
 1262TIP3   OH2 3749   6.977   4.729   1.851 -0.8095  0.2766  0.2852
 1262TIP3    H1 3750   6.918   4.667   1.810 -1.6528  0.3554  1.3323
 1262TIP3    H2 3751   7.048   4.741   1.788  0.3707 -3.1393  0.7741
 1263TIP3   OH2 3752   1.096   1.695   2.072  0.2046 -0.4005  0.1766
 1263TIP3    H1 3753   1.002   1.703   2.058  0.2822 -0.7605 -0.5930
 1263TIP3    H2 3754   1.123   1.782   2.102 -0.2091  0.0045 -0.5916
 1264TIP3   OH2 3755   2.608   4.230   1.190  0.2081  0.4074  0.3259
 1264TIP3    H1 3756   2.644   4.143   1.206 -0.0980  0.4579  1.3520
 1264TIP3    H2 3757   2.521   4.228   1.230  0.2101  1.1833  0.3862
 1265TIP3   OH2 3758   6.330   3.309   4.049  0.1404  0.0664  0.0193
 1265TIP3    H1 3759   6.422   3.324   4.029  0.1067 -0.5151 -0.5907
 1265TIP3    H2 3760   6.316   3.216   4.029  0.1713 -0.6808  2.9709
 1266TIP3   OH2 3761   2.010   5.148   1.773  0.0404  0.0414 -0.1247
 1266TIP3    H1 3762   2.005   5.154   1.869  0.0008 -0.4515 -0.0936
 1266TIP3    H2 3763   2.092   5.102   1.757 -0.1504 -0.2362 -0.3121
 1267TIP3   OH2 3764   6.290   2.840   4.478  0.4664 -0.4116 -0.4787
 1267TIP3    H1 3765   6.358   2.774   4.495  0.0899 -0.2710  1.9157
 1267TIP3    H2 3766   6.309   2.910   4.539 -0.8649  0.4057 -0.9683
 1268TIP3   OH2 3767   0.766   0.315   4.100 -0.3937  0.4451 -0.4488
 1268TIP3    H1 3768   0.691   0.256   4.102 -0.0642  0.0491  0.7192
 1268TIP3    H2 3769   0.732   0.395   4.058 -1.1977 -0.0746 -0.8164
 1269TIP3   OH2 3770   7.182   3.011   0.317 -0.5062 -0.3622 -0.3506
 1269TIP3    H1 3771   7.253   3.063   0.279 -2.1220  0.3758 -2.5127
 1269TIP3    H2 3772   7.150   3.064   0.390 -0.7468  0.7298 -1.2217
 1270TIP3   OH2 3773   6.964   0.791   0.761 -0.3960 -0.2458  0.1887
 1270TIP3    H1 3774   6.890   0.782   0.821 -0.1347 -0.4443  0.4890
 1270TIP3    H2 3775   6.988   0.701   0.739 -1.8542 -0.1657 -1.9437
 1271TIP3   OH2 3776   0.833   5.525   0.997 -0.4507  0.1016  0.0520
 1271TIP3    H1 3777   0.899   5.506   1.064  0.6017  0.7056 -0.7861
 1271TIP3    H2 3778   0.851   5.615   0.969 -2.5895  0.8339  0.8451
 1272TIP3   OH2 3779   6.805   1.280   2.910 -0.6890 -0.2826  0.2853
 1272TIP3    H1 3780   6.868   1.299   2.980 -0.1883  1.0291 -0.4800
 1272TIP3    H2 3781   6.735   1.343   2.924 -1.1065 -0.7309  0.2276
 1273TIP3   OH2 3782   6.465   1.694   1.059  0.2582  0.2108  0.5795
 1273TIP3    H1 3783   6.416   1.776   1.052  0.3593  0.1402 -1.8640
 1273TIP3    H2 3784   6.557   1.720   1.056  0.2937  0.0269 -1.0243
 1274TIP3   OH2 3785   3.599   4.002   0.501 -0.3663 -0.1353  0.5332
 1274TIP3    H1 3786   3.687   3.965   0.491  0.2875  1.3955  0.2656
 1274TIP3    H2 3787   3.610   4.070   0.568 -1.2009  0.5309  0.0027
 1275TIP3   OH2 3788   2.987   5.752   3.533 -0.7362 -0.0136 -0.0111
 1275TIP3    H1 3789   3.037   5.701   3.597 -1.5375  0.9936  1.4848
 1275TIP3    H2 3790   3.045   5.824   3.510 -0.2834 -0.6050 -0.7794
 1276TIP3   OH2 3791   4.124   5.293   0.615  0.0546 -0.4961 -0.0589
 1276TIP3    H1 3792   4.108   5.370   0.669  0.1432 -0.5902  0.1042
 1276TIP3    H2 3793   4.219   5.292   0.602 -0.0618  0.0761 -1.0460
 1277TIP3   OH2 3794   0.385   6.606   5.428 -0.2747  0.0001  0.3089
 1277TIP3    H1 3795   0.441   6.535   5.397 -0.3897  0.4547 -1.0080
 1277TIP3    H2 3796   0.410   6.618   5.520 -0.4886 -1.9405  0.6588
 1278TIP3   OH2 3797   5.766   3.640   1.093 -0.1506 -0.2318 -0.2841
 1278TIP3    H1 3798   5.734   3.724   1.060  1.8093  0.8989  0.5005
 1278TIP3    H2 3799   5.755   3.580   1.020 -0.7986  0.9140 -1.1676
 1279TIP3   OH2 3800   3.387   4.160   4.726 -0.1865  0.0664  0.3803
 1279TIP3    H1 3801   3.480   4.187   4.727  0.0077 -0.6085  1.3951
 1279TIP3    H2 3802   3.385   4.079   4.777 -1.4568  0.4652  0.9948
 1280TIP3   OH2 3803   0.108   3.841   0.856  0.4096 -0.4228 -0.1561
 1280TIP3    H1 3804   0.050   3.789   0.800 -1.3007  0.9350  0.2519
 1280TIP3    H2 3805   0.070   3.929   0.854  1.9730  0.3142  0.8604
 1281TIP3   OH2 3806   0.259   5.066   1.998 -0.1857 -0.3339  0.4852
 1281TIP3    H1 3807   0.343   5.038   1.962 -0.3459 -0.7689  0.4402
 1281TIP3    H2 3808   0.208   4.985   2.006 -1.0992  0.0795 -0.8075
 1282TIP3   OH2 3809   7.068   1.230   0.370  0.1425 -0.0396 -0.2288
 1282TIP3    H1 3810   7.016   1.172   0.426  0.4651 -0.1081  0.0018
 1282TIP3    H2 3811   7.036   1.212   0.281  1.2111 -1.6074 -0.3283
 1283TIP3   OH2 3812   5.340   0.953   3.821  0.0313  0.6998 -0.2985
 1283TIP3    H1 3813   5.321   0.868   3.861 -1.9429  0.4490 -1.6111
 1283TIP3    H2 3814   5.362   1.010   3.895 -3.6895  0.3171  1.3485
 1284TIP3   OH2 3815   0.159   3.076   0.596 -0.3398 -0.5446 -0.0850
 1284TIP3    H1 3816   0.209   3.157   0.609  0.2493 -0.5037 -2.2676
 1284TIP3    H2 3817   0.074   3.094   0.636  0.6547  0.1435  1.8655
 1285TIP3   OH2 3818   5.037   6.275   1.733  0.2476 -0.5212  0.7950
 1285TIP3    H1 3819   5.072   6.354   1.773 -0.9536  0.1873  0.4867
 1285TIP3    H2 3820   5.108   6.243   1.677  1.2472 -0.4697  1.9795
 1286TIP3   OH2 3821   2.148   2.490   3.036 -0.6824  0.3491 -0.4263
 1286TIP3    H1 3822   2.185   2.542   3.108  0.1226  1.7784 -1.8079
 1286TIP3    H2 3823   2.184   2.403   3.048 -0.3140  0.6472  0.7286
 1287TIP3   OH2 3824   6.648   2.100   1.166  0.4133 -0.1142  0.1292
 1287TIP3    H1 3825   6.576   2.076   1.108 -0.5194 -0.9531  1.5773
 1287TIP3    H2 3826   6.677   2.018   1.205  0.8348  0.4530  1.0574
 1288TIP3   OH2 3827   0.210   2.305   5.766 -0.6768  0.0999  0.0359
 1288TIP3    H1 3828   0.261   2.224   5.771 -0.6366 -0.1214 -2.6274
 1288TIP3    H2 3829   0.147   2.289   5.696 -1.4622  1.9614  0.2716
 1289TIP3   OH2 3830   2.535   2.394   3.180 -0.1760 -0.2108  0.4102
 1289TIP3    H1 3831   2.569   2.312   3.145  0.0852  0.5348 -1.1725
 1289TIP3    H2 3832   2.609   2.454   3.176 -0.2106 -0.0022  2.0506
 1290TIP3   OH2 3833   6.845   0.977   0.271  0.2043 -0.2682 -0.4160
 1290TIP3    H1 3834   6.897   0.997   0.193 -0.9459 -1.0498 -1.4200
 1290TIP3    H2 3835   6.910   0.964   0.340  1.2806 -0.1505 -1.3682
 1291TIP3   OH2 3836   5.306   1.246   4.625  0.0473  0.0492 -0.1355
 1291TIP3    H1 3837   5.391   1.207   4.606  0.0737 -0.5111  1.0195
 1291TIP3    H2 3838   5.326   1.329   4.669  0.0275 -0.7065  1.3480
 1292TIP3   OH2 3839   1.349   4.629   2.309 -0.0951  0.1166  0.4698
 1292TIP3    H1 3840   1.378   4.612   2.219 -0.1428  0.4683  0.3856
 1292TIP3    H2 3841   1.274   4.572   2.321 -0.5792  0.6419  0.0160
 1293TIP3   OH2 3842   3.543   0.195   5.115  0.3439 -0.2901  0.0649
 1293TIP3    H1 3843   3.543   0.272   5.057  1.8405 -0.7222 -0.5734
 1293TIP3    H2 3844   3.543   0.231   5.203  0.6928  0.4425 -0.2239
 1294TIP3   OH2 3845   3.672   2.811   2.299 -0.0058 -0.2403  0.4951
 1294TIP3    H1 3846   3.708   2.764   2.374 -0.0508 -1.4221 -0.2054
 1294TIP3    H2 3847   3.704   2.763   2.223 -0.5158  0.5414 -0.2257
 1295TIP3   OH2 3848   6.701   2.925   1.918  0.6503 -0.7856 -0.4249
 1295TIP3    H1 3849   6.735   2.872   1.846  0.6354 -1.1118 -0.1967
 1295TIP3    H2 3850   6.612   2.948   1.891  0.5657 -1.0942 -0.4136
 1296TIP3   OH2 3851   2.682   4.028   0.693  0.0759  0.1025 -0.8342
 1296TIP3    H1 3852   2.646   3.979   0.619  0.7686 -0.6936 -0.6600
 1296TIP3    H2 3853   2.776   4.026   0.679  0.3307 -1.3136  0.8149
 1297TIP3   OH2 3854   6.011   4.235   2.417 -0.0880  0.5307 -0.4697
 1297TIP3    H1 3855   6.078   4.183   2.462 -0.7819 -0.4718 -0.5617
 1297TIP3    H2 3856   5.962   4.277   2.488  1.5535  2.5315 -0.4211
 1298TIP3   OH2 3857   5.281   1.642   2.369 -0.8675 -0.1709  0.5654
 1298TIP3    H1 3858   5.208   1.661   2.310 -0.0043 -0.7105 -0.7199
 1298TIP3    H2 3859   5.268   1.550   2.394 -1.8181  0.3462  2.1147
 1299TIP3   OH2 3860   2.320   2.052   1.582  0.3438  0.3821  0.2489
 1299TIP3    H1 3861   2.235   2.019   1.612 -0.0162  0.7012 -0.3910
 1299TIP3    H2 3862   2.343   2.119   1.647  1.3160 -1.3926  1.8305
 1300TIP3   OH2 3863   1.142   2.853   0.817  0.6252 -0.1018 -0.7219
 1300TIP3    H1 3864   1.209   2.844   0.749  0.9762 -1.6113 -0.2098
 1300TIP3    H2 3865   1.064   2.812   0.779  0.0819  1.2618 -1.1458
 1301TIP3   OH2 3866   3.581   1.965   4.487 -0.1732  0.8372 -0.1122
 1301TIP3    H1 3867   3.598   1.926   4.402 -0.8900 -0.5178  0.3389
 1301TIP3    H2 3868   3.518   2.035   4.469  0.3609  1.1471 -0.8072
 1302TIP3   OH2 3869   3.342   4.865   5.798 -0.5229 -0.1783 -0.8723
 1302TIP3    H1 3870   3.254   4.831   5.784 -0.5552 -0.5976  0.2723
 1302TIP3    H2 3871   3.369   4.898   5.712 -3.0063  2.8917 -0.6445
 1303TIP3   OH2 3872   0.596   4.240   3.424  0.3329  0.0692 -0.2893
 1303TIP3    H1 3873   0.642   4.321   3.401  0.3912 -0.1003 -0.7728
 1303TIP3    H2 3874   0.648   4.202   3.495 -1.4332  2.0932  2.2778
 1304TIP3   OH2 3875   6.949   2.988   5.754 -0.7703  0.5660  0.0883
 1304TIP3    H1 3876   6.969   2.899   5.723  1.3731  1.1925 -0.5087
 1304TIP3    H2 3877   7.032   3.019   5.790 -1.6554  2.1176  0.8556
 1305TIP3   OH2 3878   1.199   4.657   4.583 -0.0051 -0.0203 -0.8136
 1305TIP3    H1 3879   1.149   4.738   4.573  0.5686  0.7964  1.9878
 1305TIP3    H2 3880   1.151   4.607   4.648  1.0307 -0.7688 -0.6039
 1306TIP3   OH2 3881   1.109   5.593   2.227  0.0888  0.2005 -0.2265
 1306TIP3    H1 3882   1.063   5.522   2.181  1.8098 -0.0492 -1.6666
 1306TIP3    H2 3883   1.160   5.637   2.158  1.5853  0.7797  1.1893
 1307TIP3   OH2 3884   6.063   2.674   3.560  0.0986 -0.0769  0.1359
 1307TIP3    H1 3885   6.053   2.656   3.467  1.3265 -0.1166  0.0005
 1307TIP3    H2 3886   5.997   2.741   3.579  0.9159  1.1325 -1.1225
 1308TIP3   OH2 3887   1.363   6.563   2.411  0.7557 -0.0977  0.5366
 1308TIP3    H1 3888   1.300   6.567   2.482 -0.5433  0.9046 -0.6361
 1308TIP3    H2 3889   1.406   6.477   2.422 -0.2743 -0.4766  1.7790
 1309TIP3   OH2 3890   5.392   6.588   3.066  0.1690 -0.1546 -0.4120
 1309TIP3    H1 3891   5.310   6.555   3.028  0.7442 -1.6684 -0.4190
 1309TIP3    H2 3892   5.365   6.657   3.125 -1.1228 -0.6083 -0.4449
 1310TIP3   OH2 3893   6.631   5.917   4.046 -0.3301 -0.7717 -0.1412
 1310TIP3    H1 3894   6.681   5.838   4.026  0.0274 -0.4757 -0.4101
 1310TIP3    H2 3895   6.554   5.911   3.989 -0.7114 -1.3181  0.4044
 1311TIP3   OH2 3896   3.077   2.281   5.218  0.4501 -0.5943  1.0077
 1311TIP3    H1 3897   3.136   2.213   5.185  2.4948  0.1493  2.8735
 1311TIP3    H2 3898   3.028   2.238   5.288 -1.8398 -1.3884 -0.9429
 1312TIP3   OH2 3899   0.945   4.208   3.206 -0.7662  0.1294  0.1197
 1312TIP3    H1 3900   0.896   4.129   3.183  0.4747 -0.9857  1.1336
 1312TIP3    H2 3901   1.024   4.204   3.151 -0.2445  0.1455  0.8587
 1313TIP3   OH2 3902   4.747   6.202   3.423  0.2609  0.1804  0.0866
 1313TIP3    H1 3903   4.795   6.203   3.505  1.5585 -0.9390 -0.6157
 1313TIP3    H2 3904   4.677   6.139   3.437  1.1600 -0.8742  0.0059
 1314TIP3   OH2 3905   0.442   4.067   1.957  0.0698  0.5929 -0.0271
 1314TIP3    H1 3906   0.485   4.126   1.896  1.1195  0.3200  0.4258
 1314TIP3    H2 3907   0.491   3.985   1.950  0.1369  0.5207  1.0950
 1315TIP3   OH2 3908   5.008   6.490   3.342  0.0770  0.4176  0.2554
 1315TIP3    H1 3909   5.025   6.460   3.431  0.7519 -0.6811 -0.2173
 1315TIP3    H2 3910   5.080   6.452   3.290 -1.4754 -0.7795 -1.1192
 1316TIP3   OH2 3911   0.267   4.153   3.805  0.2657 -0.3565  0.9479
 1316TIP3    H1 3912   0.359   4.179   3.812  0.7060 -2.1333  2.5105
 1316TIP3    H2 3913   0.235   4.198   3.726  3.0425 -1.3524 -0.8753
 1317TIP3   OH2 3914   0.599   5.567   5.313  0.2210  0.3356 -0.2949
 1317TIP3    H1 3915   0.529   5.568   5.378 -0.7145  0.3404 -1.2707
 1317TIP3    H2 3916   0.676   5.599   5.359 -0.4334  0.3684  0.7912
 1318TIP3   OH2 3917   6.075   4.436   0.034 -0.0452 -0.0103  0.1605
 1318TIP3    H1 3918   6.092   4.464   0.124 -0.5292  0.4748  0.1090
 1318TIP3    H2 3919   6.029   4.511  -0.006  1.3655  0.3324 -0.8931
 1319TIP3   OH2 3920   2.376   1.628   1.136 -0.4724 -0.0241  0.5745
 1319TIP3    H1 3921   2.294   1.581   1.122 -0.1090 -0.6818  0.5811
 1319TIP3    H2 3922   2.444   1.560   1.130  0.1152  0.5938 -0.0080
 1320TIP3   OH2 3923   0.534   0.374   4.898 -0.3751  0.0810  0.2229
 1320TIP3    H1 3924   0.447   0.383   4.937 -0.4736  0.4699 -0.0749
 1320TIP3    H2 3925   0.535   0.287   4.859 -0.4544 -0.1152  0.6516
 1321TIP3   OH2 3926   1.659   5.646   4.165  0.1089 -0.0212  0.0198
 1321TIP3    H1 3927   1.709   5.629   4.085  0.4509 -1.0450  0.4426
 1321TIP3    H2 3928   1.688   5.733   4.193  1.0989 -0.2823 -0.1549
 1322TIP3   OH2 3929   2.596   0.857   3.522  0.6470  0.0072  0.8972
 1322TIP3    H1 3930   2.563   0.787   3.579 -0.6579  0.2330  0.4447
 1322TIP3    H2 3931   2.649   0.811   3.456 -1.1262 -0.7327 -0.0802
 1323TIP3   OH2 3932   0.310   5.245   3.371 -0.1114  0.3829  0.1759
 1323TIP3    H1 3933   0.393   5.241   3.419  0.0714 -0.3953 -0.1892
 1323TIP3    H2 3934   0.310   5.331   3.330 -0.8462  1.5984  2.5538
 1324TIP3   OH2 3935   0.021   6.366   5.760  0.0634 -0.2868 -0.2911
 1324TIP3    H1 3936   0.074   6.300   5.715  0.3853  1.0305 -1.9381
 1324TIP3    H2 3937  -0.027   6.410   5.690 -0.4788  0.9283  0.8058
 1325TIP3   OH2 3938   6.953   3.559   5.711  0.1174  0.1005  0.6732
 1325TIP3    H1 3939   6.940   3.579   5.804 -0.1142  1.3460  0.3862
 1325TIP3    H2 3940   6.897   3.621   5.665  2.1846  1.3040 -0.3883
 1326TIP3   OH2 3941   1.890   2.053   3.900  0.1636  0.1962 -0.7431
 1326TIP3    H1 3942   1.924   1.983   3.844 -0.4247  1.1579 -2.3689
 1326TIP3    H2 3943   1.939   2.131   3.874 -0.6525  0.8191 -0.4553
 1327TIP3   OH2 3944   5.103   5.905   4.375  0.6979  0.5383 -0.3222
 1327TIP3    H1 3945   5.170   5.920   4.442  0.4064 -0.7554  0.2953
 1327TIP3    H2 3946   5.022   5.936   4.414  0.4219 -0.7720  0.2053
 1328TIP3   OH2 3947   1.867   6.437   2.111  0.0160 -0.1595  0.5491
 1328TIP3    H1 3948   1.780   6.403   2.092 -0.5427  0.3952  1.9889
 1328TIP3    H2 3949   1.865   6.456   2.204  1.8728 -0.6639  0.7325
 1329TIP3   OH2 3950   0.055   1.607   2.119 -0.2325 -0.0251 -0.7874
 1329TIP3    H1 3951  -0.023   1.604   2.063 -0.6558 -1.6492 -0.1584
 1329TIP3    H2 3952   0.091   1.519   2.115  0.1687  0.0277  0.8686
 1330TIP3   OH2 3953   5.110   0.443   0.211  0.0463 -0.1230 -0.3295
 1330TIP3    H1 3954   5.141   0.410   0.295 -1.8327 -0.6112  0.2374
 1330TIP3    H2 3955   5.109   0.538   0.221 -1.3100 -0.2128  0.6805
 1331TIP3   OH2 3956   0.799   3.150   3.050  0.2124 -0.0429  0.2043
 1331TIP3    H1 3957   0.855   3.208   2.998 -1.3328  1.4637  0.1257
 1331TIP3    H2 3958   0.762   3.088   2.987 -0.0787  0.5035 -0.1729
 1332TIP3   OH2 3959   4.741   2.418   3.526  0.3745 -0.2820  0.2757
 1332TIP3    H1 3960   4.819   2.388   3.571  1.3851  1.2304 -0.3833
 1332TIP3    H2 3961   4.726   2.506   3.559 -0.7660 -0.3617  0.0236
 1333TIP3   OH2 3962   4.928   6.766   3.560 -0.1538 -0.2514 -0.5207
 1333TIP3    H1 3963   4.933   6.749   3.654 -0.1961 -0.3175 -0.5302
 1333TIP3    H2 3964   4.857   6.710   3.529 -1.2883  1.0102 -0.3031
 1334TIP3   OH2 3965   6.005   0.627   3.993 -0.0402  0.2763  0.1544
 1334TIP3    H1 3966   6.079   0.571   4.019 -0.8233 -1.1151 -0.4920
 1334TIP3    H2 3967   5.928   0.578   4.020 -0.7747  0.6060 -1.2370
 1335TIP3   OH2 3968   4.400   1.128   2.682  0.4413  0.3220 -0.0177
 1335TIP3    H1 3969   4.394   1.063   2.751  0.2136  0.3959  0.0324
 1335TIP3    H2 3970   4.366   1.209   2.721 -0.8421  0.0800 -0.5717
 1336TIP3   OH2 3971   3.653   0.336   0.697 -0.1551  0.0022  0.2603
 1336TIP3    H1 3972   3.678   0.425   0.722 -3.2017  1.3754 -1.0258
 1336TIP3    H2 3973   3.629   0.343   0.605 -0.6006 -2.1453  0.1659
 1337TIP3   OH2 3974   2.361   0.226   0.444 -0.4695 -0.4692  0.5751
 1337TIP3    H1 3975   2.405   0.185   0.369 -0.5721 -1.0441  0.8292
 1337TIP3    H2 3976   2.342   0.154   0.503 -0.6177 -0.0466  1.0453
 1338TIP3   OH2 3977   3.786   4.350   1.691 -0.4161 -0.2509  0.4405
 1338TIP3    H1 3978   3.810   4.440   1.670  1.5461 -0.4021  1.7543
 1338TIP3    H2 3979   3.788   4.304   1.607 -1.0242  0.8149 -0.1788
 1339TIP3   OH2 3980   4.695   5.415   1.577  0.2629 -0.1844  0.0494
 1339TIP3    H1 3981   4.756   5.444   1.509 -1.1117  1.3871 -0.5735
 1339TIP3    H2 3982   4.609   5.417   1.536 -0.4624 -0.4386  1.4761
 1340TIP3   OH2 3983   4.566   5.792   1.413  0.1114  0.1306  0.6269
 1340TIP3    H1 3984   4.541   5.811   1.323 -1.9659 -0.1345  1.0826
 1340TIP3    H2 3985   4.648   5.839   1.426 -1.8285  4.1768 -0.0188
 1341TIP3   OH2 3986   7.180   3.698   0.624  0.1244  0.4695  0.4304
 1341TIP3    H1 3987   7.095   3.668   0.590  0.5751 -0.2538 -0.1028
 1341TIP3    H2 3988   7.195   3.782   0.581 -1.7666  2.2392  2.9295
 1342TIP3   OH2 3989   6.641   2.423   5.436  0.0761 -0.2394  0.5691
 1342TIP3    H1 3990   6.568   2.380   5.390  2.3020 -2.5074 -1.1431
 1342TIP3    H2 3991   6.646   2.510   5.397 -2.5852  0.6154  1.8485
 1343TIP3   OH2 3992   1.995   2.579   2.622 -0.1197 -0.1461 -0.6441
 1343TIP3    H1 3993   1.972   2.564   2.714 -0.1314  0.7722 -0.4928
 1343TIP3    H2 3994   1.919   2.550   2.573 -0.6611  0.6286 -0.2783
 1344TIP3   OH2 3995   7.083   4.319   1.008  0.3178  0.0785  0.3514
 1344TIP3    H1 3996   7.062   4.412   0.999  1.2978  0.6622  3.2560
 1344TIP3    H2 3997   7.088   4.304   1.102  1.8878 -2.5394 -0.0573
 1345TIP3   OH2 3998   6.885   5.346   2.482  0.4101 -0.6475  0.0419
 1345TIP3    H1 3999   6.877   5.407   2.409  0.0135 -1.4924 -0.6510
 1345TIP3    H2 4000   6.794   5.327   2.507  0.5441  0.1405  1.2141
 1346TIP3   OH2 4001   1.959   5.613   0.893 -0.3461  0.3895  0.0180
 1346TIP3    H1 4002   1.942   5.631   0.800  2.0525  0.2163 -0.5464
 1346TIP3    H2 4003   1.967   5.700   0.933 -0.6387  0.4790 -0.1186
 1347TIP3   OH2 4004   2.519   3.443   2.431 -0.1111 -0.0984 -0.2554
 1347TIP3    H1 4005   2.557   3.446   2.344  1.2516  0.8650  0.3290
 1347TIP3    H2 4006   2.465   3.522   2.437 -0.5922 -0.4178 -0.3972
 1348TIP3   OH2 4007   4.616   3.386   4.375 -0.2306 -0.5212  0.2578
 1348TIP3    H1 4008   4.674   3.317   4.343 -1.0203 -1.6735  1.2377
 1348TIP3    H2 4009   4.528   3.353   4.360 -0.6363  0.6034  0.0760
 1349TIP3   OH2 4010   5.790   0.369   1.251  0.0935  0.5878  0.2795
 1349TIP3    H1 4011   5.837   0.287   1.234 -0.2120  0.4031  0.2986
 1349TIP3    H2 4012   5.785   0.412   1.166 -1.6398 -0.4456 -0.2062
 1350TIP3   OH2 4013   1.738   0.701   0.069 -0.8593 -0.0915 -0.3667
 1350TIP3    H1 4014   1.707   0.657  -0.011 -0.8975 -0.1128 -0.3402
 1350TIP3    H2 4015   1.693   0.656   0.140 -1.1589  0.2099 -0.3599
 1351TIP3   OH2 4016   1.004   5.439   3.372  0.3679  0.4618 -0.0830
 1351TIP3    H1 4017   0.981   5.361   3.322 -0.7261  1.6084 -1.4652
 1351TIP3    H2 4018   0.941   5.442   3.443 -1.9721  1.8877 -2.0476
 1352TIP3   OH2 4019   6.178   6.107   4.646 -0.3677  0.6248 -0.2561
 1352TIP3    H1 4020   6.093   6.151   4.649 -0.6884  0.0016 -0.1031
 1352TIP3    H2 4021   6.241   6.179   4.645 -0.9198  1.1531 -2.1579
 1353TIP3   OH2 4022   4.377   2.177   0.122 -0.0067 -0.2451 -0.1376
 1353TIP3    H1 4023   4.385   2.154   0.029 -0.8353 -0.4715 -0.1558
 1353TIP3    H2 4024   4.448   2.129   0.164 -0.3091 -1.0224 -0.4999
 1354TIP3   OH2 4025   5.783   5.962   2.772 -0.0364  0.6494  0.5232
 1354TIP3    H1 4026   5.738   5.883   2.740  1.4634  0.4887 -1.4055
 1354TIP3    H2 4027   5.808   5.941   2.862  1.7555 -1.8012 -0.4247
 1355TIP3   OH2 4028   2.609   4.830   4.226  0.9090 -0.5123 -0.2400
 1355TIP3    H1 4029   2.552   4.768   4.271  3.1037 -3.5078 -1.2355
 1355TIP3    H2 4030   2.552   4.904   4.204 -1.8283 -2.0143  1.2451
 1356TIP3   OH2 4031   1.974   4.093   5.335 -0.7044 -0.0726  0.6737
 1356TIP3    H1 4032   1.943   4.166   5.389  0.7295  1.7624 -0.8201
 1356TIP3    H2 4033   2.058   4.069   5.374 -0.9970 -0.6837  0.9340
 1357TIP3   OH2 4034   5.005   4.773   5.286  0.4557 -0.0311  0.4762
 1357TIP3    H1 4035   4.962   4.692   5.260  0.0501  0.5800 -0.8153
 1357TIP3    H2 4036   5.019   4.821   5.205  0.3183  1.3875  1.2524
 1358TIP3   OH2 4037   2.104   0.491   3.821  0.4080 -0.2878  0.1541
 1358TIP3    H1 4038   2.074   0.575   3.788 -1.1118 -1.3378 -1.2961
 1358TIP3    H2 4039   2.155   0.453   3.749  0.1744 -1.0447  0.3741
 1359TIP3   OH2 4040   3.162   5.490   5.443  0.1335 -0.3654  0.1581
 1359TIP3    H1 4041   3.171   5.507   5.537 -0.7588 -1.0387  0.3842
 1359TIP3    H2 4042   3.153   5.395   5.437 -1.6788 -0.1981 -0.4155
 1360TIP3   OH2 4043   2.503   5.036   3.994  0.2320 -0.3799 -0.3070
 1360TIP3    H1 4044   2.585   4.993   3.968  1.2466  1.9354 -1.1256
 1360TIP3    H2 4045   2.444   5.022   3.920  0.0259 -1.5676  0.0500
 1361TIP3   OH2 4046   0.743   2.206   4.567  0.1117  0.2399  0.1534
 1361TIP3    H1 4047   0.773   2.273   4.628  0.2691  0.9634 -0.6825
 1361TIP3    H2 4048   0.819   2.187   4.513 -0.4933  1.0130 -1.0302
 1362TIP3   OH2 4049   1.921   6.732   2.379  0.4173 -0.3349 -0.2795
 1362TIP3    H1 4050   1.887   6.822   2.383  0.4717 -0.2954 -0.6484
 1362TIP3    H2 4051   1.844   6.677   2.394 -0.1599 -0.2890 -2.6572
 1363TIP3   OH2 4052   4.696   5.085   4.931 -0.2099 -0.0071 -0.4298
 1363TIP3    H1 4053   4.613   5.114   4.893 -0.7417 -0.2837  0.5030
 1363TIP3    H2 4054   4.683   5.090   5.025  0.9785  0.3322 -0.2619
 1364TIP3   OH2 4055   0.938   2.160   5.285  0.3347  0.3940  0.1762
 1364TIP3    H1 4056   0.981   2.076   5.270  1.3642  0.8488  0.5642
 1364TIP3    H2 4057   0.845   2.137   5.295  0.6318 -0.7245  0.5433
 1365TIP3   OH2 4058   1.806   4.517   3.552 -0.6473  0.1654  0.4934
 1365TIP3    H1 4059   1.786   4.512   3.645  0.0431 -0.2253  0.6220
 1365TIP3    H2 4060   1.838   4.607   3.539 -0.7020  0.2050  0.6407
 1366TIP3   OH2 4061   3.635   0.900   5.434  0.0406  0.0741  0.1315
 1366TIP3    H1 4062   3.558   0.924   5.486  0.5167 -1.5256  1.6885
 1366TIP3    H2 4063   3.699   0.871   5.499  1.4080 -0.0869 -1.2389
 1367TIP3   OH2 4064   4.799   2.153   0.603 -0.1764 -0.4009  0.3052
 1367TIP3    H1 4065   4.848   2.149   0.685 -1.7083 -1.6033  1.2069
 1367TIP3    H2 4066   4.839   2.226   0.555  0.9059  0.1863  2.0006
 1368TIP3   OH2 4067   6.043   4.041   1.626 -0.3774  0.3397 -0.7195
 1368TIP3    H1 4068   6.079   4.128   1.641  0.2875 -0.2387  1.4116
 1368TIP3    H2 4069   5.952   4.048   1.654  0.1006 -0.0024  1.0579
 1369TIP3   OH2 4070   4.780   1.457   5.522 -0.2322 -0.1491 -0.7069
 1369TIP3    H1 4071   4.697   1.413   5.507 -0.7625  1.1324 -1.6642
 1369TIP3    H2 4072   4.789   1.518   5.449  0.9156  0.6672  0.0808
 1370TIP3   OH2 4073   5.686   1.770   0.086  0.8298 -0.2891  0.0247
 1370TIP3    H1 4074   5.742   1.800   0.157  0.8072  1.1789 -0.5406
 1370TIP3    H2 4075   5.609   1.733   0.129 -0.8564  3.6919  0.8873
 1371TIP3   OH2 4076   3.411   2.777   2.957 -0.2410 -0.4111  0.1947
 1371TIP3    H1 4077   3.448   2.689   2.957  1.5281  0.2730  1.1705
 1371TIP3    H2 4078   3.369   2.786   2.871 -0.9495 -2.3689  0.2951
 1372TIP3   OH2 4079   2.695   5.453   4.985 -0.3040  0.6447 -0.1849
 1372TIP3    H1 4080   2.757   5.513   5.027  0.3788  0.2865 -0.6632
 1372TIP3    H2 4081   2.718   5.456   4.892  0.5817 -1.2979 -0.0793
 1373TIP3   OH2 4082   3.873   2.513   3.555 -0.3867 -0.1435  0.2716
 1373TIP3    H1 4083   3.849   2.596   3.595 -0.4106 -0.3112  0.6073
 1373TIP3    H2 4084   3.801   2.493   3.496 -0.9204 -0.4773  1.0235
 1374TIP3   OH2 4085   6.947   4.196   0.321  0.3504 -0.4721  0.2770
 1374TIP3    H1 4086   6.884   4.255   0.363  0.6423  1.3200 -1.5859
 1374TIP3    H2 4087   6.895   4.146   0.258  0.3140 -1.2875  0.9444
 1375TIP3   OH2 4088   3.505   4.076   2.220  0.2983  0.2717 -0.4245
 1375TIP3    H1 4089   3.541   4.080   2.308 -1.5775  2.7454  0.3539
 1375TIP3    H2 4090   3.553   4.144   2.171 -2.4407  3.0641  0.4214
 1376TIP3   OH2 4091   4.905   0.636   2.394  0.0052  0.6012  0.3044
 1376TIP3    H1 4092   4.951   0.718   2.410  0.4893  0.6258 -1.1741
 1376TIP3    H2 4093   4.892   0.632   2.300 -1.4459 -0.2654  0.4932
 1377TIP3   OH2 4094   0.140   4.659   1.293 -0.2967 -0.0317 -0.6934
 1377TIP3    H1 4095   0.095   4.651   1.377  1.6052  0.8328  0.4843
 1377TIP3    H2 4096   0.073   4.691   1.233 -1.2954  1.1629  0.9494
 1378TIP3   OH2 4097   3.673   2.238   0.106  0.5750  0.3520 -0.4739
 1378TIP3    H1 4098   3.650   2.326   0.079 -0.2409  0.2245 -0.2331
 1378TIP3    H2 4099   3.762   2.245   0.140  0.1108  1.3248  0.6127
 1379TIP3   OH2 4100   6.441   3.362   1.356  0.0519 -0.6293  0.2157
 1379TIP3    H1 4101   6.483   3.363   1.443 -0.0562 -0.4560  0.2670
 1379TIP3    H2 4102   6.348   3.368   1.375  0.1104  2.1541  0.0403
 1380TIP3   OH2 4103   1.691   1.896   1.011  0.0097 -0.1575 -0.0952
 1380TIP3    H1 4104   1.784   1.904   0.991 -0.6402  2.9016 -2.7654
 1380TIP3    H2 4105   1.664   1.815   0.968  1.3550 -1.0273  0.6198
 1381TIP3   OH2 4106   6.621   1.373   2.032 -0.0323 -0.1930  0.1822
 1381TIP3    H1 4107   6.606   1.280   2.047 -0.7518 -0.4875 -2.0293
 1381TIP3    H2 4108   6.676   1.377   1.954 -1.2555  1.2282 -0.6688
 1382TIP3   OH2 4109   0.077   0.700   2.633 -0.1037 -0.0445 -0.2513
 1382TIP3    H1 4110   0.124   0.738   2.707 -0.4751  1.5711 -0.8101
 1382TIP3    H2 4111   0.012   0.766   2.608  0.0825 -0.4848 -2.0828
 1383TIP3   OH2 4112   0.186   0.715   0.585 -0.5514  0.2973 -0.1563
 1383TIP3    H1 4113   0.241   0.670   0.649 -0.8002  2.0255  1.3857
 1383TIP3    H2 4114   0.225   0.802   0.576 -2.0737  1.0199 -0.2459
 1384TIP3   OH2 4115   7.225   2.259   3.145  0.1524  0.0796  0.4755
 1384TIP3    H1 4116   7.173   2.180   3.133 -0.8699  0.7370  0.4847
 1384TIP3    H2 4117   7.200   2.292   3.231 -0.5310  1.2048 -0.1354
 1385TIP3   OH2 4118   4.671   4.142   3.403  0.0040 -0.3567  0.2844
 1385TIP3    H1 4119   4.747   4.091   3.431  0.5386  0.0303 -0.3994
 1385TIP3    H2 4120   4.671   4.134   3.307  0.7295  1.7396  0.0607
 1386TIP3   OH2 4121   7.099   6.270   0.824 -0.3166 -0.3102 -0.3308
 1386TIP3    H1 4122   7.116   6.220   0.905 -1.0343 -0.2999 -0.1734
 1386TIP3    H2 4123   7.178   6.255   0.771  1.3895  1.8021  1.4202
 1387TIP3   OH2 4124   3.459   5.773   2.857  0.0987 -0.2271 -0.0072
 1387TIP3    H1 4125   3.432   5.857   2.820  1.6012  0.1336 -0.3692
 1387TIP3    H2 4126   3.496   5.725   2.783  0.7685 -0.5414  0.5218
 1388TIP3   OH2 4127   2.236   3.191   0.747 -0.3070 -0.3690 -0.0483
 1388TIP3    H1 4128   2.196   3.109   0.775 -1.4895 -0.1710 -1.0541
 1388TIP3    H2 4129   2.299   3.212   0.815 -1.6882 -0.8731  1.4429
 1389TIP3   OH2 4130   0.042   5.816   2.189 -0.0501  0.5987 -0.8484
 1389TIP3    H1 4131   0.082   5.843   2.106  1.9977  0.1150 -0.0745
 1389TIP3    H2 4132   0.114   5.815   2.251 -1.0509 -1.4286  0.3924
 1390TIP3   OH2 4133   1.487   2.846   0.818 -0.0255 -0.1440 -0.4880
 1390TIP3    H1 4134   1.549   2.779   0.788 -0.6069 -0.6160 -0.6466
 1390TIP3    H2 4135   1.452   2.811   0.899  0.8746  0.7238  0.3015
 1391TIP3   OH2 4136   3.459   0.446   2.535 -0.3196 -0.4590  0.5534
 1391TIP3    H1 4137   3.369   0.450   2.565 -0.3174  2.7473  0.4574
 1391TIP3    H2 4138   3.505   0.513   2.586  1.6793 -1.0090 -0.3991
 1392TIP3   OH2 4139   4.158   2.840   3.152  0.3588 -1.0013  0.2232
 1392TIP3    H1 4140   4.183   2.925   3.188 -0.2084 -0.5282 -0.4731
 1392TIP3    H2 4141   4.067   2.828   3.179  0.3864 -1.3207  0.1840
 1393TIP3   OH2 4142   2.188   0.730   3.647 -0.1157  0.5444  0.0981
 1393TIP3    H1 4143   2.154   0.813   3.682  1.4352  1.3223 -0.1337
 1393TIP3    H2 4144   2.271   0.717   3.694 -1.2498 -1.9689  1.6374
 1394TIP3   OH2 4145   0.365   3.936   2.974  0.0884 -0.0970 -0.3238
 1394TIP3    H1 4146   0.342   4.026   2.999 -0.1786 -0.5701  1.2243
 1394TIP3    H2 4147   0.375   3.890   3.057  3.7963 -0.6670 -0.9254
 1395TIP3   OH2 4148   5.808   2.204   0.471  0.1071 -0.0092  0.3769
 1395TIP3    H1 4149   5.830   2.137   0.406  0.5418  0.8988 -0.4423
 1395TIP3    H2 4150   5.862   2.184   0.546 -0.6441 -1.2810  0.6131
 1396TIP3   OH2 4151   4.289   2.641   2.029 -0.1683 -0.6285 -0.4154
 1396TIP3    H1 4152   4.250   2.660   1.944 -0.3045  0.3504 -0.1531
 1396TIP3    H2 4153   4.230   2.683   2.092  0.3763 -0.6183  0.0997
 1397TIP3   OH2 4154   1.577   6.353   3.063  0.1563  0.1607  0.1149
 1397TIP3    H1 4155   1.656   6.399   3.093 -0.2375  1.0625 -0.1862
 1397TIP3    H2 4156   1.505   6.398   3.108 -0.2508 -0.0953 -0.2767
 1398TIP3   OH2 4157   5.799   1.265   4.352 -0.2482 -0.3740 -0.2605
 1398TIP3    H1 4158   5.725   1.211   4.379  0.4585 -0.7908  0.9592
 1398TIP3    H2 4159   5.873   1.229   4.401  0.3358  1.4350  0.2555
 1399TIP3   OH2 4160   3.134   2.616   1.840  0.0767 -0.3970 -0.1595
 1399TIP3    H1 4161   3.226   2.642   1.837 -0.3489  1.1332 -1.5313
 1399TIP3    H2 4162   3.087   2.698   1.855 -1.0695 -1.1887  0.7265
 1400TIP3   OH2 4163   4.920   6.479   4.258 -0.6460  0.2785  0.3510
 1400TIP3    H1 4164   4.941   6.405   4.314 -2.2815  0.3505  1.1272
 1400TIP3    H2 4165   4.999   6.494   4.207  0.6089 -0.3314  2.0286
 1401TIP3   OH2 4166   0.687   2.602   4.013 -0.4562 -0.0222  0.2008
 1401TIP3    H1 4167   0.694   2.687   4.056  3.5545  0.4672 -1.0608
 1401TIP3    H2 4168   0.653   2.622   3.926  0.2864  0.2715 -0.0243
 1402TIP3   OH2 4169   0.202   2.963   1.103 -0.5916 -0.2897 -0.1053
 1402TIP3    H1 4170   0.287   2.986   1.140 -0.9645  0.1303  0.5104
 1402TIP3    H2 4171   0.220   2.944   1.011  0.1672 -0.2185  0.0226
 1403TIP3   OH2 4172   3.228   2.127   0.333  0.1037 -0.4001  0.1602
 1403TIP3    H1 4173   3.179   2.168   0.404 -0.0220 -0.4922  0.1268
 1403TIP3    H2 4174   3.303   2.185   0.319  1.0861 -1.2745  1.5464
 1404TIP3   OH2 4175   2.710   4.605   0.395  0.1271  0.0165  0.5501
 1404TIP3    H1 4176   2.699   4.545   0.469 -2.2859 -0.6702 -0.2680
 1404TIP3    H2 4177   2.625   4.603   0.350  1.2193  1.1094 -1.7225
 1405TIP3   OH2 4178   1.226   4.445   3.864  0.3828  0.3514  0.0822
 1405TIP3    H1 4179   1.302   4.502   3.877  1.3887 -1.2749  1.9230
 1405TIP3    H2 4180   1.202   4.416   3.952 -0.7851 -1.1350 -0.6716
 1406TIP3   OH2 4181   3.836   3.604   1.214  0.1980  0.1335 -0.1572
 1406TIP3    H1 4182   3.806   3.625   1.125  1.6419  0.4171 -0.6026
 1406TIP3    H2 4183   3.785   3.527   1.238  1.1707 -1.2165 -2.0601
 1407TIP3   OH2 4184   0.720   5.855   1.254 -0.5121 -0.5285  0.3038
 1407TIP3    H1 4185   0.643   5.859   1.310  0.3413  2.5099  1.4957
 1407TIP3    H2 4186   0.790   5.892   1.307  1.0133 -0.2049 -1.8116
 1408TIP3   OH2 4187   4.644   3.444   3.095  0.2406  0.2140  0.0060
 1408TIP3    H1 4188   4.605   3.357   3.085 -2.5047  1.2908  0.5795
 1408TIP3    H2 4189   4.737   3.431   3.073  0.5329 -3.3516  2.4922
 1409TIP3   OH2 4190   4.971   4.547   1.485 -0.0337 -0.7921  1.1839
 1409TIP3    H1 4191   5.007   4.506   1.564 -1.2323 -1.3176  1.4658
 1409TIP3    H2 4192   4.929   4.627   1.516 -0.0522 -0.7285  0.9983
 1410TIP3   OH2 4193   0.321   2.879   5.185  0.4593  0.2789  0.2401
 1410TIP3    H1 4194   0.356   2.790   5.182 -1.8814 -0.8210  2.0820
 1410TIP3    H2 4195   0.301   2.900   5.094  2.4854 -0.4128 -0.4127
 1411TIP3   OH2 4196   4.904   2.516   4.629  0.0006 -0.8175  0.4868
 1411TIP3    H1 4197   4.912   2.482   4.540 -0.3552  0.0558  0.1062
 1411TIP3    H2 4198   4.815   2.551   4.633  0.1541 -0.4841  1.0536
 1412TIP3   OH2 4199   2.777   4.413   0.719  0.6391  0.1184  0.1334
 1412TIP3    H1 4200   2.721   4.384   0.791 -1.1373  1.0717 -0.7785
 1412TIP3    H2 4201   2.813   4.497   0.749 -0.1425  0.5412 -0.0677
 1413TIP3   OH2 4202   2.723   2.190   2.147  0.1649 -0.1797  0.1446
 1413TIP3    H1 4203   2.763   2.181   2.233  1.0890 -2.2872 -0.4413
 1413TIP3    H2 4204   2.764   2.122   2.094 -0.0087  1.3448 -2.1190
 1414TIP3   OH2 4205   6.135   1.572   3.072  0.2396  0.4155  0.4515
 1414TIP3    H1 4206   6.103   1.483   3.058  1.8037 -0.6765  3.0503
 1414TIP3    H2 4207   6.073   1.611   3.133  0.3594  0.5766  0.4726
 1415TIP3   OH2 4208   2.102   4.427   3.054 -0.2232 -0.4886  0.4801
 1415TIP3    H1 4209   2.064   4.410   3.140  0.6931  0.2023  1.0444
 1415TIP3    H2 4210   2.027   4.434   2.995 -0.8883 -0.4201  1.3208
 1416TIP3   OH2 4211   4.394   1.548   1.660  0.1173  0.0825 -0.4110
 1416TIP3    H1 4212   4.464   1.487   1.637  0.1985  0.3011 -0.7537
 1416TIP3    H2 4213   4.437   1.613   1.715 -0.1153 -0.5417  0.5447
 1417TIP3   OH2 4214   4.088   6.133   5.777  0.1035  0.0698 -0.3732
 1417TIP3    H1 4215   4.020   6.167   5.719 -0.2473 -0.8278 -0.5060
 1417TIP3    H2 4216   4.053   6.050   5.809  1.4193 -0.7454 -0.9630
 1418TIP3   OH2 4217   0.130   5.769   1.056  0.1286 -0.5714  0.5030
 1418TIP3    H1 4218   0.194   5.829   1.096  0.8256 -1.7409  1.1892
 1418TIP3    H2 4219   0.182   5.692   1.031 -0.5255 -0.4359 -1.4748
 1419TIP3   OH2 4220   4.017   2.873   0.945 -0.1058 -0.4070 -0.2104
 1419TIP3    H1 4221   4.055   2.802   0.894  2.4500  0.8912 -0.2637
 1419TIP3    H2 4222   4.057   2.864   1.032  1.7161  1.9098 -0.6990
 1420TIP3   OH2 4223   1.100   2.982   5.041  0.1222 -0.3709  0.7769
 1420TIP3    H1 4224   1.180   3.027   5.069 -0.8602  1.9130  0.1951
 1420TIP3    H2 4225   1.115   2.891   5.063  2.0856  0.2793  2.4863
 1421TIP3   OH2 4226   3.435   1.273   4.415  0.2216  0.0990  0.2566
 1421TIP3    H1 4227   3.342   1.292   4.417  0.3233  0.5672  1.5223
 1421TIP3    H2 4228   3.453   1.230   4.499  0.8635 -1.4325 -0.6114
 1422TIP3   OH2 4229   0.960   4.570   0.503  0.4328 -0.0957 -0.2107
 1422TIP3    H1 4230   1.009   4.499   0.544 -0.6309 -0.7055  0.0437
 1422TIP3    H2 4231   1.014   4.596   0.429  1.1675 -0.7040  0.0929
 1423TIP3   OH2 4232   1.769   0.316   2.938 -0.0679  0.3144 -0.3470
 1423TIP3    H1 4233   1.795   0.382   3.002  2.7952  2.0574 -3.0021
 1423TIP3    H2 4234   1.831   0.244   2.951  0.7524  0.8207 -1.2365
 1424TIP3   OH2 4235   3.134   2.134   1.670 -0.8442 -0.1590 -0.3806
 1424TIP3    H1 4236   3.077   2.119   1.745 -2.5469  0.9571 -1.3817
 1424TIP3    H2 4237   3.217   2.162   1.708 -0.4379 -3.0700  1.1707
 1425TIP3   OH2 4238   6.236   0.261   0.210  0.2607  0.1508 -0.2878
 1425TIP3    H1 4239   6.257   0.350   0.181  0.2730 -0.1308 -1.1715
 1425TIP3    H2 4240   6.168   0.273   0.276  0.3251  0.8279 -0.3387
 1426TIP3   OH2 4241   5.191   3.544   0.469  0.3198 -0.0635  0.2020
 1426TIP3    H1 4242   5.103   3.542   0.506  0.0574  1.5773 -0.2279
 1426TIP3    H2 4243   5.247   3.570   0.541  0.3820 -0.5880  0.3467
 1427TIP3   OH2 4244   4.549   0.676   0.078 -0.1960 -0.0864 -0.1383
 1427TIP3    H1 4245   4.630   0.628   0.094  1.0533  0.6890 -3.3127
 1427TIP3    H2 4246   4.542   0.737   0.151  2.3080  0.0579  0.0508
 1428TIP3   OH2 4247   0.767   3.725   5.556 -0.1545  0.1853 -0.2645
 1428TIP3    H1 4248   0.814   3.790   5.609  1.8999 -0.6593 -0.9752
 1428TIP3    H2 4249   0.743   3.657   5.618  0.1652  0.3040 -0.0043
 1429TIP3   OH2 4250   0.024   1.185   2.333  0.3836  0.1396  0.1010
 1429TIP3    H1 4251   0.016   1.164   2.426 -2.1751 -1.0014 -0.2888
 1429TIP3    H2 4252   0.029   1.099   2.290  2.5922  0.6537 -0.8077
 1430TIP3   OH2 4253   6.295   0.224   3.522 -0.0062 -0.0438 -0.0175
 1430TIP3    H1 4254   6.361   0.285   3.489 -1.1984  0.8464 -0.8853
 1430TIP3    H2 4255   6.216   0.278   3.532 -0.9842 -1.3501 -0.3913
 1431TIP3   OH2 4256   2.504   1.854   5.727  0.4050 -0.3804  0.4409
 1431TIP3    H1 4257   2.573   1.896   5.675 -0.2852 -1.3846 -1.4037
 1431TIP3    H2 4258   2.432   1.917   5.726  0.2322 -0.5714 -0.2728
 1432TIP3   OH2 4259   7.107   2.344   0.482 -0.0283  0.1640  0.2412
 1432TIP3    H1 4260   7.140   2.292   0.409 -0.2449 -0.3670  0.5097
 1432TIP3    H2 4261   7.042   2.402   0.443  1.0679  1.0734 -0.2522
 1433TIP3   OH2 4262   4.603   4.883   3.012  0.2486 -0.1329  0.4717
 1433TIP3    H1 4263   4.628   4.805   3.063  2.5341 -0.9895 -1.7418
 1433TIP3    H2 4264   4.551   4.935   3.073 -0.4898 -2.8672  2.4107
 1434TIP3   OH2 4265   5.870   0.957   4.686  0.2043  0.0096 -0.1041
 1434TIP3    H1 4266   5.909   1.000   4.609 -0.9154 -0.0201 -0.7004
 1434TIP3    H2 4267   5.829   1.027   4.735  3.9134  0.6921  2.4825
 1435TIP3   OH2 4268   4.643   1.631   2.960 -0.2317 -0.2698 -0.2418
 1435TIP3    H1 4269   4.630   1.700   2.894  1.9980  0.5975  0.1505
 1435TIP3    H2 4270   4.736   1.609   2.954 -0.5487 -2.1192  0.7882
 1436TIP3   OH2 4271   4.720   4.209   5.148  0.4384  0.3511 -0.1528
 1436TIP3    H1 4272   4.776   4.180   5.076 -1.7237 -1.0941 -1.3370
 1436TIP3    H2 4273   4.634   4.219   5.109 -0.8280 -0.5043  2.2341
 1437TIP3   OH2 4274   1.040   1.141   4.765 -0.8967  0.0478 -0.4648
 1437TIP3    H1 4275   1.099   1.071   4.792 -0.8389 -0.1889 -1.1848
 1437TIP3    H2 4276   1.035   1.199   4.841 -0.0463 -0.1320 -0.2659
 1438TIP3   OH2 4277  -0.014   3.797   1.108 -0.3949  0.5330  0.2016
 1438TIP3    H1 4278  -0.023   3.892   1.112 -0.0430  0.5872 -0.3131
 1438TIP3    H2 4279   0.056   3.782   1.045 -1.3410 -0.1021 -0.7313
 1439TIP3   OH2 4280   6.864   6.198   2.632 -0.1084 -0.1435  0.7036
 1439TIP3    H1 4281   6.921   6.257   2.681  0.4428  0.7109 -0.8710
 1439TIP3    H2 4282   6.806   6.257   2.583 -1.1546 -0.9705  0.9225
 1440TIP3   OH2 4283   6.446   1.237   3.781  0.2312 -0.0895 -0.5949
 1440TIP3    H1 4284   6.390   1.266   3.709  1.2053 -0.5741 -1.5764
 1440TIP3    H2 4285   6.385   1.209   3.849 -0.7111  0.4222 -1.2080
 1441TIP3   OH2 4286   0.361   0.351   3.330 -0.0561 -0.1252  0.3952
 1441TIP3    H1 4287   0.411   0.270   3.341 -1.1885 -0.8823  0.1437
 1441TIP3    H2 4288   0.394   0.389   3.248  0.6582 -0.1898  0.6486
 1442TIP3   OH2 4289   0.373   6.189   1.244  0.0340 -0.8789  0.3477
 1442TIP3    H1 4290   0.459   6.229   1.232 -0.5927  0.1352 -0.9657
 1442TIP3    H2 4291   0.322   6.256   1.289 -0.5265 -0.8535 -0.3193
 1443TIP3   OH2 4292   4.929   3.505   0.567  0.2858  0.4479  0.0239
 1443TIP3    H1 4293   4.852   3.560   0.581 -0.0087  0.1867 -0.5937
 1443TIP3    H2 4294   4.939   3.456   0.649 -1.1215 -0.6708 -0.4433
 1444TIP3   OH2 4295   6.119   5.424   0.059  0.1495  0.0339  0.3983
 1444TIP3    H1 4296   6.054   5.491   0.079  1.1302  0.4057  2.6288
 1444TIP3    H2 4297   6.181   5.428   0.132  2.0086 -1.1405 -1.0294
 1445TIP3   OH2 4298   6.709   0.869   5.820  0.1017 -0.4867  0.4755
 1445TIP3    H1 4299   6.706   0.909   5.733 -0.9816  0.0887  0.7604
 1445TIP3    H2 4300   6.781   0.913   5.864  0.1103 -0.1689  0.1506
 1446TIP3   OH2 4301   4.323   5.192   5.082 -0.3156 -0.3683  0.6982
 1446TIP3    H1 4302   4.258   5.262   5.079 -1.7257 -1.6398  0.3659
 1446TIP3    H2 4303   4.288   5.130   5.147 -0.7913 -2.2979 -1.2919
 1447TIP3   OH2 4304   5.891   6.748   0.445  0.0842  0.1301  0.3003
 1447TIP3    H1 4305   5.807   6.709   0.469  0.6373 -0.8205  0.7722
 1447TIP3    H2 4306   5.911   6.809   0.516  0.2231 -0.3308  0.6615
 1448TIP3   OH2 4307   3.122   3.642   1.479 -0.3478 -0.6814  0.0446
 1448TIP3    H1 4308   3.213   3.653   1.508 -0.6936 -1.5199  1.5303
 1448TIP3    H2 4309   3.108   3.547   1.480 -1.2407 -0.5584 -0.1517
 1449TIP3   OH2 4310   5.864   5.329   2.952  0.1079 -0.5525 -0.0331
 1449TIP3    H1 4311   5.774   5.300   2.939  0.9023 -3.5384  0.3870
 1449TIP3    H2 4312   5.859   5.389   3.027 -1.3015 -2.4579  1.5042
 1450TIP3   OH2 4313   1.475   1.726   2.505  0.1269  0.2092  0.4763
 1450TIP3    H1 4314   1.458   1.803   2.559 -0.4757  0.8226 -0.5571
 1450TIP3    H2 4315   1.452   1.753   2.417  1.7827 -0.5469 -0.2290
 1451TIP3   OH2 4316   4.618   0.496   5.343  1.0405 -0.1004  0.4322
 1451TIP3    H1 4317   4.691   0.554   5.365  1.2679 -0.2342  0.0413
 1451TIP3    H2 4318   4.660   0.414   5.317  0.6885 -0.8260  2.0534
 1452TIP3   OH2 4319   2.780   2.269   4.619 -0.2119 -0.5588  1.0364
 1452TIP3    H1 4320   2.787   2.188   4.570  0.7359  0.2320 -0.1914
 1452TIP3    H2 4321   2.817   2.336   4.561 -1.4332  0.8429  1.7945
 1453TIP3   OH2 4322   1.944   5.360   3.536 -0.2367  0.1012 -0.0636
 1453TIP3    H1 4323   1.870   5.298   3.545  0.5109 -0.8238 -0.1288
 1453TIP3    H2 4324   1.985   5.360   3.622  0.6272 -0.6235 -0.4626
 1454TIP3   OH2 4325   4.137   3.311   5.158  0.2592  0.3988 -0.4178
 1454TIP3    H1 4326   4.076   3.242   5.132  0.5109 -0.9947  2.3653
 1454TIP3    H2 4327   4.107   3.388   5.110 -3.6436 -0.2540  0.6326
 1455TIP3   OH2 4328   4.818   0.395   2.464  0.7153 -0.1186  0.2535
 1455TIP3    H1 4329   4.855   0.328   2.406  0.7876  0.2321 -0.1009
 1455TIP3    H2 4330   4.865   0.475   2.443 -0.1068  0.2886 -0.0608
 1456TIP3   OH2 4331   5.612   5.436   2.012  0.0720 -0.3815  0.1714
 1456TIP3    H1 4332   5.702   5.420   2.043  0.6889  1.5721 -0.5067
 1456TIP3    H2 4333   5.565   5.465   2.091  0.9152  1.7727 -0.0418
 1457TIP3   OH2 4334   4.759   2.364   2.756  0.1446 -0.0289  0.7453
 1457TIP3    H1 4335   4.835   2.315   2.726 -1.6534 -1.8320 -1.1736
 1457TIP3    H2 4336   4.745   2.335   2.846  1.2597 -0.2710  0.8472
 1458TIP3   OH2 4337   0.684   4.947   3.634  0.0370 -0.0139  0.7804
 1458TIP3    H1 4338   0.767   4.969   3.676  0.9827  2.5159 -2.0568
 1458TIP3    H2 4339   0.708   4.880   3.569 -0.2464  0.3242  0.3274
 1459TIP3   OH2 4340   1.779   2.822   0.609 -0.3822 -0.5064 -0.2752
 1459TIP3    H1 4341   1.856   2.770   0.588  1.5376  2.0592 -0.1310
 1459TIP3    H2 4342   1.765   2.877   0.531 -2.2939 -1.1278 -0.4177
 1460TIP3   OH2 4343   4.554   2.118   5.362 -0.1918 -0.4037 -0.0117
 1460TIP3    H1 4344   4.486   2.145   5.423 -2.0299 -2.2417 -1.0983
 1460TIP3    H2 4345   4.603   2.050   5.408  1.5007  1.4131  1.0411
 1461TIP3   OH2 4346   6.433   1.737   5.651 -0.1321  0.1233  0.7325
 1461TIP3    H1 4347   6.481   1.796   5.709 -1.4428  0.0674  1.9145
 1461TIP3    H2 4348   6.345   1.773   5.646 -0.0760  0.1404 -1.2829
 1462TIP3   OH2 4349   6.028   6.448   1.857  0.3905 -0.1737  0.6169
 1462TIP3    H1 4350   6.015   6.358   1.830 -1.8355  0.6386 -1.3419
 1462TIP3    H2 4351   6.121   6.453   1.882  0.7722 -2.7449 -0.0712
 1463TIP3   OH2 4352   4.996   2.770   5.381 -0.4818  0.2957 -0.1328
 1463TIP3    H1 4353   4.940   2.703   5.419  2.4097 -1.0713  2.1540
 1463TIP3    H2 4354   5.068   2.722   5.341  0.8557  1.9716  0.1319
 1464TIP3   OH2 4355   3.724   6.746   1.097 -1.1532  0.3648  0.2530
 1464TIP3    H1 4356   3.653   6.688   1.070 -0.0361 -0.3524 -1.3056
 1464TIP3    H2 4357   3.755   6.786   1.016 -1.1545  2.3368  1.1533
 1465TIP3   OH2 4358   1.353   4.950   2.854 -0.5211  0.0298 -0.3234
 1465TIP3    H1 4359   1.378   4.982   2.941  0.2482  1.3187 -0.9728
 1465TIP3    H2 4360   1.269   4.991   2.836 -0.3138  0.3956 -0.4837
 1466TIP3   OH2 4361   2.881   6.425   2.305  0.7748 -0.1839 -0.4984
 1466TIP3    H1 4362   2.828   6.466   2.236  1.2566 -1.6395 -1.7781
 1466TIP3    H2 4363   2.966   6.467   2.297  0.1769  1.4054  0.8740
 1467TIP3   OH2 4364   6.024   5.799   5.265 -0.5214 -0.0028  0.4084
 1467TIP3    H1 4365   6.108   5.842   5.286 -0.7875 -0.1413  1.8940
 1467TIP3    H2 4366   5.975   5.865   5.217  0.0155  0.4921  0.5247
 1468TIP3   OH2 4367   6.602   5.810   0.445 -0.2522  0.6613  1.6112
 1468TIP3    H1 4368   6.566   5.838   0.361  0.7379 -2.1419  0.1203
 1468TIP3    H2 4369   6.564   5.724   0.460  1.9329 -0.2311  2.4607
 1469TIP3   OH2 4370   6.363   4.671   2.907  0.4599 -0.6535 -0.5090
 1469TIP3    H1 4371   6.391   4.744   2.852 -2.3120 -0.2214 -1.5033
 1469TIP3    H2 4372   6.379   4.701   2.997  1.5091  0.2005 -0.9658
 1470TIP3   OH2 4373   5.387   2.456   1.007 -0.3098  0.6902 -0.0715
 1470TIP3    H1 4374   5.381   2.360   1.014 -0.1684  0.6242 -0.7816
 1470TIP3    H2 4375   5.469   2.478   1.051 -1.5757  0.7721  2.4590
 1471TIP3   OH2 4376   0.323   4.361   1.630  0.6330  0.0773  0.1195
 1471TIP3    H1 4377   0.314   4.266   1.618  2.2748 -0.2900  1.4745
 1471TIP3    H2 4378   0.233   4.392   1.641  0.1775 -1.6126  1.4687
 1472TIP3   OH2 4379   2.573   1.254   2.920  0.1770  1.2425 -0.1399
 1472TIP3    H1 4380   2.544   1.324   2.979  1.1692  1.4729  0.0987
 1472TIP3    H2 4381   2.545   1.173   2.963  1.0025  1.3995  0.7513
 1473TIP3   OH2 4382   1.528   2.443   2.169 -0.0527  0.3786  0.2798
 1473TIP3    H1 4383   1.461   2.386   2.206 -0.5728  0.5134 -0.4332
 1473TIP3    H2 4384   1.516   2.527   2.214 -0.1413  0.3084  0.3883
 1474TIP3   OH2 4385   2.419   2.696   1.985 -0.1650  0.3144  0.5404
 1474TIP3    H1 4386   2.486   2.765   1.984 -1.3273  1.4740  0.5750
 1474TIP3    H2 4387   2.368   2.711   1.906  0.3935 -1.4067 -0.2159
 1475TIP3   OH2 4388   5.446   3.567   3.086 -0.0263  0.1597  0.3555
 1475TIP3    H1 4389   5.504   3.599   3.155 -0.8350 -1.1839  1.7374
 1475TIP3    H2 4390   5.497   3.501   3.040 -0.1754 -0.4801  1.0836
 1476TIP3   OH2 4391   1.393   0.605   4.140 -0.0184  0.0297 -0.3296
 1476TIP3    H1 4392   1.409   0.697   4.163 -0.4869  0.2222 -0.7290
 1476TIP3    H2 4393   1.378   0.608   4.045 -0.2144 -0.4348 -0.3124
 1477TIP3   OH2 4394   3.066   1.433   5.796 -0.2723 -0.4119  0.2205
 1477TIP3    H1 4395   3.031   1.519   5.822 -1.5222 -0.5139 -0.9897
 1477TIP3    H2 4396   3.146   1.424   5.847 -1.0266  0.6927  1.7175
 1478TIP3   OH2 4397   5.736   3.275   0.595 -0.1370  0.0323 -0.2578
 1478TIP3    H1 4398   5.744   3.211   0.666 -1.0749  0.0754 -0.1053
 1478TIP3    H2 4399   5.827   3.290   0.566  0.1595 -0.7747  0.2209
 1479TIP3   OH2 4400   3.669   2.583   4.997 -0.1657  0.1943 -0.0691
 1479TIP3    H1 4401   3.704   2.643   5.063  0.8390 -1.3018  0.8372
 1479TIP3    H2 4402   3.578   2.569   5.023  0.0566  0.0767  0.6783
 1480TIP3   OH2 4403   4.617   4.564   4.533 -0.1465 -0.6239  0.6699
 1480TIP3    H1 4404   4.596   4.498   4.599  0.0304 -0.7415  0.6108
 1480TIP3    H2 4405   4.687   4.524   4.481 -0.4272 -0.6206  0.2806
 1481TIP3   OH2 4406   0.012   2.100   4.649  0.7239 -1.0856 -0.6516
 1481TIP3    H1 4407   0.062   2.018   4.652  0.4172 -1.2943 -1.1868
 1481TIP3    H2 4408   0.058   2.155   4.586  0.7178 -0.9887 -0.5719
 1482TIP3   OH2 4409   2.747   1.576   3.739 -0.3135 -0.3396  0.2734
 1482TIP3    H1 4410   2.737   1.492   3.695  0.1227 -0.8133  1.0656
 1482TIP3    H2 4411   2.658   1.600   3.766 -0.7661  0.4599 -1.7140
 1483TIP3   OH2 4412   0.479   2.721   2.001  0.2296 -0.2584 -0.0281
 1483TIP3    H1 4413   0.456   2.629   2.015  1.7658 -0.4247  1.9379
 1483TIP3    H2 4414   0.403   2.759   1.959 -0.9215 -2.1778  0.2175
 1484TIP3   OH2 4415   4.873   4.138   5.533 -0.1592  0.4716 -0.5271
 1484TIP3    H1 4416   4.786   4.147   5.493 -0.0647  0.1673 -0.7998
 1484TIP3    H2 4417   4.869   4.195   5.610  0.1745  2.2773 -1.7861
 1485TIP3   OH2 4418   3.417   2.698   4.850  0.3642 -0.0552 -0.3616
 1485TIP3    H1 4419   3.435   2.792   4.856 -0.3356  0.0668  0.0314
 1485TIP3    H2 4420   3.493   2.661   4.807  1.3987  0.4660  0.9446
 1486TIP3   OH2 4421   3.639   4.049   1.619 -0.6841  0.2642  0.1312
 1486TIP3    H1 4422   3.704   4.118   1.607 -1.2666  0.7991 -0.0023
 1486TIP3    H2 4423   3.613   4.024   1.531 -1.5821  0.9523  0.1821
 1487TIP3   OH2 4424   6.676   6.037   5.152  0.4931 -0.1793  0.5714
 1487TIP3    H1 4425   6.627   6.088   5.088 -0.7823 -0.4066  1.3380
 1487TIP3    H2 4426   6.623   6.041   5.231  2.2314  0.4693  1.7791
 1488TIP3   OH2 4427   6.697   3.975   5.114  0.1696  0.2619 -0.0427
 1488TIP3    H1 4428   6.671   3.903   5.172  1.1036  1.1918  1.6106
 1488TIP3    H2 4429   6.655   3.955   5.030 -0.9104 -1.3443  0.8302
 1489TIP3   OH2 4430   6.755   2.249   1.391 -0.5700 -0.1334 -0.2811
 1489TIP3    H1 4431   6.685   2.202   1.346  0.3009 -0.4864 -1.3186
 1489TIP3    H2 4432   6.783   2.189   1.460 -1.3779  0.0750  0.2382
 1490TIP3   OH2 4433   1.978   0.866   3.251 -0.0667  0.5376  0.2800
 1490TIP3    H1 4434   2.007   0.794   3.307  0.3305  0.6558  0.2309
 1490TIP3    H2 4435   1.998   0.837   3.162  0.1866  0.7485  0.2660
 1491TIP3   OH2 4436   5.902   2.134   0.728  0.6892  0.2914 -0.3824
 1491TIP3    H1 4437   5.859   2.058   0.769  0.5365 -0.8308 -2.4621
 1491TIP3    H2 4438   5.904   2.200   0.797 -2.5167 -0.3034  0.4670
 1492TIP3   OH2 4439   1.873   0.145   0.826 -0.5054 -0.2017  0.1694
 1492TIP3    H1 4440   1.931   0.079   0.788 -0.6749 -0.4507  0.3400
 1492TIP3    H2 4441   1.917   0.171   0.908  0.4562  1.1878 -0.7387
 1493TIP3   OH2 4442   1.031   1.243   5.784  0.0827 -0.0077 -0.3482
 1493TIP3    H1 4443   0.980   1.220   5.706  0.4263 -1.4323 -0.1823
 1493TIP3    H2 4444   0.997   1.328   5.811 -0.8641 -0.0451 -1.3556
 1494TIP3   OH2 4445   4.798   5.904   1.475 -0.5784  0.4618  0.0943
 1494TIP3    H1 4446   4.799   5.955   1.394 -1.6761  0.1911 -0.1045
 1494TIP3    H2 4447   4.876   5.849   1.470 -0.0583  1.2140 -0.2726
 1495TIP3   OH2 4448   6.876   2.698   4.345 -0.1290 -0.5251  0.2141
 1495TIP3    H1 4449   6.940   2.670   4.411  1.5764  2.1312 -0.1572
 1495TIP3    H2 4450   6.800   2.726   4.396  0.6666  0.2601  1.0123
 1496TIP3   OH2 4451   4.863   0.706   4.106 -0.0899  0.4848 -0.4549
 1496TIP3    H1 4452   4.859   0.631   4.165  0.2457  1.3569  0.7158
 1496TIP3    H2 4453   4.772   0.733   4.097  0.0268  2.1228  2.1007
 1497TIP3   OH2 4454   1.934   6.531   2.689  0.5553  0.8587  0.6518
 1497TIP3    H1 4455   1.903   6.443   2.712  0.6419  0.9824  1.2612
 1497TIP3    H2 4456   1.866   6.565   2.630  0.2054  0.6166  0.9082
 1498TIP3   OH2 4457   2.540   0.138   0.802  0.3975 -0.2487 -0.5327
 1498TIP3    H1 4458   2.548   0.231   0.824 -1.9686  0.0040 -0.4722
 1498TIP3    H2 4459   2.481   0.103   0.868 -0.3022 -1.3372 -1.6809
 1499TIP3   OH2 4460   2.875   3.262  -0.020  0.3732 -0.1890  0.2403
 1499TIP3    H1 4461   2.784   3.285  -0.037  0.7544  0.8774 -0.4113
 1499TIP3    H2 4462   2.874   3.223   0.067 -0.7078 -0.2453  0.2151
 1500TIP3   OH2 4463   6.244   1.869   0.884 -0.1729  0.4547 -0.1598
 1500TIP3    H1 4464   6.202   1.917   0.813  1.2045  1.6344 -0.2252
 1500TIP3    H2 4465   6.253   1.779   0.851  1.5966  1.2412 -2.0482
 1501TIP3   OH2 4466   5.519   3.376   0.969 -0.3466  0.0002 -0.0523
 1501TIP3    H1 4467   5.577   3.435   0.921 -0.2522 -0.0163  0.0413
 1501TIP3    H2 4468   5.439   3.427   0.982  0.2750  0.6801  1.3713
 1502TIP3   OH2 4469   6.612   2.037   5.459  0.0161 -0.0766  0.3925
 1502TIP3    H1 4470   6.675   2.092   5.506  0.0591  1.6040 -1.4833
 1502TIP3    H2 4471   6.529   2.051   5.504  0.1387  1.1430  0.2650
 1503TIP3   OH2 4472   5.812   1.685   5.418  0.0033  0.0306  0.3648
 1503TIP3    H1 4473   5.729   1.641   5.399 -3.1675  4.7733  1.3958
 1503TIP3    H2 4474   5.857   1.688   5.334 -2.5725  0.2352 -1.1359
 1504TIP3   OH2 4475   1.229   4.087   0.597  0.3337 -0.1919 -0.3133
 1504TIP3    H1 4476   1.261   4.030   0.667  2.6560  1.8238  0.3803
 1504TIP3    H2 4477   1.137   4.062   0.587  0.7047 -2.6119  1.3341
 1505TIP3   OH2 4478   3.296   1.147   2.422  0.4804 -0.0055  0.0343
 1505TIP3    H1 4479   3.322   1.157   2.331  1.7086  0.5930  0.4210
 1505TIP3    H2 4480   3.292   1.053   2.436 -1.3046 -0.1313 -1.0382
 1506TIP3   OH2 4481   7.141   2.632   2.649  0.2251 -1.0205  0.7106
 1506TIP3    H1 4482   7.179   2.709   2.691 -0.6608 -0.5772  0.7128
 1506TIP3    H2 4483   7.102   2.664   2.568 -2.5498 -0.9241  1.9862
 1507TIP3   OH2 4484   1.600   5.118   0.588 -0.2038 -0.3366  0.2852
 1507TIP3    H1 4485   1.523   5.076   0.548  0.2239  0.9837 -2.0856
 1507TIP3    H2 4486   1.564   5.169   0.661 -2.0148  1.9393 -2.0122
 1508TIP3   OH2 4487   3.693   4.426   5.613  0.3644 -0.0918  0.3991
 1508TIP3    H1 4488   3.654   4.387   5.691  1.2305 -1.1052  0.3443
 1508TIP3    H2 4489   3.642   4.389   5.540 -0.0141  0.3333  0.4477
 1509TIP3   OH2 4490   4.826   4.198   4.891 -0.1880 -0.1327 -0.6318
 1509TIP3    H1 4491   4.790   4.114   4.865  1.5032 -0.8580 -0.7971
 1509TIP3    H2 4492   4.873   4.230   4.814 -1.0953  1.1489 -0.6864
 1510TIP3   OH2 4493   5.422   3.500   1.925  0.2710 -1.0486 -0.4390
 1510TIP3    H1 4494   5.381   3.540   2.002 -0.4200 -1.5934 -0.5157
 1510TIP3    H2 4495   5.491   3.445   1.960 -1.1505 -2.6761 -0.0386
 1511TIP3   OH2 4496   4.532   5.011   3.228  0.1521 -0.2414  0.2361
 1511TIP3    H1 4497   4.481   5.091   3.240 -1.2558 -1.2115  0.9977
 1511TIP3    H2 4498   4.619   5.033   3.261 -0.4654  0.6990  1.2947
 1512TIP3   OH2 4499   1.021   1.579   0.484 -0.5742 -0.1874 -0.3679
 1512TIP3    H1 4500   1.011   1.669   0.516 -0.3931 -1.1188  2.6483
 1512TIP3    H2 4501   1.110   1.575   0.450 -0.4859  0.7094 -0.2563
 1513TIP3   OH2 4502   5.436   0.009   2.063  0.4852 -0.5453  0.4069
 1513TIP3    H1 4503   5.451   0.075   1.995  1.0888  0.0445  1.0959
 1513TIP3    H2 4504   5.341  -0.001   2.067  0.4177 -0.1195 -0.0813
 1514TIP3   OH2 4505   1.895   5.446   4.828 -0.2460 -0.1314 -0.1284
 1514TIP3    H1 4506   1.908   5.355   4.854 -0.1028 -0.2108 -0.4770
 1514TIP3    H2 4507   1.881   5.492   4.910  1.4202 -0.1756  0.2165
 1515TIP3   OH2 4508   4.385   5.930   1.584 -0.0386  0.1861  0.2790
 1515TIP3    H1 4509   4.438   5.865   1.539  2.1829  2.1602 -0.1559
 1515TIP3    H2 4510   4.392   6.009   1.530 -2.1820  0.9844  1.0542
 1516TIP3   OH2 4511   0.960   6.597   0.350 -0.1839  0.0950  0.4783
 1516TIP3    H1 4512   0.989   6.534   0.284  0.9125 -0.4430  1.4402
 1516TIP3    H2 4513   0.869   6.617   0.326 -0.2999 -1.2461 -0.2968
 1517TIP3   OH2 4514   2.079   0.079   1.199 -0.1004  0.0675 -0.3645
 1517TIP3    H1 4515   2.155   0.088   1.257 -1.0614 -2.5709  1.5230
 1517TIP3    H2 4516   2.103   0.006   1.140 -0.1756  0.9829 -1.5657
 1518TIP3   OH2 4517   5.345   1.311   1.733  0.1581 -0.2223  0.2638
 1518TIP3    H1 4518   5.341   1.267   1.818 -0.2331  0.8437  0.8325
 1518TIP3    H2 4519   5.257   1.347   1.722  0.2666 -0.1926 -0.5032
 1519TIP3   OH2 4520   4.427   3.551   0.042 -0.0562 -0.2954  0.1909
 1519TIP3    H1 4521   4.481   3.603   0.102  1.5165  0.5342 -1.8192
 1519TIP3    H2 4522   4.354   3.609   0.019 -0.4199 -0.4527  0.9021
 1520TIP3   OH2 4523   5.076   5.907   2.529 -1.2065 -0.1454 -0.1776
 1520TIP3    H1 4524   5.130   5.831   2.506 -0.3595  0.5167 -0.4452
 1520TIP3    H2 4525   5.105   5.932   2.617  1.3364  2.1726 -1.5145
 1521TIP3   OH2 4526   2.976   5.489   4.279 -0.4032 -0.0046 -0.2359
 1521TIP3    H1 4527   2.895   5.443   4.299  0.4195 -1.3687  0.0524
 1521TIP3    H2 4528   2.950   5.581   4.271 -1.8209 -0.2979  0.6996
 1522TIP3   OH2 4529   0.171   1.939   1.291  0.2695  0.3282 -0.0399
 1522TIP3    H1 4530   0.248   1.979   1.330 -0.5610  0.9101  1.0607
 1522TIP3    H2 4531   0.122   2.012   1.255 -0.8353  0.2472  1.2226
 1523TIP3   OH2 4532   1.660   2.074   2.345 -0.0354  0.0667 -0.0615
 1523TIP3    H1 4533   1.705   2.143   2.394 -2.4403  0.2258  2.1648
 1523TIP3    H2 4534   1.575   2.111   2.323 -1.9105 -2.3837  2.2703
 1524TIP3   OH2 4535   5.362   4.585   1.212  0.1956  0.4730  0.2997
 1524TIP3    H1 4536   5.290   4.642   1.240  0.3090  0.9323 -0.3338
 1524TIP3    H2 4537   5.423   4.644   1.169  0.0822 -0.2013 -0.8138
 1525TIP3   OH2 4538   2.680   3.005   0.940 -0.2060  0.7041 -0.5120
 1525TIP3    H1 4539   2.771   2.986   0.959 -0.1322  1.4117 -0.1339
 1525TIP3    H2 4540   2.644   2.922   0.908 -0.3401 -0.6018  2.6615
 1526TIP3   OH2 4541   0.657   1.350   4.617  0.2283  0.4333  0.1218
 1526TIP3    H1 4542   0.603   1.387   4.687 -0.5771  0.1945 -0.3560
 1526TIP3    H2 4543   0.609   1.370   4.537  1.3761  1.1184 -0.4126
 1527TIP3   OH2 4544   5.088   1.834   4.983  0.3663 -0.0728 -0.5980
 1527TIP3    H1 4545   5.010   1.882   5.011  0.3350 -0.2946 -0.2941
 1527TIP3    H2 4546   5.161   1.883   5.022  0.4880  0.9464 -2.0337
 1528TIP3   OH2 4547   2.042   2.052   4.137  0.3645  0.3278  0.0452
 1528TIP3    H1 4548   1.963   2.074   4.088  0.0209  0.8049  0.7892
 1528TIP3    H2 4549   2.062   1.962   4.112 -1.0500 -0.1822  0.6635
 1529TIP3   OH2 4550   4.583   0.371   4.896  0.5270 -0.5793  0.3504
 1529TIP3    H1 4551   4.515   0.322   4.851  1.2036  1.0862 -2.8193
 1529TIP3    H2 4552   4.651   0.306   4.916  0.7144 -1.2912 -2.2834
 1530TIP3   OH2 4553   2.383   0.018   2.831 -0.7501  0.4515  0.7603
 1530TIP3    H1 4554   2.459   0.007   2.773 -0.6754 -0.6739  1.0512
 1530TIP3    H2 4555   2.314   0.050   2.774 -0.4121  0.2535  0.2300
 1531TIP3   OH2 4556   4.487   5.746   1.951 -0.1834  0.1090 -0.2417
 1531TIP3    H1 4557   4.513   5.741   1.859 -1.6122 -0.9610 -0.6175
 1531TIP3    H2 4558   4.531   5.825   1.984  1.6148 -0.3357 -1.4072
 1532TIP3   OH2 4559   2.700   1.080   3.219  0.1889 -0.0948 -0.2685
 1532TIP3    H1 4560   2.620   1.030   3.235  0.4610 -0.4039  0.1374
 1532TIP3    H2 4561   2.679   1.169   3.247 -0.7285  0.3655 -2.2002
 1533TIP3   OH2 4562   3.799   2.313   5.310  0.4009 -0.3804  0.4143
 1533TIP3    H1 4563   3.812   2.254   5.384  0.3220 -1.4193 -0.3618
 1533TIP3    H2 4564   3.714   2.286   5.273  1.3919 -1.3717 -1.3054
 1534TIP3   OH2 4565   3.350   4.723   1.791  0.0136 -0.3467  0.5624
 1534TIP3    H1 4566   3.374   4.808   1.755 -1.6624  0.4337  1.1556
 1534TIP3    H2 4567   3.277   4.693   1.736 -0.9170 -0.3020  1.7092
 1535TIP3   OH2 4568   2.900   1.897   2.309  0.2498 -0.2302  0.4350
 1535TIP3    H1 4569   2.849   1.970   2.344  1.3749  1.5858 -1.4939
 1535TIP3    H2 4570   2.835   1.839   2.269 -0.5171  0.8572  0.0562
 1536TIP3   OH2 4571   2.534   0.206   3.668  0.5595  0.2983  0.9348
 1536TIP3    H1 4572   2.605   0.266   3.689  1.5664 -0.3596 -0.4476
 1536TIP3    H2 4573   2.570   0.147   3.601 -1.3687  0.1556 -0.0701
 1537TIP3   OH2 4574   5.686   3.943   5.036  0.2407  0.6977 -0.1533
 1537TIP3    H1 4575   5.609   3.964   5.089  0.6220  0.5757  0.4555
 1537TIP3    H2 4576   5.711   4.026   4.996  0.6276  1.0332  0.7625
 1538TIP3   OH2 4577   6.582   6.025   3.726 -0.7500  0.4566 -0.3064
 1538TIP3    H1 4578   6.520   6.044   3.796 -0.9289 -3.3243  0.7751
 1538TIP3    H2 4579   6.663   6.067   3.753 -1.1231  0.0231  1.6335
 1539TIP3   OH2 4580   3.077   2.489   1.343  0.0158 -0.7576 -0.1073
 1539TIP3    H1 4581   2.994   2.466   1.383  0.5242 -2.5283  0.0191
 1539TIP3    H2 4582   3.120   2.546   1.407 -0.4077 -1.1805  0.5643
 1540TIP3   OH2 4583   3.820   0.225   5.457  0.0677  0.0043 -0.0558
 1540TIP3    H1 4584   3.878   0.257   5.388  0.0455 -1.4426 -0.7774
 1540TIP3    H2 4585   3.841   0.132   5.465  1.0673  0.3824  2.8881
 1541TIP3   OH2 4586   3.612   3.872   1.851 -0.2608  0.3248  0.1843
 1541TIP3    H1 4587   3.621   3.933   1.778  0.4908  1.4185  1.1684
 1541TIP3    H2 4588   3.546   3.911   1.908 -0.2440 -0.1048  0.5062
 1542TIP3   OH2 4589   0.563   1.409   1.904 -0.3379 -0.0542 -0.1764
 1542TIP3    H1 4590   0.542   1.317   1.922 -0.2416 -0.3147 -1.2897
 1542TIP3    H2 4591   0.638   1.428   1.960  0.1885 -0.9282 -0.5590
 1543TIP3   OH2 4592   5.542   0.635   5.608 -0.0075  0.2346  0.9360
 1543TIP3    H1 4593   5.509   0.663   5.693 -0.4482  1.4707  0.3840
 1543TIP3    H2 4594   5.588   0.553   5.626 -0.7572  0.0634  2.2276
 1544TIP3   OH2 4595   0.939   6.645   3.097 -0.1360  0.3581 -0.4161
 1544TIP3    H1 4596   0.933   6.550   3.089  1.0934  0.3003 -0.7767
 1544TIP3    H2 4597   0.934   6.678   3.008 -2.5934  0.8108 -0.1945
 1545TIP3   OH2 4598   0.314   2.139   2.054 -0.4761 -0.2780  0.5410
 1545TIP3    H1 4599   0.378   2.072   2.029  0.2630  1.2367 -2.0296
 1545TIP3    H2 4600   0.252   2.140   1.981 -0.7815  1.4489  0.8001
 1546TIP3   OH2 4601   1.360   3.048   1.025 -0.7086 -0.5136  0.0622
 1546TIP3    H1 4602   1.431   3.093   1.071 -2.1026 -0.4324  2.2619
 1546TIP3    H2 4603   1.378   2.955   1.040 -0.3528 -0.5453 -0.5326
 1547TIP3   OH2 4604   2.534   2.427   2.240 -0.6178 -1.0290 -0.5100
 1547TIP3    H1 4605   2.609   2.376   2.271 -1.6167 -2.6053 -0.5170
 1547TIP3    H2 4606   2.515   2.488   2.311 -0.8833 -2.3888  0.6313
 1548TIP3   OH2 4607   4.965   5.119   0.962  0.1920  0.2110 -0.3072
 1548TIP3    H1 4608   5.061   5.120   0.957  0.2821  1.3652  1.0520
 1548TIP3    H2 4609   4.944   5.026   0.971  1.4020  0.0818  2.0532
 1549TIP3   OH2 4610   0.737   0.959   5.014  0.1786 -0.6102  0.1488
 1549TIP3    H1 4611   0.731   1.049   4.983 -2.5334 -0.0364  1.8905
 1549TIP3    H2 4612   0.815   0.957   5.069 -0.1836  0.9862  0.7771
 1550TIP3   OH2 4613   1.520   4.219   0.648  0.1038  0.3502  0.2896
 1550TIP3    H1 4614   1.475   4.303   0.650  0.1797  0.3736  1.4416
 1550TIP3    H2 4615   1.450   4.154   0.656  0.1513  0.3394  0.6063
 1551TIP3   OH2 4616   0.254   2.895   1.958  0.1512 -0.0260 -0.0483
 1551TIP3    H1 4617   0.244   2.884   2.052 -0.2373  0.3744 -0.0378
 1551TIP3    H2 4618   0.253   2.990   1.944  1.6688 -0.0272 -0.3122
 1552TIP3   OH2 4619   3.712   4.820   1.711 -0.1162 -0.7699  0.0275
 1552TIP3    H1 4620   3.629   4.847   1.672  0.1862  0.7780  0.4251
 1552TIP3    H2 4621   3.696   4.821   1.805  0.0854 -1.4157  0.0773
 1553TIP3   OH2 4622   5.571   6.392   0.552 -0.6609  0.2084  0.4674
 1553TIP3    H1 4623   5.512   6.328   0.592  1.6150 -0.8860  2.3036
 1553TIP3    H2 4624   5.630   6.340   0.498  0.2144  0.9368  0.6939
 1554TIP3   OH2 4625   6.142   4.091   2.217 -0.0225  0.1804 -0.6508
 1554TIP3    H1 4626   6.218   4.036   2.237  0.0373  0.1383 -0.9795
 1554TIP3    H2 4627   6.115   4.127   2.301 -1.2049 -1.7906 -0.1238
 1555TIP3   OH2 4628   3.966   0.002   0.304  0.0429 -0.5754  0.0020
 1555TIP3    H1 4629   3.944   0.077   0.360 -0.6215 -0.1559 -0.8039
 1555TIP3    H2 4630   3.881  -0.034   0.277  0.2784  0.5004 -2.4150
 1556TIP3   OH2 4631   5.514   4.316   3.591  0.6689  0.0042  0.2226
 1556TIP3    H1 4632   5.497   4.310   3.685 -2.5835 -1.2381 -0.3345
 1556TIP3    H2 4633   5.482   4.403   3.566 -1.0939 -0.7196 -0.1394
 1557TIP3   OH2 4634   6.515   1.154   0.925 -0.2280 -0.2002  0.2529
 1557TIP3    H1 4635   6.475   1.240   0.917  0.5315  0.0840 -0.6024
 1557TIP3    H2 4636   6.516   1.119   0.835  0.4001 -0.6680  0.4331
 1558TIP3   OH2 4637   3.883   0.135   1.582 -0.6802  0.6566 -0.5425
 1558TIP3    H1 4638   3.931   0.062   1.622 -1.0409  0.8948  0.3318
 1558TIP3    H2 4639   3.807   0.093   1.541 -0.5431  0.4688 -0.6093
 1559TIP3   OH2 4640   4.019   0.811   0.519 -0.9802  0.2966 -0.0171
 1559TIP3    H1 4641   3.929   0.835   0.494 -0.8958 -0.0762 -0.7128
 1559TIP3    H2 4642   4.031   0.724   0.482 -0.1326  0.5853 -0.4396
 1560TIP3   OH2 4643   2.274   3.985   5.752 -0.2944 -0.3939  0.3554
 1560TIP3    H1 4644   2.254   3.920   5.820 -0.7121 -0.7386 -0.0850
 1560TIP3    H2 4645   2.209   4.054   5.766 -0.2018 -0.3328  0.4824
 1561TIP3   OH2 4646   0.775   3.430   0.543  0.2805  0.0024 -0.3027
 1561TIP3    H1 4647   0.822   3.423   0.626  1.3376 -1.1056 -0.9498
 1561TIP3    H2 4648   0.691   3.388   0.559  0.6483 -0.5891  0.1028
 1562TIP3   OH2 4649   6.316   6.510   2.604 -0.8410  0.3706 -0.2925
 1562TIP3    H1 4650   6.409   6.517   2.622 -0.8367  0.1620 -0.2288
 1562TIP3    H2 4651   6.280   6.466   2.681 -0.9144  0.0091 -0.5284
 1563TIP3   OH2 4652   1.431   0.002   4.813  0.1623 -0.1417  0.5495
 1563TIP3    H1 4653   1.368   0.031   4.879 -1.2334  1.2632 -1.2970
 1563TIP3    H2 4654   1.476   0.083   4.786 -0.1937 -0.4664 -1.0905
 1564TIP3   OH2 4655   5.713   5.202   3.220  0.3735  0.5484  0.0851
 1564TIP3    H1 4656   5.803   5.234   3.215 -0.1483  2.2956  1.0600
 1564TIP3    H2 4657   5.680   5.211   3.130  0.6248  1.6712  0.0858
 1565TIP3   OH2 4658   0.378   4.645   2.782 -0.3262  0.3563  0.6307
 1565TIP3    H1 4659   0.443   4.579   2.762  0.0421  1.4511 -2.2414
 1565TIP3    H2 4660   0.421   4.728   2.763 -2.1120  1.1774 -0.0596
 1566TIP3   OH2 4661   5.484   0.034   4.163  0.8443 -0.4546  0.4858
 1566TIP3    H1 4662   5.574   0.010   4.187  0.3319 -2.2104  0.7691
 1566TIP3    H2 4663   5.430  -0.035   4.202 -0.4026 -1.0239 -2.0546
 1567TIP3   OH2 4664   3.184   1.237   2.867 -0.0890 -0.2556  0.1543
 1567TIP3    H1 4665   3.219   1.314   2.913  1.9068 -0.9177 -0.1675
 1567TIP3    H2 4666   3.189   1.260   2.774 -2.3446  0.3417  0.1084
 1568TIP3   OH2 4667   0.201   4.395   1.304 -0.0284  0.4574  0.6706
 1568TIP3    H1 4668   0.153   4.477   1.292 -0.8111 -0.0410  0.2913
 1568TIP3    H2 4669   0.174   4.363   1.390 -0.3113  0.2230  0.4965
 1569TIP3   OH2 4670   4.332   0.866   2.211 -0.2801  0.2714 -0.1126
 1569TIP3    H1 4671   4.411   0.836   2.256 -0.8655 -0.8245  0.2207
 1569TIP3    H2 4672   4.260   0.833   2.265 -0.9751  2.1664  0.1760
 1570TIP3   OH2 4673   1.902   4.616   0.379 -0.0130  0.1822  0.2347
 1570TIP3    H1 4674   1.937   4.531   0.406 -1.6516 -0.9693 -1.1038
 1570TIP3    H2 4675   1.851   4.646   0.455  1.0258  0.2642  0.9207
 1571TIP3   OH2 4676   1.416   6.575   1.241  0.4765 -0.2393  0.2053
 1571TIP3    H1 4677   1.384   6.643   1.182  2.1792 -0.2304 -0.7776
 1571TIP3    H2 4678   1.485   6.617   1.291 -0.2127 -0.5602  1.4643
 1572TIP3   OH2 4679   3.386   3.751   1.544 -0.0971  0.2048  0.2063
 1572TIP3    H1 4680   3.377   3.847   1.548  1.2060  0.4076 -1.0037
 1572TIP3    H2 4681   3.425   3.734   1.459 -1.0725 -1.4938  0.0619
 1573TIP3   OH2 4682   2.684   0.503   1.424 -0.2624 -0.3055 -0.6516
 1573TIP3    H1 4683   2.765   0.528   1.468 -0.4934 -1.1685  0.2927
 1573TIP3    H2 4684   2.614   0.541   1.478 -0.5136 -0.0655 -1.1347
 1574TIP3   OH2 4685   6.343   5.610   4.795 -0.4282 -0.2696  0.0007
 1574TIP3    H1 4686   6.273   5.547   4.810 -1.0570 -0.0571 -1.7216
 1574TIP3    H2 4687   6.297   5.690   4.768  0.3778  0.7584  1.5271
 1575TIP3   OH2 4688   6.239   1.002   2.551 -0.1589  0.1406 -0.1678
 1575TIP3    H1 4689   6.319   0.999   2.499 -0.8848 -2.1938 -1.2685
 1575TIP3    H2 4690   6.179   1.057   2.500  0.3381  0.9567  0.1032
 1576TIP3   OH2 4691   4.550   4.973   1.037 -0.7971 -0.2214  0.2242
 1576TIP3    H1 4692   4.553   4.990   1.131  0.2198 -0.5097  0.2528
 1576TIP3    H2 4693   4.599   5.046   0.998 -0.7630 -0.3824 -0.0391
 1577TIP3   OH2 4694   0.299   2.596   0.491 -0.9088  0.1332 -0.3976
 1577TIP3    H1 4695   0.228   2.583   0.553  1.2815 -0.4438  2.2012
 1577TIP3    H2 4696   0.318   2.690   0.495 -1.4115  0.2618 -0.9753
 1578TIP3   OH2 4697   3.503   5.307   5.475 -0.5773 -0.2558 -0.0397
 1578TIP3    H1 4698   3.520   5.286   5.566 -1.3677 -0.1557  0.1365
 1578TIP3    H2 4699   3.571   5.370   5.452 -1.0489  0.5850  0.8128
 1579TIP3   OH2 4700   1.616   1.444   4.406  0.2724  0.1239  0.6499
 1579TIP3    H1 4701   1.611   1.384   4.331 -0.8784  0.5706  0.3431
 1579TIP3    H2 4702   1.592   1.391   4.481  1.5990 -0.3699  0.7475
 1580TIP3   OH2 4703   2.266   3.006   5.496 -0.2544  0.2717  0.1392
 1580TIP3    H1 4704   2.277   3.019   5.590  0.1302  0.4258  0.0755
 1580TIP3    H2 4705   2.216   3.082   5.466  0.3314  0.6373  0.0845
 1581TIP3   OH2 4706   0.087   3.370   4.087 -0.0596  0.1980 -0.0193
 1581TIP3    H1 4707   0.045   3.332   4.010  0.1686 -2.0474  0.8656
 1581TIP3    H2 4708   0.152   3.430   4.052 -1.7961  1.3468 -1.4783
 1582TIP3   OH2 4709   6.604   6.712   1.094  0.0351 -0.0856  0.6484
 1582TIP3    H1 4710   6.604   6.808   1.091 -1.7120 -0.0207  1.5183
 1582TIP3    H2 4711   6.512   6.688   1.088  0.4471 -1.7216  0.4904
 1583TIP3   OH2 4712   2.489   2.305   1.505  0.0252 -0.1485 -0.2480
 1583TIP3    H1 4713   2.481   2.228   1.448 -0.6448 -0.3605  0.1274
 1583TIP3    H2 4714   2.454   2.377   1.453  0.8178 -0.0532 -0.6679
 1584TIP3   OH2 4715   1.539   1.727   3.135  0.0509 -0.2721  0.1144
 1584TIP3    H1 4716   1.469   1.765   3.189 -0.4029  0.1911 -0.7798
 1584TIP3    H2 4717   1.513   1.745   3.045  2.1449  1.3854 -0.2323
 1585TIP3   OH2 4718   4.166   5.376   3.913  0.0094 -0.3732  0.1902
 1585TIP3    H1 4719   4.239   5.425   3.950  0.0613 -0.4457  0.1832
 1585TIP3    H2 4720   4.154   5.414   3.826  2.1858 -2.5333 -1.1565
 1586TIP3   OH2 4721   0.388   1.629   1.858  0.2335 -0.2901 -0.8123
 1586TIP3    H1 4722   0.326   1.593   1.795 -0.9714 -2.3846  1.4101
 1586TIP3    H2 4723   0.434   1.553   1.894 -0.3223  0.5466  1.9791
 1587TIP3   OH2 4724   5.766   5.665   1.594 -0.1510 -0.3259  0.8388
 1587TIP3    H1 4725   5.815   5.595   1.638 -0.5731  0.1213  2.0850
 1587TIP3    H2 4726   5.830   5.707   1.537  1.6663  1.6394  4.0076
 1588TIP3   OH2 4727   7.056   0.662   1.344 -0.4758  0.3178  0.5660
 1588TIP3    H1 4728   7.060   0.595   1.413 -0.8173 -0.1671  0.1198
 1588TIP3    H2 4729   7.017   0.738   1.386  0.7519  0.5520  1.3301
 1589TIP3   OH2 4730   6.003   4.725   1.509 -0.1692 -0.4548  0.3915
 1589TIP3    H1 4731   5.924   4.706   1.560 -1.2624 -1.5742 -1.5780
 1589TIP3    H2 4732   5.992   4.816   1.480 -1.0160 -0.7659 -0.2982
 1590TIP3   OH2 4733   3.346   1.022   2.169 -0.3998  0.5972 -0.0264
 1590TIP3    H1 4734   3.434   1.059   2.171 -0.2158  0.2155 -0.8316
 1590TIP3    H2 4735   3.318   1.030   2.078 -0.2913 -1.3433 -0.2828
 1591TIP3   OH2 4736   6.484   0.815   4.084  0.1107  0.1143  0.0652
 1591TIP3    H1 4737   6.432   0.832   4.005 -0.9278  2.3627  1.1305
 1591TIP3    H2 4738   6.447   0.734   4.120  0.9060 -1.1905 -1.9330
 1592TIP3   OH2 4739   1.583   6.096   0.976  0.0979 -0.3454  0.3127
 1592TIP3    H1 4740   1.544   6.024   0.927 -0.1743  0.3212 -0.4790
 1592TIP3    H2 4741   1.673   6.068   0.992 -0.3832 -1.4403  1.2198
 1593TIP3   OH2 4742   3.473   1.699   2.247  0.6803  0.5340 -0.2423
 1593TIP3    H1 4743   3.411   1.770   2.231  1.5684  1.3244 -0.2444
 1593TIP3    H2 4744   3.535   1.705   2.174  0.7353 -0.2862 -0.2734
 1594TIP3   OH2 4745   2.156   4.091   2.498 -0.4904  0.0035  0.5438
 1594TIP3    H1 4746   2.104   4.049   2.430  0.1131 -0.7803  0.5403
 1594TIP3    H2 4747   2.139   4.038   2.576 -0.8336  0.6261  0.8956
 1595TIP3   OH2 4748   0.909   5.935   4.536  0.7201  0.8253  0.2566
 1595TIP3    H1 4749   0.976   5.873   4.561 -0.2194  0.3296  1.6524
 1595TIP3    H2 4750   0.838   5.920   4.598 -0.1704  2.1954 -0.3849
 1596TIP3   OH2 4751   6.383   3.203   4.345 -0.2401 -0.1268  0.2034
 1596TIP3    H1 4752   6.401   3.187   4.252 -1.2503 -0.0590 -0.0085
 1596TIP3    H2 4753   6.354   3.294   4.349  1.5433  0.4578  0.8535
 1597TIP3   OH2 4754   0.869   6.676   5.366 -0.5582 -0.6761  0.1801
 1597TIP3    H1 4755   0.899   6.703   5.453  0.4502 -0.2558 -0.2738
 1597TIP3    H2 4756   0.833   6.757   5.327  0.6121 -0.4304 -0.4335
 1598TIP3   OH2 4757   2.950   0.621   1.485 -0.1194  0.0082  0.6749
 1598TIP3    H1 4758   2.938   0.687   1.416 -0.4836 -2.0925 -1.4220
 1598TIP3    H2 4759   3.029   0.573   1.459 -0.5326 -1.1448  1.4549
 1599TIP3   OH2 4760   2.634   0.363   3.871  0.4174 -0.0970  0.5984
 1599TIP3    H1 4761   2.710   0.310   3.895  0.6553 -0.4566 -0.8478
 1599TIP3    H2 4762   2.657   0.452   3.897  0.8637 -0.3748  1.1788
 1600TIP3   OH2 4763   4.778   3.489   4.745  0.1209  0.1047  0.4338
 1600TIP3    H1 4764   4.712   3.431   4.709  0.1756  0.3621 -0.0935
 1600TIP3    H2 4765   4.783   3.561   4.682 -0.7642  1.2613  1.6303
 1601TIP3   OH2 4766   1.399   1.838   0.086 -0.7396 -0.4533  0.1959
 1601TIP3    H1 4767   1.399   1.751   0.126  0.4791 -0.6989 -0.3122
 1601TIP3    H2 4768   1.491   1.854   0.063 -0.7229  1.4942  1.4288
 1602TIP3   OH2 4769   4.616   6.290   1.956 -0.2006  0.5360  0.5755
 1602TIP3    H1 4770   4.701   6.250   1.937 -0.7491  0.0116 -0.9973
 1602TIP3    H2 4771   4.587   6.248   2.037  0.1325 -0.8261  0.0250
 1603TIP3   OH2 4772   3.739   3.800   4.814 -0.1133 -0.2485  0.6264
 1603TIP3    H1 4773   3.802   3.739   4.852  0.2211 -1.3323 -1.5286
 1603TIP3    H2 4774   3.793   3.872   4.780 -0.1191 -0.6167 -0.1889
 1604TIP3   OH2 4775   3.300   4.935   2.131  0.1718 -0.1309  0.1175
 1604TIP3    H1 4776   3.220   4.900   2.170  0.5940 -1.0842  0.1693
 1604TIP3    H2 4777   3.275   4.959   2.042  0.1552 -1.8564 -0.3863
 1605TIP3   OH2 4778   6.962   4.467   1.217  0.2693 -0.7707  0.5399
 1605TIP3    H1 4779   7.001   4.554   1.224  1.0429 -1.0436 -0.1215
 1605TIP3    H2 4780   6.974   4.428   1.303  2.0941 -1.0817  0.1834
 1606TIP3   OH2 4781   6.853   1.470   5.170 -0.5765  0.0294 -0.1792
 1606TIP3    H1 4782   6.947   1.488   5.164 -0.4802  0.1337  1.2213
 1606TIP3    H2 4783   6.848   1.380   5.202 -1.0118 -0.8220 -2.4190
 1607TIP3   OH2 4784   4.446   5.018   4.569 -0.0222  0.0965 -0.3436
 1607TIP3    H1 4785   4.353   5.013   4.590  0.1034  1.8911  0.9061
 1607TIP3    H2 4786   4.470   4.930   4.541 -2.0753 -0.4016 -0.6636
 1608TIP3   OH2 4787   1.063   3.537   5.418 -0.1947  0.0722 -0.7000
 1608TIP3    H1 4788   1.076   3.525   5.324  1.3654  0.8746 -0.6217
 1608TIP3    H2 4789   1.063   3.449   5.454  1.0251 -0.1673 -1.2480
 1609TIP3   OH2 4790   0.424   3.478   3.128 -0.0222 -0.1305  0.2100
 1609TIP3    H1 4791   0.436   3.480   3.033  1.0497  0.0838  0.3363
 1609TIP3    H2 4792   0.485   3.411   3.159 -1.6984 -1.5512  0.5896
 1610TIP3   OH2 4793   0.861   3.815   4.694 -0.4950  0.5368  0.4203
 1610TIP3    H1 4794   0.902   3.774   4.617  2.4152  1.6392  1.2458
 1610TIP3    H2 4795   0.845   3.905   4.667 -2.1657  0.2143  0.2363
 1611TIP3   OH2 4796   4.902   4.299   5.791 -0.5400 -0.0458  0.3547
 1611TIP3    H1 4797   4.925   4.353   5.867 -2.3567  0.5192  0.5416
 1611TIP3    H2 4798   4.903   4.209   5.825  0.0509  0.0743  0.6710
 1612TIP3   OH2 4799   2.963   0.981   3.831  0.2104 -0.2283 -0.0460
 1612TIP3    H1 4800   3.014   1.005   3.753  0.1950 -0.5271 -0.1494
 1612TIP3    H2 4801   2.990   0.891   3.850  0.1438 -0.1888  0.2387
 1613TIP3   OH2 4802   3.193   1.519   0.813 -0.0556  0.8349  0.0855
 1613TIP3    H1 4803   3.276   1.565   0.814 -0.9955  2.6352  1.5951
 1613TIP3    H2 4804   3.188   1.475   0.898  0.2645 -1.1425 -0.8454
 1614TIP3   OH2 4805   2.856   1.445   2.781  0.1763 -0.2780  0.5865
 1614TIP3    H1 4806   2.872   1.424   2.873  1.0292 -1.7208  0.1407
 1614TIP3    H2 4807   2.926   1.506   2.758  1.2810 -1.5937  0.3492
 1615TIP3   OH2 4808   0.968   3.247   3.349 -0.0708 -0.1328 -0.1898
 1615TIP3    H1 4809   1.021   3.241   3.428 -0.7300  0.0004  0.2677
 1615TIP3    H2 4810   1.027   3.282   3.283  0.1762  0.8590  0.5378
 1616TIP3   OH2 4811   0.607   1.881   5.464  0.4933 -0.6534  0.4089
 1616TIP3    H1 4812   0.675   1.873   5.397  0.5443 -0.3001  0.4192
 1616TIP3    H2 4813   0.560   1.797   5.460 -0.7873  0.0879 -1.4862
 1617TIP3   OH2 4814   4.021   3.554   5.581 -0.6598  0.1502 -0.4805
 1617TIP3    H1 4815   4.061   3.524   5.499 -0.2679  1.1659 -0.6756
 1617TIP3    H2 4816   4.085   3.615   5.617 -0.2082 -1.2760  1.2750
 1618TIP3   OH2 4817   0.376   3.593   5.446 -0.0430 -0.3377 -0.1846
 1618TIP3    H1 4818   0.322   3.557   5.375 -1.0100  3.0807 -1.3637
 1618TIP3    H2 4819   0.315   3.605   5.519 -0.0745  0.2041 -0.2962
 1619TIP3   OH2 4820   3.102   5.863   1.375  0.6230  0.5098  0.1729
 1619TIP3    H1 4821   3.180   5.831   1.329 -0.0775  0.0568 -0.7396
 1619TIP3    H2 4822   3.053   5.911   1.308  0.4403  1.3726  0.9079
 1620TIP3   OH2 4823   0.502   4.836   4.501  0.0533  0.2139  0.1047
 1620TIP3    H1 4824   0.577   4.895   4.493 -0.6705  1.0387 -0.6738
 1620TIP3    H2 4825   0.532   4.768   4.563  2.0970 -0.5223 -1.5831
 1621TIP3   OH2 4826   4.255   2.371   1.972 -0.0898  0.3740 -0.4196
 1621TIP3    H1 4827   4.326   2.336   2.025 -1.8077 -0.1497  1.6804
 1621TIP3    H2 4828   4.254   2.465   1.992 -1.1801  0.0755  1.1877
 1622TIP3   OH2 4829   4.150   0.700   2.863 -0.2022  0.5018  0.0766
 1622TIP3    H1 4830   4.170   0.731   2.952 -1.4787 -1.6144  1.1665
 1622TIP3    H2 4831   4.106   0.774   2.821 -0.6107  1.1536  1.5905
 1623TIP3   OH2 4832   3.024   5.883   1.650  0.0522 -0.0414 -0.2555
 1623TIP3    H1 4833   2.929   5.888   1.662  0.0181 -2.5202  1.2385
 1623TIP3    H2 4834   3.037   5.892   1.556 -1.8824 -1.4858 -0.7368
 1624TIP3   OH2 4835   2.997   2.803   4.468 -0.1823  0.4992 -0.0743
 1624TIP3    H1 4836   2.963   2.781   4.555  2.4186 -1.0983  0.6387
 1624TIP3    H2 4837   3.083   2.841   4.484 -0.1580  1.3570 -1.9221
 1625TIP3   OH2 4838   6.323   4.977   3.034 -0.1245 -0.5968  0.0691
 1625TIP3    H1 4839   6.265   4.978   3.111  0.3882 -0.7017  0.4642
 1625TIP3    H2 4840   6.268   5.009   2.963 -0.8661 -1.2908  0.2973
 1626TIP3   OH2 4841   0.173   5.150   1.745  0.5076  0.4171  0.0182
 1626TIP3    H1 4842   0.250   5.105   1.710  0.4835 -0.6717  1.2772
 1626TIP3    H2 4843   0.181   5.141   1.840 -2.0886 -1.4303  0.1687
 1627TIP3   OH2 4844   1.306   0.298   1.398  0.0945  0.7269  0.0037
 1627TIP3    H1 4845   1.393   0.337   1.407 -0.2919  1.2629  1.8377
 1627TIP3    H2 4846   1.296   0.244   1.476 -0.8391 -0.1500 -0.6995
 1628TIP3   OH2 4847   1.747   3.571   5.085  0.3633  0.4272  0.3256
 1628TIP3    H1 4848   1.757   3.636   5.016  0.1802 -0.7524 -0.8543
 1628TIP3    H2 4849   1.772   3.489   5.044 -2.3150 -0.7435  0.8079
 1629TIP3   OH2 4850   6.615   4.094   0.908 -0.2398  0.5446 -0.7785
 1629TIP3    H1 4851   6.697   4.097   0.958 -1.9543  1.9196  2.2110
 1629TIP3    H2 4852   6.567   4.020   0.944 -1.1653  1.0370 -0.9649
 1630TIP3   OH2 4853   2.746   2.395   4.190 -0.3412  0.1049  0.0072
 1630TIP3    H1 4854   2.672   2.379   4.248 -0.3728  1.3954  0.3715
 1630TIP3    H2 4855   2.767   2.488   4.204  0.1764  0.2267 -1.4490
 1631TIP3   OH2 4856   4.535   6.447   3.722 -0.2449  0.1567  0.0538
 1631TIP3    H1 4857   4.576   6.386   3.783 -0.7843 -0.1801  0.0814
 1631TIP3    H2 4858   4.446   6.414   3.711 -0.2360  0.3700 -0.7031
 1632TIP3   OH2 4859   5.214   4.501   2.151 -0.2682  0.5692  0.4953
 1632TIP3    H1 4860   5.184   4.532   2.066 -0.5918 -0.0493  0.3818
 1632TIP3    H2 4861   5.190   4.571   2.212  0.5271  1.2981  0.0007
 1633TIP3   OH2 4862   1.182   5.554   3.732 -0.2840 -0.0743 -0.6604
 1633TIP3    H1 4863   1.270   5.578   3.703  0.1506 -1.6303 -0.7395
 1633TIP3    H2 4864   1.173   5.594   3.818  0.5585 -0.0214 -0.5899
 1634TIP3   OH2 4865   0.429   5.830   3.226  0.5170  0.1594  0.1289
 1634TIP3    H1 4866   0.464   5.754   3.273  2.3019  1.6253  1.3233
 1634TIP3    H2 4867   0.420   5.898   3.293 -2.8598  0.5412 -0.5121
 1635TIP3   OH2 4868   5.377   6.663   5.365  0.2640 -0.4100  0.3411
 1635TIP3    H1 4869   5.359   6.600   5.294  1.1626 -0.9557  0.5833
 1635TIP3    H2 4870   5.318   6.636   5.436  0.8632 -1.1988  0.5607
 1636TIP3   OH2 4871   4.756   6.503   0.793 -0.2742  0.3080 -0.1115
 1636TIP3    H1 4872   4.809   6.488   0.715 -0.2871  1.4679 -0.3575
 1636TIP3    H2 4873   4.750   6.598   0.801 -1.1349  0.2056  0.7214
 1637TIP3   OH2 4874   6.327   0.317   2.482  0.1024  0.2086 -0.4643
 1637TIP3    H1 4875   6.342   0.411   2.496  0.1978  0.2114 -0.5855
 1637TIP3    H2 4876   6.356   0.276   2.563  3.2690 -0.0403 -1.6050
 1638TIP3   OH2 4877   2.550   3.125   3.786 -0.1519 -0.1783 -0.1184
 1638TIP3    H1 4878   2.621   3.091   3.840  0.5031 -0.2932 -1.0224
 1638TIP3    H2 4879   2.551   3.219   3.801  1.4905  0.0980 -1.5586
 1639TIP3   OH2 4880   2.680   5.827   3.899  0.3247  0.2521  1.1214
 1639TIP3    H1 4881   2.752   5.882   3.929  0.6672  0.2848  0.2576
 1639TIP3    H2 4882   2.654   5.865   3.815  0.1609 -0.5374  0.8074
 1640TIP3   OH2 4883   6.433   1.071   5.611 -0.0509 -0.0952  0.0897
 1640TIP3    H1 4884   6.363   1.029   5.661  1.2860 -0.9113  1.3863
 1640TIP3    H2 4885   6.493   0.999   5.589  0.9348  0.7305 -0.0060
 1641TIP3   OH2 4886   3.117   6.019   5.817  0.0683  0.0333 -0.4317
 1641TIP3    H1 4887   3.151   5.952   5.757 -1.6359 -0.1752 -1.2200
 1641TIP3    H2 4888   3.195   6.065   5.847  1.3375 -2.3236  0.2017
 1642TIP3   OH2 4889   4.653   1.179   0.086 -0.2822 -0.1483 -0.0806
 1642TIP3    H1 4890   4.734   1.219   0.054 -0.4188 -0.5230 -0.8997
 1642TIP3    H2 4891   4.645   1.211   0.176  2.1460 -2.1347  0.9704
 1643TIP3   OH2 4892   5.096   1.999   0.218  0.0558 -0.7543  0.1771
 1643TIP3    H1 4893   5.006   1.991   0.186 -0.0954 -2.4973  0.9462
 1643TIP3    H2 4894   5.126   2.084   0.185 -1.9161 -0.0727  0.0462
 1644TIP3   OH2 4895   1.884   3.201   1.649  0.4506  0.3670 -0.1782
 1644TIP3    H1 4896   1.861   3.112   1.675  0.7798  0.8119  1.7978
 1644TIP3    H2 4897   1.835   3.216   1.568  1.5121 -2.0851 -1.3737
 1645TIP3   OH2 4898   0.133   1.022   5.147  0.0526 -0.7560 -0.2927
 1645TIP3    H1 4899   0.206   1.005   5.088  1.3224 -0.4341  1.1241
 1645TIP3    H2 4900   0.170   1.012   5.235 -0.7289  2.6536  0.5814
 1646TIP3   OH2 4901   6.079   2.899   1.048  0.6434  0.1648 -0.0241
 1646TIP3    H1 4902   6.092   2.958   1.123  2.6302 -1.7669  1.2589
 1646TIP3    H2 4903   6.098   2.954   0.971  1.4684  1.4709  1.0634
 1647TIP3   OH2 4904   6.347   0.609   0.477 -0.2596 -0.1981  0.7767
 1647TIP3    H1 4905   6.316   0.528   0.516 -0.4784 -1.2328 -1.4067
 1647TIP3    H2 4906   6.285   0.628   0.407  2.3709 -0.8600 -1.9530
 1648TIP3   OH2 4907   6.746   5.834   4.396 -0.4336  0.4897  0.0904
 1648TIP3    H1 4908   6.663   5.821   4.440 -0.1623 -2.5298 -0.1101
 1648TIP3    H2 4909   6.731   5.806   4.306  0.5667  0.7811 -0.1884
 1649TIP3   OH2 4910   3.930   2.848   4.913  0.6743  0.1538 -0.5256
 1649TIP3    H1 4911   3.866   2.871   4.846 -0.9951  1.2715  1.3842
 1649TIP3    H2 4912   3.879   2.814   4.986  2.4681 -1.3881  0.1042
 1650TIP3   OH2 4913   5.285   5.640   3.560 -0.4111 -0.5922 -0.0225
 1650TIP3    H1 4914   5.332   5.606   3.636  0.4488 -0.4571 -0.4938
 1650TIP3    H2 4915   5.207   5.583   3.554 -1.8185  0.8675  2.4040
 1651TIP3   OH2 4916   3.979   0.526   4.087 -0.6263  0.0577  0.1244
 1651TIP3    H1 4917   4.049   0.461   4.084 -1.1526 -0.5116 -2.6498
 1651TIP3    H2 4918   3.901   0.476   4.113 -0.7898 -0.1945 -0.8196
 1652TIP3   OH2 4919   2.557   6.759   5.367 -0.6037 -0.4673  0.3188
 1652TIP3    H1 4920   2.495   6.751   5.294 -1.5198 -1.2398  1.1444
 1652TIP3    H2 4921   2.643   6.762   5.325 -1.2072  2.1464 -0.9657
 1653TIP3   OH2 4922   5.410   3.823   4.581  1.0533 -0.0127  0.0813
 1653TIP3    H1 4923   5.377   3.736   4.559 -2.8811  1.4407 -0.6599
 1653TIP3    H2 4924   5.415   3.823   4.677  2.0865 -1.3110  0.0491
 1654TIP3   OH2 4925   1.163   3.687   2.706  0.5229 -0.1095  0.7511
 1654TIP3    H1 4926   1.160   3.594   2.728 -1.3700 -0.1217  0.5456
 1654TIP3    H2 4927   1.170   3.689   2.611  1.6830 -0.0094  0.8144
 1655TIP3   OH2 4928   6.743   0.917   1.683 -0.2303 -0.1002  0.4593
 1655TIP3    H1 4929   6.666   0.902   1.627  0.7849  0.7263 -1.2541
 1655TIP3    H2 4930   6.782   0.830   1.693 -1.4292 -0.5628  1.4953
 1656TIP3   OH2 4931   4.073   0.346   1.590  0.4160  0.0322 -0.3623
 1656TIP3    H1 4932   4.046   0.405   1.520 -1.2112  1.6426  1.4678
 1656TIP3    H2 4933   4.002   0.281   1.595 -0.0154  0.5376  0.3982
 1657TIP3   OH2 4934   5.780   2.489   1.848  0.1412  0.0182 -0.2391
 1657TIP3    H1 4935   5.708   2.435   1.816  1.3322 -1.8842  0.1163
 1657TIP3    H2 4936   5.798   2.550   1.777  0.1856 -1.5255 -1.6031
 1658TIP3   OH2 4937   6.416   4.628   4.220  0.1173  0.8270 -0.1059
 1658TIP3    H1 4938   6.410   4.704   4.162 -3.0015  0.5575 -0.2868
 1658TIP3    H2 4939   6.326   4.598   4.231  1.0500 -1.8235  1.3744
 1659TIP3   OH2 4940   4.566   3.939   2.128 -0.2253  0.2802  0.4701
 1659TIP3    H1 4941   4.617   3.929   2.208  0.7774  0.0551 -0.1816
 1659TIP3    H2 4942   4.480   3.904   2.150  0.7544 -2.1602  0.7371
 1660TIP3   OH2 4943   6.290   5.880   5.278 -0.5060 -0.5983 -0.1985
 1660TIP3    H1 4944   6.311   5.876   5.184  0.0999  0.3545 -0.1225
 1660TIP3    H2 4945   6.289   5.973   5.298 -0.7587 -0.7896  0.7207
 1661TIP3   OH2 4946   1.378   3.839   3.329 -0.7436 -0.5961 -0.1840
 1661TIP3    H1 4947   1.283   3.829   3.336 -0.6567 -1.8246 -0.5512
 1661TIP3    H2 4948   1.412   3.751   3.343  0.4958  0.1815  2.1524
 1662TIP3   OH2 4949   3.471   1.135   3.074  0.1659  0.0078 -0.5608
 1662TIP3    H1 4950   3.552   1.181   3.096  1.8594 -2.2181 -1.6859
 1662TIP3    H2 4951   3.437   1.105   3.158  1.6750 -0.7919 -0.1998
 1663TIP3   OH2 4952   2.582   1.870   5.376  0.2837 -0.6567 -0.0155
 1663TIP3    H1 4953   2.489   1.890   5.372  0.6296  0.8044 -2.3590
 1663TIP3    H2 4954   2.588   1.794   5.435 -1.9666  1.3113  3.0743
 1664TIP3   OH2 4955   1.409   0.446   2.654 -0.2997  0.0570  0.6156
 1664TIP3    H1 4956   1.500   0.415   2.648 -0.2209  0.3657  0.1783
 1664TIP3    H2 4957   1.414   0.521   2.713 -0.2953 -0.0300  0.7252
 1665TIP3   OH2 4958   5.311   1.425   5.236 -0.3478  0.2524 -0.3480
 1665TIP3    H1 4959   5.300   1.512   5.275 -0.0938  0.3399 -0.4672
 1665TIP3    H2 4960   5.327   1.367   5.311 -0.3045  0.3453 -0.2852
 1666TIP3   OH2 4961   4.658   3.247   4.689  0.5733 -0.2279  0.0535
 1666TIP3    H1 4962   4.673   3.159   4.725  1.5440 -0.7778 -1.5952
 1666TIP3    H2 4963   4.717   3.253   4.614  0.8439  2.0283  0.3829
 1667TIP3   OH2 4964   4.375   1.352   0.419  0.9805 -0.1195  0.1669
 1667TIP3    H1 4965   4.406   1.414   0.485  0.3135  0.3895  0.0159
 1667TIP3    H2 4966   4.280   1.347   0.434  0.9706 -0.8226 -0.0643
 1668TIP3   OH2 4967   6.757   0.199   3.038  0.0934 -0.7516  0.3058
 1668TIP3    H1 4968   6.702   0.134   3.081  0.0725 -0.1735  1.1728
 1668TIP3    H2 4969   6.841   0.194   3.084  1.1313 -2.2635 -1.5736
 1669TIP3   OH2 4970   0.580   4.223   1.749  0.0153  0.0624  0.1368
 1669TIP3    H1 4971   0.501   4.231   1.695 -0.1775  0.0007  0.4064
 1669TIP3    H2 4972   0.648   4.197   1.688 -0.0952  0.4677 -0.1625
 1670TIP3   OH2 4973   0.168   5.509   5.124  0.4233 -0.4276  0.4529
 1670TIP3    H1 4974   0.122   5.445   5.178  1.3096 -1.2716  0.2472
 1670TIP3    H2 4975   0.106   5.533   5.055  0.6753 -2.5226 -0.5899
 1671TIP3   OH2 4976   2.065   1.381   4.991 -0.0400  0.0678  0.2587
 1671TIP3    H1 4977   2.137   1.433   4.956  0.1263 -0.6918 -0.5359
 1671TIP3    H2 4978   2.074   1.295   4.951  0.3944 -0.9844  2.4486
 1672TIP3   OH2 4979   1.105   0.031   0.191 -0.3965  0.0074  0.3660
 1672TIP3    H1 4980   1.024   0.025   0.139  0.6657  1.9140 -1.6647
 1672TIP3    H2 4981   1.078   0.008   0.279 -3.0908  0.2068 -0.3060
 1673TIP3   OH2 4982   1.247   1.624   1.049 -0.2488 -0.4262  0.1326
 1673TIP3    H1 4983   1.268   1.540   1.008  0.5866 -0.4229  0.5210
 1673TIP3    H2 4984   1.260   1.609   1.143 -1.2965 -0.1973  0.3273
 1674TIP3   OH2 4985   6.758   1.784   2.120  0.6027  0.0363 -0.5144
 1674TIP3    H1 4986   6.722   1.865   2.084 -1.3134 -0.5132  0.0271
 1674TIP3    H2 4987   6.753   1.796   2.215 -2.5680 -1.7464 -0.2942
 1675TIP3   OH2 4988   6.626   2.350   4.511 -0.2151  0.3065  0.2615
 1675TIP3    H1 4989   6.564   2.356   4.583  0.1526 -1.3814  0.7889
 1675TIP3    H2 4990   6.711   2.367   4.552  0.0896 -1.4371  0.4727
 1676TIP3   OH2 4991   4.691   2.899   1.233  0.2661 -0.6111 -0.3257
 1676TIP3    H1 4992   4.722   2.976   1.186  0.3443 -1.0482 -1.0108
 1676TIP3    H2 4993   4.620   2.931   1.289 -0.0546 -0.1369 -0.9934
 1677TIP3   OH2 4994   5.699   5.705   4.948  0.4514 -0.2619  0.0004
 1677TIP3    H1 4995   5.665   5.732   5.033  0.9338  0.8805 -0.1542
 1677TIP3    H2 4996   5.677   5.612   4.942 -0.5819 -0.0944  0.8840
 1678TIP3   OH2 4997   0.973   2.465   4.996  0.1092 -0.0656  0.0775
 1678TIP3    H1 4998   1.012   2.552   4.984  0.0068  0.0343  0.4736
 1678TIP3    H2 4999   1.046   2.404   4.984 -0.1334 -0.0315 -1.9524
 1679TIP3   OH2 5000   6.287   2.155   1.978  0.1828  0.2746  0.1591
 1679TIP3    H1 5001   6.261   2.246   1.964  0.1717  0.3381  0.5824
 1679TIP3    H2 5002   6.380   2.153   1.959 -0.2358 -0.1008 -2.0720
 1680TIP3   OH2 5003   6.218   0.489   0.852  0.4168  0.0842  0.2069
 1680TIP3    H1 5004   6.169   0.552   0.798  0.8895  0.4460  0.1944
 1680TIP3    H2 5005   6.274   0.544   0.907  0.2993 -0.3029  0.7208
 1681TIP3   OH2 5006   2.092   6.234   3.076  0.6375  0.7016 -0.0081
 1681TIP3    H1 5007   2.024   6.259   3.139  1.2281  1.2678  0.4199
 1681TIP3    H2 5008   2.150   6.177   3.126 -0.3878 -1.1109 -0.8206
 1682TIP3   OH2 5009   2.494   3.580   4.574  0.1206 -0.2612  0.3134
 1682TIP3    H1 5010   2.458   3.640   4.509 -1.8549  0.6709  2.1367
 1682TIP3    H2 5011   2.429   3.510   4.581 -0.1788  0.1355  1.8938
 1683TIP3   OH2 5012   3.647   6.365   2.210  0.2285 -0.1266 -0.5491
 1683TIP3    H1 5013   3.555   6.351   2.186 -0.0465  1.2019 -0.3181
 1683TIP3    H2 5014   3.697   6.317   2.143 -0.5536  2.0346 -2.7959
 1684TIP3   OH2 5015   0.978   1.578   4.877 -0.5689 -0.4561  0.1285
 1684TIP3    H1 5016   1.060   1.587   4.828 -1.2664 -2.4690 -1.6261
 1684TIP3    H2 5017   0.919   1.643   4.838 -0.7947 -1.3330 -1.0615
 1685TIP3   OH2 5018   4.730   3.437   0.923  0.4124  0.7773 -0.3794
 1685TIP3    H1 5019   4.680   3.385   0.861 -2.0847  1.3554  0.9930
 1685TIP3    H2 5020   4.722   3.390   1.006  0.7288  1.7660  0.2330
 1686TIP3   OH2 5021   5.466   3.083   0.008  0.4523  0.1747  0.2640
 1686TIP3    H1 5022   5.508   2.998   0.021  1.5794  0.7931  0.7633
 1686TIP3    H2 5023   5.416   3.097   0.089  0.8788  0.3253  0.5034
 1687TIP3   OH2 5024   3.614   4.242   0.675 -0.1102  0.4031  0.4589
 1687TIP3    H1 5025   3.613   4.317   0.734 -1.7487  2.4478 -1.9231
 1687TIP3    H2 5026   3.680   4.264   0.609 -1.6546  0.6081 -1.1230
 1688TIP3   OH2 5027   5.043   3.868   1.337 -0.6205 -0.0734  0.0932
 1688TIP3    H1 5028   5.128   3.826   1.348 -1.1290 -0.9430  0.8283
 1688TIP3    H2 5029   5.003   3.865   1.424 -0.0798  3.3361  0.6204
 1689TIP3   OH2 5030   3.702   4.265   2.188  0.2756 -0.3759 -0.4355
 1689TIP3    H1 5031   3.792   4.270   2.220  0.3617  1.1327 -0.8402
 1689TIP3    H2 5032   3.711   4.244   2.095  0.1638 -0.9668 -0.3202
 1690TIP3   OH2 5033   6.666   0.523   3.893  0.0091 -0.4975  0.4746
 1690TIP3    H1 5034   6.618   0.440   3.886 -1.7628  0.5565 -0.4994
 1690TIP3    H2 5035   6.680   0.551   3.803  1.1645 -0.0196  0.7828
 1691TIP3   OH2 5036   6.485   1.953   4.484  0.3118 -0.7316 -0.3265
 1691TIP3    H1 5037   6.559   1.983   4.536 -0.9712  0.4396  0.9236
 1691TIP3    H2 5038   6.469   2.024   4.421 -3.4826  2.2017  3.4122
 1692TIP3   OH2 5039   0.083   0.570   4.244 -0.1825 -0.0885 -0.2785
 1692TIP3    H1 5040   0.048   0.539   4.161 -0.0170  0.8791 -0.7121
 1692TIP3    H2 5041   0.104   0.662   4.230  0.2653 -0.0213  0.7017
 1693TIP3   OH2 5042   3.762   5.398   0.555 -0.2245 -0.4429 -0.2583
 1693TIP3    H1 5043   3.825   5.332   0.529 -2.4293 -2.7354 -0.1701
 1693TIP3    H2 5044   3.800   5.481   0.525  2.6309 -1.7023 -0.4068
 1694TIP3   OH2 5045   2.794   3.362   4.669  0.2042 -0.0050  0.3882
 1694TIP3    H1 5046   2.782   3.414   4.590  0.5685 -0.2283  0.1872
 1694TIP3    H2 5047   2.719   3.302   4.669 -0.4291  0.7493  0.8173
 1695TIP3   OH2 5048   4.657   0.993   0.783  0.1671 -0.4012  0.3397
 1695TIP3    H1 5049   4.739   0.960   0.820  0.7382  2.4575  1.8831
 1695TIP3    H2 5050   4.682   1.072   0.736 -1.6337  0.1353  0.2273
 1696TIP3   OH2 5051   1.600   3.123   0.811  0.4497  0.0839 -0.4214
 1696TIP3    H1 5052   1.532   3.057   0.796  0.2719  0.2910 -0.5340
 1696TIP3    H2 5053   1.661   3.112   0.738  0.6428 -0.2285 -0.2188
 1697TIP3   OH2 5054   4.588   3.291   1.144 -0.5208 -0.5109  0.5507
 1697TIP3    H1 5055   4.595   3.301   1.239  0.8011  0.1734  0.4153
 1697TIP3    H2 5056   4.503   3.328   1.122 -0.0492  1.0939  1.2817
 1698TIP3   OH2 5057   2.085   1.479   5.664  0.1080 -0.0326  0.3041
 1698TIP3    H1 5058   2.098   1.438   5.750 -0.5279 -1.7842 -0.3862
 1698TIP3    H2 5059   2.150   1.549   5.661  0.4864 -0.2505  2.0077
 1699TIP3   OH2 5060   3.361   3.663   4.731 -0.6169 -0.9282 -0.4144
 1699TIP3    H1 5061   3.284   3.609   4.711 -1.4517  0.2829 -0.5612
 1699TIP3    H2 5062   3.414   3.660   4.651  0.0180 -2.5836  0.0285
 1700TIP3   OH2 5063   6.271   3.311   2.701 -0.2282  0.5231 -0.0537
 1700TIP3    H1 5064   6.305   3.393   2.738 -1.1620  0.1975  1.6252
 1700TIP3    H2 5065   6.183   3.304   2.736  0.4269 -2.0683  1.3149
 1701TIP3   OH2 5066   4.439   4.655   1.942 -0.3080 -0.0833 -0.4107
 1701TIP3    H1 5067   4.508   4.594   1.914 -0.3725 -0.3251 -0.0407
 1701TIP3    H2 5068   4.385   4.604   2.003 -0.3834  0.3371 -0.1292
 1702TIP3   OH2 5069   0.573   1.854   0.448  0.6372  0.1961 -0.7333
 1702TIP3    H1 5070   0.551   1.800   0.372  1.0606 -2.0649  0.6514
 1702TIP3    H2 5071   0.565   1.944   0.417 -1.1983 -0.6156 -2.8831
 1703TIP3   OH2 5072   6.992   5.322   5.851  0.1763  0.0351 -0.0978
 1703TIP3    H1 5073   6.966   5.231   5.839  0.4369 -0.2179  1.1376
 1703TIP3    H2 5074   6.919   5.373   5.815 -0.2060 -0.6578 -0.3186
 1704TIP3   OH2 5075   4.043   3.226   0.436 -0.3993  0.7106 -0.2986
 1704TIP3    H1 5076   4.044   3.138   0.398  0.7462  0.1695  0.9076
 1704TIP3    H2 5077   4.094   3.279   0.376  1.0127 -0.0353  0.1993
 1705TIP3   OH2 5078   6.578   2.300   0.045  0.6581  0.1533  0.1038
 1705TIP3    H1 5079   6.564   2.249  -0.034 -0.3165  2.5368 -1.3904
 1705TIP3    H2 5080   6.492   2.337   0.065  0.9330 -0.2002  2.1834
 1706TIP3   OH2 5081   1.731   6.462   3.860 -0.6674 -0.1638 -0.6835
 1706TIP3    H1 5082   1.671   6.393   3.830  0.7623 -2.0257  0.4931
 1706TIP3    H2 5083   1.694   6.489   3.945  0.3330 -1.6762  0.2898
 1707TIP3   OH2 5084   4.686   6.702   5.761  0.3226  0.4192 -0.2441
 1707TIP3    H1 5085   4.756   6.689   5.697  1.7418 -2.4239  1.6890
 1707TIP3    H2 5086   4.728   6.750   5.833 -0.2654  0.4309  0.0977
 1708TIP3   OH2 5087   5.614   4.555   2.300  0.3049 -1.2064 -0.7453
 1708TIP3    H1 5088   5.553   4.541   2.373 -2.0274  0.7999 -2.1533
 1708TIP3    H2 5089   5.595   4.482   2.240 -2.0668  0.2254 -1.9125
 1709TIP3   OH2 5090   6.090   1.136   5.602  0.0901 -0.0569 -0.1006
 1709TIP3    H1 5091   5.994   1.139   5.594 -0.0133  1.3728  1.0439
 1709TIP3    H2 5092   6.105   1.086   5.682  0.2764  0.0786 -0.0520
 1710TIP3   OH2 5093   5.395   2.198   4.515 -0.3011 -0.6880  0.6344
 1710TIP3    H1 5094   5.308   2.176   4.549 -1.4088 -0.8259 -1.9936
 1710TIP3    H2 5095   5.419   2.122   4.461  0.8317 -0.0595  0.2295
 1711TIP3   OH2 5096   1.986   6.661   0.928  0.0523 -0.1711  0.3004
 1711TIP3    H1 5097   1.998   6.619   0.843  1.7460 -1.8950  1.3051
 1711TIP3    H2 5098   1.897   6.636   0.954  0.0811 -0.9210 -0.2883
 1712TIP3   OH2 5099   6.667   2.937   4.393  0.2121  0.1042 -0.0973
 1712TIP3    H1 5100   6.613   2.908   4.320 -1.0680  0.7311  0.5635
 1712TIP3    H2 5101   6.638   3.027   4.410  0.3793 -0.0785  1.2621
 1713TIP3   OH2 5102   3.522   0.835   0.212 -0.4596 -0.5476  0.0973
 1713TIP3    H1 5103   3.555   0.854   0.124 -0.2598  0.6544  0.4023
 1713TIP3    H2 5104   3.584   0.773   0.248 -1.2351 -2.0406 -1.0421
 1714TIP3   OH2 5105   3.911   0.770   4.733 -0.0436  0.1544 -0.4370
 1714TIP3    H1 5106   3.841   0.799   4.674 -0.3406  2.0852  0.7837
 1714TIP3    H2 5107   3.865   0.724   4.803  0.2530 -1.5335 -1.2965
 1715TIP3   OH2 5108   6.724   2.481   3.087  0.0673  0.0233 -0.1928
 1715TIP3    H1 5109   6.761   2.566   3.113  0.1667 -0.1654  0.2740
 1715TIP3    H2 5110   6.700   2.439   3.169 -2.4543  0.6969 -0.5002
 1716TIP3   OH2 5111   1.804   2.240   4.424 -0.0643  0.1453  0.2482
 1716TIP3    H1 5112   1.824   2.269   4.335  2.7383 -1.2195  0.3424
 1716TIP3    H2 5113   1.868   2.171   4.443 -0.2072  0.7290  3.5205
 1717TIP3   OH2 5114   2.502   5.939   5.092 -0.8264 -0.5433  0.4219
 1717TIP3    H1 5115   2.558   5.973   5.023  0.6744  2.2487  2.7971
 1717TIP3    H2 5116   2.413   5.959   5.063 -0.1839  1.5660 -0.2950
 1718TIP3   OH2 5117   5.412   3.586   1.144  0.4624  0.4516 -0.1292
 1718TIP3    H1 5118   5.349   3.657   1.131  0.9550  0.7975 -0.6771
 1718TIP3    H2 5119   5.406   3.565   1.237 -1.1575 -0.1785 -0.3492
 1719TIP3   OH2 5120   4.340   1.431   0.891 -0.2063 -0.3687 -0.0925
 1719TIP3    H1 5121   4.360   1.358   0.950 -1.0914  0.9849  1.9922
 1719TIP3    H2 5122   4.416   1.488   0.896  0.1857 -0.7672 -1.1750
 1720TIP3   OH2 5123   1.663   1.290   1.837  0.2595 -0.8718 -0.0971
 1720TIP3    H1 5124   1.707   1.294   1.922  1.2215  0.6531 -0.6241
 1720TIP3    H2 5125   1.707   1.357   1.784 -1.8650 -0.1428 -1.0591
 1721TIP3   OH2 5126   6.448   6.175   4.392  0.1793  0.7559 -0.6844
 1721TIP3    H1 5127   6.543   6.173   4.385  0.0634  0.8986 -3.9375
 1721TIP3    H2 5128   6.430   6.204   4.481  3.1261 -0.5582  0.4443
 1722TIP3   OH2 5129   2.781   0.888   0.088  0.0977  0.0048 -0.3053
 1722TIP3    H1 5130   2.793   0.822   0.158  0.3692  1.7346  1.3633
 1722TIP3    H2 5131   2.691   0.917   0.099 -0.0258 -0.0877 -1.0572
 1723TIP3   OH2 5132   1.865   4.544   4.898  0.5923  0.2203 -0.0670
 1723TIP3    H1 5133   1.951   4.522   4.862  0.2973 -1.2038  0.0317
 1723TIP3    H2 5134   1.883   4.610   4.965  1.6281 -0.1649  0.0515
 1724TIP3   OH2 5135   1.985   1.319   0.797 -0.5471 -0.5936 -0.1195
 1724TIP3    H1 5136   1.889   1.311   0.801 -0.5387 -1.3959 -1.1560
 1724TIP3    H2 5137   2.016   1.244   0.848 -0.4737 -0.5671 -0.1263
 1725TIP3   OH2 5138   0.071   5.184   4.844 -0.4000  0.3103  0.4434
 1725TIP3    H1 5139  -0.015   5.225   4.849 -1.4229 -1.4592 -1.1383
 1725TIP3    H2 5140   0.113   5.223   4.768 -0.2545  0.3827  0.5597
 1726TIP3   OH2 5141   0.853   4.086   2.416 -0.4165  0.2213  0.1829
 1726TIP3    H1 5142   0.884   4.007   2.372 -1.4872  0.5784 -1.2598
 1726TIP3    H2 5143   0.758   4.084   2.406 -0.9443 -0.4466  3.8171
 1727TIP3   OH2 5144   5.343   4.985   0.333 -0.3982  0.2948 -0.3972
 1727TIP3    H1 5145   5.405   5.058   0.327  0.5714 -0.6020 -1.7410
 1727TIP3    H2 5146   5.385   4.913   0.286 -0.8016 -1.5460  1.8724
 1728TIP3   OH2 5147   1.141   0.333   5.269  0.5885 -0.7125  0.4342
 1728TIP3    H1 5148   1.063   0.288   5.302  1.0825 -0.0387  2.6616
 1728TIP3    H2 5149   1.119   0.355   5.178 -0.9775 -2.3785  0.3435
 1729TIP3   OH2 5150   0.335   5.453   3.799  0.3915 -0.4291  0.1707
 1729TIP3    H1 5151   0.323   5.361   3.778 -1.0321  0.4898 -3.8522
 1729TIP3    H2 5152   0.276   5.468   3.873 -1.2113 -2.2965 -0.6433
 1730TIP3   OH2 5153   1.241   6.283   2.259  0.2724  0.1114  0.6086
 1730TIP3    H1 5154   1.184   6.237   2.319  0.5600  0.1409  0.9092
 1730TIP3    H2 5155   1.328   6.280   2.300  0.0965  1.9195  1.2350
 1731TIP3   OH2 5156   6.650   3.787   5.790 -0.4660  0.4560  0.4812
 1731TIP3    H1 5157   6.722   3.849   5.806  0.8645 -0.0601 -2.7622
 1731TIP3    H2 5158   6.630   3.797   5.697 -2.4800 -1.6647  0.6083
 1732TIP3   OH2 5159   6.910   3.350   2.480  0.0073  0.5629  0.1383
 1732TIP3    H1 5160   6.879   3.295   2.408 -0.7566  0.8393  0.2526
 1732TIP3    H2 5161   6.875   3.437   2.462 -0.0986  0.6607  0.7869
 1733TIP3   OH2 5162   3.574   4.247   5.023  0.8551  0.3212 -0.1390
 1733TIP3    H1 5163   3.480   4.267   5.021  0.7941  0.5676  2.2197
 1733TIP3    H2 5164   3.581   4.160   4.984 -0.3048  0.4220 -0.6156
 1734TIP3   OH2 5165   0.116   5.756   0.773  0.0827  0.3010  0.0149
 1734TIP3    H1 5166   0.196   5.774   0.823  0.0590 -1.3970  0.7479
 1734TIP3    H2 5167   0.114   5.660   0.767 -1.5556  0.3553 -0.5613
 1735TIP3   OH2 5168   2.107   3.225   3.031  0.0926 -0.1843  0.3609
 1735TIP3    H1 5169   2.089   3.177   2.950 -1.2408 -1.1373  1.1947
 1735TIP3    H2 5170   2.155   3.163   3.086  1.8386  0.7720 -0.0198
 1736TIP3   OH2 5171   5.117   3.201   4.566  0.8341 -0.4027  0.4344
 1736TIP3    H1 5172   5.075   3.191   4.652  0.8532  0.9816  0.6291
 1736TIP3    H2 5173   5.078   3.132   4.512 -1.0233  0.2424  0.8732
 1737TIP3   OH2 5174   3.843   1.890   0.871 -0.3766 -0.2245  0.1645
 1737TIP3    H1 5175   3.847   1.837   0.791 -1.1019  0.4651 -0.3435
 1737TIP3    H2 5176   3.921   1.864   0.920 -0.2225 -1.0807 -0.4954
 1738TIP3   OH2 5177   1.190   0.089   1.998 -0.5585  0.5643  0.7349
 1738TIP3    H1 5178   1.161   0.146   1.926 -0.8064 -1.1567 -0.6111
 1738TIP3    H2 5179   1.284   0.104   2.003 -0.6621  1.3113  0.6248
 1739TIP3   OH2 5180   3.078   6.148   0.438  0.1179  0.0739  0.3523
 1739TIP3    H1 5181   3.012   6.212   0.462  0.8521  0.6990  0.7566
 1739TIP3    H2 5182   3.067   6.136   0.343 -1.2640 -0.6551  0.5849
 1740TIP3   OH2 5183   5.965   0.667   1.521  0.6589 -0.1699 -0.3822
 1740TIP3    H1 5184   5.929   0.753   1.542  2.4669  0.4814  0.2474
 1740TIP3    H2 5185   6.031   0.652   1.588  2.1343 -0.9227 -1.9369
 1741TIP3   OH2 5186   4.313   5.131   2.417 -0.3918  0.7598 -0.4773
 1741TIP3    H1 5187   4.255   5.207   2.420  0.4177  1.3731  0.8074
 1741TIP3    H2 5188   4.391   5.158   2.466 -0.0838 -0.9023  0.0340
 1742TIP3   OH2 5189   0.986   4.397   5.756 -0.0660 -0.3649  0.0776
 1742TIP3    H1 5190   1.050   4.467   5.770  0.6369 -1.0693  0.4469
 1742TIP3    H2 5191   0.928   4.432   5.688  0.8606  0.1886 -0.4583
 1743TIP3   OH2 5192   5.851   6.258   5.852  0.1777 -0.3688 -0.1077
 1743TIP3    H1 5193   5.885   6.277   5.939 -1.4590  1.2455  0.2386
 1743TIP3    H2 5194   5.905   6.310   5.792 -0.1557  0.3351  0.1960
 1744TIP3   OH2 5195   4.407   3.471   5.768  0.2490 -0.1128  0.3396
 1744TIP3    H1 5196   4.431   3.480   5.676 -0.5248 -1.4642 -0.0115
 1744TIP3    H2 5197   4.478   3.420   5.807  0.6188  0.5322  0.5188
 1745TIP3   OH2 5198   6.217   5.601   1.477 -0.0716  0.3480 -0.2392
 1745TIP3    H1 5199   6.290   5.661   1.469 -1.6444  2.4136  0.0781
 1745TIP3    H2 5200   6.177   5.623   1.561 -0.0242 -2.0077  0.4887
 1746TIP3   OH2 5201   0.532   5.951   1.663 -0.5877 -1.0357  0.7277
 1746TIP3    H1 5202   0.536   6.037   1.706  1.4594 -1.3485  1.2680
 1746TIP3    H2 5203   0.484   5.896   1.725 -2.5869 -0.1586  0.0450
 1747TIP3   OH2 5204   5.041   2.136   2.684 -0.1978 -0.6311  0.5782
 1747TIP3    H1 5205   5.087   2.212   2.720  0.9665 -1.1251  0.1795
 1747TIP3    H2 5206   5.075   2.062   2.734 -1.2745 -0.9024  0.9147
 1748TIP3   OH2 5207   4.866   1.641   0.087 -0.0155 -0.0151  0.6323
 1748TIP3    H1 5208   4.821   1.647   0.171  0.4114 -1.8536  1.0265
 1748TIP3    H2 5209   4.906   1.727   0.075  0.3680  0.1186  2.5679
 1749TIP3   OH2 5210   3.341   4.488   5.175  0.4863  0.3318  0.7730
 1749TIP3    H1 5211   3.304   4.443   5.251  0.5853 -0.2263  0.5012
 1749TIP3    H2 5212   3.284   4.462   5.102  1.2096 -0.2915  0.4047
 1750TIP3   OH2 5213   1.494   5.735   2.667  0.4394  1.2243  0.3898
 1750TIP3    H1 5214   1.414   5.730   2.719  0.7515  2.4290  0.9988
 1750TIP3    H2 5215   1.463   5.750   2.577 -0.0269  0.9536  0.4997
 1751TIP3   OH2 5216   0.193   5.225   4.179 -0.2299  0.0121  0.1999
 1751TIP3    H1 5217   0.181   5.133   4.155 -1.3001  0.1706  0.0802
 1751TIP3    H2 5218   0.246   5.222   4.259  0.8990 -0.6357 -0.5586
 1752TIP3   OH2 5219   5.967   2.719   1.290  0.4029  0.7395  0.1923
 1752TIP3    H1 5220   5.916   2.798   1.276  0.2909  0.5488 -0.5002
 1752TIP3    H2 5221   5.918   2.650   1.246  0.6909  0.3485  0.4729
 1753TIP3   OH2 5222   0.662   1.271   3.112 -0.0893 -0.2987 -0.7952
 1753TIP3    H1 5223   0.671   1.199   3.049 -0.3482 -1.4820  0.4748
 1753TIP3    H2 5224   0.707   1.240   3.190 -2.9406 -0.5110  0.9125
 1754TIP3   OH2 5225   1.337   5.144   1.464 -0.1691  0.5362  0.4171
 1754TIP3    H1 5226   1.277   5.216   1.448  0.0773  0.4552 -0.9431
 1754TIP3    H2 5227   1.324   5.123   1.557 -0.9805  1.6401  0.5784
 1755TIP3   OH2 5228   4.886   4.696   4.427  0.1984 -0.5311  0.7420
 1755TIP3    H1 5229   4.910   4.618   4.378 -0.2650  0.2357 -0.7603
 1755TIP3    H2 5230   4.953   4.704   4.495 -0.1676 -2.6286  1.3912
 1756TIP3   OH2 5231   6.373   2.079   5.656 -0.2041 -0.1151 -0.0908
 1756TIP3    H1 5232   6.285   2.104   5.682  0.4284  2.4101 -0.0834
 1756TIP3    H2 5233   6.425   2.089   5.736 -0.1704 -3.5450  0.4374
 1757TIP3   OH2 5234   4.379   5.396   1.658  0.4049 -0.1294 -0.4165
 1757TIP3    H1 5235   4.305   5.335   1.662  0.2381  0.0220 -1.1168
 1757TIP3    H2 5236   4.406   5.406   1.749  0.9654 -1.9084 -0.3376
 1758TIP3   OH2 5237   2.862   2.660   4.282 -0.4956  0.0716  0.2716
 1758TIP3    H1 5238   2.780   2.692   4.246 -1.7207 -0.5848  2.3175
 1758TIP3    H2 5239   2.886   2.725   4.348  1.2549  0.8147 -0.9840
 1759TIP3   OH2 5240   4.591   2.457   0.513  0.2852 -0.1004  0.0472
 1759TIP3    H1 5241   4.614   2.374   0.472 -0.3856 -0.6095  0.6542
 1759TIP3    H2 5242   4.497   2.449   0.530 -0.1330  1.4394 -1.3457
 1760TIP3   OH2 5243   3.680   2.914   5.386  0.5694  0.2284 -0.0575
 1760TIP3    H1 5244   3.774   2.926   5.404  0.4467  0.3830  0.4919
 1760TIP3    H2 5245   3.647   2.868   5.462  0.0288  0.9309  0.1423
 1761TIP3   OH2 5246   6.072   1.266   5.133 -1.0588 -0.2488  0.5545
 1761TIP3    H1 5247   6.136   1.217   5.081 -2.2705 -0.8701 -0.3893
 1761TIP3    H2 5248   6.107   1.264   5.222 -0.0644 -1.0862  0.1627
 1762TIP3   OH2 5249   3.250   2.885   2.296 -0.2451 -0.6901  0.7145
 1762TIP3    H1 5250   3.281   2.794   2.301 -0.4605 -0.7469  1.0416
 1762TIP3    H2 5251   3.329   2.936   2.279  0.2971 -0.6665  3.0134
 1763TIP3   OH2 5252   3.235   0.101   2.635 -0.5738 -0.1972 -0.3868
 1763TIP3    H1 5253   3.300   0.082   2.568 -1.3682 -0.0661 -1.2189
 1763TIP3    H2 5254   3.153   0.064   2.600 -0.3014 -3.9124  2.3240
 1764TIP3   OH2 5255   1.634   4.020   2.157  0.1300  0.1174  0.5110
 1764TIP3    H1 5256   1.644   4.023   2.062 -0.4684  0.1363  0.4431
 1764TIP3    H2 5257   1.715   4.055   2.191  0.3559  0.0930  0.0041
 1765TIP3   OH2 5258   1.894   2.259   2.444  0.8626 -0.1316 -0.3201
 1765TIP3    H1 5259   1.865   2.315   2.372  1.9152  0.6503 -0.1753
 1765TIP3    H2 5260   1.925   2.179   2.401  0.5880 -0.0569 -0.6585
 1766TIP3   OH2 5261   0.721   1.266   1.605 -0.0005 -0.0184 -0.8230
 1766TIP3    H1 5262   0.766   1.224   1.679  0.6600  1.2776 -0.4525
 1766TIP3    H2 5263   0.687   1.194   1.553  0.3301 -0.9793  0.2609
 1767TIP3   OH2 5264   2.036   4.698   3.171 -0.0746 -0.2375 -0.1097
 1767TIP3    H1 5265   1.950   4.722   3.137  0.0932  1.7549  0.7101
 1767TIP3    H2 5266   2.089   4.682   3.094 -0.6188  0.6761 -0.6883
 1768TIP3   OH2 5267   6.238   1.138   4.967 -0.5300 -0.0837  0.0630
 1768TIP3    H1 5268   6.226   1.086   4.888  0.5128 -0.8417  0.3908
 1768TIP3    H2 5269   6.331   1.129   4.989 -0.5545  1.0371  0.7413
 1769TIP3   OH2 5270   3.051   2.828   2.091  0.4212 -0.5848 -0.1798
 1769TIP3    H1 5271   3.067   2.877   2.010 -1.9266  1.1089  0.2644
 1769TIP3    H2 5272   3.132   2.837   2.141  0.6991  1.3612 -0.8895
 1770TIP3   OH2 5273   1.683   5.480   1.577  0.2628  0.5396 -0.0665
 1770TIP3    H1 5274   1.644   5.442   1.656 -0.0093 -0.2123 -0.5513
 1770TIP3    H2 5275   1.773   5.445   1.576 -0.0873 -0.3712 -0.6829
 1771TIP3   OH2 5276   4.697   6.288   4.397 -0.7059  0.6123 -0.4271
 1771TIP3    H1 5277   4.713   6.247   4.312 -1.4421  0.5642 -0.5556
 1771TIP3    H2 5278   4.750   6.238   4.459 -1.0604 -0.0933 -0.6896
 1772TIP3   OH2 5279   1.422   3.518   2.442  0.5415  0.2174 -0.2006
 1772TIP3    H1 5280   1.514   3.501   2.465  0.1346 -1.8065  0.1312
 1772TIP3    H2 5281   1.402   3.601   2.484  2.5478  1.3268 -1.2744
 1773TIP3   OH2 5282   2.531   3.146   3.336 -0.5429  0.6006 -0.1047
 1773TIP3    H1 5283   2.578   3.220   3.375 -0.8706 -0.2840  2.0829
 1773TIP3    H2 5284   2.573   3.069   3.373 -1.8460 -0.2631 -0.3589
 1774TIP3   OH2 5285   0.753   2.006   2.939 -0.3079  0.2128  0.4044
 1774TIP3    H1 5286   0.742   1.926   2.888  0.0404 -0.1479  0.8809
 1774TIP3    H2 5287   0.667   2.023   2.977 -0.1840 -0.4238  0.9952
 1775TIP3   OH2 5288   6.123   2.001   3.317 -0.1130  0.5272 -0.4874
 1775TIP3    H1 5289   6.097   1.928   3.261 -0.8398  0.7453 -0.4478
 1775TIP3    H2 5290   6.214   2.020   3.292  0.7095 -1.5285  0.7443
 1776TIP3   OH2 5291   2.236   5.221   0.611 -0.2252  0.3760 -0.4331
 1776TIP3    H1 5292   2.234   5.255   0.701 -0.5079 -2.4366  0.7003
 1776TIP3    H2 5293   2.173   5.149   0.611  1.4018 -1.1515 -2.2442
 1777TIP3   OH2 5294   3.440   2.026   2.851  0.1845 -0.1275 -0.1327
 1777TIP3    H1 5295   3.427   2.121   2.846  0.0527 -0.1890 -1.1870
 1777TIP3    H2 5296   3.412   1.994   2.765  0.8204 -1.0529  0.0002
 1778TIP3   OH2 5297   3.404   1.530   3.347  0.4237 -0.2143  0.5192
 1778TIP3    H1 5298   3.329   1.471   3.356  0.1960  0.0791  0.5408
 1778TIP3    H2 5299   3.480   1.477   3.374 -0.0260  0.1501  2.6151
 1779TIP3   OH2 5300   0.134   2.627   4.283 -0.2898  0.1135  0.6064
 1779TIP3    H1 5301   0.213   2.669   4.250 -1.3127 -0.4279 -2.8999
 1779TIP3    H2 5302   0.067   2.695   4.280 -0.7334 -0.3367  0.1116
 1780TIP3   OH2 5303   2.464   4.725   2.604  0.0410 -0.3131 -0.4881
 1780TIP3    H1 5304   2.482   4.737   2.511 -0.7282 -0.0876 -0.6156
 1780TIP3    H2 5305   2.519   4.790   2.647  0.3589 -0.3803 -0.7893
 1781TIP3   OH2 5306   1.199   5.321   2.767 -0.1081 -0.0831 -0.2289
 1781TIP3    H1 5307   1.127   5.382   2.750  2.4048  2.6965 -1.9499
 1781TIP3    H2 5308   1.254   5.367   2.831  0.8996 -1.4369 -0.0910
 1782TIP3   OH2 5309   2.173   6.077   1.788  0.2711  0.0725 -0.0633
 1782TIP3    H1 5310   2.190   6.171   1.785  1.6590 -0.1757 -0.9064
 1782TIP3    H2 5311   2.234   6.043   1.853 -1.4302 -0.0646  1.5595
 1783TIP3   OH2 5312   1.327   3.480   0.540 -0.1041  0.1606  0.8411
 1783TIP3    H1 5313   1.324   3.557   0.596  0.8583 -0.0856  1.2515
 1783TIP3    H2 5314   1.298   3.511   0.454 -0.9377  0.6897  1.2988
 1784TIP3   OH2 5315   6.070   2.693   1.550 -0.2048  0.3587  0.3519
 1784TIP3    H1 5316   6.071   2.704   1.455  0.7056  2.1613  0.5154
 1784TIP3    H2 5317   5.984   2.658   1.570 -0.8029  0.9632 -1.0577
 1785TIP3   OH2 5318   2.668   5.813   1.059  0.0389  0.0758 -0.1117
 1785TIP3    H1 5319   2.648   5.871   1.133  1.5024  0.1655  0.2401
 1785TIP3    H2 5320   2.599   5.831   0.995 -0.4086  1.0785  0.6214
 1786TIP3   OH2 5321   6.146   4.162   5.406 -0.6220  0.1910 -0.1827
 1786TIP3    H1 5322   6.074   4.102   5.425  0.6210 -1.3209 -0.1147
 1786TIP3    H2 5323   6.167   4.201   5.491  0.9558 -2.0633  0.5560
 1787TIP3   OH2 5324   4.151   1.864   1.517  0.2332  0.0338  0.0256
 1787TIP3    H1 5325   4.069   1.911   1.529 -0.6229 -1.3678 -0.2034
 1787TIP3    H2 5326   4.129   1.772   1.529  1.8019 -0.3680  0.1042
 1788TIP3   OH2 5327   4.284   4.261   5.716  0.6429 -0.0924 -0.1933
 1788TIP3    H1 5328   4.268   4.233   5.626 -0.3945 -1.2105  0.3174
 1788TIP3    H2 5329   4.199   4.258   5.758  1.0659  0.7238  0.7608
 1789TIP3   OH2 5330   2.158   2.339   5.293 -0.3280  0.1864  0.0666
 1789TIP3    H1 5331   2.184   2.403   5.359  0.6459  0.2967 -0.4200
 1789TIP3    H2 5332   2.100   2.388   5.235 -0.6056  0.2810  0.4155
 1790TIP3   OH2 5333   6.727   5.615   5.520  0.0237 -0.0105  0.0921
 1790TIP3    H1 5334   6.698   5.538   5.471 -1.4907 -0.0186  0.9326
 1790TIP3    H2 5335   6.654   5.677   5.512 -0.2189  0.0379  2.1859
 1791TIP3   OH2 5336   5.471   4.838   3.443  0.4366 -0.9986 -0.3576
 1791TIP3    H1 5337   5.463   4.778   3.369  1.2328  0.0545 -1.3381
 1791TIP3    H2 5338   5.507   4.919   3.405 -1.2655  0.3718  0.7707
 1792TIP3   OH2 5339   6.997   0.958   4.441 -0.0016  0.3265 -0.2745
 1792TIP3    H1 5340   6.915   0.966   4.490 -0.2417 -0.9382 -0.4467
 1792TIP3    H2 5341   7.022   0.866   4.449  1.4685  0.7126 -0.1432
 1793TIP3   OH2 5342   5.273   4.350   1.311  0.2953  0.5856  0.2743
 1793TIP3    H1 5343   5.267   4.383   1.400  1.2634  1.6341 -0.0268
 1793TIP3    H2 5344   5.285   4.428   1.257  1.9557 -0.1848 -0.5298
 1794TIP3   OH2 5345   4.796   1.119   3.952  0.3336  0.1730 -0.1487
 1794TIP3    H1 5346   4.724   1.137   3.891 -1.5031  0.0997  1.8855
 1794TIP3    H2 5347   4.757   1.065   4.020  2.1028  0.8672  1.5225
 1795TIP3   OH2 5348   1.350   2.840   4.855  0.3550  0.1346  0.0585
 1795TIP3    H1 5349   1.362   2.915   4.913  0.0172  1.8061 -1.8979
 1795TIP3    H2 5350   1.439   2.818   4.826  0.2810  1.4977 -1.3289
 1796TIP3   OH2 5351   5.712   4.641   0.592 -0.2011 -0.4087  0.0221
 1796TIP3    H1 5352   5.727   4.547   0.587  0.3761 -0.4575  1.6971
 1796TIP3    H2 5353   5.683   4.656   0.683 -0.1139  1.0341 -0.1558
 1797TIP3   OH2 5354   6.022   6.186   1.807 -0.1825 -0.5528 -0.1867
 1797TIP3    H1 5355   6.104   6.171   1.761 -0.7060 -0.7291 -1.1012
 1797TIP3    H2 5356   6.023   6.123   1.880  0.8751  0.0721  0.3564
 1798TIP3   OH2 5357   0.156   1.447   2.668 -0.1791  0.1158 -0.7492
 1798TIP3    H1 5358   0.140   1.356   2.693 -0.5907 -0.3205 -2.4537
 1798TIP3    H2 5359   0.073   1.476   2.630 -0.1194  1.2893 -0.0093
 1799TIP3   OH2 5360   2.009   2.697   1.031  0.7199 -0.3525 -0.1007
 1799TIP3    H1 5361   2.032   2.717   0.940  0.1885  0.6154 -0.0280
 1799TIP3    H2 5362   2.044   2.771   1.082 -0.7578  0.1376  0.2411
 1800TIP3   OH2 5363   3.573   5.942   0.035 -0.1037 -0.2556 -0.3248
 1800TIP3    H1 5364   3.479   5.953   0.051 -0.2370  2.0546 -2.0493
 1800TIP3    H2 5365   3.605   5.893   0.110 -2.2636  1.1103  1.6416
 1801TIP3   OH2 5366   4.831   0.212   4.976  0.4193 -0.4083 -0.8108
 1801TIP3    H1 5367   4.808   0.156   4.902  0.2404 -0.1880 -0.9242
 1801TIP3    H2 5368   4.904   0.167   5.018  0.8934 -0.2451 -1.4525
 1802TIP3   OH2 5369   4.556   5.296   0.049  0.2209 -0.4418  0.0645
 1802TIP3    H1 5370   4.637   5.341   0.075 -0.0464 -0.2861  0.6570
 1802TIP3    H2 5371   4.498   5.365   0.019 -0.7088 -0.1566  2.3165
 1803TIP3   OH2 5372   4.947   4.474   1.020 -0.1123 -0.3603  0.2824
 1803TIP3    H1 5373   4.878   4.409   1.037  0.8582 -1.7309 -0.7901
 1803TIP3    H2 5374   4.958   4.472   0.925  2.0801 -0.9343  0.4993
 1804TIP3   OH2 5375   4.138   1.563   0.764 -0.4684 -0.3247  0.0135
 1804TIP3    H1 5376   4.195   1.498   0.806  0.4243  0.2903 -0.2099
 1804TIP3    H2 5377   4.133   1.635   0.828  1.6581  1.0337 -1.2036
 1805TIP3   OH2 5378   4.057   0.317   4.452 -0.1982 -0.0565 -0.2394
 1805TIP3    H1 5379   3.975   0.344   4.493  0.5187  0.3503  0.9846
 1805TIP3    H2 5380   4.055   0.222   4.454 -0.2594 -0.0430  0.5973
 1806TIP3   OH2 5381   2.803   4.143   2.536 -0.0295 -0.4335  0.3407
 1806TIP3    H1 5382   2.840   4.072   2.483  0.5692 -0.3989  0.6948
 1806TIP3    H2 5383   2.717   4.110   2.563 -0.7394 -0.0902 -1.3601
 1807TIP3   OH2 5384   4.500   3.668   2.799  0.2794  0.0298  0.1039
 1807TIP3    H1 5385   4.456   3.738   2.751  2.2142  0.4201 -1.2605
 1807TIP3    H2 5386   4.487   3.690   2.891  0.0855  1.7320 -0.2841
 1808TIP3   OH2 5387   0.908   5.045   2.552  0.2443 -0.7620 -0.1646
 1808TIP3    H1 5388   0.911   5.056   2.457 -1.7312 -0.6405 -0.2486
 1808TIP3    H2 5389   0.817   5.060   2.575  0.3570 -2.4028  1.5753
 1809TIP3   OH2 5390   3.076   6.529   5.150 -0.0918 -0.0479  0.1071
 1809TIP3    H1 5391   3.056   6.604   5.095  0.2503  0.7737  1.0576
 1809TIP3    H2 5392   3.057   6.452   5.096 -0.4278  0.7242 -0.8864
 1810TIP3   OH2 5393   0.345   4.919   0.597 -0.1600  0.0203  0.0135
 1810TIP3    H1 5394   0.277   4.875   0.648  0.3548 -0.7615  0.0420
 1810TIP3    H2 5395   0.417   4.857   0.594  0.7559  1.0180  0.3986
 1811TIP3   OH2 5396   2.617   6.105   4.911  0.1316  0.1635 -0.1790
 1811TIP3    H1 5397   2.558   6.173   4.879 -0.3019  1.0067  2.1560
 1811TIP3    H2 5398   2.704   6.145   4.908 -0.0500  0.6497  0.6597
 1812TIP3   OH2 5399   5.216   4.574   3.946 -0.1382 -0.1548  0.4000
 1812TIP3    H1 5400   5.297   4.557   3.994  0.3026 -2.2933 -0.9482
 1812TIP3    H2 5401   5.152   4.594   4.014  1.4331  1.3966  1.5096
 1813TIP3   OH2 5402   7.219   3.938   2.360 -0.4214 -0.2624  0.1826
 1813TIP3    H1 5403   7.262   3.884   2.427  0.2313 -0.2882 -0.2524
 1813TIP3    H2 5404   7.125   3.926   2.377 -0.2746  0.6444  1.8248
 1814TIP3   OH2 5405   4.407   6.458   2.570  0.1583 -0.2579  0.8376
 1814TIP3    H1 5406   4.342   6.526   2.548  0.2233 -0.3241  0.4436
 1814TIP3    H2 5407   4.399   6.394   2.500 -0.2217 -0.8880  1.4503
 1815TIP3   OH2 5408   3.962   2.912   1.483  0.0497  0.2661  0.0814
 1815TIP3    H1 5409   4.034   2.930   1.543 -0.1173 -0.9855  0.7076
 1815TIP3    H2 5410   4.005   2.887   1.401  0.4153 -1.5496  0.7660
 1816TIP3   OH2 5411   2.091   3.923   4.130 -0.3762  0.1754 -0.5618
 1816TIP3    H1 5412   2.157   3.975   4.178 -1.6870  0.7452  0.6970
 1816TIP3    H2 5413   2.143   3.864   4.075  1.1897  0.7015  0.2815
 1817TIP3   OH2 5414   5.708   0.021   4.886  0.2456 -0.3611 -0.3563
 1817TIP3    H1 5415   5.619   0.001   4.916  0.8512 -0.7331  1.3279
 1817TIP3    H2 5416   5.727   0.107   4.926  0.5793 -0.2075 -0.8454
 1818TIP3   OH2 5417   1.337   1.364   4.268  0.4208 -0.3555 -0.0513
 1818TIP3    H1 5418   1.416   1.368   4.214  0.4973  1.4503  0.1566
 1818TIP3    H2 5419   1.348   1.433   4.332 -1.1658 -0.3208  0.2176
 1819TIP3   OH2 5420   0.102   2.202   2.700 -0.2443  0.3443 -0.2379
 1819TIP3    H1 5421   0.055   2.134   2.651  0.5805 -1.2930  1.1388
 1819TIP3    H2 5422   0.034   2.263   2.727 -1.7145 -1.9983  1.7742
 1820TIP3   OH2 5423   6.428   0.149   4.737 -0.0068 -0.1246 -0.4450
 1820TIP3    H1 5424   6.509   0.121   4.695 -0.1229  0.3354 -0.9893
 1820TIP3    H2 5425   6.451   0.229   4.782 -0.2884  0.3365 -1.0990
 1821TIP3   OH2 5426   4.109   3.894   5.034 -0.3065  0.0348  0.2132
 1821TIP3    H1 5427   4.106   3.838   5.112 -0.0654 -0.4481 -0.1223
 1821TIP3    H2 5428   4.078   3.838   4.963 -0.8175  0.5636  0.0109
 1822TIP3   OH2 5429   5.508   2.495   1.318 -0.3879  0.0255 -0.0073
 1822TIP3    H1 5430   5.581   2.472   1.376  0.7390  3.3380  0.0968
 1822TIP3    H2 5431   5.546   2.499   1.231 -1.0965 -0.7900 -0.3702
 1823TIP3   OH2 5432   4.547   4.680   0.241 -0.3877  0.0191 -0.8474
 1823TIP3    H1 5433   4.452   4.672   0.243 -0.3284 -0.8164  1.2729
 1823TIP3    H2 5434   4.573   4.686   0.333  1.5711  1.0186 -1.3985
 1824TIP3   OH2 5435   6.454   3.566   3.771  0.7786 -0.0790 -0.1036
 1824TIP3    H1 5436   6.548   3.584   3.771  0.6815  0.4438  0.1332
 1824TIP3    H2 5437   6.448   3.471   3.760  1.3791 -0.3236  1.4785
 1825TIP3   OH2 5438   0.042   5.364   2.291 -0.5426 -0.2075 -0.1538
 1825TIP3    H1 5439   0.058   5.352   2.198 -0.7411  0.8971 -0.3487
 1825TIP3    H2 5440   0.100   5.436   2.316  0.0227 -0.9384  0.7404
 1826TIP3   OH2 5441   6.488   1.941   3.554 -0.0827  0.2577 -0.7925
 1826TIP3    H1 5442   6.409   1.908   3.595  0.0296 -0.9648 -1.5298
 1826TIP3    H2 5443   6.548   1.866   3.552  0.9948  1.0784 -0.5041
 1827TIP3   OH2 5444   3.521   0.655   3.068 -0.5640 -0.0993  0.1678
 1827TIP3    H1 5445   3.602   0.626   3.027 -0.8350  1.2763 -1.4622
 1827TIP3    H2 5446   3.496   0.733   3.018 -1.7312  0.7841  2.0388
 1828TIP3   OH2 5447   5.587   2.828   5.592  0.0857  0.0149  0.2422
 1828TIP3    H1 5448   5.642   2.790   5.523  0.0124  0.3402  0.0035
 1828TIP3    H2 5449   5.498   2.810   5.563  0.0686 -0.6956  0.7323
 1829TIP3   OH2 5450   0.663   1.484   1.093  0.3547 -0.2542  0.0007
 1829TIP3    H1 5451   0.662   1.457   1.185  1.0499  1.1664  0.4559
 1829TIP3    H2 5452   0.585   1.443   1.055  1.4136 -3.0388  0.5528
 1830TIP3   OH2 5453   3.118   3.980   1.442  0.5904  0.3709  0.1733
 1830TIP3    H1 5454   3.043   4.030   1.410  1.0765  2.9267  2.6490
 1830TIP3    H2 5455   3.091   3.888   1.433 -1.6590  1.0970 -1.5980
 1831TIP3   OH2 5456   6.054   4.619   1.225  0.4028 -0.0096 -0.6565
 1831TIP3    H1 5457   5.964   4.609   1.257  0.4892  1.6705  0.2438
 1831TIP3    H2 5458   6.086   4.529   1.216 -1.3624 -0.6443 -1.0181
 1832TIP3   OH2 5459   5.369   2.221   2.063 -0.2133 -0.3941  0.3141
 1832TIP3    H1 5460   5.437   2.181   2.010 -0.2134 -1.0145  0.7701
 1832TIP3    H2 5461   5.302   2.249   2.001  0.3214 -0.0321 -0.1109
 1833TIP3   OH2 5462   4.541   3.828   1.828  0.1017 -0.0851  0.0788
 1833TIP3    H1 5463   4.612   3.843   1.891  0.8499 -1.8428 -0.3142
 1833TIP3    H2 5464   4.532   3.912   1.782  2.0289  0.1299  0.0265
 1834TIP3   OH2 5465   6.555   1.167   1.625 -0.4739  0.2663 -0.5257
 1834TIP3    H1 5466   6.493   1.240   1.622  2.3509  2.8834 -0.1247
 1834TIP3    H2 5467   6.609   1.185   1.702  1.2572 -1.4291 -1.2701
 1835TIP3   OH2 5468   5.589   2.287   0.605  0.1986 -0.4166  0.6130
 1835TIP3    H1 5469   5.677   2.262   0.576  0.4768  1.5915 -0.4609
 1835TIP3    H2 5470   5.578   2.377   0.573 -2.5163 -0.8392  0.1555
 1836TIP3   OH2 5471   5.273   3.763   0.645  0.2607 -0.1578 -0.2113
 1836TIP3    H1 5472   5.312   3.808   0.570 -0.6862  0.6390 -0.2473
 1836TIP3    H2 5473   5.336   3.774   0.716  0.9421 -0.4973 -0.7506
 1837TIP3   OH2 5474   0.335   6.535   1.926 -0.1730  0.2417  0.3239
 1837TIP3    H1 5475   0.303   6.622   1.949 -2.9812 -0.9135  1.0927
 1837TIP3    H2 5476   0.261   6.492   1.883  1.7874 -1.1309 -1.9609
 1838TIP3   OH2 5477   4.164   3.370   3.841 -0.4261 -0.3952  0.5163
 1838TIP3    H1 5478   4.138   3.278   3.838  1.3622 -0.9567  1.1069
 1838TIP3    H2 5479   4.234   3.378   3.776 -0.2181  0.4436  0.8245
 1839TIP3   OH2 5480   0.654   1.795   1.626 -0.5316  0.0191 -0.1654
 1839TIP3    H1 5481   0.744   1.816   1.652 -0.1580 -0.3353 -1.1338
 1839TIP3    H2 5482   0.640   1.706   1.659 -0.6496  0.2010  0.2814
 1840TIP3   OH2 5483   5.899   4.095   2.675  0.4482 -0.4893  0.0445
 1840TIP3    H1 5484   5.844   4.073   2.750 -0.9976  1.1221 -0.4869
 1840TIP3    H2 5485   5.936   4.180   2.695  0.7240 -0.4203 -0.7078
 1841TIP3   OH2 5486   4.479   3.196   3.086  0.2956 -0.0331  0.0696
 1841TIP3    H1 5487   4.459   3.149   3.167 -0.2328 -0.9913 -0.5973
 1841TIP3    H2 5488   4.403   3.180   3.029  1.4091 -0.8772 -1.2562
 1842TIP3   OH2 5489   3.347   1.538   1.124 -0.0385 -0.1308  0.4014
 1842TIP3    H1 5490   3.261   1.569   1.152 -0.9611 -2.3794  0.2642
 1842TIP3    H2 5491   3.399   1.617   1.115 -1.4925  1.1550  2.4467
 1843TIP3   OH2 5492   0.443   4.649   0.448 -0.3370  0.0314  0.2243
 1843TIP3    H1 5493   0.431   4.593   0.524 -1.0342 -0.2847 -0.1112
 1843TIP3    H2 5494   0.538   4.663   0.442 -0.2603 -0.1415  0.9971
 1844TIP3   OH2 5495   0.258   0.335   2.474  0.4210 -0.2143  0.4392
 1844TIP3    H1 5496   0.208   0.262   2.437  0.2996  0.9641 -1.9012
 1844TIP3    H2 5497   0.206   0.365   2.548 -0.1134 -1.7472  0.7114
 1845TIP3   OH2 5498   2.134   6.233   3.485 -0.1922  0.0179  0.2006
 1845TIP3    H1 5499   2.171   6.192   3.406 -1.8541 -0.7239 -0.2345
 1845TIP3    H2 5500   2.131   6.327   3.464 -1.5342 -0.2743 -1.0488
 1846TIP3   OH2 5501   1.093   1.167   2.216 -0.6726  0.2824  0.4146
 1846TIP3    H1 5502   1.112   1.231   2.148  0.1460  1.1389  1.4059
 1846TIP3    H2 5503   1.058   1.219   2.289  1.1026 -0.1936  1.6844
 1847TIP3   OH2 5504   6.377   2.958   3.013  0.4739 -0.0165 -0.6396
 1847TIP3    H1 5505   6.422   2.915   2.940  1.5635  0.0736 -0.0446
 1847TIP3    H2 5506   6.429   3.037   3.030 -0.1493  0.2978 -0.1956
 1848TIP3   OH2 5507   5.420   5.482   0.142  0.1791 -0.1002  0.1289
 1848TIP3    H1 5508   5.350   5.526   0.191 -0.0223  0.0373 -0.2710
 1848TIP3    H2 5509   5.441   5.543   0.071 -0.4677 -0.8648 -0.7479
 1849TIP3   OH2 5510   1.487   3.364   3.099 -0.4713 -0.2217  0.1507
 1849TIP3    H1 5511   1.481   3.298   3.169  2.1895 -0.4073  0.3062
 1849TIP3    H2 5512   1.541   3.323   3.032 -0.0561  1.2528 -0.4499
 1850TIP3   OH2 5513   6.059   1.461   5.555  0.3143 -0.0409  0.1110
 1850TIP3    H1 5514   6.128   1.400   5.580  1.1354  0.3971 -1.0044
 1850TIP3    H2 5515   6.104   1.543   5.537 -0.7293  0.8039  1.1876
 1851TIP3   OH2 5516   1.807   0.704   4.089 -0.1356 -0.2115  0.1386
 1851TIP3    H1 5517   1.758   0.668   4.163  1.6799 -1.3647  0.8458
 1851TIP3    H2 5518   1.848   0.628   4.047  0.9659  0.6751 -0.4560
 1852TIP3   OH2 5519   6.047   0.718   3.721 -0.6514  0.3944 -0.1547
 1852TIP3    H1 5520   6.142   0.722   3.725 -0.7043  0.5392  2.3420
 1852TIP3    H2 5521   6.022   0.661   3.794 -2.4451 -0.8046 -1.6061
 1853TIP3   OH2 5522   1.237   2.734   5.192 -0.4004  0.3108  0.0606
 1853TIP3    H1 5523   1.280   2.766   5.272 -0.9314  0.7685  0.1647
 1853TIP3    H2 5524   1.293   2.662   5.163 -0.3215 -0.0054  0.9680
 1854TIP3   OH2 5525   0.234   3.536   3.942 -0.5171  0.6364  0.1932
 1854TIP3    H1 5526   0.320   3.517   3.904 -0.2949  0.1047  0.9575
 1854TIP3    H2 5527   0.189   3.586   3.874 -0.2028 -0.4829 -0.8686
 1855TIP3   OH2 5528   2.206   3.692   0.159 -0.1633  0.1268 -0.2609
 1855TIP3    H1 5529   2.145   3.618   0.167 -1.4229  1.0487 -0.9264
 1855TIP3    H2 5530   2.292   3.652   0.164 -0.7749 -1.6281 -2.3534
 1856TIP3   OH2 5531   4.311   4.473   2.126  0.1531  0.1031  0.0969
 1856TIP3    H1 5532   4.365   4.394   2.138 -0.6473 -0.7620 -1.6031
 1856TIP3    H2 5533   4.297   4.505   2.215  1.3814 -1.0638  0.7666
 1857TIP3   OH2 5534   5.702   3.417   5.643 -0.0007  0.1238  0.0268
 1857TIP3    H1 5535   5.647   3.392   5.718 -1.7426 -0.2693 -1.3313
 1857TIP3    H2 5536   5.645   3.470   5.588  1.3537  0.6749 -0.8898
 1858TIP3   OH2 5537   0.914   2.978   3.543  0.2430 -0.4779  0.3158
 1858TIP3    H1 5538   0.954   2.922   3.477 -0.1464 -0.5713  0.1562
 1858TIP3    H2 5539   0.953   2.949   3.626  0.2942 -0.7598  0.1952
 1859TIP3   OH2 5540   1.765   4.764   3.051  0.2785  0.3391  0.1442
 1859TIP3    H1 5541   1.698   4.721   2.997 -0.7051 -0.5610  1.9843
 1859TIP3    H2 5542   1.726   4.849   3.073  0.8096  0.8347 -0.7654
 1860TIP3   OH2 5543   1.748   1.491   2.567  0.1942  0.1101  0.6016
 1860TIP3    H1 5544   1.728   1.583   2.546 -0.4673  0.2213  1.6320
 1860TIP3    H2 5545   1.819   1.497   2.632  0.3191 -0.1204  0.4861
 1861TIP3   OH2 5546   4.124   6.159   3.636 -0.6727 -0.3097 -0.1343
 1861TIP3    H1 5547   4.058   6.092   3.653  0.2437 -1.3531 -0.5990
 1861TIP3    H2 5548   4.101   6.194   3.550 -0.4766 -0.8581 -0.4145
 1862TIP3   OH2 5549   0.612   5.898   4.962  0.0028  0.6212  0.2671
 1862TIP3    H1 5550   0.552   5.939   4.900 -0.0103 -0.7234 -0.6648
 1862TIP3    H2 5551   0.610   5.954   5.039 -1.4815  1.2774 -0.2211
 1863TIP3   OH2 5552   4.976   3.822   2.918 -0.9947 -0.0252  0.2389
 1863TIP3    H1 5553   4.999   3.785   3.003 -1.1266 -0.0286  0.2740
 1863TIP3    H2 5554   5.021   3.766   2.855 -0.5215  0.2533  0.3216
 1864TIP3   OH2 5555   3.735   2.128   0.643 -0.3589  0.6047  0.0529
 1864TIP3    H1 5556   3.658   2.108   0.590 -1.2430  1.8630  0.8130
 1864TIP3    H2 5557   3.723   2.077   0.723  0.6059 -0.7159 -0.6016
 1865TIP3   OH2 5558   1.388   2.399   2.669 -0.6937  0.9029 -0.2691
 1865TIP3    H1 5559   1.365   2.426   2.758  1.2650  0.0609  0.5406
 1865TIP3    H2 5560   1.482   2.416   2.662 -0.2741 -1.4344 -1.2617
 1866TIP3   OH2 5561   7.063   1.877   5.184 -0.1142 -0.0155  0.4734
 1866TIP3    H1 5562   7.005   1.948   5.159  0.4732  0.3852  0.2386
 1866TIP3    H2 5563   7.059   1.874   5.280 -0.1208  0.3478  0.4832
 1867TIP3   OH2 5564   5.898   5.907   2.491  0.3831  0.2491 -0.0445
 1867TIP3    H1 5565   5.874   5.961   2.566  3.8309  2.2157 -0.1267
 1867TIP3    H2 5566   5.973   5.855   2.522  1.3281  0.4682 -1.8409
 1868TIP3   OH2 5567   5.233   6.366   2.895  0.4168 -0.6402  0.5343
 1868TIP3    H1 5568   5.165   6.358   2.828  0.5957 -0.3173  0.3092
 1868TIP3    H2 5569   5.302   6.307   2.866  0.7834  0.0097  0.0686
 1869TIP3   OH2 5570   5.678   6.803   0.051  0.4564  0.4106  0.5676
 1869TIP3    H1 5571   5.635   6.846  -0.022  1.2972  0.1581 -0.0921
 1869TIP3    H2 5572   5.681   6.710   0.027 -1.0776 -0.0219  1.8421
 1870TIP3   OH2 5573   0.579   4.627   5.628 -0.1295  0.3696  0.1339
 1870TIP3    H1 5574   0.570   4.612   5.722  1.1326  0.5210  0.3025
 1870TIP3    H2 5575   0.491   4.646   5.598 -0.6611 -0.3311  1.1688
 1871TIP3   OH2 5576   0.941   5.400   2.801 -0.0322  0.1278  0.1673
 1871TIP3    H1 5577   0.932   5.495   2.793  0.2422  0.1265 -0.1666
 1871TIP3    H2 5578   0.876   5.364   2.741  1.1463  0.1158 -1.1510
 1872TIP3   OH2 5579   1.422   5.665   3.611  0.4786  0.1738 -0.5142
 1872TIP3    H1 5580   1.392   5.692   3.524  0.6260  0.5670 -0.4443
 1872TIP3    H2 5581   1.477   5.588   3.595  1.5092  0.9687 -0.8969
 1873TIP3   OH2 5582   4.369   3.334   2.201  0.1866  0.6959 -0.7159
 1873TIP3    H1 5583   4.389   3.242   2.180  0.2167  0.6384 -0.4424
 1873TIP3    H2 5584   4.406   3.347   2.289 -1.0474  0.5523 -0.1449
 1874TIP3   OH2 5585   6.784   4.767   2.076 -0.0534  0.4420  0.3900
 1874TIP3    H1 5586   6.842   4.773   2.000  0.8191  0.8568  1.0788
 1874TIP3    H2 5587   6.841   4.781   2.151 -0.6333 -1.3576  1.2344
 1875TIP3   OH2 5588   6.902   2.479   1.397 -0.3419 -0.1770 -0.2851
 1875TIP3    H1 5589   6.870   2.563   1.429  0.1301 -0.0057 -0.2519
 1875TIP3    H2 5590   6.826   2.422   1.397 -0.3710 -0.1573  1.0795
 1876TIP3   OH2 5591   5.505   3.855   4.304  0.1799  0.1508 -0.1337
 1876TIP3    H1 5592   5.462   3.829   4.385  0.0124  0.6142 -0.0724
 1876TIP3    H2 5593   5.440   3.839   4.236  0.7660 -1.4921 -0.3589
 1877TIP3   OH2 5594   5.250   1.474   2.769  0.0288 -0.2495  0.6292
 1877TIP3    H1 5595   5.272   1.399   2.825  2.5260  0.1756  0.3611
 1877TIP3    H2 5596   5.244   1.437   2.681  0.5439 -0.2601  0.5950
 1878TIP3   OH2 5597   0.480   2.658   3.485  0.3948  0.4476 -0.3637
 1878TIP3    H1 5598   0.428   2.599   3.540  1.0533  1.8749  1.9467
 1878TIP3    H2 5599   0.455   2.636   3.395 -0.9383 -1.8452  0.4877
 1879TIP3   OH2 5600   3.363   5.699   1.796  0.1121 -0.2323 -0.3885
 1879TIP3    H1 5601   3.376   5.722   1.704  0.3520 -2.2558 -0.8989
 1879TIP3    H2 5602   3.444   5.655   1.821 -0.0811  0.0118  0.7130
 1880TIP3   OH2 5603   3.969   1.514   1.816 -0.6574  0.3314 -0.5538
 1880TIP3    H1 5604   4.051   1.488   1.857 -1.4480 -1.8956 -0.2357
 1880TIP3    H2 5605   3.920   1.558   1.886  0.4027  2.1283 -0.8819
 1881TIP3   OH2 5606   3.443   1.864   5.089  0.0479 -0.7301  0.2051
 1881TIP3    H1 5607   3.461   1.928   5.159 -0.4698 -0.5609  0.1887
 1881TIP3    H2 5608   3.511   1.797   5.099 -0.0528 -0.7330  0.9072
 1882TIP3   OH2 5609   3.516   2.670   0.280 -0.8022  0.3383 -0.1958
 1882TIP3    H1 5610   3.438   2.685   0.333 -0.4784  0.5979  0.2140
 1882TIP3    H2 5611   3.484   2.620   0.205 -1.5295  1.2408 -0.5100
 1883TIP3   OH2 5612   5.938   1.373   1.299 -0.1600  0.6217 -0.4692
 1883TIP3    H1 5613   6.006   1.327   1.348 -1.1369 -0.7922 -0.3600
 1883TIP3    H2 5614   5.944   1.338   1.210 -0.3373  0.9551 -0.6144
 1884TIP3   OH2 5615   3.976   5.946   2.149 -0.3043 -0.2973  0.5787
 1884TIP3    H1 5616   3.957   5.890   2.224  2.0706 -1.2176  0.5889
 1884TIP3    H2 5617   4.008   6.028   2.187  0.1098 -0.4594  0.5866
 1885TIP3   OH2 5618   1.398   4.423   2.028 -0.2846  0.0061  0.1354
 1885TIP3    H1 5619   1.384   4.382   2.113 -0.9587  1.4777  0.7649
 1885TIP3    H2 5620   1.310   4.452   2.000 -0.8015 -3.6077 -2.8183
 1886TIP3   OH2 5621   1.288   5.711   3.374  0.1256 -0.5978  0.6832
 1886TIP3    H1 5622   1.194   5.698   3.376 -0.1750  1.0680 -0.4425
 1886TIP3    H2 5623   1.306   5.739   3.284  1.7080 -0.9599  0.8599
 1887TIP3   OH2 5624   2.787   1.936   4.052  0.1110 -0.3730 -0.2517
 1887TIP3    H1 5625   2.828   2.022   4.057  1.7881 -0.9768 -1.9522
 1887TIP3    H2 5626   2.841   1.881   4.109 -1.1479 -0.2684  1.0817
 1888TIP3   OH2 5627   5.866   0.673   2.398 -0.3844 -0.1576 -0.7858
 1888TIP3    H1 5628   5.956   0.644   2.414 -0.1663  1.5100  1.3490
 1888TIP3    H2 5629   5.865   0.697   2.306  1.1941 -0.7523 -0.9931
 1889TIP3   OH2 5630   1.474   1.280   2.154  0.0431  0.0888 -0.1844
 1889TIP3    H1 5631   1.483   1.185   2.149  0.0413  0.1389 -1.3917
 1889TIP3    H2 5632   1.516   1.303   2.237  2.1889 -0.7255 -0.9665
 1890TIP3   OH2 5633   3.113   4.410   5.781  0.0659 -0.3244  0.2942
 1890TIP3    H1 5634   3.137   4.434   5.870  0.3583  0.5343 -0.0003
 1890TIP3    H2 5635   3.193   4.425   5.730 -0.6405  1.1131 -0.4401
 1891TIP3   OH2 5636   1.743   3.548   5.774 -0.2470  0.0082 -0.2049
 1891TIP3    H1 5637   1.704   3.547   5.862  0.8134 -1.1858  0.2796
 1891TIP3    H2 5638   1.802   3.624   5.776 -0.2825  0.0301  0.0950
 1892TIP3   OH2 5639   0.260   4.849   3.427  0.6474 -0.6762  0.0150
 1892TIP3    H1 5640   0.218   4.923   3.384 -0.5601 -1.4029 -0.0807
 1892TIP3    H2 5641   0.332   4.825   3.369 -0.4005 -1.0615 -1.1583
 1893TIP3   OH2 5642   6.789   1.611   0.570  0.0075  0.3263  0.3680
 1893TIP3    H1 5643   6.767   1.678   0.505  0.1999 -1.3578 -1.5243
 1893TIP3    H2 5644   6.867   1.568   0.534  0.1737 -0.5890  1.7742
 1894TIP3   OH2 5645   2.456   0.145   5.128  0.2636  0.0336 -0.7964
 1894TIP3    H1 5646   2.447   0.073   5.191  1.3549 -0.3476 -1.0476
 1894TIP3    H2 5647   2.526   0.199   5.165 -1.7813  2.0521  0.3787
 1895TIP3   OH2 5648   3.337   5.065   1.892 -0.8399  0.1515  0.8802
 1895TIP3    H1 5649   3.415   5.118   1.911  0.2994 -0.7609 -0.8896
 1895TIP3    H2 5650   3.339   5.054   1.797 -2.1856 -1.3441  0.9902
 1896TIP3   OH2 5651   3.334   5.656   5.290  1.0500 -0.3452  0.2726
 1896TIP3    H1 5652   3.321   5.562   5.304  0.0737 -0.2951 -0.2358
 1896TIP3    H2 5653   3.275   5.679   5.219  0.7752  0.7948  0.8378
 1897TIP3   OH2 5654   2.024   0.726   2.990 -0.7610 -0.5147  0.2170
 1897TIP3    H1 5655   1.947   0.674   3.013 -0.6378 -0.2651  1.2574
 1897TIP3    H2 5656   2.081   0.666   2.943 -1.0289 -1.0606  0.5846
 1898TIP3   OH2 5657   1.182   3.402   5.163 -0.3298  0.1997 -0.0880
 1898TIP3    H1 5658   1.181   3.309   5.185 -0.3019  0.5419  1.4833
 1898TIP3    H2 5659   1.094   3.420   5.130 -1.0831  0.0544  1.7179
 1899TIP3   OH2 5660   2.294   4.335   5.102 -0.2334 -0.5855  0.5060
 1899TIP3    H1 5661   2.301   4.350   5.196  0.3079  0.1202  0.3571
 1899TIP3    H2 5662   2.382   4.353   5.068 -0.5208 -0.4608 -0.1862
 1900TIP3   OH2 5663   2.063   6.569   1.938  0.5305 -0.2883  0.5150
 1900TIP3    H1 5664   1.994   6.518   1.981 -0.9422  0.0204 -1.3242
 1900TIP3    H2 5665   2.062   6.654   1.982 -0.0615 -0.3912  0.7076
 1901TIP3   OH2 5666   6.681   6.446   1.180  0.3179 -0.4160 -0.2227
 1901TIP3    H1 5667   6.687   6.401   1.096 -1.5848  0.0162 -0.6308
 1901TIP3    H2 5668   6.668   6.538   1.158 -3.0014 -0.6332  0.3947
 1902TIP3   OH2 5669   3.772   2.762   5.161  0.3602  0.1930 -0.0468
 1902TIP3    H1 5670   3.857   2.752   5.202  0.5536 -0.2761 -0.5449
 1902TIP3    H2 5671   3.710   2.771   5.233  1.0543  2.7129  0.3359
 1903TIP3   OH2 5672   6.556   2.604   1.603  0.0568 -0.0824  0.4001
 1903TIP3    H1 5673   6.519   2.688   1.628 -2.1331 -0.9928  0.4577
 1903TIP3    H2 5674   6.548   2.602   1.507 -0.6745 -0.5145  0.4557
 1904TIP3   OH2 5675   1.990   3.514   0.217 -0.0992  0.7072  0.1176
 1904TIP3    H1 5676   1.960   3.567   0.291  0.0224  1.1960 -0.1804
 1904TIP3    H2 5677   1.914   3.508   0.159  0.3235  1.8966 -0.6092
 1905TIP3   OH2 5678   3.244   6.591   5.555  0.0485 -0.1192  0.5326
 1905TIP3    H1 5679   3.209   6.505   5.578 -0.9754 -0.2458 -1.3401
 1905TIP3    H2 5680   3.168   6.643   5.532  0.8682 -0.1611 -2.8858
 1906TIP3   OH2 5681   4.129   2.534   0.838  0.0952 -0.3321  0.6876
 1906TIP3    H1 5682   4.039   2.528   0.872 -0.1751  1.5763  0.4181
 1906TIP3    H2 5683   4.173   2.596   0.896  0.6910  0.1619 -0.2571
 1907TIP3   OH2 5684   4.874   3.888   4.679 -0.1715  0.2058 -0.5753
 1907TIP3    H1 5685   4.791   3.874   4.632 -0.2092  1.8215 -1.0404
 1907TIP3    H2 5686   4.856   3.856   4.768 -1.0426 -0.1858 -0.8761
 1908TIP3   OH2 5687   4.590   1.997   3.574 -0.2818  0.4458  0.0313
 1908TIP3    H1 5688   4.519   1.985   3.512 -0.7561  1.7089  0.3066
 1908TIP3    H2 5689   4.668   1.965   3.527 -0.8709 -0.1038 -0.6003
 1909TIP3   OH2 5690   6.233   2.560   2.230  0.3217  0.4457 -0.5275
 1909TIP3    H1 5691   6.319   2.583   2.263  0.7200  0.7980 -1.7605
 1909TIP3    H2 5692   6.183   2.642   2.232 -0.5663 -0.0837  1.7808
 1910TIP3   OH2 5693   3.816   0.627   3.030  0.0905 -0.2178  0.3885
 1910TIP3    H1 5694   3.847   0.605   3.118 -1.3757 -1.2069  0.6896
 1910TIP3    H2 5695   3.837   0.720   3.020  0.3082 -0.0958  1.7735
 1911TIP3   OH2 5696   1.595   4.622   0.223  0.4722 -0.3327 -0.3700
 1911TIP3    H1 5697   1.594   4.546   0.282  0.6147  0.2562  0.4027
 1911TIP3    H2 5698   1.629   4.694   0.277 -2.1136  0.9211 -0.2821
 1912TIP3   OH2 5699   3.343   5.955   2.708 -0.0521 -0.0134  0.1533
 1912TIP3    H1 5700   3.347   6.004   2.625 -0.9758  0.8698  0.6118
 1912TIP3    H2 5701   3.256   5.974   2.742  0.2152 -0.6193  1.1860
 1913TIP3   OH2 5702   4.647   1.865   2.475 -0.1992 -0.1540  0.0476
 1913TIP3    H1 5703   4.736   1.894   2.495  0.1169 -0.9173 -0.2353
 1913TIP3    H2 5704   4.592   1.941   2.494  0.6312  0.6794 -0.8187
 1914TIP3   OH2 5705   6.158   1.218   1.060  0.0225  0.1269 -0.2232
 1914TIP3    H1 5706   6.129   1.262   0.980  1.9811 -0.1072 -1.1267
 1914TIP3    H2 5707   6.171   1.127   1.034  1.4956  0.2192  0.1137
 1915TIP3   OH2 5708   3.485   4.020   4.003 -0.2919 -0.4908 -0.3225
 1915TIP3    H1 5709   3.419   4.060   4.060  0.7493 -0.1429  0.6902
 1915TIP3    H2 5710   3.501   4.085   3.936 -0.6409 -0.3869 -0.3101
 1916TIP3   OH2 5711   2.422   0.974   5.362  0.3644 -0.6573 -0.0304
 1916TIP3    H1 5712   2.352   0.963   5.426  0.0244  1.0800 -0.0617
 1916TIP3    H2 5713   2.377   0.987   5.279  0.7594 -0.5280 -0.2275
 1917TIP3   OH2 5714   0.457   5.289   1.829  0.2216 -0.3665 -0.3029
 1917TIP3    H1 5715   0.466   5.220   1.762  1.3905 -1.3828  0.8395
 1917TIP3    H2 5716   0.518   5.263   1.898  1.2150  2.1932 -0.1096
 1918TIP3   OH2 5717   6.497   5.950   3.481 -0.1002  0.0086 -0.3345
 1918TIP3    H1 5718   6.524   6.034   3.444 -0.2011  1.1259  1.9410
 1918TIP3    H2 5719   6.509   5.960   3.575 -1.6416 -1.9789  0.1584
 1919TIP3   OH2 5720   4.617   2.121   0.969 -0.0525 -0.3993  0.1990
 1919TIP3    H1 5721   4.529   2.108   1.004  0.1151  1.2076  1.3364
 1919TIP3    H2 5722   4.633   2.215   0.978  1.0075 -0.3149 -1.8966
 1920TIP3   OH2 5723   4.718   2.440   3.242  0.0011  0.5424 -0.4347
 1920TIP3    H1 5724   4.734   2.413   3.333 -0.8001  0.9106 -0.1727
 1920TIP3    H2 5725   4.765   2.376   3.189  0.4182  0.2814  0.2415
 1921TIP3   OH2 5726   2.572   5.082   5.259 -0.3019 -0.1272  0.2290
 1921TIP3    H1 5727   2.551   5.097   5.167  0.6025 -1.9008 -0.3042
 1921TIP3    H2 5728   2.667   5.091   5.264 -0.4980  1.9992  1.4452
 1922TIP3   OH2 5729   4.576   0.650   2.021 -0.4534  0.9026 -0.2578
 1922TIP3    H1 5730   4.592   0.721   1.958  0.8418  1.7360  0.9477
 1922TIP3    H2 5731   4.580   0.693   2.107  0.0556 -0.5643  0.4840
 1923TIP3   OH2 5732   2.832   6.112   0.736  0.2472 -0.1206 -0.1587
 1923TIP3    H1 5733   2.837   6.102   0.831  1.5302 -0.2193 -0.2235
 1923TIP3    H2 5734   2.873   6.032   0.702  0.1032  0.0708 -0.7881
 1924TIP3   OH2 5735   4.994   0.216   2.597  0.1668 -0.4990 -0.6985
 1924TIP3    H1 5736   4.937   0.293   2.601  1.5057  0.5960 -1.6417
 1924TIP3    H2 5737   5.028   0.216   2.507  1.1048 -1.5112 -0.3662
 1925TIP3   OH2 5738   0.051   5.933   3.716  0.3905 -0.1985 -0.5463
 1925TIP3    H1 5739  -0.033   5.944   3.759  0.8179  2.4056 -0.2454
 1925TIP3    H2 5740   0.106   5.888   3.781 -0.7711 -2.1434 -0.8389
 1926TIP3   OH2 5741   4.116   2.236   1.127 -0.2938 -0.2382 -0.0064
 1926TIP3    H1 5742   4.098   2.240   1.221 -0.7613 -1.1790 -0.0483
 1926TIP3    H2 5743   4.211   2.230   1.121 -0.2258  0.3358  0.3777
 1927TIP3   OH2 5744   0.993   5.639   1.801  0.2229 -0.3820 -0.2221
 1927TIP3    H1 5745   0.933   5.565   1.817  1.4554 -1.6485 -1.1854
 1927TIP3    H2 5746   0.964   5.707   1.862  0.0952 -2.2723  1.9666
 1928TIP3   OH2 5747   1.737   3.064   5.121 -0.2274  0.0142 -0.1155
 1928TIP3    H1 5748   1.714   3.083   5.030 -1.0207 -0.3654 -0.0059
 1928TIP3    H2 5749   1.655   3.035   5.161  0.2957 -0.6726  0.4969
 1929TIP3   OH2 5750   2.320   4.901   5.679  1.0099  0.3305 -0.3462
 1929TIP3    H1 5751   2.354   4.903   5.768  0.8182 -0.6728 -0.2445
 1929TIP3    H2 5752   2.393   4.867   5.627  1.1517  0.9965 -0.6032
 1930TIP3   OH2 5753   3.693   4.595   2.211 -0.2522  0.7421  0.0781
 1930TIP3    H1 5754   3.704   4.578   2.118  1.6668  2.1768 -0.0221
 1930TIP3    H2 5755   3.609   4.555   2.234  0.2986 -1.6238 -1.7431
 1931TIP3   OH2 5756   0.701   3.641   1.366  0.1918 -0.3197  0.8005
 1931TIP3    H1 5757   0.729   3.578   1.299 -0.5636 -2.9609  2.8080
 1931TIP3    H2 5758   0.722   3.599   1.449 -3.2261  0.6789  2.3208
 1932TIP3   OH2 5759   6.183   0.902   2.263 -0.1858  0.0403  0.4656
 1932TIP3    H1 5760   6.191   0.858   2.348  2.2203 -0.2645  0.1725
 1932TIP3    H2 5761   6.134   0.982   2.282 -2.0954 -1.3283  1.5764
 1933TIP3   OH2 5762   5.260   0.320   3.135  0.3925  0.1081  0.4539
 1933TIP3    H1 5763   5.242   0.360   3.220  0.1635 -0.1043  0.5078
 1933TIP3    H2 5764   5.355   0.329   3.124  0.1053  2.5382 -0.4868
 1934TIP3   OH2 5765   2.948   5.628   1.758 -0.5529 -0.2639 -0.1870
 1934TIP3    H1 5766   2.988   5.704   1.715 -1.5772  0.6373  0.4004
 1934TIP3    H2 5767   2.866   5.661   1.793 -1.0621 -1.6828  0.0135
 1935TIP3   OH2 5768   0.858   3.415   3.545  0.4510 -0.1223  0.2390
 1935TIP3    H1 5769   0.944   3.429   3.506 -0.7329  0.6058 -2.3967
 1935TIP3    H2 5770   0.832   3.500   3.580  0.5589 -0.1745  0.4414
 1936TIP3   OH2 5771   4.135   6.479   3.005 -0.3115 -0.7973 -0.2426
 1936TIP3    H1 5772   4.058   6.528   3.034 -0.3563 -0.6239 -0.6496
 1936TIP3    H2 5773   4.140   6.495   2.911 -0.6317 -2.0040 -0.4783
 1937TIP3   OH2 5774   4.454   1.940   4.078  0.4263 -0.4242 -0.1826
 1937TIP3    H1 5775   4.378   1.992   4.103  0.0247 -0.9406 -0.3101
 1937TIP3    H2 5776   4.525   1.973   4.134  0.7876  1.8273 -1.8423
 1938TIP3   OH2 5777   3.929   3.277   2.833  0.2543  0.3478  0.5460
 1938TIP3    H1 5778   3.956   3.296   2.922 -0.2044 -0.3165  0.8364
 1938TIP3    H2 5779   3.977   3.198   2.809 -0.2530  0.0377  0.5164
 1939TIP3   OH2 5780   6.915   3.351   5.036  0.2471 -0.2748 -0.1805
 1939TIP3    H1 5781   6.960   3.316   4.959  1.3559  1.8350 -0.5468
 1939TIP3    H2 5782   6.932   3.445   5.034 -2.5075  0.3335  0.8154
 1940TIP3   OH2 5783   0.069   6.113   1.293  0.7049  0.1365 -0.1151
 1940TIP3    H1 5784   0.138   6.047   1.286 -0.1267 -0.7700 -0.0595
 1940TIP3    H2 5785   0.046   6.113   1.386  2.0600  1.9650  0.2630
 1941TIP3   OH2 5786   6.952   3.827   0.252 -0.1548 -0.3139  0.3834
 1941TIP3    H1 5787   6.951   3.815   0.157  0.6016 -0.2063  0.3578
 1941TIP3    H2 5788   6.860   3.834   0.276 -0.2938  2.0010 -0.6321
 1942TIP3   OH2 5789   1.079   0.255   1.800  0.3503 -0.3291 -0.2776
 1942TIP3    H1 5790   1.109   0.343   1.778  0.5009 -0.1619  0.5737
 1942TIP3    H2 5791   1.002   0.242   1.745  0.9889 -0.1187 -1.2622
 1943TIP3   OH2 5792   5.991   3.218   0.046  0.4681  0.1428  0.2774
 1943TIP3    H1 5793   5.956   3.240  -0.041 -1.2033  1.2183  1.1852
 1943TIP3    H2 5794   6.065   3.161   0.027 -0.1100 -0.0024 -1.8545
 1944TIP3   OH2 5795   4.892   5.938   5.605  0.3789  0.0214  0.7371
 1944TIP3    H1 5796   4.868   5.857   5.651 -1.2867 -0.5854 -1.0650
 1944TIP3    H2 5797   4.858   6.008   5.662 -0.5865 -0.6556  1.0276
 1945TIP3   OH2 5798   3.052   1.642   2.733  0.0405  0.0970 -0.0373
 1945TIP3    H1 5799   3.058   1.736   2.750 -0.2163  0.0044  0.5796
 1945TIP3    H2 5800   3.101   1.630   2.651 -0.2257  0.8188 -0.3169
 1946TIP3   OH2 5801   2.972   1.687   3.840 -0.3617 -0.1798  0.5729
 1946TIP3    H1 5802   2.894   1.632   3.835 -0.4672  0.0991 -1.3777
 1946TIP3    H2 5803   3.035   1.633   3.889 -1.3573 -0.8828  1.1335
 1947TIP3   OH2 5804   4.949   0.716   0.649 -0.1211 -0.3024 -0.5096
 1947TIP3    H1 5805   4.861   0.730   0.615  0.6951  0.9448 -2.2382
 1947TIP3    H2 5806   4.944   0.743   0.741 -1.8176 -1.4819 -0.2205
 1948TIP3   OH2 5807   4.463   3.665   4.722 -0.1304 -0.0530 -0.2356
 1948TIP3    H1 5808   4.445   3.759   4.718 -3.1694 -0.5677 -1.3579
 1948TIP3    H2 5809   4.427   3.637   4.806  2.9180  0.0625  1.2210
 1949TIP3   OH2 5810   3.277   0.622   5.287 -0.3558  0.3525  0.1247
 1949TIP3    H1 5811   3.351   0.628   5.348 -0.2338  0.8826 -0.0683
 1949TIP3    H2 5812   3.225   0.549   5.320 -0.0167  0.3030  0.5635
 1950TIP3   OH2 5813   0.790   2.663   4.454  0.1532 -0.0306 -0.1397
 1950TIP3    H1 5814   0.697   2.651   4.439  0.2713  0.6090 -1.6105
 1950TIP3    H2 5815   0.829   2.578   4.433 -0.2062 -0.7062  1.8062
 1951TIP3   OH2 5816   4.380   3.085   0.192  0.6800  0.3928 -0.5779
 1951TIP3    H1 5817   4.435   3.117   0.120 -0.2505  1.2895 -0.9103
 1951TIP3    H2 5818   4.442   3.045   0.253  1.7958  1.8637 -0.6780
 1952TIP3   OH2 5819   5.358   3.841   2.040  0.1957  0.4394  0.0878
 1952TIP3    H1 5820   5.263   3.839   2.054 -0.0457 -0.4288 -1.3789
 1952TIP3    H2 5821   5.367   3.854   1.945  1.4915 -0.9682 -0.0255
 1953TIP3   OH2 5822   4.421   0.418   3.574 -0.7275 -0.2851  0.5293
 1953TIP3    H1 5823   4.470   0.418   3.492  0.5217  0.5925  1.2525
 1953TIP3    H2 5824   4.338   0.376   3.551  0.0566 -1.1756 -0.8910
 1954TIP3   OH2 5825   2.469   5.319   1.040  0.1710  0.6678 -0.2863
 1954TIP3    H1 5826   2.405   5.305   1.110  1.0912  1.1510  0.6694
 1954TIP3    H2 5827   2.546   5.269   1.068  0.0931 -0.2502 -1.6290
 1955TIP3   OH2 5828   0.261   6.649   0.922 -0.0848 -0.1562 -0.1203
 1955TIP3    H1 5829   0.187   6.674   0.867  0.2061  2.0004  0.3991
 1955TIP3    H2 5830   0.301   6.731   0.949  0.8455 -1.1916  1.8940
 1956TIP3   OH2 5831   5.584   4.574   4.552 -0.6532  0.0587 -0.0194
 1956TIP3    H1 5832   5.593   4.540   4.641 -2.3812 -0.7112 -0.1070
 1956TIP3    H2 5833   5.630   4.511   4.497 -0.9167 -0.3007  0.1696
 1957TIP3   OH2 5834   3.768   2.835   4.668  0.3986  0.0430 -0.1513
 1957TIP3    H1 5835   3.682   2.877   4.660 -0.7049 -2.4129 -2.5759
 1957TIP3    H2 5836   3.749   2.742   4.674  2.9190 -0.6746 -2.0489
 1958TIP3   OH2 5837   4.172   0.694   2.346  0.4700  0.3421 -0.3500
 1958TIP3    H1 5838   4.143   0.603   2.353  0.4487  0.3849  0.1512
 1958TIP3    H2 5839   4.118   0.741   2.410  0.3956  0.7305 -0.6936
 1959TIP3   OH2 5840   5.799   2.502   3.489 -0.3533  0.2496 -0.6687
 1959TIP3    H1 5841   5.820   2.575   3.431  0.5496  0.5543  0.0278
 1959TIP3    H2 5842   5.883   2.471   3.521 -0.8107 -0.1562  0.1947
 1960TIP3   OH2 5843   6.472   1.985   2.598  0.0752  0.1000 -0.0455
 1960TIP3    H1 5844   6.412   1.955   2.667  1.5007 -2.5687  0.1613
 1960TIP3    H2 5845   6.451   1.930   2.523  1.3988 -0.0081 -0.3574
 1961TIP3   OH2 5846   7.027   0.324   2.375 -0.3254 -0.2690 -0.2669
 1961TIP3    H1 5847   7.001   0.381   2.302  0.2674  0.4167  0.0370
 1961TIP3    H2 5848   6.946   0.309   2.424 -1.0262 -1.8968 -1.8117
 1962TIP3   OH2 5849   1.816   1.625   4.403  0.3933  0.6033 -0.5994
 1962TIP3    H1 5850   1.783   1.700   4.353  0.5557  0.8835 -0.2870
 1962TIP3    H2 5851   1.743   1.563   4.403  0.8164  0.0360 -2.2986
 1963TIP3   OH2 5852   6.852   2.182   5.037  0.7428  0.2015 -0.0937
 1963TIP3    H1 5853   6.778   2.170   4.977 -0.0297  4.2968 -0.2766
 1963TIP3    H2 5854   6.826   2.137   5.117 -2.7628  2.6312  0.3369
 1964TIP3   OH2 5855   1.634   4.626   4.327  0.8137  0.0798 -0.0682
 1964TIP3    H1 5856   1.590   4.612   4.243  1.3545  0.2355 -0.3810
 1964TIP3    H2 5857   1.566   4.609   4.392  0.3457  0.1129 -0.5387
 1965TIP3   OH2 5858   0.386   1.209   5.141 -0.0425 -0.1835  0.1722
 1965TIP3    H1 5859   0.390   1.120   5.105  0.5490 -0.0811 -0.0183
 1965TIP3    H2 5860   0.410   1.266   5.069  2.7524 -0.0712  1.0899
 1966TIP3   OH2 5861   2.227   2.163   4.936 -1.1684  0.0342 -0.3335
 1966TIP3    H1 5862   2.206   2.242   4.986 -0.4393 -0.7757  1.3392
 1966TIP3    H2 5863   2.319   2.172   4.913 -1.1902 -0.1526 -0.5021
 1967TIP3   OH2 5864   6.622   6.235   1.630  0.1931  0.1196 -0.6764
 1967TIP3    H1 5865   6.657   6.208   1.545 -0.1810  1.5221 -1.3124
 1967TIP3    H2 5866   6.559   6.304   1.609  0.4041  0.7842  0.7606
 1968TIP3   OH2 5867   5.798   5.892   3.748  0.1736  0.1065 -1.0572
 1968TIP3    H1 5868   5.757   5.898   3.662 -0.1445 -2.6763 -1.1917
 1968TIP3    H2 5869   5.759   5.814   3.788  0.4599  1.1875  1.5514
 1969TIP3   OH2 5870   6.409   5.620   0.546 -0.4415  0.4204  0.5703
 1969TIP3    H1 5871   6.323   5.612   0.505 -0.4938 -1.4521  0.9479
 1969TIP3    H2 5872   6.407   5.556   0.618  2.0302 -1.3701 -0.8223
 1970TIP3   OH2 5873   3.045   0.709   3.911  0.5238  0.4905 -0.5165
 1970TIP3    H1 5874   3.044   0.678   4.001  0.6290  1.7138 -0.0730
 1970TIP3    H2 5875   2.994   0.644   3.863 -2.4391  1.4785  1.0358
 1971TIP3   OH2 5876   5.433   1.385   0.475 -0.4554 -0.5690  0.4766
 1971TIP3    H1 5877   5.400   1.303   0.438  0.1836 -1.3266  1.5346
 1971TIP3    H2 5878   5.398   1.453   0.418 -2.8424 -1.4073  0.8531
 1972TIP3   OH2 5879   0.784   1.647   3.797  0.1673  0.3491 -0.1025
 1972TIP3    H1 5880   0.808   1.737   3.775 -0.0797  0.5740  0.5178
 1972TIP3    H2 5881   0.695   1.654   3.832  0.2195 -0.1096  0.1262
 1973TIP3   OH2 5882   6.995   2.650   0.910  0.3062  0.2139 -0.7192
 1973TIP3    H1 5883   7.001   2.618   1.000 -0.5206 -1.3703 -1.1808
 1973TIP3    H2 5884   6.960   2.738   0.918  0.1526  0.0609  0.4963
 1974TIP3   OH2 5885   2.104   0.592   1.016 -0.2639 -0.0214 -0.5636
 1974TIP3    H1 5886   2.070   0.533   0.949  0.2146  0.7139 -1.4775
 1974TIP3    H2 5887   2.189   0.621   0.981 -0.2083  0.7149  0.1583
 1975TIP3   OH2 5888   2.269   3.448   5.368  0.2674  0.2355  0.3301
 1975TIP3    H1 5889   2.193   3.435   5.312  0.5073  0.8964 -0.1610
 1975TIP3    H2 5890   2.257   3.535   5.405  1.5669  1.0444 -1.0240
 1976TIP3   OH2 5891   4.637   4.504   5.356 -0.1523 -0.8171  0.5102
 1976TIP3    H1 5892   4.720   4.515   5.311 -0.8673  1.8240 -0.3241
 1976TIP3    H2 5893   4.660   4.501   5.449  0.9001 -0.5565  0.2633
 1977TIP3   OH2 5894   0.008   0.260   4.881  0.0989 -0.5024 -0.0030
 1977TIP3    H1 5895  -0.047   0.313   4.823 -1.6018 -1.1820  0.9318
 1977TIP3    H2 5896   0.088   0.311   4.891 -0.6292  0.8612 -0.8486
 1978TIP3   OH2 5897   5.617   1.289   5.252 -1.1122  0.7102  0.0781
 1978TIP3    H1 5898   5.554   1.251   5.313 -0.2904  0.1444  0.5949
 1978TIP3    H2 5899   5.702   1.252   5.279 -0.2496  2.9459  0.6466
 1979TIP3   OH2 5900   2.058   0.402   0.089  0.0344  0.2343  0.2275
 1979TIP3    H1 5901   1.971   0.368   0.069  0.7856 -0.7997 -1.5945
 1979TIP3    H2 5902   2.047   0.496   0.096 -1.0845  0.2060 -0.9081
 1980TIP3   OH2 5903   1.973   1.930   3.649 -0.1124  0.2768 -0.0815
 1980TIP3    H1 5904   2.029   1.852   3.658  1.3518  1.4806  2.3636
 1980TIP3    H2 5905   1.953   1.934   3.556  4.2345 -0.0959 -1.2640
 1981TIP3   OH2 5906   0.396   4.628   1.679 -0.0410  0.1977  0.0326
 1981TIP3    H1 5907   0.344   4.559   1.637 -0.3674  0.6098 -0.2507
 1981TIP3    H2 5908   0.366   4.626   1.771 -0.5152  0.3869 -0.1129
 1982TIP3   OH2 5909   1.025   1.371   2.410  0.3252 -0.1306  0.2469
 1982TIP3    H1 5910   0.959   1.438   2.393  0.0877 -0.1575  1.0090
 1982TIP3    H2 5911   1.107   1.408   2.376 -0.1191 -0.2007 -0.9327
 1983TIP3   OH2 5912   3.987   6.741   4.445 -0.3016  0.4904  0.3739
 1983TIP3    H1 5913   4.019   6.785   4.367 -0.9915  0.8950  0.3127
 1983TIP3    H2 5914   4.066   6.718   4.494  0.1420  0.0496 -0.5343
 1984TIP3   OH2 5915   3.062   3.222   1.798 -0.4291  0.3764  0.1926
 1984TIP3    H1 5916   3.025   3.264   1.876  0.9781  1.5867  0.2624
 1984TIP3    H2 5917   3.016   3.264   1.725 -2.9360 -1.9184  0.3101
 1985TIP3   OH2 5918   2.831   6.807   5.707 -0.1910 -0.5215  0.2062
 1985TIP3    H1 5919   2.863   6.779   5.792 -0.4925 -1.1119  0.1364
 1985TIP3    H2 5920   2.747   6.761   5.697 -0.0322 -0.6758 -0.5194
 1986TIP3   OH2 5921   3.339   0.462   0.458 -0.0466  0.4187 -0.2142
 1986TIP3    H1 5922   3.350   0.368   0.445  0.4529  0.5527 -0.8058
 1986TIP3    H2 5923   3.245   0.477   0.446 -0.2149 -0.0818  0.4334
 1987TIP3   OH2 5924   6.463   4.847   0.467  0.0385 -0.2333 -0.4062
 1987TIP3    H1 5925   6.546   4.846   0.418 -0.3679 -2.1165 -1.1646
 1987TIP3    H2 5926   6.459   4.761   0.508 -2.3013 -0.8548 -1.7783
 1988TIP3   OH2 5927   1.932   2.914   5.757 -0.2778  0.2523  0.1122
 1988TIP3    H1 5928   1.957   2.822   5.754  0.2583  0.3959  0.0585
 1988TIP3    H2 5929   1.911   2.930   5.849  0.5073  0.2936  0.2967
 1989TIP3   OH2 5930   5.699   4.956   1.419  0.0297  0.1035 -0.1882
 1989TIP3    H1 5931   5.604   4.952   1.423  0.0007 -0.1233 -1.0684
 1989TIP3    H2 5932   5.728   4.899   1.491 -0.5090 -2.2450 -1.7019
 1990TIP3   OH2 5933   3.445   2.766   3.215  0.8888  0.2157  0.2162
 1990TIP3    H1 5934   3.540   2.764   3.200  1.1796  1.5761  1.5279
 1990TIP3    H2 5935   3.407   2.784   3.129  1.9081  0.6221 -0.1636
 1991TIP3   OH2 5936   2.916   4.391   2.615  0.2051 -0.4638 -0.3573
 1991TIP3    H1 5937   2.943   4.311   2.570  1.4359  0.3591 -1.1546
 1991TIP3    H2 5938   2.821   4.392   2.608  0.2360 -1.4546 -1.0365
 1992TIP3   OH2 5939   2.308   4.765   1.572 -0.2607  0.5286 -0.3255
 1992TIP3    H1 5940   2.283   4.809   1.491 -1.8067 -0.4897 -0.4620
 1992TIP3    H2 5941   2.228   4.766   1.625  0.1598 -0.5333  0.3667
 1993TIP3   OH2 5942   1.608   2.247   3.446 -0.0898 -0.0314  0.1251
 1993TIP3    H1 5943   1.691   2.220   3.408 -0.9321 -0.0788 -1.8466
 1993TIP3    H2 5944   1.615   2.342   3.454 -0.0434  0.0332 -0.6046
 1994TIP3   OH2 5945   2.791   0.242   3.570 -0.1982 -0.0194 -0.7090
 1994TIP3    H1 5946   2.811   0.333   3.549 -0.9596  0.0696 -1.0730
 1994TIP3    H2 5947   2.788   0.198   3.485  0.4374 -0.4474 -0.5177
 1995TIP3   OH2 5948   3.021   0.380   2.278 -0.6020 -0.0203 -0.2357
 1995TIP3    H1 5949   3.030   0.430   2.359 -1.0514 -1.2969  0.6389
 1995TIP3    H2 5950   3.052   0.439   2.209 -1.0509  1.4152  0.7517
 1996TIP3   OH2 5951   2.839   4.071   3.025  0.3330 -0.3429  0.3501
 1996TIP3    H1 5952   2.795   4.155   3.012  0.0718 -0.6825 -1.1066
 1996TIP3    H2 5953   2.838   4.057   3.120 -1.4398  0.3326  0.4514
 1997TIP3   OH2 5954   2.674   4.937   0.268 -0.2957  0.2468 -0.3491
 1997TIP3    H1 5955   2.604   4.922   0.332  0.3458  1.8617  0.8257
 1997TIP3    H2 5956   2.652   4.881   0.193 -1.4151 -1.2317  1.0262
 1998TIP3   OH2 5957   1.828   2.397   2.223 -0.4755 -0.4912  0.2493
 1998TIP3    H1 5958   1.761   2.380   2.157 -0.4680  1.1023 -0.2105
 1998TIP3    H2 5959   1.897   2.444   2.176  0.1369 -0.4947  1.1173
 1999TIP3   OH2 5960   5.384   2.986   1.364 -0.0487 -0.0965 -0.0921
 1999TIP3    H1 5961   5.330   3.018   1.435  1.4134  0.0445  0.9865
 1999TIP3    H2 5962   5.401   3.063   1.310 -0.2384  0.0174  0.0079
 2000TIP3   OH2 5963   3.001   1.067   1.317  0.2461 -0.1740 -0.4954
 2000TIP3    H1 5964   2.940   1.091   1.247 -2.0053  1.9491  1.9641
 2000TIP3    H2 5965   3.088   1.084   1.280 -0.6697 -1.3368 -3.4457
 2001TIP3   OH2 5966   5.438   1.634   1.569  0.2940 -0.5233 -0.3996
 2001TIP3    H1 5967   5.511   1.694   1.553  1.5098 -2.1568 -1.2291
 2001TIP3    H2 5968   5.463   1.553   1.525 -1.0473 -1.8405  1.1340
 2002TIP3   OH2 5969   6.884   4.912   2.744  0.5603  0.1747 -0.2077
 2002TIP3    H1 5970   6.906   4.968   2.670  0.2492  1.4712  0.6411
 2002TIP3    H2 5971   6.934   4.948   2.817 -0.0268 -0.3475  0.4694
 2003TIP3   OH2 5972   4.246   0.984   5.320 -0.2227 -0.5840  0.2775
 2003TIP3    H1 5973   4.309   0.913   5.312 -0.2238 -0.8659  2.2034
 2003TIP3    H2 5974   4.284   1.056   5.270  0.6604 -1.3651 -0.2092
 2004TIP3   OH2 5975   5.774   3.126   0.288 -0.2001  0.1806 -0.0188
 2004TIP3    H1 5976   5.690   3.172   0.299 -1.0243 -0.8093 -1.7022
 2004TIP3    H2 5977   5.838   3.196   0.276 -0.4448  1.0302  2.8723
 2005TIP3   OH2 5978   0.616   4.979   3.325  0.3676 -0.4390  0.2816
 2005TIP3    H1 5979   0.579   4.894   3.305  0.6693 -0.5664  0.2564
 2005TIP3    H2 5980   0.683   4.961   3.392  1.7444 -0.4871 -1.0667
 2006TIP3   OH2 5981   1.705   4.450   1.617 -0.2535 -0.8752 -0.0298
 2006TIP3    H1 5982   1.781   4.406   1.579  0.2016 -0.5959  0.5392
 2006TIP3    H2 5983   1.716   4.439   1.712 -0.0433  0.5932  0.1351
 2007TIP3   OH2 5984   4.908   6.785   1.317 -0.2627  0.0937 -0.2360
 2007TIP3    H1 5985   4.989   6.811   1.273 -0.9453  1.4780 -0.7548
 2007TIP3    H2 5986   4.938   6.742   1.398  0.9838 -0.5874 -1.0252
 2008TIP3   OH2 5987   4.045   2.242   2.090 -1.1282 -0.2363  0.0850
 2008TIP3    H1 5988   4.066   2.286   2.173 -0.4960 -0.7165  0.1863
 2008TIP3    H2 5989   4.115   2.269   2.030 -1.6279  0.1738 -0.3187
 2009TIP3   OH2 5990   1.144   4.573   5.308 -0.3307 -0.3387 -0.0820
 2009TIP3    H1 5991   1.092   4.502   5.347  0.3812 -0.9906 -0.3073
 2009TIP3    H2 5992   1.227   4.572   5.357 -0.2297  0.2039 -0.2289
 2010TIP3   OH2 5993   0.533   1.664   3.862  0.0774  0.2456  0.3870
 2010TIP3    H1 5994   0.480   1.584   3.867 -0.1673  0.3934  0.1861
 2010TIP3    H2 5995   0.506   1.715   3.938  0.0227  0.2634  0.3559
 2011TIP3   OH2 5996   2.349   0.705   4.487  0.5119  0.0123 -0.5873
 2011TIP3    H1 5997   2.427   0.753   4.514 -0.4239  1.6287 -0.6031
 2011TIP3    H2 5998   2.357   0.698   4.392  0.3881  0.6782 -0.6539
 2012TIP3   OH2 5999   1.964   5.667   4.603  0.0245 -0.6673  0.4305
 2012TIP3    H1 6000   1.883   5.619   4.587 -0.6995  0.3576  0.8786
 2012TIP3    H2 6001   1.966   5.680   4.698  0.7698 -0.7619  0.4368
 2013TIP3   OH2 6002   5.625   6.552   3.557 -0.6088 -0.0143  0.0347
 2013TIP3    H1 6003   5.608   6.480   3.618  1.2052  0.7940  1.6000
 2013TIP3    H2 6004   5.716   6.541   3.531 -0.1359  1.9772  0.7074
 2014TIP3   OH2 6005   2.110   1.706   2.722  0.2222 -0.0187  0.5016
 2014TIP3    H1 6006   2.167   1.700   2.799  1.5424 -0.0343 -0.4298
 2014TIP3    H2 6007   2.076   1.617   2.711 -2.5067  0.5833  2.8195
 2015TIP3   OH2 6008   5.185   0.436   4.098 -0.3517 -0.3059  0.8945
 2015TIP3    H1 6009   5.228   0.351   4.091  0.4079  0.1627 -0.3989
 2015TIP3    H2 6010   5.256   0.500   4.085 -0.5227  0.6122  3.7348
 2016TIP3   OH2 6011   0.326   5.613   4.923 -0.1667  0.3906  0.0682
 2016TIP3    H1 6012   0.414   5.652   4.923 -0.1152  0.2751 -0.1622
 2016TIP3    H2 6013   0.298   5.617   5.015 -0.0393  0.6953  0.0950
 2017TIP3   OH2 6014   0.622   0.131   5.304 -0.6312  0.1338 -0.0616
 2017TIP3    H1 6015   0.587   0.169   5.384 -1.2203  0.6110 -0.5288
 2017TIP3    H2 6016   0.615   0.036   5.317 -1.2668  0.2140  0.2189
 2018TIP3   OH2 6017   5.383   6.735   3.613  0.2665 -0.0334 -0.6093
 2018TIP3    H1 6018   5.434   6.791   3.672 -0.7511 -0.2883  0.5332
 2018TIP3    H2 6019   5.445   6.711   3.544  2.0153 -1.0652  1.1968
 2019TIP3   OH2 6020   4.046   0.524   0.446 -0.7685 -0.3819 -0.2894
 2019TIP3    H1 6021   4.075   0.453   0.389 -0.7260  0.4084 -1.2933
 2019TIP3    H2 6022   4.121   0.543   0.502 -0.1095  0.1148 -1.3077
 2020TIP3   OH2 6023   0.210   2.549   1.314 -0.4813 -0.2988 -0.1032
 2020TIP3    H1 6024   0.139   2.597   1.357 -1.0921 -0.7231 -0.6376
 2020TIP3    H2 6025   0.218   2.590   1.228  0.2507  0.0606  0.1205
 2021TIP3   OH2 6026   0.064   3.893   3.334  0.0037 -0.0033  0.4233
 2021TIP3    H1 6027  -0.020   3.864   3.370 -0.2581  1.2048  0.8201
 2021TIP3    H2 6028   0.058   3.871   3.241 -1.2535  1.0915  0.1984
 2022TIP3   OH2 6029   6.984   1.777   5.449  0.2002  0.0883  0.0009
 2022TIP3    H1 6030   6.926   1.796   5.523  1.6070  2.1243  0.6658
 2022TIP3    H2 6031   6.965   1.685   5.427 -1.4973 -0.0448  1.7396
 2023TIP3   OH2 6032   4.639   1.363   3.746  0.5210  0.7696  0.2928
 2023TIP3    H1 6033   4.632   1.269   3.729  0.6958  0.6641  0.7909
 2023TIP3    H2 6034   4.641   1.403   3.660 -1.2107  0.4412  0.0551
 2024TIP3   OH2 6035   1.757   3.547   3.530  0.6451 -0.1823  0.2723
 2024TIP3    H1 6036   1.752   3.569   3.437  1.0390 -0.2164  0.2415
 2024TIP3    H2 6037   1.769   3.452   3.532  0.2290 -0.2325  0.3691
 2025TIP3   OH2 6038   3.522   0.241   1.787  0.5527 -0.6963 -0.0246
 2025TIP3    H1 6039   3.574   0.160   1.786 -1.7371 -2.3177 -2.1916
 2025TIP3    H2 6040   3.432   0.211   1.799 -0.4389  1.4861 -1.3962
 2026TIP3   OH2 6041   2.452   6.122   3.000  0.0638 -0.2117 -0.1532
 2026TIP3    H1 6042   2.484   6.109   2.911  1.1476 -0.4995  0.2671
 2026TIP3    H2 6043   2.380   6.058   3.009  0.3580 -0.6129 -0.6194
 2027TIP3   OH2 6044   1.149   6.450   2.866 -0.1683  0.0436  0.2023
 2027TIP3    H1 6045   1.177   6.523   2.922 -0.3400  0.2511  0.0199
 2027TIP3    H2 6046   1.088   6.400   2.921 -0.2037  0.1488  0.2596
 2028TIP3   OH2 6047   6.695   3.754   1.495  0.4612  0.3671 -0.0883
 2028TIP3    H1 6048   6.783   3.761   1.532  1.1427 -2.0952 -1.0416
 2028TIP3    H2 6049   6.699   3.806   1.415  0.8575  0.7687  0.1864
 2029TIP3   OH2 6050   0.762   4.233   2.851  0.6328  0.3583 -0.3504
 2029TIP3    H1 6051   0.750   4.145   2.889  0.3968  0.3130 -0.5358
 2029TIP3    H2 6052   0.772   4.290   2.927 -0.4760  0.3655 -0.1927
 2030TIP3   OH2 6053   3.589   3.254   5.638 -0.1639  0.0122  0.2693
 2030TIP3    H1 6054   3.666   3.307   5.617 -1.6663  1.3785 -2.4611
 2030TIP3    H2 6055   3.525   3.318   5.669 -0.3994 -1.0401  2.0619
 2031TIP3   OH2 6056   5.510   5.510   4.980 -0.4427  0.0157  0.0340
 2031TIP3    H1 6057   5.455   5.460   4.920 -0.5073  0.1313 -0.0039
 2031TIP3    H2 6058   5.475   5.599   4.975  0.3624  0.3054 -0.7322
 2032TIP3   OH2 6059   6.052   3.702   1.961  0.5510 -0.0730  0.4376
 2032TIP3    H1 6060   5.988   3.631   1.961 -0.6882  0.9901  1.4720
 2032TIP3    H2 6061   6.093   3.698   1.874 -1.3262 -0.4414 -0.4708
 2033TIP3   OH2 6062   0.695   5.472   4.426 -0.2116 -0.3757 -0.1947
 2033TIP3    H1 6063   0.756   5.422   4.372  1.7542  1.1233  0.5394
 2033TIP3    H2 6064   0.691   5.558   4.384  0.1675  0.3322  1.1812
 2034TIP3   OH2 6065   4.671   2.243   0.075  0.3894 -0.4722 -0.0143
 2034TIP3    H1 6066   4.723   2.211   0.001 -0.8729 -1.2923 -0.5982
 2034TIP3    H2 6067   4.643   2.331   0.049  1.2557 -0.1247  0.1997
 2035TIP3   OH2 6068   3.524   6.434   5.470  0.0620 -0.5760  0.1011
 2035TIP3    H1 6069   3.597   6.380   5.439 -0.7017 -0.4115 -2.0801
 2035TIP3    H2 6070   3.446   6.391   5.437 -0.9451 -0.9889  2.7615
 2036TIP3   OH2 6071   3.881   4.458   3.101 -0.0183 -0.5937 -0.4636
 2036TIP3    H1 6072   3.884   4.375   3.053 -0.2772 -0.7743 -0.1696
 2036TIP3    H2 6073   3.868   4.524   3.033 -0.8395 -0.8900 -0.6153
 2037TIP3   OH2 6074   2.274   1.070   5.129 -0.7896  0.0694  0.7614
 2037TIP3    H1 6075   2.224   1.057   5.049  1.7371  0.1636 -0.9122
 2037TIP3    H2 6076   2.284   1.165   5.135  0.3361 -0.0111  0.3128
 2038TIP3   OH2 6077   1.504   2.994   5.287 -0.2582  0.5213  0.4472
 2038TIP3    H1 6078   1.534   2.903   5.298  0.9433  0.8942  0.4172
 2038TIP3    H2 6079   1.497   3.027   5.377  1.4414  1.0384  0.4274
 2039TIP3   OH2 6080   2.058   0.497   3.219  0.7492  0.1796 -0.8089
 2039TIP3    H1 6081   1.965   0.502   3.197  0.2724 -0.4772  0.9291
 2039TIP3    H2 6082   2.097   0.452   3.144 -0.7680 -1.7782 -0.5021
 2040TIP3   OH2 6083   6.727   5.306   1.561  0.1717  0.0953 -0.4320
 2040TIP3    H1 6084   6.689   5.262   1.637  0.8796 -0.1547 -0.2168
 2040TIP3    H2 6085   6.660   5.368   1.534 -1.9217 -2.6602 -2.1787
 2041TIP3   OH2 6086   1.987   3.568   1.617  0.5114 -0.2260  0.5443
 2041TIP3    H1 6087   1.930   3.588   1.691  0.1573 -2.6417  0.9839
 2041TIP3    H2 6088   2.073   3.601   1.644  0.0561  0.3596  1.3307
 2042TIP3   OH2 6089   0.372   5.944   0.945  0.4620  0.3639 -0.1539
 2042TIP3    H1 6090   0.466   5.928   0.944  0.2376 -1.1547 -1.7239
 2042TIP3    H2 6091   0.343   5.915   1.032  1.1901 -0.9463 -0.3230
 2043TIP3   OH2 6092   0.098   5.986   2.496  0.3981  0.1279 -0.7548
 2043TIP3    H1 6093   0.006   5.987   2.525  0.7209  0.0091  0.3139
 2043TIP3    H2 6094   0.122   6.078   2.490  0.8430  0.1953  1.1628
 2044TIP3   OH2 6095   0.792   2.246   2.302 -0.0253  0.0722 -0.5106
 2044TIP3    H1 6096   0.745   2.190   2.240  1.1767 -1.8291  0.2231
 2044TIP3    H2 6097   0.788   2.333   2.262 -1.2207 -0.6648 -2.1259
 2045TIP3   OH2 6098   0.378   0.941   2.674 -0.5007  0.6309  0.2961
 2045TIP3    H1 6099   0.385   1.023   2.722  1.6135 -0.1072  1.4192
 2045TIP3    H2 6100   0.401   0.964   2.584 -2.4019  1.6569  0.0250
 2046TIP3   OH2 6101   2.510   1.508   0.186  0.5292  0.4014  0.5620
 2046TIP3    H1 6102   2.577   1.545   0.129  0.6185 -1.3003 -0.5008
 2046TIP3    H2 6103   2.552   1.434   0.229  0.0769  0.8844  1.8972
 2047TIP3   OH2 6104   3.973   4.211   2.195  0.4790  0.1241 -0.0059
 2047TIP3    H1 6105   4.016   4.231   2.278  0.8129 -1.3369  0.1932
 2047TIP3    H2 6106   4.045   4.188   2.136  0.0272 -3.0647  0.5338
 2048TIP3   OH2 6107   5.420   3.537   5.060 -0.5233  0.0979  0.2109
 2048TIP3    H1 6108   5.443   3.471   4.994  0.0300  1.5289 -1.0842
 2048TIP3    H2 6109   5.452   3.501   5.143  1.0083 -0.6604 -0.6667
 2049TIP3   OH2 6110   5.253   1.101   2.542  0.2610 -0.4228 -0.1288
 2049TIP3    H1 6111   5.175   1.089   2.597  1.1468  0.9817  1.5293
 2049TIP3    H2 6112   5.282   1.012   2.523 -2.0441 -0.9976 -1.2772
 2050TIP3   OH2 6113   4.296   4.881   1.030  0.1127  0.3649  0.4041
 2050TIP3    H1 6114   4.388   4.896   1.010  0.8993 -2.1198  1.7338
 2050TIP3    H2 6115   4.279   4.792   0.998 -2.3255  1.3170 -1.2623
 2051TIP3   OH2 6116   4.371   2.350   4.366  0.1201  0.0100  0.1865
 2051TIP3    H1 6117   4.376   2.400   4.284  0.1590  0.5573  0.5142
 2051TIP3    H2 6118   4.368   2.258   4.339 -0.4210  0.2108 -0.4465
 2052TIP3   OH2 6119   5.825   0.032   5.709 -0.5895  0.1391 -0.0224
 2052TIP3    H1 6120   5.855   0.104   5.653  2.6240 -0.1768  1.0859
 2052TIP3    H2 6121   5.786  -0.031   5.648 -0.1664  1.2227 -1.4737
 2053TIP3   OH2 6122   1.619   0.595   0.287  0.1513  0.0458 -0.1749
 2053TIP3    H1 6123   1.526   0.585   0.307 -0.0882 -0.0917 -1.3063
 2053TIP3    H2 6124   1.651   0.506   0.273  0.3763  0.1204 -0.1428
 2054TIP3   OH2 6125   5.894   1.137   3.066  0.1174  0.0662 -0.0629
 2054TIP3    H1 6126   5.948   1.090   3.130  0.2335  0.1577 -0.0929
 2054TIP3    H2 6127   5.903   1.087   2.985  1.5539  1.0273 -0.5410
 2055TIP3   OH2 6128   0.630   5.021   0.320  0.4969  0.2356  0.1874
 2055TIP3    H1 6129   0.625   5.066   0.236  1.3134 -0.0386 -0.0237
 2055TIP3    H2 6130   0.646   4.929   0.297  0.2551  0.0807  0.6332
 2056TIP3   OH2 6131   0.946   6.201   4.455  0.0087 -0.2955  0.5067
 2056TIP3    H1 6132   0.930   6.114   4.493 -1.3216  0.2246  1.2272
 2056TIP3    H2 6133   0.924   6.191   4.363  0.0883 -0.7881  0.5391
 2057TIP3   OH2 6134   4.564   2.628   2.101  0.3956 -0.1672  0.0352
 2057TIP3    H1 6135   4.596   2.624   2.191  1.3951  0.0374 -0.2989
 2057TIP3    H2 6136   4.472   2.602   2.107  1.1410 -3.0085  0.7272
 2058TIP3   OH2 6137   4.809   5.428   0.601 -0.7415 -0.0657 -0.0262
 2058TIP3    H1 6138   4.858   5.421   0.683  1.1389 -0.4811 -1.1085
 2058TIP3    H2 6139   4.722   5.394   0.621 -0.0444 -0.9980  1.5699
 2059TIP3   OH2 6140   4.880   0.234   0.228 -0.0520  0.8978  0.3001
 2059TIP3    H1 6141   4.885   0.161   0.166 -0.8871  1.8484 -0.9312
 2059TIP3    H2 6142   4.971   0.249   0.255  0.1739 -0.3327  0.2748
 2060TIP3   OH2 6143   5.209   4.197   4.723  0.4356 -0.4973  0.0697
 2060TIP3    H1 6144   5.134   4.195   4.664  0.8497  1.1871 -0.5680
 2060TIP3    H2 6145   5.276   4.146   4.678 -0.4848 -2.6254  0.9660
 2061TIP3   OH2 6146   6.918   0.404   4.963  0.2769 -0.1531 -0.3188
 2061TIP3    H1 6147   6.921   0.496   4.935  1.4352 -0.6966 -2.0969
 2061TIP3    H2 6148   6.971   0.357   4.898 -1.9610 -2.4009 -0.6552
 2062TIP3   OH2 6149   1.077   1.789   4.549 -0.1751 -0.7066  0.2902
 2062TIP3    H1 6150   1.127   1.848   4.604 -1.2399 -0.4840  1.0394
 2062TIP3    H2 6151   1.113   1.702   4.569 -0.9592 -0.7065  1.8249
 2063TIP3   OH2 6152   5.526   0.833   1.974  0.1380 -0.1901  0.1793
 2063TIP3    H1 6153   5.546   0.919   2.012  1.6935 -0.3778 -0.1434
 2063TIP3    H2 6154   5.516   0.775   2.050  0.4890 -0.0006  0.3763
 2064TIP3   OH2 6155   6.094   2.669   4.616 -0.1759  0.7002  0.2265
 2064TIP3    H1 6156   6.156   2.672   4.689  0.7492  1.2736 -0.5508
 2064TIP3    H2 6157   6.136   2.721   4.548 -0.9511  0.0421 -0.7741
 2065TIP3   OH2 6158   3.441   0.292   1.500 -0.5515 -0.2207  0.1918
 2065TIP3    H1 6159   3.467   0.293   1.592  0.3549  0.1587 -0.0625
 2065TIP3    H2 6160   3.358   0.339   1.499  0.6460  2.0138  0.4788
 2066TIP3   OH2 6161   3.186   5.735   0.507 -0.3839  0.1907 -0.4683
 2066TIP3    H1 6162   3.160   5.661   0.452 -0.7965  0.5139 -0.7179
 2066TIP3    H2 6163   3.167   5.706   0.596  0.5966 -0.4631 -0.4569
 2067TIP3   OH2 6164   5.502   1.530   5.633 -0.0252  0.1468  0.1641
 2067TIP3    H1 6165   5.426   1.510   5.687  0.1106  0.2013  0.3769
 2067TIP3    H2 6166   5.574   1.482   5.674 -0.1071 -0.5940 -0.5234
 2068TIP3   OH2 6167   5.715   1.837   0.605  0.4057 -0.7248  0.8313
 2068TIP3    H1 6168   5.728   1.743   0.592 -0.7163 -0.8484  0.5210
 2068TIP3    H2 6169   5.753   1.855   0.691 -0.4270 -1.6963  1.4264
 2069TIP3   OH2 6170   1.472   4.515   4.532 -0.0429 -0.0558  0.0048
 2069TIP3    H1 6171   1.516   4.539   4.614 -0.4405  1.4505 -0.1838
 2069TIP3    H2 6172   1.382   4.546   4.543 -0.1171  0.1041 -0.9705
 2070TIP3   OH2 6173   6.131   4.458   1.467  0.8160  0.6882 -0.0964
 2070TIP3    H1 6174   6.095   4.405   1.537  1.5072  2.6478  1.8573
 2070TIP3    H2 6175   6.101   4.547   1.485  3.1852  1.7108 -0.7006
 2071TIP3   OH2 6176   0.994   4.556   3.487  0.1775 -0.3578  0.0001
 2071TIP3    H1 6177   0.992   4.588   3.397  0.6941  2.0447  0.7642
 2071TIP3    H2 6178   1.088   4.547   3.507  0.0477 -1.9336 -0.0232
 2072TIP3   OH2 6179   5.129   5.199   3.674 -0.1403 -0.7348  0.2798
 2072TIP3    H1 6180   5.197   5.189   3.608  0.3245 -0.6535  0.7359
 2072TIP3    H2 6181   5.051   5.227   3.626  0.1577 -0.8134 -0.2447
 2073TIP3   OH2 6182   3.697   3.921   0.816 -0.2311 -0.4292  0.3690
 2073TIP3    H1 6183   3.650   3.846   0.781  0.8879 -1.7091  1.4737
 2073TIP3    H2 6184   3.780   3.921   0.769 -1.3196  1.9847 -1.7842
 2074TIP3   OH2 6185   2.510   2.688   5.352 -0.3338 -0.0361 -0.1647
 2074TIP3    H1 6186   2.490   2.781   5.343  1.0597  0.2007 -1.2168
 2074TIP3    H2 6187   2.556   2.665   5.272 -3.0535 -2.3595 -1.2326
 2075TIP3   OH2 6188   3.687   4.010   0.184  0.2664 -0.0135 -0.3260
 2075TIP3    H1 6189   3.750   4.050   0.125  0.1491  0.8687  0.1273
 2075TIP3    H2 6190   3.729   4.013   0.270  0.5926 -1.6279 -0.3998
 2076TIP3   OH2 6191   3.361   5.557   1.150  0.3406  0.0129 -0.1358
 2076TIP3    H1 6192   3.340   5.630   1.208  1.7756 -0.5527  1.1877
 2076TIP3    H2 6193   3.279   5.535   1.107  0.1862  3.5676 -2.0387
 2077TIP3   OH2 6194   3.404   3.209   1.596 -0.1799 -0.0353  0.1679
 2077TIP3    H1 6195   3.480   3.154   1.619  0.8048  0.4568 -1.6652
 2077TIP3    H2 6196   3.440   3.274   1.536 -1.6692  1.5884  0.9697
 2078TIP3   OH2 6197   0.838   1.036   2.356  0.0398  0.1314 -0.1027
 2078TIP3    H1 6198   0.856   1.129   2.341  2.0576 -0.4054 -1.3128
 2078TIP3    H2 6199   0.794   1.035   2.441 -2.6271  2.3992 -1.2844
 2079TIP3   OH2 6200   6.713   2.318   0.898 -0.1168 -0.0983  0.6438
 2079TIP3    H1 6201   6.697   2.225   0.884 -0.3925 -0.1471  1.2454
 2079TIP3    H2 6202   6.778   2.321   0.968  1.1194  0.1414 -0.4699
 2080TIP3   OH2 6203   0.708   0.348   1.246 -0.1328  0.0985 -0.0847
 2080TIP3    H1 6204   0.632   0.406   1.244 -0.0796  0.1672 -1.4256
 2080TIP3    H2 6205   0.718   0.320   1.155  0.3464 -1.3598  0.3957
 2081TIP3   OH2 6206   6.925   5.590   1.598  0.3511 -0.0337  0.1587
 2081TIP3    H1 6207   7.004   5.630   1.635  0.4869 -0.5271  0.4139
 2081TIP3    H2 6208   6.950   5.499   1.581 -0.2343 -0.2576  0.4667
 2082TIP3   OH2 6209   6.381   2.906   2.338  0.7195 -0.0263  0.2290
 2082TIP3    H1 6210   6.454   2.875   2.391 -0.5645 -1.1302  1.4455
 2082TIP3    H2 6211   6.332   2.964   2.396  0.5652  0.6084 -0.5250
 2083TIP3   OH2 6212   2.390   2.867   1.040  0.1291 -0.1385  0.1298
 2083TIP3    H1 6213   2.303   2.906   1.030 -0.9731 -2.3032  0.6119
 2083TIP3    H2 6214   2.451   2.940   1.032 -1.7626  1.5243  0.3295
 2084TIP3   OH2 6215   1.693  -0.017   3.484  0.0259 -0.1517  0.2335
 2084TIP3    H1 6216   1.602   0.005   3.462  0.6845  0.8510 -1.7551
 2084TIP3    H2 6217   1.720   0.053   3.544 -0.1395  0.2748 -0.1792
 2085TIP3   OH2 6218   3.425   2.367   4.568  0.1913 -0.4776  0.5112
 2085TIP3    H1 6219   3.503   2.386   4.621 -0.1973  0.2480  0.8443
 2085TIP3    H2 6220   3.393   2.284   4.603  0.2141 -0.2477  1.0994
 2086TIP3   OH2 6221   3.385   4.394   2.757 -0.1481 -0.1806 -0.0104
 2086TIP3    H1 6222   3.341   4.309   2.756 -0.4441 -0.1231  2.0772
 2086TIP3    H2 6223   3.316   4.457   2.739 -0.6206 -0.2079  1.5530
 2087TIP3   OH2 6224   6.253   4.984   4.068 -0.1557  0.5156  0.3038
 2087TIP3    H1 6225   6.170   5.012   4.029 -0.4858  0.5629  1.0213
 2087TIP3    H2 6226   6.231   4.905   4.117  0.3867  0.0864 -0.1375
 2088TIP3   OH2 6227   1.347   1.351   4.958  0.1529  0.2959  0.1028
 2088TIP3    H1 6228   1.382   1.377   4.873 -0.4629  0.7709 -0.0118
 2088TIP3    H2 6229   1.384   1.264   4.974  0.6548  0.4037 -0.4247
 2089TIP3   OH2 6230   2.004   2.058   4.419 -0.2017  0.1241 -0.1655
 2089TIP3    H1 6231   2.055   2.016   4.489  1.0222  1.0651 -0.4636
 2089TIP3    H2 6232   2.052   2.037   4.339 -1.2012 -0.3370 -0.6607
 2090TIP3   OH2 6233   3.305   4.870   4.708  0.0838 -0.4632  0.2680
 2090TIP3    H1 6234   3.390   4.829   4.719 -0.1610 -1.2521 -0.6152
 2090TIP3    H2 6235   3.318   4.933   4.637  0.0347 -0.2850  0.4175
 2091TIP3   OH2 6236   6.541   3.100   0.793  0.6440  0.5444  0.1170
 2091TIP3    H1 6237   6.490   3.112   0.873  0.8244 -1.4838  0.5939
 2091TIP3    H2 6238   6.611   3.039   0.819 -0.0412 -1.1699 -1.8585
 2092TIP3   OH2 6239   7.099   0.566   0.353 -0.2219 -0.0233  0.3920
 2092TIP3    H1 6240   7.186   0.529   0.345 -0.7934 -1.0168 -2.8283
 2092TIP3    H2 6241   7.104   0.650   0.306 -0.8801  0.1196  0.5615
 2093TIP3   OH2 6242   1.224   4.852   0.215  0.3795  0.0336 -0.6307
 2093TIP3    H1 6243   1.281   4.895   0.150 -0.9209  1.0736 -1.1349
 2093TIP3    H2 6244   1.135   4.873   0.186 -0.3867 -3.2561 -1.0416
 2094TIP3   OH2 6245   0.480   4.280   5.513 -0.4010 -0.6266 -0.7741
 2094TIP3    H1 6246   0.565   4.324   5.520 -0.7309 -0.1506  0.5882
 2094TIP3    H2 6247   0.445   4.308   5.429 -0.7172  1.9860  0.1283
 2095TIP3   OH2 6248   1.704   3.592   3.263 -0.5471 -0.0127  0.5768
 2095TIP3    H1 6249   1.720   3.499   3.249  0.4594 -0.1216  2.2621
 2095TIP3    H2 6250   1.785   3.635   3.235 -0.5790  0.2518  0.8848
 2096TIP3   OH2 6251   5.057   4.875   5.766  0.1038 -0.2421 -0.0453
 2096TIP3    H1 6252   5.117   4.935   5.809 -0.2550  0.9971 -1.2094
 2096TIP3    H2 6253   5.111   4.829   5.701 -0.0293  0.3148 -0.5596
 2097TIP3   OH2 6254   3.259   2.739   5.468 -0.4534 -0.3284 -0.2449
 2097TIP3    H1 6255   3.299   2.759   5.383 -1.0073  1.2567 -0.1704
 2097TIP3    H2 6256   3.186   2.681   5.448 -0.5707  0.0202 -0.8610
 2098TIP3   OH2 6257   3.909   5.747   3.059 -0.0342 -0.0298  0.4399
 2098TIP3    H1 6258   3.832   5.792   3.023  0.2403 -0.4424 -0.7015
 2098TIP3    H2 6259   3.873   5.688   3.125 -0.8265 -0.8966 -0.7282
 2099TIP3   OH2 6260   6.219   1.592   0.853 -0.3742  0.0029  0.4210
 2099TIP3    H1 6261   6.160   1.601   0.928  0.8254  0.7225  1.3014
 2099TIP3    H2 6262   6.285   1.529   0.881 -0.2999 -0.2475 -0.2922
 2100TIP3   OH2 6263   0.458   1.343   0.986  0.4269  0.0720  0.1285
 2100TIP3    H1 6264   0.470   1.249   0.971  0.4714  0.2534 -1.0924
 2100TIP3    H2 6265   0.490   1.384   0.906  1.6091  1.2201  1.1283
 2101TIP3   OH2 6266   3.368   5.459   4.898  0.6043  0.4065 -0.4269
 2101TIP3    H1 6267   3.384   5.434   4.989  1.2829 -0.9514 -0.8819
 2101TIP3    H2 6268   3.319   5.385   4.861 -0.5179  1.3648 -0.9332
 2102TIP3   OH2 6269   5.328   3.994   0.480 -0.2093  0.2424  0.0402
 2102TIP3    H1 6270   5.233   3.994   0.467 -0.5886 -0.4864  2.3502
 2102TIP3    H2 6271   5.364   4.017   0.394 -2.3985 -1.3298 -1.4267
 2103TIP3   OH2 6272   1.323   3.288   2.257 -0.6986  0.1600  0.0002
 2103TIP3    H1 6273   1.344   3.381   2.264  0.5266  0.0174 -1.3260
 2103TIP3    H2 6274   1.397   3.243   2.298 -1.0537 -0.2540  0.1980
 2104TIP3   OH2 6275   3.216   1.038   5.726  0.0071 -0.1806  0.6306
 2104TIP3    H1 6276   3.296   1.030   5.674 -0.7728  0.4028 -0.7229
 2104TIP3    H2 6277   3.236   1.105   5.791  0.7889 -0.4165  0.6338
 2105TIP3   OH2 6278   2.915   6.408   0.029  0.0481 -0.2218 -0.9172
 2105TIP3    H1 6279   2.976   6.445  -0.035  1.5826 -1.7690 -0.4017
 2105TIP3    H2 6280   2.963   6.408   0.111 -0.8051 -1.0787 -0.3968
 2106TIP3   OH2 6281   1.529   5.576   1.171  0.0990 -0.2898  0.2015
 2106TIP3    H1 6282   1.546   5.498   1.224 -0.6845 -0.8635 -0.3706
 2106TIP3    H2 6283   1.436   5.594   1.183  0.1125  0.1152 -0.2530
 2107TIP3   OH2 6284   4.792   1.087   1.919 -0.0675 -0.1502  0.5072
 2107TIP3    H1 6285   4.845   1.148   1.868 -1.7782 -0.5038 -1.8010
 2107TIP3    H2 6286   4.707   1.130   1.927 -0.6677 -1.3380  0.6236
 2108TIP3   OH2 6287   6.432   2.019   1.667  0.3213  0.1372  0.6473
 2108TIP3    H1 6288   6.476   2.103   1.656 -0.8246  0.6285 -0.4834
 2108TIP3    H2 6289   6.497   1.963   1.710  1.8154  1.0075 -0.3705
 2109TIP3   OH2 6290   4.409   6.130   3.533 -0.5696  0.3975  0.2485
 2109TIP3    H1 6291   4.414   6.206   3.590 -0.5259  0.7332 -0.2018
 2109TIP3    H2 6292   4.366   6.161   3.454  1.7896  0.6381 -1.0327
 2110TIP3   OH2 6293   2.044   0.957   2.083 -0.0624  0.8608 -0.0727
 2110TIP3    H1 6294   2.093   0.879   2.108 -0.2367  1.1978  1.4567
 2110TIP3    H2 6295   2.037   0.953   1.988 -1.4417 -1.8498  0.0464
 2111TIP3   OH2 6296   6.377   4.936   1.413 -0.2337 -0.0527 -0.0539
 2111TIP3    H1 6297   6.384   5.005   1.347  0.3346  0.2899  0.3672
 2111TIP3    H2 6298   6.390   4.855   1.363  0.6866  0.2335 -0.2820
 2112TIP3   OH2 6299   3.273   1.934   5.413 -0.4550 -0.2808 -0.3811
 2112TIP3    H1 6300   3.187   1.903   5.385 -0.4954 -2.2312  1.6423
 2112TIP3    H2 6301   3.284   1.899   5.501  2.0849  0.6387 -0.2383
 2113TIP3   OH2 6302   3.320   2.120   4.661  0.5375  0.0048 -0.5674
 2113TIP3    H1 6303   3.333   2.065   4.739 -0.5322  0.4271 -0.0599
 2113TIP3    H2 6304   3.319   2.059   4.588  3.9635 -0.1911 -0.5915
 2114TIP3   OH2 6305   2.085   2.527   4.205 -0.6351  0.7735  0.1763
 2114TIP3    H1 6306   2.003   2.537   4.253 -1.0010  0.6951 -0.4202
 2114TIP3    H2 6307   2.083   2.597   4.140 -0.1546  0.8672  0.2545
 2115TIP3   OH2 6308   5.915   1.656   4.111 -0.7778  0.2797 -0.3336
 2115TIP3    H1 6309   5.824   1.638   4.087 -0.7039 -0.1788 -0.2752
 2115TIP3    H2 6310   5.919   1.641   4.205 -0.4275 -0.6430 -0.4812
 2116TIP3   OH2 6311   4.256   6.120   5.439 -0.0840 -0.3464  0.7358
 2116TIP3    H1 6312   4.193   6.089   5.503  1.3200 -1.8578  1.4704
 2116TIP3    H2 6313   4.332   6.061   5.449  0.8180  0.3836 -1.1859
 2117TIP3   OH2 6314   0.164   4.464   5.712  0.0430  0.1965  0.1441
 2117TIP3    H1 6315   0.114   4.495   5.637 -0.3539 -0.4136  0.1429
 2117TIP3    H2 6316   0.180   4.371   5.693 -1.1773 -0.3054  1.3883
 2118TIP3   OH2 6317   3.982   4.683   0.449  0.0703  0.4825  0.1382
 2118TIP3    H1 6318   4.007   4.628   0.375 -0.3137 -1.1571  1.1841
 2118TIP3    H2 6319   4.010   4.771   0.424  0.5264 -0.1410 -1.6667
 2119TIP3   OH2 6320   5.718   3.050   5.750 -0.4743  0.3198  0.2956
 2119TIP3    H1 6321   5.662   3.002   5.690  2.0552 -2.6979  0.1110
 2119TIP3    H2 6322   5.782   3.095   5.694  0.1278 -0.1333  0.6057
 2120TIP3   OH2 6323   4.207   6.051   2.584  0.1131  0.6510  0.5326
 2120TIP3    H1 6324   4.222   6.080   2.494  0.0342 -2.5018 -0.6160
 2120TIP3    H2 6325   4.241   5.962   2.587 -2.1310 -0.2558  2.9249
 2121TIP3   OH2 6326   5.730   1.560   0.876  0.6584  0.4584 -0.3787
 2121TIP3    H1 6327   5.778   1.559   0.793  0.1261  0.2868 -0.6880
 2121TIP3    H2 6328   5.641   1.585   0.852  0.5374  0.5625  0.1650
 2122TIP3   OH2 6329   3.796   0.096   1.950 -0.5734  0.1092 -0.2461
 2122TIP3    H1 6330   3.888   0.074   1.963 -0.9796 -1.2050  0.6031
 2122TIP3    H2 6331   3.798   0.179   1.902  1.0422  0.0066 -0.4245
 2123TIP3   OH2 6332   2.114   0.684   0.662  0.4464 -0.2917  0.0682
 2123TIP3    H1 6333   2.106   0.723   0.575  2.8374  1.9923  0.7432
 2123TIP3    H2 6334   2.172   0.609   0.650 -0.9215 -1.2793 -0.5908
 2124TIP3   OH2 6335   5.593   6.406   3.801 -0.5074 -0.5806  0.1959
 2124TIP3    H1 6336   5.625   6.316   3.796  3.3027  0.6886 -1.0993
 2124TIP3    H2 6337   5.661   6.454   3.847 -2.1338  1.8297  0.2995
 2125TIP3   OH2 6338   3.558   3.830   0.026 -0.1523 -0.0191  0.2769
 2125TIP3    H1 6339   3.601   3.882   0.094 -0.5605 -1.4151  1.6445
 2125TIP3    H2 6340   3.555   3.741   0.061  0.0658 -0.9040 -1.7879
 2126TIP3   OH2 6341   1.923   2.506   1.989 -0.1090 -0.4827 -0.1263
 2126TIP3    H1 6342   1.893   2.473   1.905 -0.7615 -1.0390  0.3115
 2126TIP3    H2 6343   1.880   2.592   1.997 -1.9817 -1.4262  0.6581
 2127TIP3   OH2 6344   2.363   4.613   3.746  0.0319 -0.0119  0.4752
 2127TIP3    H1 6345   2.342   4.651   3.831  0.2089 -0.0816  0.5505
 2127TIP3    H2 6346   2.279   4.582   3.712 -0.0195 -0.1086  0.6869
 2128TIP3   OH2 6347   3.692   4.473   3.288 -0.6907  0.1690 -0.1088
 2128TIP3    H1 6348   3.689   4.385   3.325 -0.6439  1.1547  2.4614
 2128TIP3    H2 6349   3.760   4.469   3.221 -2.8714 -2.4869 -2.3863
 2129TIP3   OH2 6350   6.030   3.627   4.903 -0.2531  0.1955  0.1510
 2129TIP3    H1 6351   6.020   3.548   4.956  0.6379 -0.9709 -1.3396
 2129TIP3    H2 6352   5.949   3.675   4.916 -0.5644 -0.6471  1.5642
 2130TIP3   OH2 6353   3.522   6.247   2.859  0.4563  0.0878 -0.2690
 2130TIP3    H1 6354   3.556   6.166   2.823 -0.3666  0.4273 -1.9631
 2130TIP3    H2 6355   3.460   6.220   2.926  0.0953 -0.7112 -0.9048
 2131TIP3   OH2 6356   3.900   1.663   3.137  0.7652 -0.2441  0.0316
 2131TIP3    H1 6357   3.905   1.723   3.211  0.4980  1.6520 -1.4135
 2131TIP3    H2 6358   3.825   1.607   3.155 -1.1732  2.1685 -0.1661
 2132TIP3   OH2 6359   6.353   1.344   1.194 -0.0540  0.0513  0.4578
 2132TIP3    H1 6360   6.301   1.423   1.209  0.1705  0.0039  1.6078
 2132TIP3    H2 6361   6.289   1.273   1.190 -0.1102 -0.0349  2.0783
 2133TIP3   OH2 6362   3.682   6.647   2.893 -0.2905  0.2801 -0.0379
 2133TIP3    H1 6363   3.763   6.697   2.898 -0.2136  0.1487  0.0458
 2133TIP3    H2 6364   3.699   6.568   2.944  0.2001 -0.6649 -1.5730
 2134TIP3   OH2 6365   6.650   1.701   2.794 -0.0839 -0.2909  0.0681
 2134TIP3    H1 6366   6.696   1.730   2.873 -2.0379  0.0772  1.1188
 2134TIP3    H2 6367   6.655   1.776   2.735  0.5829 -0.2322  0.1887
 2135TIP3   OH2 6368   3.752   3.317   1.113  0.4670 -0.4509 -0.2951
 2135TIP3    H1 6369   3.756   3.303   1.207  0.5918  2.3673  0.1960
 2135TIP3    H2 6370   3.768   3.230   1.075  0.0394 -1.7240  2.2429
 2136TIP3   OH2 6371   3.587   5.166   1.300  0.0137  0.4808 -0.3723
 2136TIP3    H1 6372   3.549   5.085   1.267  2.8801 -0.4466 -1.7043
 2136TIP3    H2 6373   3.626   5.142   1.384  0.1779  0.6911 -0.3861
 2137TIP3   OH2 6374   5.443   2.614   1.664  0.8091  0.1379 -0.7717
 2137TIP3    H1 6375   5.459   2.625   1.570  2.4759 -2.9876 -0.9882
 2137TIP3    H2 6376   5.390   2.535   1.670  0.4611  0.4787  0.9053
 2138TIP3   OH2 6377   0.463   5.615   0.115 -0.6370  0.3493 -0.2450
 2138TIP3    H1 6378   0.422   5.662   0.043  1.5338 -0.2199 -1.9661
 2138TIP3    H2 6379   0.519   5.680   0.158 -0.3141  0.1850 -0.4148
 2139TIP3   OH2 6380   1.967   2.736   2.299  0.4603  0.5526  0.0653
 2139TIP3    H1 6381   2.033   2.795   2.265  0.2359  0.3849 -0.6763
 2139TIP3    H2 6382   1.972   2.746   2.394 -0.5097  2.7976 -0.0637
 2140TIP3   OH2 6383   3.767   3.482   5.648 -0.3065 -0.1352  0.0805
 2140TIP3    H1 6384   3.858   3.504   5.670 -0.3702 -0.3216  0.5207
 2140TIP3    H2 6385   3.759   3.508   5.556 -0.2962  1.4172  0.4953
 2141TIP3   OH2 6386   2.424   3.148   0.539 -0.0697  0.4552 -0.1001
 2141TIP3    H1 6387   2.353   3.164   0.602  1.4438 -0.4561  1.9825
 2141TIP3    H2 6388   2.494   3.208   0.567  1.0847 -0.8314 -0.0797
 2142TIP3   OH2 6389   6.883   5.671   0.226 -0.1582  0.3155 -0.0895
 2142TIP3    H1 6390   6.911   5.622   0.304  0.8047 -0.7892 -1.0953
 2142TIP3    H2 6391   6.797   5.635   0.205 -0.0002 -0.0715 -0.0884
 2143TIP3   OH2 6392   7.044   1.466   3.549 -0.7215 -0.1863  0.1799
 2143TIP3    H1 6393   7.067   1.454   3.641  3.3624  1.0718 -0.4972
 2143TIP3    H2 6394   7.014   1.556   3.543  1.5654  0.6196 -0.0285
 2144TIP3   OH2 6395   3.799   4.976   4.102 -0.0248 -0.5789 -0.2187
 2144TIP3    H1 6396   3.733   5.037   4.071 -0.5320 -0.0961  1.6452
 2144TIP3    H2 6397   3.778   4.893   4.059 -0.8566 -0.0439 -0.8700
 2145TIP3   OH2 6398   1.743   1.137   5.066  0.1163 -0.0339  0.1684
 2145TIP3    H1 6399   1.701   1.058   5.101  0.3321  0.2851  1.2068
 2145TIP3    H2 6400   1.815   1.104   5.013 -0.0147 -0.5482  0.2976
 2146TIP3   OH2 6401   5.787   4.124   5.729 -0.1302  0.2173  0.0966
 2146TIP3    H1 6402   5.702   4.104   5.768  0.0240  0.2087  0.4281
 2146TIP3    H2 6403   5.790   4.220   5.727  0.5090  0.2545  1.5501
 2147TIP3   OH2 6404   2.819   2.746   5.568  0.5112 -0.0814 -0.3218
 2147TIP3    H1 6405   2.790   2.665   5.526 -3.3406  0.0803  1.6552
 2147TIP3    H2 6406   2.856   2.719   5.652  0.3583  0.1313 -0.1843
 2148TIP3   OH2 6407   5.381   1.373   4.297 -0.5712 -0.5118  0.1774
 2148TIP3    H1 6408   5.449   1.437   4.315 -1.2854  0.1930  0.4267
 2148TIP3    H2 6409   5.326   1.373   4.376 -2.4234  0.9329 -1.0167
 2149TIP3   OH2 6410   5.557   1.371   3.480  0.4920 -0.3665 -0.4555
 2149TIP3    H1 6411   5.508   1.312   3.539 -0.2946 -0.7204 -1.4284
 2149TIP3    H2 6412   5.642   1.381   3.522  0.7448 -2.4073 -0.3504
 2150TIP3   OH2 6413   6.177   6.612   4.588  0.4843  0.0895 -0.1988
 2150TIP3    H1 6414   6.180   6.667   4.666 -0.1964  0.3639 -0.3623
 2150TIP3    H2 6415   6.268   6.604   4.560  0.8115 -0.5737  1.0111
 2151TIP3   OH2 6416   6.153   1.821   5.718  0.4634 -0.0913 -0.3947
 2151TIP3    H1 6417   6.099   1.885   5.671  1.1705 -0.8540 -2.3751
 2151TIP3    H2 6418   6.153   1.851   5.809  0.1917  2.2941 -1.1165
 2152TIP3   OH2 6419   5.854   1.147   5.273  0.4228  0.0517  0.4481
 2152TIP3    H1 6420   5.911   1.189   5.209  0.0841 -0.6976 -0.3536
 2152TIP3    H2 6421   5.902   1.068   5.299 -0.2234 -0.5636 -0.2026
 2153TIP3   OH2 6422   0.227   0.082   4.477 -0.3522  0.1262 -0.5393
 2153TIP3    H1 6423   0.305   0.129   4.504 -0.0549 -0.0923 -1.0055
 2153TIP3    H2 6424   0.154   0.133   4.512 -0.0682  1.3394 -1.6556
 2154TIP3   OH2 6425   2.823   6.670   5.265  0.1997  0.4045  0.9136
 2154TIP3    H1 6426   2.890   6.664   5.197 -0.6486  1.4112 -0.0505
 2154TIP3    H2 6427   2.872   6.680   5.347  1.2751 -1.8975  0.6425
 2155TIP3   OH2 6428   1.873   0.461   3.989  0.4899 -0.2418  0.3193
 2155TIP3    H1 6429   1.833   0.377   4.008  0.5297 -0.1817  0.6730
 2155TIP3    H2 6430   1.952   0.440   3.939 -0.7423 -0.2964 -1.7206
 2156TIP3   OH2 6431   3.199   6.348   0.188 -0.0648  0.1697  0.1638
 2156TIP3    H1 6432   3.244   6.374   0.107  0.5897  0.0449  0.4757
 2156TIP3    H2 6433   3.187   6.253   0.178  1.1878 -0.0709  0.7589
 2157TIP3   OH2 6434   0.825   6.131   2.521 -0.1477 -0.1717 -0.0908
 2157TIP3    H1 6435   0.911   6.146   2.481 -0.5755  0.2993 -0.8461
 2157TIP3    H2 6436   0.828   6.180   2.603 -0.1400  0.8789 -0.7049
 2158TIP3   OH2 6437   5.279   5.823   3.912 -0.3580  0.2730  0.1865
 2158TIP3    H1 6438   5.246   5.778   3.989  1.0688 -0.5163  0.3690
 2158TIP3    H2 6439   5.369   5.792   3.902 -1.0604 -1.1971 -2.9352
 2159TIP3   OH2 6440   2.686   5.869   4.821  0.1294 -0.4114  0.8070
 2159TIP3    H1 6441   2.637   5.858   4.739  0.3582  0.2316  0.5727
 2159TIP3    H2 6442   2.664   5.958   4.850  0.2320 -0.5523  1.3212
 2160TIP3   OH2 6443   6.570   5.213   2.172 -0.0374 -0.0938  0.4444
 2160TIP3    H1 6444   6.519   5.279   2.217 -0.1933  1.4175 -1.8100
 2160TIP3    H2 6445   6.513   5.136   2.168 -0.8146  0.4544  0.9363
 2161TIP3   OH2 6446   0.346   4.438   2.247 -0.0041 -0.8242  0.0972
 2161TIP3    H1 6447   0.299   4.481   2.318  0.5044  3.1670 -1.6672
 2161TIP3    H2 6448   0.290   4.448   2.171  1.7535  0.1383 -1.1585
 2162TIP3   OH2 6449   0.396   2.327   5.218 -0.1436 -1.0419  0.0252
 2162TIP3    H1 6450   0.317   2.374   5.192 -0.2687 -0.4383  1.4076
 2162TIP3    H2 6451   0.454   2.395   5.252  0.7781 -1.5492 -0.4819
 2163TIP3   OH2 6452   1.458   3.640   1.554  0.1968  0.0414 -0.1335
 2163TIP3    H1 6453   1.376   3.642   1.603  0.6369 -0.1478  0.6449
 2163TIP3    H2 6454   1.464   3.725   1.512  0.0639  0.4321  0.6175
 2164TIP3   OH2 6455   6.552   3.242   0.098  0.0984  0.5235 -0.1950
 2164TIP3    H1 6456   6.490   3.313   0.109 -0.3375 -0.1266  1.8087
 2164TIP3    H2 6457   6.626   3.282   0.051  0.9309  2.9842  2.8665
 2165TIP3   OH2 6458   1.900   5.629   0.556 -0.1795 -0.2232 -0.1683
 2165TIP3    H1 6459   1.827   5.690   0.567 -1.2227 -1.2371 -1.2031
 2165TIP3    H2 6460   1.859   5.542   0.556  0.9500 -0.7957 -1.2702
 2166TIP3   OH2 6461   3.092   1.575   4.971 -0.2852  0.1504 -0.2248
 2166TIP3    H1 6462   3.169   1.547   5.022 -1.5836 -1.6694  0.8757
 2166TIP3    H2 6463   3.051   1.493   4.944 -2.2872  1.0479 -0.0717
 2167TIP3   OH2 6464   1.536   4.538   1.182  0.2401 -0.0012 -0.0533
 2167TIP3    H1 6465   1.576   4.620   1.152  2.0333 -0.9119 -0.2850
 2167TIP3    H2 6466   1.524   4.550   1.276  1.6805  0.0829  0.1372
 2168TIP3   OH2 6467   6.038   4.030   0.885 -0.3115 -0.0377  0.5469
 2168TIP3    H1 6468   6.001   4.112   0.852 -0.3079  0.5566  1.9555
 2168TIP3    H2 6469   6.123   4.054   0.922 -1.3300 -0.1717  3.1673
 2169TIP3   OH2 6470   2.913  -0.006   2.168  0.1946 -0.3168 -0.5330
 2169TIP3    H1 6471   2.881   0.079   2.199 -1.3289 -1.1711  0.3770
 2169TIP3    H2 6472   3.006   0.008   2.151  0.4343  1.0256  1.5098
 2170TIP3   OH2 6473   2.616   3.974   2.681 -0.1437 -0.2348 -0.2364
 2170TIP3    H1 6474   2.691   3.985   2.740 -0.4905 -1.0370  0.3792
 2170TIP3    H2 6475   2.539   3.982   2.738 -0.5528  0.9602 -0.9220
 2171TIP3   OH2 6476   6.424   4.523   2.585 -0.0726  0.4262  0.2575
 2171TIP3    H1 6477   6.475   4.492   2.510  1.0515  1.3229  0.6117
 2171TIP3    H2 6478   6.416   4.446   2.642 -1.2094 -0.3461 -0.8901
 2172TIP3   OH2 6479   6.998   2.365   5.235  0.2271  0.0693  0.5422
 2172TIP3    H1 6480   6.977   2.339   5.325 -0.2467  0.3712  0.5217
 2172TIP3    H2 6481   6.996   2.282   5.186 -0.2297 -0.0030  0.6755
 2173TIP3   OH2 6482   0.395   2.282   2.357 -0.1413  0.5548  0.1152
 2173TIP3    H1 6483   0.454   2.355   2.374 -1.1817  0.9538  2.5140
 2173TIP3    H2 6484   0.352   2.266   2.441 -1.9358 -1.0644 -1.0141
 2174TIP3   OH2 6485   5.159   4.148   1.496  0.2416  0.3778 -0.4998
 2174TIP3    H1 6486   5.137   4.064   1.456  0.4386 -0.4830  1.1031
 2174TIP3    H2 6487   5.242   4.173   1.456  0.2253 -0.2490 -0.9250
 2175TIP3   OH2 6488   6.168   0.110   1.405  0.3898  0.2140 -0.0775
 2175TIP3    H1 6489   6.103   0.042   1.388  1.0713 -0.3504 -0.4896
 2175TIP3    H2 6490   6.251   0.063   1.409  0.5831  0.6364  2.4759
 2176TIP3   OH2 6491   1.371   6.602   2.146  0.4555  0.0619  0.2358
 2176TIP3    H1 6492   1.367   6.507   2.136  0.4124  0.0218  0.6190
 2176TIP3    H2 6493   1.371   6.617   2.241  2.4837  0.3537  0.2298
 2177TIP3   OH2 6494   1.384   6.755   5.465 -0.2069 -0.1853 -0.1272
 2177TIP3    H1 6495   1.298   6.735   5.503  0.3708 -2.6985  0.0150
 2177TIP3    H2 6496   1.380   6.719   5.376  0.7963 -0.6746  0.0089
 2178TIP3   OH2 6497   6.147   4.737   4.131  0.2331 -0.1314 -0.1509
 2178TIP3    H1 6498   6.095   4.755   4.209  0.4274  0.9289 -0.2522
 2178TIP3    H2 6499   6.141   4.642   4.120  0.6959 -0.3808  1.4983
 2179TIP3   OH2 6500   5.942   1.377   3.360  0.5234  0.0485  0.5391
 2179TIP3    H1 6501   6.001   1.329   3.302  0.1615 -1.8220  1.6557
 2179TIP3    H2 6502   5.863   1.391   3.308  0.4423 -1.0261  0.3631
 2180TIP3   OH2 6503   0.164   4.379   5.108  0.4231  0.7797 -0.2095
 2180TIP3    H1 6504   0.081   4.425   5.095  1.0978  2.4216  1.0283
 2180TIP3    H2 6505   0.225   4.422   5.049  0.1716 -1.3185 -2.1534
 2181TIP3   OH2 6506   1.722   1.787   4.887  0.2987  0.1614  0.4462
 2181TIP3    H1 6507   1.677   1.711   4.851 -0.2980  0.4417  0.5832
 2181TIP3    H2 6508   1.679   1.802   4.972 -0.2650  1.2416 -0.0174
 2182TIP3   OH2 6509   3.229   1.855   0.131  0.6602  0.5717 -0.7703
 2182TIP3    H1 6510   3.163   1.924   0.140  0.6051  0.2887  1.6728
 2182TIP3    H2 6511   3.312   1.900   0.144  0.6984  0.3860 -0.3396
 2183TIP3   OH2 6512   0.600   3.017   1.695  0.2774  1.4448  0.6746
 2183TIP3    H1 6513   0.622   2.926   1.676  2.6605  1.7609  1.5653
 2183TIP3    H2 6514   0.603   3.061   1.610 -0.2777  0.8239  0.3253
 2184TIP3   OH2 6515   7.173   5.143   0.371  0.7723 -0.0692 -0.1253
 2184TIP3    H1 6516   7.173   5.075   0.304 -2.0087 -0.3312  0.0116
 2184TIP3    H2 6517   7.126   5.216   0.331  1.4779  0.8215  0.6172
 2185TIP3   OH2 6518   6.702   6.211   0.983 -0.6258  0.5554  0.0743
 2185TIP3    H1 6519   6.778   6.169   1.023 -1.0672  0.7584  1.1723
 2185TIP3    H2 6520   6.672   6.148   0.918 -1.2359 -0.8433  1.6306
 2186TIP3   OH2 6521   6.695   4.076   4.121 -0.4604 -0.0738  0.0247
 2186TIP3    H1 6522   6.718   4.071   4.028 -1.4090 -0.0144 -0.2272
 2186TIP3    H2 6523   6.747   4.150   4.154 -0.6063  0.3270 -0.6137
 2187TIP3   OH2 6524   6.255   3.470   3.469 -0.4065 -0.9767 -0.5944
 2187TIP3    H1 6525   6.298   3.556   3.474  0.6770 -1.4597 -1.1256
 2187TIP3    H2 6526   6.206   3.463   3.551  0.1474 -0.1825 -0.1777
 2188TIP3   OH2 6527   3.408   3.328   3.227  0.6529  0.1651 -0.2933
 2188TIP3    H1 6528   3.459   3.334   3.146 -0.4519 -1.6974 -1.1857
 2188TIP3    H2 6529   3.449   3.258   3.277 -1.0573 -1.4840 -1.1050
 2189TIP3   OH2 6530   6.894   1.581   2.742  0.3327 -0.5581  0.4089
 2189TIP3    H1 6531   6.909   1.638   2.667  0.1417 -0.9481  0.0648
 2189TIP3    H2 6532   6.799   1.575   2.749  0.2697  1.4155  2.1995
 2190TIP3   OH2 6533   3.135   1.838   5.015 -0.2266 -0.4797  0.2907
 2190TIP3    H1 6534   3.110   1.747   4.997  1.0379 -0.7790 -0.0730
 2190TIP3    H2 6535   3.228   1.842   4.993 -0.4451  1.1178 -0.4790
 2191TIP3   OH2 6536   5.451   1.637   3.497 -0.1750  0.2482 -0.1562
 2191TIP3    H1 6537   5.482   1.554   3.462  2.2609  0.7522  0.5907
 2191TIP3    H2 6538   5.410   1.681   3.423 -4.0056 -2.5746 -0.0191
 2192TIP3   OH2 6539   4.234   0.636   5.699  0.0979  0.1545  0.4822
 2192TIP3    H1 6540   4.192   0.709   5.744  1.6965  0.3121  1.8601
 2192TIP3    H2 6541   4.224   0.562   5.759 -0.3704 -0.4335 -0.3057
 2193TIP3   OH2 6542   0.791   3.936   1.792  0.1392 -0.4165  0.0292
 2193TIP3    H1 6543   0.779   4.017   1.742 -1.2873  2.0686  3.9060
 2193TIP3    H2 6544   0.880   3.942   1.827  0.0865 -0.6315  0.2003
 2194TIP3   OH2 6545   4.225   2.927   5.681  0.1799  0.7071 -0.0516
 2194TIP3    H1 6546   4.228   2.964   5.769  0.8281  0.6537 -0.0488
 2194TIP3    H2 6547   4.261   2.996   5.625  1.7173 -0.0103 -0.0046
 2195TIP3   OH2 6548   4.320   6.594   5.157  0.0144  0.1796 -0.3938
 2195TIP3    H1 6549   4.313   6.682   5.119 -0.2781  0.5892  0.5855
 2195TIP3    H2 6550   4.272   6.600   5.239 -2.2349 -1.5817 -1.4643
 2196TIP3   OH2 6551   0.218   2.877   2.739  0.2982 -0.3200 -0.1102
 2196TIP3    H1 6552   0.202   2.820   2.814  1.4728 -0.8796 -0.2572
 2196TIP3    H2 6553   0.303   2.848   2.705 -1.0927 -1.5369 -2.9496
 2197TIP3   OH2 6554   3.618   4.361   2.574 -0.4855  0.2454 -0.2623
 2197TIP3    H1 6555   3.564   4.384   2.649 -1.9131 -0.4136 -1.0550
 2197TIP3    H2 6556   3.678   4.294   2.608 -0.9838  0.0964  0.3411
 2198TIP3   OH2 6557   6.498   5.836   2.444  0.6044 -0.2137  0.3124
 2198TIP3    H1 6558   6.594   5.844   2.448  0.5002  0.7800  2.3824
 2198TIP3    H2 6559   6.474   5.794   2.527 -0.8273  0.4595  0.2703
 2199TIP3   OH2 6560   2.570   5.295   4.672  0.4050  0.0670  0.2684
 2199TIP3    H1 6561   2.618   5.236   4.614 -0.3673  0.6961 -1.0704
 2199TIP3    H2 6562   2.635   5.359   4.701  0.9254 -0.5804  0.5416
 2200TIP3   OH2 6563   6.226   3.059   2.529  0.3607 -0.0270 -0.0733
 2200TIP3    H1 6564   6.207   3.150   2.550  2.2585  0.4160 -0.1112
 2200TIP3    H2 6565   6.171   3.008   2.588 -1.0942  1.1122 -0.3905
 2201TIP3   OH2 6566   3.005   0.827   1.721 -0.2003  0.3650  0.1464
 2201TIP3    H1 6567   3.066   0.852   1.652 -1.7968  0.3427 -1.3395
 2201TIP3    H2 6568   3.015   0.732   1.730  1.3952  0.6054  1.3777
 2202TIP3   OH2 6569   5.145   6.484   1.885 -0.2694  0.2538 -0.1160
 2202TIP3    H1 6570   5.095   6.551   1.932  0.0497 -0.4045  1.2145
 2202TIP3    H2 6571   5.145   6.409   1.944  0.7778 -0.3596 -0.8701
 2203TIP3   OH2 6572   6.140   4.713   4.413  0.2705 -0.0789 -0.2925
 2203TIP3    H1 6573   6.105   4.625   4.419 -0.9027  0.3683 -0.3542
 2203TIP3    H2 6574   6.207   4.717   4.482  0.7034 -1.1577 -0.6259
 2204TIP3   OH2 6575   0.971   2.010   3.094  0.5681 -0.1180  0.5377
 2204TIP3    H1 6576   0.892   2.023   3.042  0.3368 -0.2348  0.8524
 2204TIP3    H2 6577   0.990   1.916   3.087  0.5477 -0.1309  0.6459
 2205TIP3   OH2 6578   2.313   6.644   1.319 -0.5115  0.1063  0.3725
 2205TIP3    H1 6579   2.221   6.671   1.321 -0.7238 -0.6104  2.3580
 2205TIP3    H2 6580   2.314   6.557   1.358  0.8556 -0.5054 -0.9107
 2206TIP3   OH2 6581   6.079   2.371   0.617 -0.4187  0.3463  0.2384
 2206TIP3    H1 6582   6.114   2.383   0.529 -0.8541  1.0000  0.1484
 2206TIP3    H2 6583   6.088   2.277   0.634 -0.5310  0.1798 -0.5903
 2207TIP3   OH2 6584   1.315   0.451   4.342 -0.2261 -0.2545 -0.3903
 2207TIP3    H1 6585   1.234   0.495   4.367  0.3031 -0.5017  1.9519
 2207TIP3    H2 6586   1.344   0.498   4.263 -3.4542 -1.2526 -2.3579
 2208TIP3   OH2 6587   2.694   3.071   5.416 -0.0254 -0.1804 -0.0630
 2208TIP3    H1 6588   2.620   3.048   5.360  0.1561 -1.1300  0.0631
 2208TIP3    H2 6589   2.655   3.099   5.498 -0.2522 -0.9253  0.0920
 2209TIP3   OH2 6590   5.984   2.254   1.500 -0.1504  0.0775  0.6473
 2209TIP3    H1 6591   6.021   2.277   1.585  0.0655 -1.1093  0.8874
 2209TIP3    H2 6592   6.036   2.180   1.469 -2.1373 -1.5399  0.9142
 2210TIP3   OH2 6593   3.576   2.234   2.582  0.4235 -0.1695  0.5554
 2210TIP3    H1 6594   3.539   2.316   2.551  0.8410 -0.0313  0.4156
 2210TIP3    H2 6595   3.507   2.169   2.569  0.7827 -0.2353 -1.2187
 2211TIP3   OH2 6596   1.697   4.070   1.860 -0.2458 -0.0561 -0.2715
 2211TIP3    H1 6597   1.770   4.008   1.861  0.0507  0.2916  0.4341
 2211TIP3    H2 6598   1.665   4.068   1.770  0.8460  0.0245 -0.6791
 2212TIP3   OH2 6599   3.293   5.138   3.452  0.2305  0.0698 -0.2984
 2212TIP3    H1 6600   3.259   5.053   3.479 -0.7725  0.9670  1.3858
 2212TIP3    H2 6601   3.387   5.133   3.471 -0.2430  0.2443  2.4268
 2213TIP3   OH2 6602   5.380   1.217   5.678 -0.4683 -0.1160 -0.2904
 2213TIP3    H1 6603   5.351   1.126   5.675  1.0292 -0.6218 -0.8703
 2213TIP3    H2 6604   5.423   1.231   5.593 -0.1309  0.9344  0.0338
 2214TIP3   OH2 6605   5.912   6.500   4.123 -0.2592  0.1538 -0.3131
 2214TIP3    H1 6606   5.958   6.425   4.086 -1.3376 -0.4580 -0.4519
 2214TIP3    H2 6607   5.892   6.473   4.213  2.6310  1.7434  0.9531
 2215TIP3   OH2 6608   7.121   3.103   2.270  0.0285  0.4695 -0.2805
 2215TIP3    H1 6609   7.038   3.127   2.311  0.5129  1.9817 -0.1221
 2215TIP3    H2 6610   7.176   3.073   2.343  0.0549  0.7446 -0.1854
 2216TIP3   OH2 6611   2.438   0.667   1.332  0.1070 -0.2683  0.1855
 2216TIP3    H1 6612   2.453   0.581   1.292 -0.5659 -0.7033  0.8187
 2216TIP3    H2 6613   2.487   0.663   1.414  0.4541  0.1320 -0.0035
 2217TIP3   OH2 6614   0.718   5.876   2.458  0.1896 -0.0745 -0.5448
 2217TIP3    H1 6615   0.745   5.961   2.492 -1.3994  1.3590 -2.5625
 2217TIP3    H2 6616   0.792   5.846   2.406  0.6536  0.2065 -0.0565
 2218TIP3   OH2 6617   0.865   2.938   1.297  0.2538  0.4265 -0.5292
 2218TIP3    H1 6618   0.910   2.981   1.224 -2.6678  0.5372 -2.4705
 2218TIP3    H2 6619   0.862   3.005   1.366  0.3929  1.4817 -1.5080
 2219TIP3   OH2 6620   3.878   5.728   0.575  0.7219  0.1196 -0.3496
 2219TIP3    H1 6621   3.918   5.694   0.655  1.6940  3.3416  0.6581
 2219TIP3    H2 6622   3.951   5.740   0.514  0.4214  0.4834 -0.6445
 2220TIP3   OH2 6623   3.774   5.481   2.437 -0.0158  0.4089  0.0028
 2220TIP3    H1 6624   3.696   5.427   2.428  0.6684 -0.3250 -2.5174
 2220TIP3    H2 6625   3.781   5.528   2.354  2.1288  0.5580  0.1915
 2221TIP3   OH2 6626   6.348   2.378   0.418 -0.2684 -0.1157 -0.1218
 2221TIP3    H1 6627   6.338   2.291   0.379  0.2759  0.1714 -0.9267
 2221TIP3    H2 6628   6.312   2.438   0.353 -0.1804  0.3044  0.2128
 2222TIP3   OH2 6629   7.069   2.540   1.151  0.5056  0.2441 -0.2608
 2222TIP3    H1 6630   7.014   2.497   1.216 -0.8314  1.4249 -0.5674
 2222TIP3    H2 6631   7.106   2.468   1.101  2.0995 -0.7273  2.1606
 2223TIP3   OH2 6632   2.907   1.779   3.209  0.1909  0.6052  0.5613
 2223TIP3    H1 6633   2.890   1.781   3.115 -2.4253  0.9118  0.9828
 2223TIP3    H2 6634   2.885   1.690   3.236  2.1417  0.1198  0.7578
 2224TIP3   OH2 6635   5.029   6.436   2.295 -0.2104 -0.2128  0.0880
 2224TIP3    H1 6636   4.935   6.423   2.281  0.0032 -1.2459 -0.5058
 2224TIP3    H2 6637   5.070   6.378   2.231  0.8318 -0.4546  0.9624
 2225TIP3   OH2 6638   6.813   6.769   0.547  0.5131  0.6069 -0.0620
 2225TIP3    H1 6639   6.745   6.704   0.530  1.2859 -0.6877  1.5214
 2225TIP3    H2 6640   6.825   6.814   0.463 -0.9022 -0.4614 -0.8762
 2226TIP3   OH2 6641   4.925   5.467   2.679 -0.1594  0.5646 -0.6114
 2226TIP3    H1 6642   4.868   5.391   2.689  1.2473 -0.7275 -1.7506
 2226TIP3    H2 6643   4.988   5.460   2.751  0.7299 -0.0952 -1.4284
 2227TIP3   OH2 6644   2.437   0.998   3.357  0.8703 -0.4802 -0.1934
 2227TIP3    H1 6645   2.478   0.962   3.436 -0.3896 -1.3223  0.1185
 2227TIP3    H2 6646   2.389   1.075   3.388  1.2915 -0.1412 -0.3623
 2228TIP3   OH2 6647   5.247   0.682   5.148  0.2834  0.2465 -0.1850
 2228TIP3    H1 6648   5.284   0.675   5.236  1.2171 -2.5078 -0.7104
 2228TIP3    H2 6649   5.321   0.667   5.090 -0.5479  0.8517 -1.4357
 2229TIP3   OH2 6650   0.757   1.431   1.368 -0.7985 -0.2486 -0.2386
 2229TIP3    H1 6651   0.785   1.362   1.309 -4.3859 -1.5514 -0.6741
 2229TIP3    H2 6652   0.782   1.401   1.455  0.4259 -0.5517 -0.6793
 2230TIP3   OH2 6653   6.530   2.629   3.266  0.1011 -0.3077 -0.0156
 2230TIP3    H1 6654   6.514   2.612   3.173  0.0782 -0.9977  0.1126
 2230TIP3    H2 6655   6.494   2.717   3.280 -0.0610 -0.2719 -0.6156
 2231TIP3   OH2 6656   2.736   2.038   4.462  0.3397 -0.2983  0.0690
 2231TIP3    H1 6657   2.815   2.005   4.420 -0.6836 -0.5877 -1.7137
 2231TIP3    H2 6658   2.713   1.969   4.525  0.1256 -1.4377 -1.2058
 2232TIP3   OH2 6659   2.814   4.913   3.482  0.0730  0.6372  0.4133
 2232TIP3    H1 6660   2.774   4.988   3.526  1.5163  0.2242  2.5839
 2232TIP3    H2 6661   2.834   4.945   3.393 -1.2508  2.1135  0.6124
 2233TIP3   OH2 6662   0.044   1.931   3.984 -0.3580  0.0794 -0.4777
 2233TIP3    H1 6663  -0.047   1.943   3.959 -0.4184  0.5906 -0.0409
 2233TIP3    H2 6664   0.045   1.849   4.033 -0.1147 -1.3019 -2.6745
 2234TIP3   OH2 6665   3.019   4.659   0.999  0.2680 -0.3452 -0.3114
 2234TIP3    H1 6666   3.045   4.568   0.983  0.2445 -0.0351 -2.4355
 2234TIP3    H2 6667   3.098   4.701   1.032  0.6348 -0.8492 -0.5250
 2235TIP3   OH2 6668   6.520   6.055   1.995  0.4199 -0.0715  0.6094
 2235TIP3    H1 6669   6.612   6.043   2.017  0.5432  1.9205  1.4247
 2235TIP3    H2 6670   6.484   6.105   2.068 -0.8280  0.8575 -0.5768
 2236TIP3   OH2 6671   1.903   1.124   0.377  0.2167 -0.2604  0.0098
 2236TIP3    H1 6672   1.997   1.111   0.369  0.2389  0.8039 -2.0192
 2236TIP3    H2 6673   1.865   1.065   0.312 -0.5599 -0.8871  1.0043
 2237TIP3   OH2 6674   4.005   0.312   1.081  0.1614  0.7038  0.0189
 2237TIP3    H1 6675   3.931   0.296   1.023  0.1826 -0.5304  0.2906
 2237TIP3    H2 6676   3.972   0.373   1.147  0.2678  2.4864 -1.4972
 2238TIP3   OH2 6677   3.305   1.983   4.411 -0.3338  0.3301 -0.0415
 2238TIP3    H1 6678   3.365   1.951   4.344  0.1876  0.7511  0.2116
 2238TIP3    H2 6679   3.241   2.036   4.364 -0.3818  0.0509 -0.2894
 2239TIP3   OH2 6680   4.072   0.087   2.006 -0.2131 -0.0024 -0.2309
 2239TIP3    H1 6681   4.091  -0.002   1.974  1.3211  0.5559 -0.9551
 2239TIP3    H2 6682   4.158   0.126   2.020 -0.7835  2.0856 -1.9462
 2240TIP3   OH2 6683   5.548   2.723   4.318  0.0558 -0.0089  0.3762
 2240TIP3    H1 6684   5.611   2.715   4.247  1.1764 -1.4097  1.4564
 2240TIP3    H2 6685   5.597   2.698   4.396 -2.0954 -2.3229  1.1327
 2241TIP3   OH2 6686   2.898   1.802   2.925 -0.6809 -0.2149  0.0973
 2241TIP3    H1 6687   2.837   1.874   2.912 -0.8107 -0.4756 -0.8326
 2241TIP3    H2 6688   2.981   1.834   2.890 -0.5589 -0.2507  0.3558
 2242TIP3   OH2 6689   5.309   0.773   4.814  0.0383 -0.3519  0.1075
 2242TIP3    H1 6690   5.345   0.777   4.725  0.7511 -2.2146  0.2738
 2242TIP3    H2 6691   5.255   0.851   4.821 -0.7769 -0.5994 -2.3110
 2243TIP3   OH2 6692   0.522   2.846   3.924  0.4214 -0.5500 -0.1216
 2243TIP3    H1 6693   0.535   2.938   3.947 -0.3495 -0.2971 -0.6364
 2243TIP3    H2 6694   0.575   2.834   3.844  0.0391 -0.3812 -0.4044
 2244TIP3   OH2 6695   4.824   2.455   2.159 -0.0457 -0.6413  0.0013
 2244TIP3    H1 6696   4.778   2.538   2.167  0.5169 -0.4366  1.3133
 2244TIP3    H2 6697   4.909   2.477   2.120 -0.6412 -0.8893 -1.5037
 2245TIP3   OH2 6698   1.728   1.119   2.456 -0.2968  0.3203 -0.6183
 2245TIP3    H1 6699   1.777   1.098   2.376  0.7769 -2.0497  0.5518
 2245TIP3    H2 6700   1.693   1.035   2.485 -2.6785  1.5120  0.1807
 2246TIP3   OH2 6701   4.411   0.953   3.545 -0.0235 -0.5609  0.3774
 2246TIP3    H1 6702   4.425   0.862   3.569 -0.6620 -0.6665  0.3457
 2246TIP3    H2 6703   4.337   0.952   3.484  2.2391 -0.4519 -2.6246
 2247TIP3   OH2 6704   0.567   4.968   0.876  0.0948  0.2705  0.1602
 2247TIP3    H1 6705   0.512   4.986   0.952  0.6582  0.9945  0.4100
 2247TIP3    H2 6706   0.651   4.942   0.912  0.2635  0.2888 -0.2109
 2248TIP3   OH2 6707   5.732   6.620   0.619 -0.1151 -0.2942  0.0322
 2248TIP3    H1 6708   5.711   6.612   0.712  0.3209 -0.0678  0.1535
 2248TIP3    H2 6709   5.712   6.533   0.582  1.0338 -0.8278  0.6123
 2249TIP3   OH2 6710   1.006   2.569   1.957 -0.2145 -0.6364 -0.3853
 2249TIP3    H1 6711   1.033   2.571   2.049  0.0511  1.8412 -0.4589
 2249TIP3    H2 6712   0.964   2.654   1.942  0.0454 -0.8415 -2.6407
 2250TIP3   OH2 6713   6.476   0.814   5.225  0.2090  0.1298 -0.0757
 2250TIP3    H1 6714   6.381   0.821   5.218  0.2019 -0.6367 -0.8149
 2250TIP3    H2 6715   6.501   0.751   5.158  1.3554  1.1105 -0.6239
 2251TIP3   OH2 6716   2.371   0.476   1.163 -0.0685 -0.4007  0.1834
 2251TIP3    H1 6717   2.394   0.525   1.084 -0.4192 -1.1483 -0.4018
 2251TIP3    H2 6718   2.348   0.388   1.131  1.5006 -1.2566  1.2980
 2252TIP3   OH2 6719   6.997   0.228   5.624  0.3450 -0.1059  0.3236
 2252TIP3    H1 6720   6.962   0.167   5.558  1.1904 -0.5663  0.2821
 2252TIP3    H2 6721   7.092   0.227   5.610  0.4510  0.5303  0.9247
 2253TIP3   OH2 6722   7.083   6.397   2.527  0.1326 -0.1875  0.3373
 2253TIP3    H1 6723   7.036   6.332   2.475  0.3929  0.1378 -0.3174
 2253TIP3    H2 6724   7.086   6.475   2.472 -0.6102  0.5497  1.3114
 2254TIP3   OH2 6725   4.631   5.753   4.980  0.0102  0.3533 -0.3508
 2254TIP3    H1 6726   4.566   5.747   5.050  0.5715  0.7366  0.2162
 2254TIP3    H2 6727   4.712   5.721   5.020  0.1589 -0.1711 -1.0650
 2255TIP3   OH2 6728   2.612   1.110   3.741  0.0573  0.1998  0.8686
 2255TIP3    H1 6729   2.650   1.145   3.822  2.9462 -1.2876  0.2940
 2255TIP3    H2 6730   2.630   1.016   3.744 -1.8266 -0.2584 -0.4755
 2256TIP3   OH2 6731   5.479   5.029   2.809  0.2208  0.3371  0.6949
 2256TIP3    H1 6732   5.395   5.064   2.779  0.1241 -1.6926 -1.7631
 2256TIP3    H2 6733   5.460   4.982   2.889 -1.6010 -2.0972 -1.0173
 2257TIP3   OH2 6734   4.497   4.279   0.582  0.0121 -0.0839 -0.3047
 2257TIP3    H1 6735   4.537   4.268   0.669 -0.4954 -1.3088 -0.1996
 2257TIP3    H2 6736   4.416   4.326   0.599 -0.6139 -1.2526  0.0503
 2258TIP3   OH2 6737   4.072   5.132   4.647 -0.4680  0.2705  0.5269
 2258TIP3    H1 6738   4.150   5.185   4.664  0.6994 -0.9551 -0.8297
 2258TIP3    H2 6739   4.022   5.183   4.584 -0.6283  0.8962  1.1364
 2259TIP3   OH2 6740   5.840   5.791   3.051 -0.6207  0.1168 -0.0923
 2259TIP3    H1 6741   5.820   5.705   3.014 -0.4306  0.0748 -0.0962
 2259TIP3    H2 6742   5.891   5.772   3.129 -0.4006  0.2351 -0.2078
 2260TIP3   OH2 6743   5.151   5.500   1.133  0.2524  0.1441  0.3096
 2260TIP3    H1 6744   5.218   5.561   1.163  0.4059 -0.2397  0.7591
 2260TIP3    H2 6745   5.109   5.545   1.059 -1.5392  2.0823  2.3391
 2261TIP3   OH2 6746   0.926   0.205   3.003 -0.1526 -0.5423 -0.2005
 2261TIP3    H1 6747   0.980   0.276   2.967 -0.1454  0.0056  0.8472
 2261TIP3    H2 6748   0.855   0.194   2.939  0.4115 -0.2915 -0.8782
 2262TIP3   OH2 6749   2.263   4.623   2.242  0.3617 -0.7526  0.1339
 2262TIP3    H1 6750   2.319   4.633   2.165  0.6640 -1.5613  0.2405
 2262TIP3    H2 6751   2.212   4.544   2.224  0.2148 -0.7735  0.6345
 2263TIP3   OH2 6752   3.241   1.920   0.824  0.1537  0.1382 -0.5329
 2263TIP3    H1 6753   3.265   1.947   0.912 -1.8156  1.2075 -0.2612
 2263TIP3    H2 6754   3.257   1.998   0.770 -1.1275  0.3658 -0.6139
 2264TIP3   OH2 6755   1.532   4.703   0.586 -0.2197 -0.1608  0.0398
 2264TIP3    H1 6756   1.624   4.690   0.564  0.0483  0.6730  0.6332
 2264TIP3    H2 6757   1.531   4.722   0.680 -0.9415  0.3226 -0.0534
 2265TIP3   OH2 6758   5.547   1.155   5.006 -0.0899  0.6388  0.2445
 2265TIP3    H1 6759   5.455   1.178   5.021 -0.1209 -0.0900  1.3109
 2265TIP3    H2 6760   5.596   1.212   5.064 -0.1338 -1.4353  2.4681
 2266TIP3   OH2 6761   2.503   6.754   0.173  0.1533  0.7673  0.1305
 2266TIP3    H1 6762   2.505   6.707   0.256 -1.1703  1.1650  0.4095
 2266TIP3    H2 6763   2.553   6.699   0.113  0.1487 -0.0887  0.8915
 2267TIP3   OH2 6764   6.679   1.791   3.833  0.2045 -0.7287  0.1847
 2267TIP3    H1 6765   6.696   1.871   3.883 -2.1079 -0.1730  0.1783
 2267TIP3    H2 6766   6.678   1.821   3.742 -0.1031 -0.8733  0.1405
 2268TIP3   OH2 6767   6.630   3.223   0.401 -0.0255 -0.1312  0.7525
 2268TIP3    H1 6768   6.587   3.175   0.331 -0.5400  0.9017  0.3457
 2268TIP3    H2 6769   6.564   3.232   0.470  0.6064 -1.5324  1.6085
 2269TIP3   OH2 6770   7.209   2.572   5.667 -0.0032  0.3643 -0.6937
 2269TIP3    H1 6771   7.267   2.496   5.658  0.2575  0.6754 -1.7210
 2269TIP3    H2 6772   7.132   2.538   5.712  0.3333 -0.3914 -0.6744
 2270TIP3   OH2 6773   3.736   6.122   3.819 -0.5394 -0.2531 -0.5301
 2270TIP3    H1 6774   3.747   6.050   3.756 -0.8188 -1.6525  0.9646
 2270TIP3    H2 6775   3.665   6.092   3.877 -0.5734  1.1829  0.2044
 2271TIP3   OH2 6776   3.867   0.208   0.455  0.8519 -0.3919 -0.1388
 2271TIP3    H1 6777   3.953   0.249   0.447  1.3582 -1.1402  1.3354
 2271TIP3    H2 6778   3.805   0.281   0.445  1.6743  0.3182 -0.1499
 2272TIP3   OH2 6779   2.111   0.348   0.733 -0.0361  0.5123  0.2315
 2272TIP3    H1 6780   2.171   0.343   0.659  0.4748 -3.9138  0.6826
 2272TIP3    H2 6781   2.030   0.382   0.696  1.0684  1.1998 -1.6558
 2273TIP3   OH2 6782   6.776   1.260   4.255  0.0252  0.1156 -0.5096
 2273TIP3    H1 6783   6.737   1.282   4.170 -0.1329 -0.3719 -0.5688
 2273TIP3    H2 6784   6.753   1.168   4.269 -2.3185  0.8810  1.3221
 2274TIP3   OH2 6785   0.322   3.057   1.664 -0.1229 -0.5828  0.0951
 2274TIP3    H1 6786   0.416   3.048   1.678 -0.0408  1.0074  0.7586
 2274TIP3    H2 6787   0.290   3.101   1.742 -1.4455 -1.1187 -0.1094
 2275TIP3   OH2 6788   3.336   1.397   4.134 -0.2086  0.5208 -0.3432
 2275TIP3    H1 6789   3.339   1.308   4.098  1.1488  1.1906 -2.0849
 2275TIP3    H2 6790   3.423   1.411   4.170 -0.5076  1.0401  0.1898
 2276TIP3   OH2 6791   0.687   6.762   5.074  0.0243  0.0309  0.1945
 2276TIP3    H1 6792   0.606   6.723   5.107  0.7845 -1.3918  0.4641
 2276TIP3    H2 6793   0.682   6.854   5.100 -0.1488 -0.6631  2.9293
 2277TIP3   OH2 6794   6.809   5.835   1.233 -0.9251 -0.4900 -0.2318
 2277TIP3    H1 6795   6.778   5.745   1.238  0.8599 -1.2960 -2.1076
 2277TIP3    H2 6796   6.889   5.836   1.285 -0.1241 -0.4117 -1.4323
 2278TIP3   OH2 6797   1.433   5.739   1.805  0.0946 -0.1382 -0.2831
 2278TIP3    H1 6798   1.515   5.786   1.822  0.4476 -0.2441 -1.6161
 2278TIP3    H2 6799   1.428   5.732   1.710 -1.5249 -0.0488 -0.2309
 2279TIP3   OH2 6800   0.596   5.304   4.165 -0.5654  0.0600 -0.0667
 2279TIP3    H1 6801   0.552   5.387   4.180  0.2299  0.2927  1.1008
 2279TIP3    H2 6802   0.541   5.259   4.101 -1.1397  1.3687 -0.5270
 2280TIP3   OH2 6803   2.289   3.826   1.597 -0.2077 -0.1688 -0.2872
 2280TIP3    H1 6804   2.285   3.735   1.628  1.3562  0.0723  0.7755
 2280TIP3    H2 6805   2.206   3.840   1.553 -1.8876 -1.1520  2.2939
 2281TIP3   OH2 6806   3.270   4.614   0.235  0.2231 -0.1627  0.0665
 2281TIP3    H1 6807   3.355   4.646   0.204 -0.1526 -0.6010 -1.5065
 2281TIP3    H2 6808   3.278   4.613   0.331  2.2782 -0.9837 -0.0563
 2282TIP3   OH2 6809   2.144   2.802   2.716 -0.2404  0.0240  0.0408
 2282TIP3    H1 6810   2.084   2.737   2.679  0.7475  0.0757 -1.7343
 2282TIP3    H2 6811   2.196   2.753   2.780 -1.0771 -0.3727  0.4374
 2283TIP3   OH2 6812   6.430   0.053   2.389  0.0453  0.0890 -0.3220
 2283TIP3    H1 6813   6.394   0.008   2.465 -1.5140  0.7882 -0.5994
 2283TIP3    H2 6814   6.374   0.130   2.378 -0.0611 -0.2349 -2.4334
 2284TIP3   OH2 6815   3.079   4.893   0.788  0.2019  1.0201 -0.2847
 2284TIP3    H1 6816   3.173   4.911   0.774  0.8744 -0.2825  2.0179
 2284TIP3    H2 6817   3.078   4.826   0.856 -2.4525  1.3665  0.0929
 2285TIP3   OH2 6818   2.429   5.689   1.696 -0.7924  0.5255 -0.3226
 2285TIP3    H1 6819   2.398   5.777   1.676  1.1177  1.4656  0.5353
 2285TIP3    H2 6820   2.448   5.650   1.610  0.6291  1.8809 -0.6637
 2286TIP3   OH2 6821   6.479   1.523   0.554 -0.2483  0.9813 -0.1589
 2286TIP3    H1 6822   6.562   1.550   0.515  0.6341  0.2426  1.1508
 2286TIP3    H2 6823   6.456   1.594   0.614 -0.2074  0.8750 -0.0165
 2287TIP3   OH2 6824   2.192   3.408   0.595 -0.1345  1.1368 -0.0009
 2287TIP3    H1 6825   2.226   3.336   0.646  1.9862  1.2201 -1.1880
 2287TIP3    H2 6826   2.103   3.421   0.628 -0.0939 -1.0928  1.1606
 2288TIP3   OH2 6827   3.584   4.724   4.761 -0.1025  0.0017 -0.2144
 2288TIP3    H1 6828   3.594   4.639   4.719  0.1445 -0.1379  0.1278
 2288TIP3    H2 6829   3.538   4.706   4.842 -0.6634  0.2856 -0.4642
 2289TIP3   OH2 6830   0.438   5.943   0.635 -0.0350 -0.1233 -0.1696
 2289TIP3    H1 6831   0.382   5.992   0.576  1.4264  1.1684 -0.5298
 2289TIP3    H2 6832   0.443   5.997   0.714  0.1425 -0.5595  0.1211
 2290TIP3   OH2 6833   0.240   6.719   2.678 -0.5569 -0.0453 -0.2849
 2290TIP3    H1 6834   0.292   6.677   2.610 -0.9341 -0.1212 -0.5304
 2290TIP3    H2 6835   0.254   6.812   2.665 -2.3059  0.0565 -1.8548
 2291TIP3   OH2 6836   0.645   4.057   5.622  0.0866  0.2671 -0.5073
 2291TIP3    H1 6837   0.690   4.117   5.681  0.6276 -1.1306  0.5487
 2291TIP3    H2 6838   0.586   4.113   5.572 -0.4902  1.5241  1.4389
 2292TIP3   OH2 6839   6.451   4.073   3.266 -0.0281  0.2085 -0.4274
 2292TIP3    H1 6840   6.398   4.004   3.226 -2.1781  1.8679 -0.6197
 2292TIP3    H2 6841   6.467   4.136   3.196  2.1202 -0.1399 -0.3207
 2293TIP3   OH2 6842   4.225   4.564   2.660  0.2406  0.4481  0.6038
 2293TIP3    H1 6843   4.279   4.517   2.596  0.4656  2.4928 -0.8248
 2293TIP3    H2 6844   4.283   4.575   2.736  0.1230 -1.6158  1.0586
 2294TIP3   OH2 6845   0.279   4.399   1.020 -0.3702  0.4873 -0.0128
 2294TIP3    H1 6846   0.277   4.308   0.991 -0.2847 -0.1305  1.7587
 2294TIP3    H2 6847   0.240   4.396   1.108  1.6684  1.7721  1.0100
 2295TIP3   OH2 6848   5.963   4.604   2.927 -0.1850  0.0855 -0.4452
 2295TIP3    H1 6849   6.043   4.652   2.948  0.2282  0.5889 -2.8687
 2295TIP3    H2 6850   5.897   4.672   2.914 -0.5008 -0.2088 -0.4078
 2296TIP3   OH2 6851   5.302   0.852   4.532 -0.2553 -0.4652 -0.2792
 2296TIP3    H1 6852   5.245   0.797   4.478  1.0881 -1.2003 -1.0004
 2296TIP3    H2 6853   5.390   0.828   4.505  0.4049  2.4673 -1.0716
 2297TIP3   OH2 6854   2.543   6.648   4.576  0.7323  0.1130  0.3106
 2297TIP3    H1 6855   2.509   6.722   4.526  1.3341 -0.6348 -1.2780
 2297TIP3    H2 6856   2.473   6.583   4.572  1.5149 -0.6784 -1.2680
 2298TIP3   OH2 6857   6.254   1.143   4.330  0.2055 -0.4314  0.5644
 2298TIP3    H1 6858   6.316   1.092   4.380  1.9314  0.2564 -0.7746
 2298TIP3    H2 6859   6.266   1.114   4.240 -2.3503 -1.1776  0.3844
 2299TIP3   OH2 6860   6.768   5.167   3.592  0.0878 -0.2131 -0.1268
 2299TIP3    H1 6861   6.807   5.129   3.513 -1.3925 -0.3454 -0.8204
 2299TIP3    H2 6862   6.829   5.143   3.662  1.1511 -0.5642 -1.1315
 2300TIP3   OH2 6863   6.934   3.771   4.284  0.0518 -0.1855 -0.5582
 2300TIP3    H1 6864   7.002   3.823   4.326  0.8816 -1.5709 -0.1218
 2300TIP3    H2 6865   6.948   3.785   4.190 -0.4780  1.2548 -0.4514
 2301TIP3   OH2 6866   2.004   0.860   0.851  0.3825 -0.0391  0.2546
 2301TIP3    H1 6867   1.968   0.915   0.781  1.6162  0.8096  0.2676
 2301TIP3    H2 6868   2.017   0.774   0.810 -1.3675 -0.3191  0.1831
 2302TIP3   OH2 6869   0.837   2.449   2.143  0.4324 -0.4241  0.2944
 2302TIP3    H1 6870   0.843   2.543   2.161 -2.7169 -0.2671  1.1944
 2302TIP3    H2 6871   0.827   2.444   2.047 -0.8235  0.3399  0.3533
 2303TIP3   OH2 6872   3.748   2.039   2.835 -1.0340 -0.3261  0.4415
 2303TIP3    H1 6873   3.696   1.965   2.863  0.0160 -0.9946  0.6759
 2303TIP3    H2 6874   3.685   2.110   2.823 -2.0351 -1.2168  0.3212
 2304TIP3   OH2 6875   1.574   2.049   4.267  0.4167  0.0074 -0.2234
 2304TIP3    H1 6876   1.508   2.082   4.207  0.2198 -0.0077 -0.0153
 2304TIP3    H2 6877   1.607   2.127   4.313  1.9321  0.2950 -1.6882
 2305TIP3   OH2 6878   2.871   5.221   0.309  0.0893 -0.1034  0.0872
 2305TIP3    H1 6879   2.814   5.289   0.346  0.8154  0.9146 -0.6198
 2305TIP3    H2 6880   2.825   5.139   0.327 -0.2155  0.4412  2.0869
 2306TIP3   OH2 6881   1.747   2.264   5.738 -0.4117 -0.5070  0.2094
 2306TIP3    H1 6882   1.751   2.220   5.653  1.2367  0.2805 -0.1711
 2306TIP3    H2 6883   1.680   2.331   5.727  0.0102 -0.1968 -0.6076
 2307TIP3   OH2 6884   1.549   3.214   2.416 -0.4704  0.6094  0.4289
 2307TIP3    H1 6885   1.637   3.186   2.440 -0.6412  0.5590  1.0215
 2307TIP3    H2 6886   1.516   3.257   2.495 -0.9263  0.7409  0.1658
 2308TIP3   OH2 6887   4.330   2.185   5.500  0.3664 -0.0556 -0.5712
 2308TIP3    H1 6888   4.247   2.156   5.461  0.1472 -0.5973  0.2700
 2308TIP3    H2 6889   4.321   2.280   5.505 -0.8593 -0.2102  0.8862
 2309TIP3   OH2 6890   7.213   3.040   1.608  0.2831  0.0831  0.2060
 2309TIP3    H1 6891   7.122   3.040   1.637  0.1777 -1.7098  0.0120
 2309TIP3    H2 6892   7.208   3.050   1.513  0.2539 -0.4150  0.1521
 2310TIP3   OH2 6893   0.957   2.964   4.503  0.2819 -0.1361 -0.4960
 2310TIP3    H1 6894   1.035   2.920   4.470  0.1011 -0.9261  0.0974
 2310TIP3    H2 6895   0.989   3.019   4.575  0.3059 -0.3918 -0.3110
 2311TIP3   OH2 6896   1.692   1.612   2.187 -0.2361 -0.0197 -0.5865
 2311TIP3    H1 6897   1.786   1.614   2.168 -0.2084 -1.0960 -0.6332
 2311TIP3    H2 6898   1.663   1.702   2.171  0.8803  0.4694 -0.0342
 2312TIP3   OH2 6899   3.539   3.790   2.265 -0.2792 -0.0162 -0.0915
 2312TIP3    H1 6900   3.526   3.718   2.203  0.4315 -0.2921  0.0791
 2312TIP3    H2 6901   3.488   3.863   2.228  1.1756  0.2339 -1.6962
 2313TIP3   OH2 6902   1.460   6.738   3.319  0.6432 -0.6926  0.1005
 2313TIP3    H1 6903   1.391   6.798   3.348  0.9348  0.0448 -0.6870
 2313TIP3    H2 6904   1.537   6.765   3.368  0.5220 -1.1360  0.5447
 2314TIP3   OH2 6905   1.438   3.941   0.766  0.1765  0.0493 -0.5774
 2314TIP3    H1 6906   1.402   3.920   0.852  1.6889 -1.2058 -0.2136
 2314TIP3    H2 6907   1.512   3.999   0.784 -1.0753  1.9818 -1.2688
 2315TIP3   OH2 6908   4.739   1.864   4.318 -0.0228 -0.2527 -0.0453
 2315TIP3    H1 6909   4.666   1.805   4.308  0.0722 -0.4310  0.2799
 2315TIP3    H2 6910   4.815   1.807   4.332  0.0581 -0.0610  0.3344
 2316TIP3   OH2 6911   4.178   5.626   1.784  0.2885  0.4476 -0.0041
 2316TIP3    H1 6912   4.176   5.555   1.848  2.5636  0.7811  0.5132
 2316TIP3    H2 6913   4.176   5.706   1.836 -1.7649  0.8273 -0.5678
 2317TIP3   OH2 6914   6.951   5.651   2.871  0.2735 -1.1185 -0.2579
 2317TIP3    H1 6915   7.045   5.658   2.856 -0.1411 -1.3095 -3.6538
 2317TIP3    H2 6916   6.928   5.562   2.841 -1.0335 -1.0338  0.3814
 2318TIP3   OH2 6917   0.045   5.539   0.397  0.2885 -0.3788 -0.2406
 2318TIP3    H1 6918   0.033   5.466   0.457 -0.2190 -0.7897 -0.8268
 2318TIP3    H2 6919   0.099   5.504   0.327 -0.1180 -0.2603 -0.6221
 2319TIP3   OH2 6920   1.638   2.113   3.930 -0.2514 -0.2212 -0.0143
 2319TIP3    H1 6921   1.660   2.178   3.997 -0.1748  0.0087 -0.2600
 2319TIP3    H2 6922   1.720   2.067   3.913 -0.5933 -1.3062  1.1318
 2320TIP3   OH2 6923   4.422   2.354   4.673 -0.2141 -0.2170  0.2389
 2320TIP3    H1 6924   4.403   2.440   4.638 -1.0978 -0.7795 -0.7111
 2320TIP3    H2 6925   4.437   2.369   4.767 -1.6748  0.7871  0.3450
 2321TIP3   OH2 6926   0.804   2.119   2.540  0.2274 -0.2669 -0.3805
 2321TIP3    H1 6927   0.896   2.125   2.566  0.5220 -0.8181 -1.2864
 2321TIP3    H2 6928   0.799   2.166   2.457  0.0462 -1.7139 -1.2086
 2322TIP3   OH2 6929   2.340   6.286   3.960 -0.1989  0.8542 -0.0346
 2322TIP3    H1 6930   2.386   6.203   3.946 -0.2466  0.3435  2.4184
 2322TIP3    H2 6931   2.339   6.327   3.874 -0.9919 -2.0997 -1.5980
 2323TIP3   OH2 6932   1.638   5.958   5.281 -0.1183 -0.3460  0.0823
 2323TIP3    H1 6933   1.580   5.900   5.330  0.7575 -0.7810  0.6413
 2323TIP3    H2 6934   1.719   5.960   5.333  0.4174  0.1183 -0.7501
 2324TIP3   OH2 6935   5.189   4.099   0.718 -0.0609 -0.1483 -0.1910
 2324TIP3    H1 6936   5.156   4.022   0.763  0.3333 -0.5524 -0.5931
 2324TIP3    H2 6937   5.274   4.072   0.682 -0.7279 -0.0985 -1.8931
 2325TIP3   OH2 6938   2.017   1.206   2.675  0.2776 -0.1485  0.1847
 2325TIP3    H1 6939   1.958   1.159   2.734  0.3501 -0.6400 -0.1208
 2325TIP3    H2 6940   2.055   1.137   2.620 -0.0217  0.3308 -0.6410
 2326TIP3   OH2 6941   1.836   1.130   2.863  0.6155  0.6727  0.0101
 2326TIP3    H1 6942   1.763   1.192   2.867 -0.8478 -0.9457 -0.4389
 2326TIP3    H2 6943   1.798   1.047   2.891  1.6214 -0.7760 -2.6174
 2327TIP3   OH2 6944   5.156   1.079   0.444 -0.3192 -0.1727 -0.6468
 2327TIP3    H1 6945   5.246   1.066   0.474 -0.7297 -0.5941  0.4602
 2327TIP3    H2 6946   5.116   0.993   0.452 -0.5657 -0.2203 -2.1015
 2328TIP3   OH2 6947   1.856   3.313   5.191  0.0913  0.3192 -0.1929
 2328TIP3    H1 6948   1.776   3.343   5.234  0.0929 -1.2511  0.9595
 2328TIP3    H2 6949   1.835   3.226   5.157  1.9857 -1.2745  2.3619
 2329TIP3   OH2 6950   0.361   3.868   3.804 -0.1669  0.7318  0.1133
 2329TIP3    H1 6951   0.321   3.799   3.751 -0.1370  0.0917  0.8980
 2329TIP3    H2 6952   0.329   3.950   3.766  0.7466  0.3369 -1.5884
 2330TIP3   OH2 6953   0.657   3.880   0.675  0.5236 -0.3746 -0.5029
 2330TIP3    H1 6954   0.625   3.812   0.616 -0.6286 -0.4235  0.1367
 2330TIP3    H2 6955   0.629   3.962   0.635 -0.7440 -0.4297  0.2087
 2331TIP3   OH2 6956   0.246   1.096   1.792  0.3706 -0.3989  0.4540
 2331TIP3    H1 6957   0.340   1.095   1.806  0.6703 -1.2890 -1.3465
 2331TIP3    H2 6958   0.234   1.140   1.707 -0.7631 -1.0105  0.2725
 2332TIP3   OH2 6959   3.164   0.595   4.556  0.1488 -0.2294  0.3260
 2332TIP3    H1 6960   3.173   0.521   4.497  1.4444 -0.7641  1.1700
 2332TIP3    H2 6961   3.176   0.672   4.499 -0.2346 -0.6706 -0.3720
 2333TIP3   OH2 6962   6.072   2.875   0.351 -0.4134  0.3451  0.1067
 2333TIP3    H1 6963   6.123   2.945   0.311  1.2517  1.9445  4.3571
 2333TIP3    H2 6964   6.135   2.831   0.409 -2.7283 -0.9100  1.8114
 2334TIP3   OH2 6965   4.294   5.723   0.912 -0.1695 -0.2599  0.3846
 2334TIP3    H1 6966   4.339   5.806   0.894  1.0364 -0.4579  2.1586
 2334TIP3    H2 6967   4.201   5.745   0.909  0.0011  0.4533 -2.1096
 2335TIP3   OH2 6968   1.692   4.444   5.164  0.1416  0.1840 -0.0655
 2335TIP3    H1 6969   1.622   4.379   5.156  0.7141 -0.7286  1.8040
 2335TIP3    H2 6970   1.738   4.439   5.080 -1.0759 -0.2917 -0.7476
 2336TIP3   OH2 6971   4.764   1.391   4.043  0.0954  0.1500 -0.5390
 2336TIP3    H1 6972   4.805   1.378   4.129  0.9189  0.5259 -0.8660
 2336TIP3    H2 6973   4.777   1.309   3.997  0.5468  0.2847 -0.6606
 2337TIP3   OH2 6974   5.479   5.870   3.517  0.9583  0.3779  0.5188
 2337TIP3    H1 6975   5.395   5.823   3.523  1.6304 -0.9504  0.0303
 2337TIP3    H2 6976   5.463   5.953   3.562 -0.5657  0.0838  0.5936
 2338TIP3   OH2 6977   0.587   3.116   1.459  0.1694 -0.0607  0.0468
 2338TIP3    H1 6978   0.644   3.144   1.388  0.1624 -1.9684 -0.7599
 2338TIP3    H2 6979   0.518   3.182   1.461 -0.1102 -0.2103 -2.0727
 2339TIP3   OH2 6980   0.305   5.135   5.778 -0.3208  0.3825  0.5751
 2339TIP3    H1 6981   0.272   5.220   5.748  0.2273  1.2098  2.1962
 2339TIP3    H2 6982   0.303   5.080   5.700 -1.1515  1.7368 -0.4104
 2340TIP3   OH2 6983   0.833   4.521   5.572  0.3642  0.4470  0.2861
 2340TIP3    H1 6984   0.891   4.595   5.550  0.6667  0.5180  1.2509
 2340TIP3    H2 6985   0.757   4.562   5.614 -0.2299  0.3249 -0.6546
 2341TIP3   OH2 6986   5.429   4.461   2.500  0.7802  0.2317  0.4034
 2341TIP3    H1 6987   5.515   4.418   2.504  0.5358 -0.1765  1.7528
 2341TIP3    H2 6988   5.369   4.391   2.473  0.4767 -0.2015  2.0413
 2342TIP3   OH2 6989   5.381   4.957   3.845  0.5420  0.2920 -0.0127
 2342TIP3    H1 6990   5.397   4.865   3.824 -0.0517 -0.7714  3.5014
 2342TIP3    H2 6991   5.297   4.977   3.803 -1.1269 -1.9649  1.9530
 2343TIP3   OH2 6992   0.659   3.353   4.799 -0.1348 -0.0794  0.3269
 2343TIP3    H1 6993   0.666   3.258   4.797  0.7010 -0.0307  0.5195
 2343TIP3    H2 6994   0.595   3.371   4.868  1.0057 -0.4597  1.5293
 2344TIP3   OH2 6995   3.159   5.540   3.684 -0.3385  0.6701  0.4851
 2344TIP3    H1 6996   3.219   5.545   3.609  0.2131 -1.2207  0.7381
 2344TIP3    H2 6997   3.208   5.577   3.757  0.1823 -0.0030  0.4870
 2345TIP3   OH2 6998   6.913   2.579   0.648 -0.2756 -0.2845 -0.0829
 2345TIP3    H1 6999   6.878   2.490   0.642  1.6278 -1.0368 -0.9257
 2345TIP3    H2 7000   6.948   2.584   0.737 -0.7230 -0.2407  0.0915
 2346TIP3   OH2 7001   0.939   2.848   2.846 -0.0723  0.1187  0.3669
 2346TIP3    H1 7002   0.992   2.795   2.786 -0.8640 -0.4789  0.1817
 2346TIP3    H2 7003   0.933   2.794   2.925  2.4990  1.6624  1.7284
 2347TIP3   OH2 7004   5.612   4.062   5.337  0.0535 -0.4184  0.0088
 2347TIP3    H1 7005   5.590   4.127   5.404  0.5195 -0.7976  0.5304
 2347TIP3    H2 7006   5.568   4.095   5.258  0.3035  0.5430  0.2548
 2348TIP3   OH2 7007   4.464   0.900   2.900 -0.1289 -0.0859  1.1699
 2348TIP3    H1 7008   4.502   0.939   2.978  0.2757 -1.4253  1.6647
 2348TIP3    H2 7009   4.532   0.842   2.866 -0.6855 -0.3161  0.4260
 2349TIP3   OH2 7010   6.984   1.658   4.977  0.2812 -0.0243 -0.4271
 2349TIP3    H1 7011   7.024   1.583   5.022  2.2067  0.4342 -1.2855
 2349TIP3    H2 7012   7.000   1.732   5.035 -0.3663 -0.0178 -0.2463
 2350TIP3   OH2 7013   3.938   3.733   3.249 -0.1521 -0.7591  0.3014
 2350TIP3    H1 7014   3.870   3.801   3.250  0.6510  0.1135  3.1034
 2350TIP3    H2 7015   4.012   3.774   3.204 -0.3462 -0.5140  0.2034
 2351TIP3   OH2 7016   1.313   4.698   0.959  0.2895  0.4012  0.2746
 2351TIP3    H1 7017   1.405   4.706   0.935 -0.0142  0.6331 -0.8825
 2351TIP3    H2 7018   1.302   4.605   0.980  0.7508  0.3428  0.2655
 2352TIP3   OH2 7019   5.593   3.546   4.031 -0.1114  0.0093 -0.9125
 2352TIP3    H1 7020   5.676   3.584   4.005  0.3728 -0.5408 -0.2112
 2352TIP3    H2 7021   5.527   3.609   4.003  0.5428  0.4828 -1.4049
 2353TIP3   OH2 7022   5.228   0.219   5.399 -0.0457 -0.1079  0.2121
 2353TIP3    H1 7023   5.145   0.264   5.382  0.3275  1.0301  1.3162
 2353TIP3    H2 7024   5.284   0.243   5.325 -0.0109  0.8713  0.5460
 2354TIP3   OH2 7025   7.169   2.639   3.387 -0.0478 -0.5651  0.3094
 2354TIP3    H1 7026   7.140   2.713   3.441  0.1694  1.3191 -1.9866
 2354TIP3    H2 7027   7.243   2.674   3.336  1.4584 -3.0348  0.6298
 2355TIP3   OH2 7028   6.137   5.944   2.772 -0.1590 -0.7811 -0.5865
 2355TIP3    H1 7029   6.071   6.011   2.790  0.9044  0.2509 -0.4247
 2355TIP3    H2 7030   6.197   5.949   2.846 -1.0198 -3.1807  0.3509
 2356TIP3   OH2 7031   3.165   5.195   3.698 -0.0929  0.1211  0.4740
 2356TIP3    H1 7032   3.235   5.204   3.633 -2.4129 -2.6266 -2.6919
 2356TIP3    H2 7033   3.091   5.241   3.660 -1.1472 -0.3358  1.9079
 2357TIP3   OH2 7034   2.393   5.444   4.540  0.3048 -0.4638  0.6323
 2357TIP3    H1 7035   2.453   5.403   4.602  0.7481  0.3642  0.7529
 2357TIP3    H2 7036   2.444   5.456   4.460 -0.3364 -1.7617 -0.0065
 2358TIP3   OH2 7037   0.384   6.045   3.525 -0.2194 -0.0723  0.2858
 2358TIP3    H1 7038   0.373   5.964   3.575 -1.4814 -1.3891 -1.9228
 2358TIP3    H2 7039   0.477   6.048   3.504 -0.1607 -0.9939  0.3723
 2359TIP3   OH2 7040   2.653   3.270   1.076 -0.8874 -0.2916  0.9285
 2359TIP3    H1 7041   2.655   3.197   1.014  0.3929 -0.2979  0.9418
 2359TIP3    H2 7042   2.574   3.256   1.128 -2.7318  0.3775 -1.4671
 2360TIP3   OH2 7043   3.083   2.322   2.369  0.7444  0.7395 -0.6531
 2360TIP3    H1 7044   3.118   2.317   2.457 -2.2175  1.8197  0.7409
 2360TIP3    H2 7045   3.093   2.234   2.333  1.2238  0.0371  1.1039
 2361TIP3   OH2 7046   1.576   2.494   5.759 -0.6348 -0.0361  0.3155
 2361TIP3    H1 7047   1.536   2.573   5.794 -0.8320  0.1197 -0.2443
 2361TIP3    H2 7048   1.502   2.437   5.737 -0.4879 -0.4612  0.9093
 2362TIP3   OH2 7049   2.340   6.066   1.061  0.8067  0.2478  0.1082
 2362TIP3    H1 7050   2.358   5.984   1.016 -0.6346  0.6036 -1.2305
 2362TIP3    H2 7051   2.420   6.116   1.053  0.9558 -0.1400 -1.1442
 2363TIP3   OH2 7052   5.069   0.833   0.446 -0.2208  0.0652 -0.5147
 2363TIP3    H1 7053   5.036   0.802   0.531 -1.2251 -1.0610 -1.2833
 2363TIP3    H2 7054   5.040   0.766   0.383  0.9851  0.5918 -1.6731
 2364TIP3   OH2 7055   4.264   0.830   3.075  1.0150 -0.3663 -0.3069
 2364TIP3    H1 7056   4.319   0.849   2.999  0.9293  1.3496  0.0343
 2364TIP3    H2 7057   4.289   0.895   3.141  0.4634 -1.2598  0.8290
 2365TIP3   OH2 7058   0.613   2.403   3.369 -0.5853  0.3636 -0.3073
 2365TIP3    H1 7059   0.563   2.470   3.323 -1.4596  0.6144  0.9448
 2365TIP3    H2 7060   0.546   2.341   3.400 -0.1020  0.5162  1.1031
 2366TIP3   OH2 7061   5.615   1.892   4.540  0.1722  0.0175  0.0727
 2366TIP3    H1 7062   5.655   1.978   4.551 -0.2013  0.4400 -1.6068
 2366TIP3    H2 7063   5.555   1.902   4.466  0.5065 -1.8133 -0.5081
 2367TIP3   OH2 7064   1.802   5.809   3.271  0.2702 -0.9770 -0.5782
 2367TIP3    H1 7065   1.842   5.737   3.319  0.7695  0.0862  0.6677
 2367TIP3    H2 7066   1.729   5.837   3.326  0.6082  0.0147 -0.6144
 2368TIP3   OH2 7067   1.380   5.313   0.321  0.0663  0.4367 -0.1438
 2368TIP3    H1 7068   1.397   5.373   0.393 -1.0547  0.6596 -0.0498
 2368TIP3    H2 7069   1.300   5.267   0.346  1.0423 -1.3282 -0.0698
 2369TIP3   OH2 7070   1.748   3.820   1.350  0.6313 -0.1239 -0.1366
 2369TIP3    H1 7071   1.807   3.827   1.275 -1.2961 -0.0121 -1.7344
 2369TIP3    H2 7072   1.664   3.850   1.316 -0.3940 -0.4530  1.9935
 2370TIP3   OH2 7073   5.276   1.477   0.713 -0.0980 -0.4159 -0.4474
 2370TIP3    H1 7074   5.325   1.462   0.632 -1.8205 -2.6582 -1.1821
 2370TIP3    H2 7075   5.193   1.515   0.685  0.3004  1.3114  0.5674
 2371TIP3   OH2 7076   1.465   4.321   5.586 -0.0908 -0.3744 -0.3769
 2371TIP3    H1 7077   1.477   4.416   5.592 -1.2155 -0.2192 -0.3630
 2371TIP3    H2 7078   1.420   4.307   5.503  0.5764 -0.9606 -0.6530
 2372TIP3   OH2 7079   7.164   0.833   0.278 -0.8401  0.0883  0.8035
 2372TIP3    H1 7080   7.233   0.826   0.212 -2.2582  1.4511 -0.9098
 2372TIP3    H2 7081   7.207   0.872   0.354  0.1670  1.5330 -0.4511
 2373TIP3   OH2 7082   2.075   5.760   2.423  0.1160  0.4464 -0.1234
 2373TIP3    H1 7083   2.073   5.674   2.380  1.1388 -0.2572  1.1918
 2373TIP3    H2 7084   2.012   5.813   2.372 -0.3586 -0.9873 -1.1022
 2374TIP3   OH2 7085   2.086   3.278   3.841 -0.6832  0.1951  0.4631
 2374TIP3    H1 7086   2.045   3.195   3.865  0.4869 -0.2648  0.9669
 2374TIP3    H2 7087   2.151   3.293   3.910 -0.2343  1.0609 -0.1325
 2375TIP3   OH2 7088   6.527   4.595   3.826  0.2298  0.2367  0.4436
 2375TIP3    H1 7089   6.437   4.605   3.854  0.6903  0.5421  1.8761
 2375TIP3    H2 7090   6.563   4.527   3.882  1.4534  1.5643  1.3502
 2376TIP3   OH2 7091   3.636   1.596   5.670  0.1344 -0.5248 -0.0306
 2376TIP3    H1 7092   3.680   1.680   5.688  0.0916 -0.5667  0.2717
 2376TIP3    H2 7093   3.620   1.598   5.576  0.3988 -0.3206 -0.0752
 2377TIP3   OH2 7094   2.353   6.421   4.557 -0.4241  0.2649 -0.5021
 2377TIP3    H1 7095   2.342   6.379   4.472  0.7667  0.5846 -0.8314
 2377TIP3    H2 7096   2.264   6.448   4.582 -1.2751 -2.4547 -0.2207
 2378TIP3   OH2 7097   3.938   3.849   0.212  0.0116 -0.8678 -0.5329
 2378TIP3    H1 7098   4.008   3.894   0.165  0.8035 -0.9086  0.5631
 2378TIP3    H2 7099   3.923   3.769   0.162  0.8380 -0.9188 -0.7143
 2379TIP3   OH2 7100   0.215   1.721   3.560  0.1506  0.6909  0.3658
 2379TIP3    H1 7101   0.274   1.776   3.612 -0.2946 -0.3419  2.0415
 2379TIP3    H2 7102   0.272   1.653   3.523  0.3839  1.1162 -0.0688
 2380TIP3   OH2 7103   3.253   2.195   5.490  0.2522  0.0767 -0.1843
 2380TIP3    H1 7104   3.313   2.265   5.463  0.4834  0.3142  0.9155
 2380TIP3    H2 7105   3.278   2.120   5.437 -0.2119  0.9051 -1.6328
 2381TIP3   OH2 7106   4.193   0.392   2.622  0.7650 -0.1673 -0.0829
 2381TIP3    H1 7107   4.175   0.416   2.713 -0.4488  0.8186 -0.5530
 2381TIP3    H2 7108   4.278   0.431   2.603  0.1186  1.3721  0.0482
 2382TIP3   OH2 7109   2.850   6.115   1.014  0.6470  0.2833 -0.3595
 2382TIP3    H1 7110   2.764   6.127   1.056  0.9443 -0.9029  0.6335
 2382TIP3    H2 7111   2.907   6.084   1.084  0.7657 -3.4313 -1.8991
 2383TIP3   OH2 7112   1.668   1.968   1.613  0.3528  0.5235 -0.3345
 2383TIP3    H1 7113   1.672   1.975   1.708  1.6908  1.3255 -0.4224
 2383TIP3    H2 7114   1.653   1.875   1.596 -2.0668  0.6546  0.6662
 2384TIP3   OH2 7115   6.385   6.478   1.163 -0.0489 -0.1314 -0.1009
 2384TIP3    H1 7116   6.408   6.425   1.240  0.4288  0.1830 -0.0189
 2384TIP3    H2 7117   6.314   6.535   1.193  0.1640  0.0181  0.1258
 2385TIP3   OH2 7118   6.782   4.938   5.397 -0.3351 -0.3767  0.9760
 2385TIP3    H1 7119   6.823   4.979   5.474 -0.4250  1.1094  0.2737
 2385TIP3    H2 7120   6.856   4.904   5.346 -0.0991  0.5582  0.6749
 2386TIP3   OH2 7121   1.266   1.428   2.268 -0.1683  0.0417  0.2088
 2386TIP3    H1 7122   1.317   1.476   2.334 -0.8914 -1.5624  2.0624
 2386TIP3    H2 7123   1.331   1.383   2.215  0.4212  0.9260  0.1664
 2387TIP3   OH2 7124   6.793   2.532   2.610  0.1008  0.6626  0.5706
 2387TIP3    H1 7125   6.830   2.579   2.535 -0.4674 -1.0846 -0.8797
 2387TIP3    H2 7126   6.812   2.588   2.685  1.4084  2.1000 -0.7568
 2388TIP3   OH2 7127   6.398   3.722   2.604 -0.2305  0.0639  0.0653
 2388TIP3    H1 7128   6.311   3.742   2.570 -0.1822  0.0045 -0.0980
 2388TIP3    H2 7129   6.383   3.696   2.694 -0.2858  0.9145  0.3130
 2389TIP3   OH2 7130   3.450   2.869   0.608  0.1911 -0.4597 -0.2028
 2389TIP3    H1 7131   3.530   2.834   0.568 -1.6300 -1.3255 -3.4724
 2389TIP3    H2 7132   3.379   2.828   0.559 -2.3930 -0.9288  3.5501
 2390TIP3   OH2 7133   2.685   3.209   1.950 -0.2202 -0.1547  0.6503
 2390TIP3    H1 7134   2.750   3.157   1.902  1.6048  1.6670  0.9924
 2390TIP3    H2 7135   2.614   3.223   1.886 -0.4603 -2.3690  0.3351
 2391TIP3   OH2 7136   1.162   6.728   5.056 -0.0426  0.1778  0.2722
 2391TIP3    H1 7137   1.169   6.819   5.086 -1.2473  0.7144 -0.9558
 2391TIP3    H2 7138   1.075   6.723   5.016  0.3907 -1.2536 -0.5434
 2392TIP3   OH2 7139   1.339   5.848   5.668  0.4788 -0.0154 -0.2868
 2392TIP3    H1 7140   1.428   5.876   5.647  0.1852  1.2819  0.1542
 2392TIP3    H2 7141   1.284   5.922   5.644 -0.3687 -0.3824  0.4780
 2393TIP3   OH2 7142   3.402   0.403   0.113 -0.7135  0.2369 -0.2216
 2393TIP3    H1 7143   3.459   0.479   0.107 -0.3164 -0.0781 -0.5299
 2393TIP3    H2 7144   3.394   0.372   0.022 -1.0889  0.0733 -0.1352
 2394TIP3   OH2 7145   2.657   3.585   4.800  0.0850 -0.0668  0.0949
 2394TIP3    H1 7146   2.662   3.493   4.827 -2.7033 -0.7668 -1.3899
 2394TIP3    H2 7147   2.599   3.584   4.724 -0.2753  3.0000  0.2357
 2395TIP3   OH2 7148   3.673   0.584   3.982  0.0501  0.4264  0.1060
 2395TIP3    H1 7149   3.751   0.531   3.968 -0.1000  0.2256  0.0222
 2395TIP3    H2 7150   3.651   0.617   3.895  1.0362  1.8986  0.3821
 2396TIP3   OH2 7151   6.016   3.296   3.654  0.0223 -0.5727 -0.4175
 2396TIP3    H1 7152   6.006   3.259   3.742  0.7325 -1.2100 -0.5930
 2396TIP3    H2 7153   6.022   3.391   3.668 -0.5255 -0.6197  0.1593
 2397TIP3   OH2 7154   6.800   3.092   3.772  0.2012  0.0764 -0.3462
 2397TIP3    H1 7155   6.791   3.187   3.765 -0.4359  0.2225  1.7512
 2397TIP3    H2 7156   6.894   3.076   3.768  0.3497  0.8642 -0.1906
 2398TIP3   OH2 7157   6.913   2.083   1.863  0.0436  0.3492  0.3071
 2398TIP3    H1 7158   6.993   2.032   1.874 -0.7382 -1.3806 -1.4140
 2398TIP3    H2 7159   6.857   2.055   1.935  0.1475 -0.1624  0.1943
 2399TIP3   OH2 7160   1.998   5.871   1.790 -0.3507  0.3616 -0.7008
 2399TIP3    H1 7161   2.004   5.855   1.884 -0.5716 -0.0373 -0.7545
 2399TIP3    H2 7162   2.056   5.946   1.775  2.2551 -1.5230 -0.7402
 2400TIP3   OH2 7163   2.483   6.464   4.969  0.0650  0.2912  0.0694
 2400TIP3    H1 7164   2.528   6.542   4.936 -0.4059  0.5028 -0.0837
 2400TIP3    H2 7165   2.544   6.425   5.031  1.1311 -0.3006 -1.2949
 2401TIP3   OH2 7166   1.583   5.302   0.812  0.0362  0.1344  0.0366
 2401TIP3    H1 7167   1.646   5.347   0.867  1.4463 -1.5336 -0.1451
 2401TIP3    H2 7168   1.502   5.301   0.864  0.2324  1.9478  0.4360
 2402TIP3   OH2 7169   7.075   0.915   2.631 -0.4060  0.5760 -0.0276
 2402TIP3    H1 7170   6.982   0.907   2.651 -0.0340 -1.9983  1.0276
 2402TIP3    H2 7171   7.099   1.003   2.662 -2.3254  1.0424  0.2388
 2403TIP3   OH2 7172   1.891   6.215   0.948 -0.1418  0.5732  0.2922
 2403TIP3    H1 7173   1.867   6.144   1.007 -0.3747 -0.1928 -0.6831
 2403TIP3    H2 7174   1.986   6.207   0.938 -0.0556  0.9139  0.8149
 2404TIP3   OH2 7175   1.357   3.639   5.791 -0.4250  0.0119  0.2747
 2404TIP3    H1 7176   1.352   3.628   5.886 -1.6187  2.6667  0.6170
 2404TIP3    H2 7177   1.447   3.617   5.769 -0.0587 -0.4374  2.0588
 2405TIP3   OH2 7178   3.401   5.078   4.539  0.0850 -0.0066 -1.2210
 2405TIP3    H1 7179   3.384   5.143   4.606 -2.3311 -0.6294 -1.1582
 2405TIP3    H2 7180   3.352   5.108   4.462 -2.7058 -2.5915 -0.6269
 2406TIP3   OH2 7181   6.961   3.403   1.252  0.0990 -0.0337  0.0071
 2406TIP3    H1 7182   7.049   3.427   1.280  0.4526 -0.6169 -0.5703
 2406TIP3    H2 7183   6.966   3.308   1.239 -0.1540  0.1492 -1.6231
 2407TIP3   OH2 7184   2.735   1.128   4.827  0.3294 -0.4355  0.2885
 2407TIP3    H1 7185   2.707   1.179   4.902 -1.0842  0.1017 -0.5561
 2407TIP3    H2 7186   2.662   1.134   4.765  1.2462 -1.2539 -0.9336
 2408TIP3   OH2 7187   7.019   3.999   4.696  0.1125  0.1071 -0.0841
 2408TIP3    H1 7188   7.072   4.044   4.630 -0.0904  0.6853  0.1405
 2408TIP3    H2 7189   6.980   3.926   4.650  0.3824  0.2118 -0.4793
 2409TIP3   OH2 7190   5.793   3.878   0.017  0.2274  0.0487  0.5136
 2409TIP3    H1 7191   5.715   3.834   0.050 -0.4064 -1.1722 -2.3213
 2409TIP3    H2 7192   5.764   3.967  -0.004 -0.6775 -0.6420 -1.3002
 2410TIP3   OH2 7193   0.902   1.314   5.317  0.0603 -0.0669 -0.0366
 2410TIP3    H1 7194   0.918   1.312   5.412 -2.1039  0.2110  0.3885
 2410TIP3    H2 7195   0.977   1.363   5.281  1.9242 -1.8157  1.2542
 2411TIP3   OH2 7196   7.166   3.785   1.546  0.0184  0.8767 -0.1921
 2411TIP3    H1 7197   7.099   3.808   1.482 -0.7238 -0.8651 -0.0807
 2411TIP3    H2 7198   7.247   3.782   1.496 -0.4156  0.3655 -0.8757
 2412TIP3   OH2 7199   6.763   0.574   4.657  0.0071 -0.9694 -0.0232
 2412TIP3    H1 7200   6.747   0.480   4.659  0.7016 -1.1493 -1.5465
 2412TIP3    H2 7201   6.755   0.598   4.564 -0.3937  0.5259  0.3534
 2413TIP3   OH2 7202   4.343   3.887   2.726  0.3856 -0.2878 -0.6408
 2413TIP3    H1 7203   4.254   3.888   2.762 -0.4622  1.7036 -2.5155
 2413TIP3    H2 7204   4.332   3.860   2.635  1.6202  0.3701 -1.0171
 2414TIP3   OH2 7205   2.326   1.554   2.273 -0.6250 -0.2516 -1.1903
 2414TIP3    H1 7206   2.314   1.469   2.231  1.1365 -0.5650 -1.1110
 2414TIP3    H2 7207   2.347   1.534   2.364 -0.8961  0.2939 -1.0026
 2415TIP3   OH2 7208   3.986   2.055   3.100  0.5434 -0.1536  0.0802
 2415TIP3    H1 7209   3.901   2.016   3.122  0.0084  0.2055 -1.2691
 2415TIP3    H2 7210   4.032   1.986   3.053  0.4032  0.1578 -0.5146
 2416TIP3   OH2 7211   5.973   2.160   3.140 -0.0050 -0.2711 -0.4638
 2416TIP3    H1 7212   6.035   2.125   3.077  1.9236  3.0294 -0.6232
 2416TIP3    H2 7213   6.010   2.139   3.225  1.1985  1.2925 -0.5576
 2417TIP3   OH2 7214   5.775   0.692   3.076 -0.7406  0.1604  0.6216
 2417TIP3    H1 7215   5.862   0.654   3.090 -0.3928  1.3179  1.7432
 2417TIP3    H2 7216   5.730   0.680   3.159 -2.0592 -1.3352 -0.2475
 2418TIP3   OH2 7217   4.797   3.422   5.837 -0.1762  0.0563 -0.0818
 2418TIP3    H1 7218   4.753   3.469   5.907  0.9892  0.8402  0.1500
 2418TIP3    H2 7219   4.777   3.471   5.758 -1.0260 -0.5093 -0.2327
 2419TIP3   OH2 7220   5.711   5.070   2.353  0.2753  0.5113  0.4147
 2419TIP3    H1 7221   5.779   5.022   2.399 -1.1267 -0.8312  1.1976
 2419TIP3    H2 7222   5.717   5.159   2.386  0.3749 -0.0504  2.0058
 2420TIP3   OH2 7223   1.124   0.815   2.783 -0.3759 -0.6200 -0.5148
 2420TIP3    H1 7224   1.038   0.844   2.812 -0.1398  1.2751 -1.5287
 2420TIP3    H2 7225   1.117   0.811   2.688  0.4910 -0.9690 -0.5702
 2421TIP3   OH2 7226   5.028   2.635   0.421 -0.2572 -0.3800  0.2941
 2421TIP3    H1 7227   4.984   2.623   0.337 -0.7679  0.5056  0.4238
 2421TIP3    H2 7228   5.003   2.723   0.448  2.1169  0.4159  0.0744
 2422TIP3   OH2 7229   3.821   3.379   5.272 -0.0670 -0.1018  0.2908
 2422TIP3    H1 7230   3.743   3.326   5.258 -0.4992  0.8442 -1.0783
 2422TIP3    H2 7231   3.869   3.375   5.189  0.5232  0.6041  0.5820
 2423TIP3   OH2 7232   3.853   5.586   2.197  0.1068  0.7568 -0.2225
 2423TIP3    H1 7233   3.936   5.561   2.155  0.0944 -0.0676  0.2323
 2423TIP3    H2 7234   3.825   5.664   2.149  0.8037  0.6473 -0.8290
 2424TIP3   OH2 7235   5.411   1.069   0.549  0.5695  0.1384  0.2335
 2424TIP3    H1 7236   5.411   1.117   0.631  3.2342 -1.4324  1.2895
 2424TIP3    H2 7237   5.494   1.021   0.549  0.2028 -0.7406 -2.9108
 2425TIP3   OH2 7238   0.552   3.706   2.789  0.0561  0.0706  1.0383
 2425TIP3    H1 7239   0.592   3.652   2.857  1.6037 -0.5051 -0.2580
 2425TIP3    H2 7240   0.583   3.794   2.806  1.5982 -0.3056  0.2874
 2426TIP3   OH2 7241   6.547   0.046   3.143  0.0679  0.2197 -0.2944
 2426TIP3    H1 7242   6.591  -0.039   3.137 -0.6313 -0.2578  0.9093
 2426TIP3    H2 7243   6.523   0.053   3.236 -1.8528  0.7180 -0.7929
 2427TIP3   OH2 7244   1.542   2.643   4.021 -0.1632 -0.0438 -0.1649
 2427TIP3    H1 7245   1.479   2.697   3.975 -0.9602 -1.2084 -0.4865
 2427TIP3    H2 7246   1.608   2.621   3.955 -0.8675 -1.0260 -0.5797
 2428TIP3   OH2 7247   6.269   1.199   1.802 -0.1803  0.0180  0.2605
 2428TIP3    H1 7248   6.269   1.134   1.731  0.0982 -0.3655  0.6036
 2428TIP3    H2 7249   6.277   1.147   1.881  2.9097  0.5433  0.4441
 2429TIP3   OH2 7250   4.832   2.556   5.754 -0.4651  0.1337  0.3037
 2429TIP3    H1 7251   4.739   2.543   5.769 -0.6792 -2.5861 -2.3319
 2429TIP3    H2 7252   4.875   2.509   5.825 -1.1481 -0.5374  0.2847
 2430TIP3   OH2 7253   1.512   2.870   2.623 -0.3181 -0.3501 -0.0752
 2430TIP3    H1 7254   1.421   2.898   2.609  0.6058  2.2576 -1.8023
 2430TIP3    H2 7255   1.563   2.926   2.564  2.4746 -1.3593  1.2020
 2431TIP3   OH2 7256   5.196   0.795   0.984 -0.2443  0.3664 -0.7243
 2431TIP3    H1 7257   5.124   0.815   1.044 -1.0694 -2.0766 -0.7965
 2431TIP3    H2 7258   5.196   0.869   0.922 -2.2717  0.7595 -0.3429
 2432TIP3   OH2 7259   1.070   4.638   2.375  1.0137 -0.6187  0.3051
 2432TIP3    H1 7260   0.983   4.617   2.410  0.9374 -1.8506 -0.5514
 2432TIP3    H2 7261   1.122   4.662   2.451  0.2861 -1.2316  1.0091
 2433TIP3   OH2 7262   4.049   1.916   2.322 -0.1362 -0.1230  0.5355
 2433TIP3    H1 7263   4.132   1.893   2.365  0.0175 -0.6086 -0.0102
 2433TIP3    H2 7264   4.020   1.995   2.368  1.2134  0.7403 -0.0141
 2434TIP3   OH2 7265   2.719   5.650   0.827  0.0847  0.0900 -0.5140
 2434TIP3    H1 7266   2.715   5.689   0.914 -1.0327  0.3170 -0.6454
 2434TIP3    H2 7267   2.742   5.559   0.842  1.5893  0.5074 -0.1196
 2435TIP3   OH2 7268   6.535   6.256   0.177 -0.3758  0.1907  0.1554
 2435TIP3    H1 7269   6.625   6.288   0.179 -1.0378  2.3771 -1.2323
 2435TIP3    H2 7270   6.482   6.334   0.193 -2.0440 -1.0630  1.0621
 2436TIP3   OH2 7271   3.271   2.639   3.403  0.3527  0.4639  0.5957
 2436TIP3    H1 7272   3.325   2.673   3.331  0.4326  0.9107  0.8648
 2436TIP3    H2 7273   3.190   2.610   3.360  1.1675 -1.1320  0.0391
 2437TIP3   OH2 7274   4.949   5.253   5.786 -0.2956 -0.7937  1.0467
 2437TIP3    H1 7275   4.877   5.205   5.747 -0.0446 -0.3849  0.0504
 2437TIP3    H2 7276   4.994   5.294   5.712 -0.2380  0.6130  1.8235
 2438TIP3   OH2 7277   1.897   5.482   3.117  0.0737 -0.1763 -0.0833
 2438TIP3    H1 7278   1.950   5.518   3.045  2.1608 -0.9620  1.0021
 2438TIP3    H2 7279   1.926   5.391   3.125  0.3761  0.0708  2.1518
 2439TIP3   OH2 7280   6.782   5.936   0.145  0.1329  0.4638 -0.0729
 2439TIP3    H1 7281   6.835   5.856   0.149 -0.6060 -0.0311 -0.1561
 2439TIP3    H2 7282   6.693   5.908   0.163 -0.3065  1.1065 -1.1523
 2440TIP3   OH2 7283   5.572   1.342   1.542 -0.1651  0.1762 -0.3061
 2440TIP3    H1 7284   5.489   1.340   1.590  0.0010 -0.8298 -0.0251
 2440TIP3    H2 7285   5.635   1.378   1.605  0.3286 -2.3416  0.7661
 2441TIP3   OH2 7286   4.271   0.795   0.671 -0.4458 -0.3344  0.0428
 2441TIP3    H1 7287   4.318   0.726   0.625  1.8423  1.3778 -0.3357
 2441TIP3    H2 7288   4.253   0.861   0.604 -1.3251  0.1039  0.6792
 2442TIP3   OH2 7289   4.867   2.162   3.917 -0.4889  0.0188 -0.4032
 2442TIP3    H1 7290   4.826   2.246   3.900 -0.6125  0.1499  0.4775
 2442TIP3    H2 7291   4.807   2.097   3.881 -0.5337  0.2882 -0.8210
 2443TIP3   OH2 7292   3.049   4.135   1.900 -0.2954 -0.7736  0.1950
 2443TIP3    H1 7293   3.086   4.133   1.812  0.7702 -0.2396  0.5991
 2443TIP3    H2 7294   3.070   4.223   1.932  0.8867 -1.5185  1.5922
 2444TIP3   OH2 7295   1.742   2.254   1.314 -0.1951  0.2679  0.3047
 2444TIP3    H1 7296   1.816   2.268   1.255 -2.0028  1.5324 -1.8436
 2444TIP3    H2 7297   1.678   2.320   1.288 -1.0742  1.0668  3.9165
 2445TIP3   OH2 7298   3.030   2.581   0.344 -0.5584 -0.2932  0.0559
 2445TIP3    H1 7299   3.044   2.487   0.333  0.1201 -0.1515 -0.3966
 2445TIP3    H2 7300   2.963   2.588   0.412  1.7460 -1.0412  2.5951
 2446TIP3   OH2 7301   6.747   6.271   1.375 -0.0894  0.3844 -0.7153
 2446TIP3    H1 7302   6.712   6.318   1.300  2.1199  0.8874 -1.5171
 2446TIP3    H2 7303   6.715   6.182   1.366  0.9489  0.1757 -2.8911
 2447TIP3   OH2 7304   5.731   2.832   5.092 -0.2044 -0.2054 -0.5801
 2447TIP3    H1 7305   5.752   2.890   5.018 -0.8639 -0.2425 -0.8093
 2447TIP3    H2 7306   5.787   2.756   5.080 -2.2250 -1.5129 -2.6775
 2448TIP3   OH2 7307   3.232   3.001   1.543 -0.2919 -0.3185 -0.9538
 2448TIP3    H1 7308   3.288   2.959   1.477 -0.4398 -0.9167 -0.7076
 2448TIP3    H2 7309   3.283   3.075   1.574  1.0568 -1.7222  0.3784
 2449TIP3   OH2 7310   6.405   5.409   5.705  0.2762 -0.0399  0.1718
 2449TIP3    H1 7311   6.479   5.355   5.732  0.7665  0.8914  0.7332
 2449TIP3    H2 7312   6.415   5.416   5.610  0.5930 -0.3774  0.1778
 2450TIP3   OH2 7313   6.920   2.514   0.323  0.5345 -0.0502  0.1619
 2450TIP3    H1 7314   6.929   2.604   0.353  0.7480  0.6736 -1.9287
 2450TIP3    H2 7315   6.830   2.490   0.345 -0.2687  1.4948 -1.2865
 2451TIP3   OH2 7316   3.642   0.181   2.588 -0.2832  0.4169  0.2746
 2451TIP3    H1 7317   3.586   0.257   2.569 -2.0613 -0.4459  1.7380
 2451TIP3    H2 7318   3.705   0.212   2.653 -0.8153  0.7423  0.6422
 2452TIP3   OH2 7319   0.936   0.225   2.329  0.0188 -0.1033 -0.2909
 2452TIP3    H1 7320   0.925   0.282   2.406 -2.5274 -0.5316 -0.2600
 2452TIP3    H2 7321   0.925   0.283   2.254  4.2701  0.6833 -0.5519
 2453TIP3   OH2 7322   1.940   5.903   0.864  0.3870 -1.0242  0.4016
 2453TIP3    H1 7323   2.007   5.925   0.927 -0.3771 -2.8577  1.9520
 2453TIP3    H2 7324   1.976   5.931   0.779  2.2582 -0.2792  1.3888
 2454TIP3   OH2 7325   4.158   0.563   4.413 -0.7345 -0.1914 -0.4406
 2454TIP3    H1 7326   4.092   0.606   4.358 -0.9905 -0.5772 -0.4381
 2454TIP3    H2 7327   4.124   0.474   4.427  0.1066 -0.6123 -0.9932
 2455TIP3   OH2 7328   4.321   2.860   0.717 -0.4494  0.3229  1.0031
 2455TIP3    H1 7329   4.316   2.814   0.800  0.1523 -1.1122  0.2826
 2455TIP3    H2 7330   4.248   2.923   0.720  1.1828  2.2861  3.6835
 2456TIP3   OH2 7331   7.014   0.534   2.195  0.0399  0.8992 -0.2500
 2456TIP3    H1 7332   7.028   0.596   2.267  0.3195 -0.5602  0.9959
 2456TIP3    H2 7333   7.023   0.587   2.116  0.6513  2.3710  0.7615
 2457TIP3   OH2 7334   5.958   6.500   2.216  0.1744  0.2736 -0.8210
 2457TIP3    H1 7335   5.887   6.457   2.168 -0.9684  1.1707 -0.0129
 2457TIP3    H2 7336   5.924   6.589   2.234  1.8516  1.0148 -1.1586
 2458TIP3   OH2 7337   7.032   0.855   5.642  0.7741 -0.3678 -0.1873
 2458TIP3    H1 7338   7.034   0.764   5.614  0.6691 -0.4113 -0.0560
 2458TIP3    H2 7339   6.999   0.904   5.567  2.2454 -0.2368 -0.7903
 2459TIP3   OH2 7340   1.894   4.511   1.147 -0.0828 -0.4024  0.2797
 2459TIP3    H1 7341   1.952   4.572   1.193 -0.9479 -0.8522  2.0286
 2459TIP3    H2 7342   1.821   4.566   1.117  0.4386 -0.1232 -0.5034
 2460TIP3   OH2 7343   2.630   3.347   3.531  0.0991 -0.5207  0.1066
 2460TIP3    H1 7344   2.712   3.337   3.578  1.1954  1.9936 -1.0914
 2460TIP3    H2 7345   2.579   3.408   3.584 -0.2285 -0.6523 -0.0557
 2461TIP3   OH2 7346   3.463   1.168   5.145 -0.1343 -0.1825 -0.9071
 2461TIP3    H1 7347   3.550   1.189   5.180 -0.2183 -1.2693  0.0078
 2461TIP3    H2 7348   3.470   1.076   5.118 -1.6593 -1.1060  1.4657
 2462TIP3   OH2 7349   3.498   0.742   1.027  0.2310 -0.1926  0.1845
 2462TIP3    H1 7350   3.494   0.798   0.950  1.3554  0.2555  0.4204
 2462TIP3    H2 7351   3.504   0.803   1.101 -0.2889 -0.6147  0.5851
 2463TIP3   OH2 7352   4.121   2.118   2.770 -0.2992  0.1981  0.1510
 2463TIP3    H1 7353   4.131   2.213   2.776  1.6945  0.0927 -0.7833
 2463TIP3    H2 7354   4.041   2.105   2.719 -2.6150  1.2694  3.1985
 2464TIP3   OH2 7355   6.082   4.071   0.083  0.4446  0.7390 -0.0570
 2464TIP3    H1 7356   6.037   4.060   0.167 -0.8523 -0.2728 -0.8504
 2464TIP3    H2 7357   6.039   4.145   0.042 -0.4024 -0.1208 -0.7440
 2465TIP3   OH2 7358   3.862   0.717   0.168  0.0006 -0.2404 -0.2325
 2465TIP3    H1 7359   3.954   0.692   0.157  0.1881  0.3270  0.0220
 2465TIP3    H2 7360   3.821   0.694   0.085  0.3949 -0.3826 -0.3920
 2466TIP3   OH2 7361   1.012   5.772   5.691 -0.5104 -0.3678 -0.2233
 2466TIP3    H1 7362   1.076   5.715   5.733  0.1638  0.6401  0.1815
 2466TIP3    H2 7363   0.937   5.716   5.672 -0.2913 -1.1385  1.1137
 2467TIP3   OH2 7364   1.141   4.702   1.657 -0.0830  0.3861  0.2053
 2467TIP3    H1 7365   1.058   4.714   1.702 -1.3320 -1.1563 -1.5921
 2467TIP3    H2 7366   1.118   4.677   1.568  2.3144  0.6934 -0.5838
 2468TIP3   OH2 7367   5.846   6.015   5.171 -0.3815  0.4683  0.1130
 2468TIP3    H1 7368   5.754   6.042   5.181 -0.6397 -0.5209  0.5421
 2468TIP3    H2 7369   5.896   6.094   5.189 -1.1560  1.1818 -0.7340
 2469TIP3   OH2 7370   0.962   0.171   3.925  0.1567  0.0239  0.5028
 2469TIP3    H1 7371   1.055   0.184   3.911  0.4874 -1.7160  0.8886
 2469TIP3    H2 7372   0.941   0.229   3.999  1.3660 -0.9427  1.6564
 2470TIP3   OH2 7373   0.637   3.697   3.298 -0.2402  0.2803  0.4740
 2470TIP3    H1 7374   0.626   3.606   3.326 -1.5832  0.9792  2.3938
 2470TIP3    H2 7375   0.573   3.708   3.227  0.3778 -0.4038 -0.2211
 2471TIP3   OH2 7376   6.645   2.129   3.176  0.4222  0.5949 -0.8576
 2471TIP3    H1 7377   6.665   2.135   3.083 -0.1354  2.8865 -0.8818
 2471TIP3    H2 7378   6.729   2.141   3.220  0.4438  1.2156 -1.0577
 2472TIP3   OH2 7379   6.052   5.415   2.762  0.2284  0.0179  0.2480
 2472TIP3    H1 7380   6.132   5.435   2.811  0.9062 -1.8118 -0.0171
 2472TIP3    H2 7381   5.990   5.385   2.829  0.3027 -0.0480  0.2884
 2473TIP3   OH2 7382   5.892   5.586   4.330  0.2006 -0.2760 -0.0259
 2473TIP3    H1 7383   5.882   5.667   4.380 -0.2916  0.5433 -1.4261
 2473TIP3    H2 7384   5.878   5.611   4.239 -1.4957 -2.2040 -0.3559
 2474TIP3   OH2 7385   1.854   4.989   4.474  0.0844 -0.0119  0.1511
 2474TIP3    H1 7386   1.759   5.002   4.467  0.1752  0.6249  0.0469
 2474TIP3    H2 7387   1.889   5.076   4.495  0.7363 -0.0244 -0.7979
 2475TIP3   OH2 7388   4.645   4.849   0.051 -0.1760 -0.5202  0.5723
 2475TIP3    H1 7389   4.739   4.834   0.055 -0.2535 -0.6927  2.5734
 2475TIP3    H2 7390   4.607   4.774   0.096 -1.2799 -0.3822 -0.0938
 2476TIP3   OH2 7391   4.109   2.862   4.365  0.1336 -0.0116 -0.1815
 2476TIP3    H1 7392   4.107   2.928   4.435  0.0990 -0.2954  0.0885
 2476TIP3    H2 7393   4.185   2.886   4.312 -0.0747  0.4428 -0.2800
 2477TIP3   OH2 7394   4.512   6.176   3.811 -0.2978  0.1710  0.1841
 2477TIP3    H1 7395   4.433   6.135   3.844  0.0980  0.1747  1.1522
 2477TIP3    H2 7396   4.547   6.113   3.748 -0.8869  0.0245 -0.0042
 2478TIP3   OH2 7397   2.063   0.521   5.093  0.2287 -0.6487  0.0255
 2478TIP3    H1 7398   2.056   0.593   5.157 -1.2436 -0.9108  0.1894
 2478TIP3    H2 7399   2.146   0.478   5.115  1.4743  1.3427 -0.4642
 2479TIP3   OH2 7400   4.056   3.215   1.206 -0.2020 -0.3499  0.2679
 2479TIP3    H1 7401   4.021   3.151   1.144 -0.0102  0.4476 -0.6923
 2479TIP3    H2 7402   4.063   3.296   1.155  1.3295 -0.0284  0.9321
 2480TIP3   OH2 7403   2.517   5.734   0.556 -0.0152 -0.6345 -0.1564
 2480TIP3    H1 7404   2.478   5.820   0.573 -0.3830 -0.7556 -0.3975
 2480TIP3    H2 7405   2.512   5.689   0.641  0.8743 -0.1508  0.1765
 2481TIP3   OH2 7406   4.133   0.626   1.186 -0.1999 -0.2247 -0.6859
 2481TIP3    H1 7407   4.159   0.712   1.218 -1.0221 -0.4068  0.5521
 2481TIP3    H2 7408   4.173   0.619   1.100  0.8385  0.9235 -0.3198
 2482TIP3   OH2 7409   3.458   0.163   0.263  0.1998 -0.0814 -0.3805
 2482TIP3    H1 7410   3.413   0.235   0.219 -0.5687 -1.2148 -1.5315
 2482TIP3    H2 7411   3.410   0.151   0.345  0.1005  0.4719 -0.3531
 2483TIP3   OH2 7412   3.257   4.129   4.193 -0.0914  0.0965 -0.2848
 2483TIP3    H1 7413   3.259   4.141   4.288 -1.4406 -4.2399  0.5012
 2483TIP3    H2 7414   3.171   4.162   4.166  0.7359  2.3953 -0.2983
 2484TIP3   OH2 7415   6.963   1.872   0.121  0.0357  0.4014 -0.4372
 2484TIP3    H1 7416   7.007   1.956   0.131 -0.4081  0.7388 -1.2364
 2484TIP3    H2 7417   6.898   1.870   0.191 -2.4814  2.3669 -2.5074
 2485TIP3   OH2 7418   1.433   4.772   1.614 -0.2760 -0.0351 -0.1383
 2485TIP3    H1 7419   1.349   4.817   1.606  0.4858  1.3301 -1.0832
 2485TIP3    H2 7420   1.438   4.717   1.536 -0.5786 -0.6389  0.2656
 2486TIP3   OH2 7421   0.530   3.293   0.571 -0.1531  0.1271  0.4634
 2486TIP3    H1 7422   0.449   3.341   0.553 -0.3523 -0.2935  0.2315
 2486TIP3    H2 7423   0.503   3.217   0.623 -0.1599 -0.9701 -1.0937
 2487TIP3   OH2 7424   2.959   0.139   1.538 -0.4855 -0.1218 -0.6180
 2487TIP3    H1 7425   2.896   0.102   1.477 -1.7304 -1.5708  1.4500
 2487TIP3    H2 7426   3.030   0.075   1.542 -0.6017 -0.2300 -0.2469
 2488TIP3   OH2 7427   1.630   0.412   5.613 -0.4901  0.5360 -1.0061
 2488TIP3    H1 7428   1.571   0.485   5.631  1.1536  1.9749 -1.2149
 2488TIP3    H2 7429   1.632   0.405   5.518  1.6806  2.2911 -1.1555
 2489TIP3   OH2 7430   5.847   1.353   4.969 -0.8071 -0.5684  0.1701
 2489TIP3    H1 7431   5.798   1.430   4.998  0.7873  1.7255 -2.6339
 2489TIP3    H2 7432   5.912   1.339   5.037 -0.3549  1.4097  0.2052
 2490TIP3   OH2 7433   6.845   4.751   0.529 -0.1634 -0.4190 -0.1000
 2490TIP3    H1 7434   6.820   4.722   0.617 -1.1497  0.8171  0.0494
 2490TIP3    H2 7435   6.871   4.843   0.540  1.1685 -0.6714 -0.8600
 2491TIP3   OH2 7436   5.462   3.610   0.346  0.1293 -0.6309 -0.4496
 2491TIP3    H1 7437   5.498   3.537   0.395 -2.8654 -0.8451  1.7376
 2491TIP3    H2 7438   5.374   3.581   0.322 -0.0434  1.1499 -2.2270
 2492TIP3   OH2 7439   0.801   6.800   3.742  0.0007 -0.4558 -0.3304
 2492TIP3    H1 7440   0.743   6.832   3.674 -0.9486 -0.1853  0.5711
 2492TIP3    H2 7441   0.755   6.726   3.781  0.7440 -0.9152 -0.2925
 2493TIP3   OH2 7442   4.386   6.746   3.559  0.4230 -0.1440  0.4050
 2493TIP3    H1 7443   4.385   6.764   3.653 -1.4154 -0.1932  0.4334
 2493TIP3    H2 7444   4.470   6.780   3.529  1.1035 -0.2327  2.0733
 2494TIP3   OH2 7445   3.710   3.654   0.417 -0.7682  0.9407  0.1525
 2494TIP3    H1 7446   3.664   3.572   0.434  1.0463 -0.1700  0.0943
 2494TIP3    H2 7447   3.763   3.636   0.339  0.3382  1.8628  0.6567
 2495TIP3   OH2 7448   5.512   4.675   2.648  0.0089 -0.0606 -0.0329
 2495TIP3    H1 7449   5.453   4.745   2.621  0.6184  0.1935 -0.7655
 2495TIP3    H2 7450   5.473   4.595   2.612  0.5690  0.2188 -1.3582
 2496TIP3   OH2 7451   5.410   5.361   3.395 -0.4715  0.3072 -0.6181
 2496TIP3    H1 7452   5.491   5.325   3.432 -0.9328  0.8671  1.0104
 2496TIP3    H2 7453   5.346   5.291   3.403  0.1322 -0.6252 -3.1643
 2497TIP3   OH2 7454   3.156   3.890   3.971 -0.0089  0.0693 -0.4755
 2497TIP3    H1 7455   3.081   3.924   4.020  0.2877  1.2898 -0.8310
 2497TIP3    H2 7456   3.130   3.897   3.879 -0.5937 -2.2814 -0.5389
 2498TIP3   OH2 7457   0.791   4.872   2.206  0.1838  0.1383  0.8679
 2498TIP3    H1 7458   0.786   4.784   2.167 -1.3718  0.0997  1.1024
 2498TIP3    H2 7459   0.883   4.897   2.197  0.6084 -1.4214  0.5878
 2499TIP3   OH2 7460   6.741   4.079   0.176 -0.1427  0.1757  0.3674
 2499TIP3    H1 7461   6.703   4.008   0.125 -0.4939 -0.6153  1.6591
 2499TIP3    H2 7462   6.667   4.113   0.228 -0.0077  1.5720 -0.3116
 2500TIP3   OH2 7463   3.023   5.045   3.903 -0.1775  0.4428  0.0650
 2500TIP3    H1 7464   3.053   5.082   3.821  0.2517  2.1851  0.9553
 2500TIP3    H2 7465   3.088   4.977   3.924  1.1478  1.6883  0.1726
 2501TIP3   OH2 7466   1.758   4.778   1.056 -0.1530  0.0674 -0.1242
 2501TIP3    H1 7467   1.745   4.835   1.132  0.2198 -0.4684  0.3531
 2501TIP3    H2 7468   1.853   4.776   1.044 -0.2336  0.4901 -0.8742
 2502TIP3   OH2 7469   2.523   6.577   2.859 -0.2385 -0.6253 -0.3568
 2502TIP3    H1 7470   2.460   6.506   2.856 -0.4820 -0.3892 -1.6539
 2502TIP3    H2 7471   2.473   6.655   2.835  0.3825 -0.3203 -0.7007
 2503TIP3   OH2 7472   5.851   4.351   2.900 -0.2888 -0.2856 -0.2567
 2503TIP3    H1 7473   5.911   4.409   2.947  0.5724 -0.3734 -1.2116
 2503TIP3    H2 7474   5.789   4.410   2.857  0.3832 -0.0734 -0.9539
 2504TIP3   OH2 7475   5.612   2.287   4.879  0.2426  0.3993 -0.1640
 2504TIP3    H1 7476   5.648   2.358   4.824  0.5419  0.1473 -0.2970
 2504TIP3    H2 7477   5.689   2.235   4.903 -0.1937 -1.1695 -1.8970
 2505TIP3   OH2 7478   3.730   6.173   0.086 -0.2243  0.0596 -0.1244
 2505TIP3    H1 7479   3.662   6.198   0.149  0.2515  1.8548 -0.2673
 2505TIP3    H2 7480   3.688   6.109   0.029 -1.5547  0.5385  0.2811
 2506TIP3   OH2 7481   0.361   2.756   1.643 -0.4542  0.1812  0.2048
 2506TIP3    H1 7482   0.372   2.690   1.712 -1.9632  0.7420  1.0388
 2506TIP3    H2 7483   0.443   2.754   1.594 -0.7784 -3.0355 -0.4579
 2507TIP3   OH2 7484   2.526   6.095   2.719  0.0223 -0.9091  0.2778
 2507TIP3    H1 7485   2.589   6.141   2.664 -1.0156  0.6172  0.3000
 2507TIP3    H2 7486   2.563   6.008   2.731  1.1180 -0.7098 -1.3852
 2508TIP3   OH2 7487   0.271   4.090   4.083 -1.0639 -0.1261 -0.5688
 2508TIP3    H1 7488   0.261   4.076   3.989 -0.5951  0.3257 -0.6907
 2508TIP3    H2 7489   0.316   4.174   4.091 -0.6745 -0.3787  0.0419
 2509TIP3   OH2 7490   6.950   2.975   0.607 -0.3822 -0.4949 -0.0744
 2509TIP3    H1 7491   7.008   2.899   0.609  1.5068  0.8363 -0.9833
 2509TIP3    H2 7492   7.006   3.048   0.634 -1.9933  0.6700  0.2626
 2510TIP3   OH2 7493   0.007   5.482   0.043  0.0747 -0.3315 -0.5112
 2510TIP3    H1 7494   0.078   5.529   0.087  0.5020 -1.4271  0.0106
 2510TIP3    H2 7495  -0.031   5.426   0.111 -0.2115 -0.9684 -1.1759
 2511TIP3   OH2 7496   2.712   4.517   3.955 -0.4764  0.1794  0.0298
 2511TIP3    H1 7497   2.695   4.609   3.938 -1.3137  0.0730  0.2756
 2511TIP3    H2 7498   2.630   4.473   3.937 -0.6973 -0.2534  1.8730
 2512TIP3   OH2 7499   3.973   2.667   4.236 -0.5927 -0.1830  0.0210
 2512TIP3    H1 7500   4.015   2.667   4.150 -3.7638  2.6030 -1.7187
 2512TIP3    H2 7501   4.033   2.717   4.292  0.1119  0.6050 -1.3902
 2513TIP3   OH2 7502   7.121   5.896   4.454  0.0836 -0.3426  0.3092
 2513TIP3    H1 7503   7.212   5.911   4.479  0.1217  0.3050 -0.1971
 2513TIP3    H2 7504   7.124   5.827   4.389  0.2965  0.2579 -0.3230
 2514TIP3   OH2 7505   1.439   4.260   4.454  0.0080 -0.2686 -0.1258
 2514TIP3    H1 7506   1.372   4.225   4.512 -0.4194 -0.3855 -0.6757
 2514TIP3    H2 7507   1.444   4.353   4.476 -1.6793  0.1618 -1.3161
 2515TIP3   OH2 7508   3.692   2.753   4.279 -0.7205 -0.0226 -0.1578
 2515TIP3    H1 7509   3.644   2.723   4.202 -0.8334 -0.0638 -0.0711
 2515TIP3    H2 7510   3.784   2.734   4.258 -0.6523  0.8394 -0.6748
 2516TIP3   OH2 7511   2.488   1.503   3.421 -0.1302  0.0083 -0.3065
 2516TIP3    H1 7512   2.514   1.594   3.438 -1.3946  0.3481 -0.0858
 2516TIP3    H2 7513   2.412   1.510   3.363 -1.4226 -0.8133  1.2134
 2517TIP3   OH2 7514   4.747   5.557   2.038 -0.2823  0.2352  0.3031
 2517TIP3    H1 7515   4.693   5.580   1.962  0.3768 -0.2076 -0.3110
 2517TIP3    H2 7516   4.782   5.471   2.017 -0.3014 -0.0037  1.2365
 2518TIP3   OH2 7517   1.368   5.674   4.114  0.0448 -0.0251 -0.7120
 2518TIP3    H1 7518   1.457   5.660   4.146 -0.2582  0.2862  0.3197
 2518TIP3    H2 7519   1.321   5.594   4.139 -0.1345  0.1157 -0.5946
 2519TIP3   OH2 7520   0.081   2.366   5.431 -0.2340 -0.3226  0.8703
 2519TIP3    H1 7521   0.073   2.456   5.400 -0.9591  0.5659  3.3828
 2519TIP3    H2 7522   0.175   2.352   5.440 -0.0837 -0.0842 -0.1859
 2520TIP3   OH2 7523   2.145   1.883   4.590 -0.2565 -0.2753  0.2534
 2520TIP3    H1 7524   2.127   1.806   4.537  0.0248  0.1011 -0.4029
 2520TIP3    H2 7525   2.113   1.860   4.678 -0.9563 -0.8106 -0.1323
 2521TIP3   OH2 7526   1.020   3.598   2.439  0.6896 -0.1462 -0.3257
 2521TIP3    H1 7527   0.934   3.614   2.478 -0.0406 -1.2868 -1.3785
 2521TIP3    H2 7528   1.030   3.503   2.442  1.4812 -0.0961 -1.1111
 2522TIP3   OH2 7529   2.413   2.802   4.972 -0.2655  0.0153  0.0834
 2522TIP3    H1 7530   2.368   2.756   4.901  0.2285  0.4235 -0.5134
 2522TIP3    H2 7531   2.394   2.895   4.956 -0.3957  0.0910  0.6636
 2523TIP3   OH2 7532   1.429   1.791   2.213 -0.8117 -0.2770 -0.5416
 2523TIP3    H1 7533   1.413   1.730   2.141  0.7122  0.2695 -1.3998
 2523TIP3    H2 7534   1.506   1.842   2.185 -1.5750  1.5415  0.4546
 2524TIP3   OH2 7535   2.124   2.946   2.400  0.3980  0.3884  0.1226
 2524TIP3    H1 7536   2.183   3.017   2.376  0.6356  0.0226 -0.4029
 2524TIP3    H2 7537   2.182   2.878   2.436  0.2924  0.0694 -0.2984
 2525TIP3   OH2 7538   3.818   5.301   1.202  0.3211  0.0392 -0.3386
 2525TIP3    H1 7539   3.807   5.265   1.114  2.1243  0.0941 -0.6183
 2525TIP3    H2 7540   3.736   5.278   1.247 -0.1791 -0.9704 -1.6727
 2526TIP3   OH2 7541   2.662   3.649   5.717 -0.1680  0.0247  0.0443
 2526TIP3    H1 7542   2.658   3.604   5.632  0.1953  0.1611 -0.0469
 2526TIP3    H2 7543   2.687   3.739   5.695 -1.3123  0.4027  0.1872
 2527TIP3   OH2 7544   5.808   0.083   4.608  0.5019 -0.2630  0.2508
 2527TIP3    H1 7545   5.849   0.001   4.580 -1.8580 -1.0670 -1.1073
 2527TIP3    H2 7546   5.748   0.058   4.678  0.6629  0.5401  0.6939
 2528TIP3   OH2 7547   5.655   4.490   5.590 -0.0431  0.0466  0.0046
 2528TIP3    H1 7548   5.673   4.440   5.669 -1.0226 -0.9256 -0.3654
 2528TIP3    H2 7549   5.673   4.581   5.614  1.7657 -0.4550  0.6899
 2529TIP3   OH2 7550   2.419   0.710   4.236  0.2872 -0.3438 -0.0005
 2529TIP3    H1 7551   2.417   0.639   4.172  0.2361  0.4963 -0.9362
 2529TIP3    H2 7552   2.472   0.778   4.196 -0.3034  0.4634  0.5593
 2530TIP3   OH2 7553   2.251   0.337   5.801  0.4018  0.6669 -0.5791
 2530TIP3    H1 7554   2.206   0.252   5.797 -1.1154  1.3898  0.3238
 2530TIP3    H2 7555   2.225   0.382   5.721 -2.1433  1.8274  0.8003
 2531TIP3   OH2 7556   4.828   2.459   4.339  0.2361  0.6550 -0.3091
 2531TIP3    H1 7557   4.880   2.429   4.264 -0.0727 -0.2865 -0.1512
 2531TIP3    H2 7558   4.749   2.405   4.337 -0.6158  1.8689 -0.3715
 2532TIP3   OH2 7559   0.960   0.838   3.362  0.1688 -0.1445  0.0585
 2532TIP3    H1 7560   1.035   0.810   3.308 -0.7043  1.0018 -1.8744
 2532TIP3    H2 7561   0.922   0.757   3.395  0.6202 -0.9252 -1.2643
 2533TIP3   OH2 7562   4.578   5.288   4.299  0.0156 -0.0286  0.3682
 2533TIP3    H1 7563   4.652   5.300   4.240 -1.5546  0.9197 -1.5364
 2533TIP3    H2 7564   4.592   5.354   4.367  0.3069  1.0164 -0.6585
 2534TIP3   OH2 7565   0.459   0.513   0.416 -0.2120 -0.7383 -0.4391
 2534TIP3    H1 7566   0.439   0.490   0.325 -0.0442  0.5202 -0.8207
 2534TIP3    H2 7567   0.430   0.438   0.467 -0.1544 -1.5412 -1.5482
 2535TIP3   OH2 7568   3.580   2.292   1.555  0.0454 -0.0811  0.2381
 2535TIP3    H1 7569   3.586   2.230   1.482  0.4247 -0.1211  0.3043
 2535TIP3    H2 7570   3.670   2.319   1.572 -0.2319  1.8527 -0.9734
 2536TIP3   OH2 7571   2.865   1.623   5.855  0.5300  0.1972  0.5289
 2536TIP3    H1 7572   2.875   1.718   5.867  2.1196  0.0638  0.4128
 2536TIP3    H2 7573   2.772   1.607   5.873  0.2293  1.7731  0.5373
 2537TIP3   OH2 7574   3.027   2.154   0.541 -0.0300  0.5479 -0.4946
 2537TIP3    H1 7575   2.959   2.196   0.488 -0.5034  1.0406  0.4889
 2537TIP3    H2 7576   2.990   2.070   0.566  0.6180 -0.1686 -1.8162
 2538TIP3   OH2 7577   2.520   6.622   3.611  0.1469 -0.1312  0.3852
 2538TIP3    H1 7578   2.611   6.628   3.582  0.4543 -0.5562  1.2351
 2538TIP3    H2 7579   2.525   6.618   3.706 -0.7266 -0.8924  0.4136
 2539TIP3   OH2 7580   2.517   0.567   3.634 -0.4191  0.2386 -0.4105
 2539TIP3    H1 7581   2.458   0.519   3.693  1.5032 -1.5635  0.2084
 2539TIP3    H2 7582   2.594   0.510   3.628  1.3653  2.5856 -0.9465
 2540TIP3   OH2 7583   3.803   0.984   4.987 -0.3845 -0.1762  0.0578
 2540TIP3    H1 7584   3.794   0.909   4.928 -0.3879 -0.2593  0.1636
 2540TIP3    H2 7585   3.743   0.965   5.059 -1.5003  0.6397 -0.6344
 2541TIP3   OH2 7586   3.015   5.475   3.169 -0.1540 -0.9558  0.1770
 2541TIP3    H1 7587   3.052   5.410   3.230  1.5871 -0.8711 -0.7257
 2541TIP3    H2 7588   3.080   5.482   3.100 -0.6761  1.1805 -0.1595
 2542TIP3   OH2 7589   0.298   4.701   5.720  0.1721 -0.0106  0.1424
 2542TIP3    H1 7590   0.253   4.616   5.717 -0.9184  0.5544 -2.4489
 2542TIP3    H2 7591   0.292   4.734   5.630  0.7109  2.7481  1.0359
 2543TIP3   OH2 7592   2.287   0.137   1.373 -0.4763 -0.0593 -0.0297
 2543TIP3    H1 7593   2.228   0.128   1.448 -2.4224 -1.5662 -1.6111
 2543TIP3    H2 7594   2.334   0.054   1.369 -0.4100 -0.0058 -0.4690
 2544TIP3   OH2 7595   2.036   6.050   3.651 -0.3926  0.5439 -0.0450
 2544TIP3    H1 7596   2.066   6.133   3.614 -0.5521  0.3112 -0.7052
 2544TIP3    H2 7597   1.992   6.006   3.578  1.6515 -1.1203 -0.3694
 2545TIP3   OH2 7598   6.473   2.071   5.090 -0.0176  0.4660  0.1838
 2545TIP3    H1 7599   6.518   1.997   5.129 -0.0252  0.6967  0.6393
 2545TIP3    H2 7600   6.383   2.064   5.121 -0.0375  0.6200  0.1620
 2546TIP3   OH2 7601   2.375   0.372   2.887 -0.3805  0.6753 -0.2148
 2546TIP3    H1 7602   2.433   0.361   2.962 -0.7719 -0.2831 -0.0433
 2546TIP3    H2 7603   2.298   0.320   2.908 -0.2506 -0.1087 -1.5290
 2547TIP3   OH2 7604   1.382   3.773   2.850 -0.2909 -0.0618 -0.1080
 2547TIP3    H1 7605   1.368   3.867   2.850  0.6542  0.1033 -1.0661
 2547TIP3    H2 7606   1.307   3.736   2.802 -1.0677  0.1140  0.9493
 2548TIP3   OH2 7607   5.337   4.779   1.672 -0.5591  0.5652  0.2179
 2548TIP3    H1 7608   5.366   4.790   1.762 -3.9183  0.9665  1.3759
 2548TIP3    H2 7609   5.293   4.694   1.670  0.8600 -0.2075 -1.5261
 2549TIP3   OH2 7610   5.585   3.964   2.194 -0.4807  0.4434 -0.6992
 2549TIP3    H1 7611   5.518   3.936   2.132  0.0097  0.1232 -1.0930
 2549TIP3    H2 7612   5.644   3.888   2.201 -0.1343  0.7382 -0.3943
 2550TIP3   OH2 7613   6.251   3.118   4.574  0.2503  0.1332  0.3189
 2550TIP3    H1 7614   6.281   3.112   4.483  1.3616 -0.2676  0.7035
 2550TIP3    H2 7615   6.239   3.212   4.588  2.7946  0.4711  0.5897
 2551TIP3   OH2 7616   1.972   4.406   4.623  0.1030 -0.3955  0.3564
 2551TIP3    H1 7617   1.890   4.357   4.612 -0.9707  1.3823  0.1343
 2551TIP3    H2 7618   1.974   4.466   4.549  0.9877  0.4372  1.0354
 2552TIP3   OH2 7619   1.577   5.895   4.672 -0.0440  0.3349 -0.8954
 2552TIP3    H1 7620   1.512   5.920   4.738  0.7706  0.1774 -0.0222
 2552TIP3    H2 7621   1.525   5.870   4.596 -0.9808  1.4638 -0.6662
 2553TIP3   OH2 7622   6.182   0.930   0.993  0.4504 -0.0453 -0.0004
 2553TIP3    H1 7623   6.190   0.867   1.064 -1.4725 -0.3668 -0.0366
 2553TIP3    H2 7624   6.230   0.889   0.920  0.3599 -0.8422  0.3761
 2554TIP3   OH2 7625   4.281   4.447   0.642  0.7450  0.3326  0.2121
 2554TIP3    H1 7626   4.219   4.518   0.625 -0.9191 -1.1052  0.0361
 2554TIP3    H2 7627   4.349   4.487   0.696 -0.7256  1.7913  1.0809
 2555TIP3   OH2 7628   2.512   1.859   2.894 -0.3974  0.2968  0.3670
 2555TIP3    H1 7629   2.590   1.905   2.924  0.2229 -1.2586  1.2248
 2555TIP3    H2 7630   2.518   1.772   2.933 -1.7875 -0.3724 -0.7968
 2556TIP3   OH2 7631   1.907   1.564   4.091 -0.4581 -0.1177 -0.0573
 2556TIP3    H1 7632   1.981   1.609   4.134 -0.7471  0.1747  0.1411
 2556TIP3    H2 7633   1.934   1.473   4.086 -0.1014 -0.0214  0.0602
 2557TIP3   OH2 7634   2.228   5.098   1.113 -0.5258 -0.0814 -0.5460
 2557TIP3    H1 7635   2.158   5.093   1.178 -0.3449 -1.3322 -0.4285
 2557TIP3    H2 7636   2.183   5.106   1.029 -0.9214 -2.6718 -0.6617
 2558TIP3   OH2 7637   1.371   6.069   3.618  0.5351  0.4525 -0.2407
 2558TIP3    H1 7638   1.303   6.026   3.669  0.3771  1.6827  0.6104
 2558TIP3    H2 7639   1.349   6.049   3.527  0.9440 -1.9667  0.1156
 2559TIP3   OH2 7640   4.469   5.043   0.107 -0.2877  0.4866 -0.7487
 2559TIP3    H1 7641   4.539   4.984   0.080  0.2706  0.4945  0.6150
 2559TIP3    H2 7642   4.505   5.131   0.092  0.1136  0.4936  0.1977
 2560TIP3   OH2 7643   6.077   5.535   2.141 -0.3075 -0.1760  0.0734
 2560TIP3    H1 7644   6.081   5.631   2.142  0.5999 -0.2037  1.1256
 2560TIP3    H2 7645   6.027   5.512   2.219 -0.5203 -0.5756 -0.1737
 2561TIP3   OH2 7646   1.491   2.657   2.355  0.0792  0.8248  0.3491
 2561TIP3    H1 7647   1.410   2.625   2.394 -0.0522  0.7810  0.0434
 2561TIP3    H2 7648   1.484   2.753   2.359 -0.2406  0.8263 -0.1906
 2562TIP3   OH2 7649   2.235   0.037   4.046 -0.2364 -0.0215  0.3856
 2562TIP3    H1 7650   2.317   0.078   4.017 -0.6416 -0.8323 -2.1293
 2562TIP3    H2 7651   2.255   0.005   4.134  1.8513  0.6263  0.2205
 2563TIP3   OH2 7652   4.212   0.049   4.595  0.0546  0.4454 -0.4471
 2563TIP3    H1 7653   4.222  -0.047   4.595  3.0239  0.5755  1.8872
 2563TIP3    H2 7654   4.175   0.068   4.681  0.5949  1.4150 -0.4147
 2564TIP3   OH2 7655   3.073   6.639   2.952 -0.5372 -0.1392  0.5452
 2564TIP3    H1 7656   3.143   6.584   2.987 -0.7331 -1.0742 -0.4824
 2564TIP3    H2 7657   3.040   6.591   2.876 -0.0430  1.8709 -1.0271
 2565TIP3   OH2 7658   0.294   6.230   5.680  0.4040  0.0764  0.6301
 2565TIP3    H1 7659   0.292   6.197   5.770  2.5903 -1.1208  0.2980
 2565TIP3    H2 7660   0.316   6.154   5.627 -0.4744  0.8444 -0.9111
 2566TIP3   OH2 7661   2.068   0.013   3.642  0.0193  0.2755  0.1392
 2566TIP3    H1 7662   2.088  -0.029   3.725  1.6066  0.6043 -0.0454
 2566TIP3    H2 7663   2.009   0.085   3.665  0.9003  0.7216  1.0778
 2567TIP3   OH2 7664   2.560   3.553   1.581  0.0176 -0.5177 -0.3063
 2567TIP3    H1 7665   2.553   3.644   1.551 -0.8170 -0.1379  0.9520
 2567TIP3    H2 7666   2.588   3.560   1.673 -1.9514 -1.4165  0.4268
 2568TIP3   OH2 7667   2.014   0.254   5.245  0.6941  0.2239 -0.1760
 2568TIP3    H1 7668   2.103   0.220   5.254  0.6734  0.3894  0.6457
 2568TIP3    H2 7669   2.020   0.344   5.275 -0.0814 -0.2348  1.4314
 2569TIP3   OH2 7670   2.626   6.646   4.845  0.5930 -0.1644  0.0025
 2569TIP3    H1 7671   2.648   6.739   4.850  3.0417 -0.7115  1.3962
 2569TIP3    H2 7672   2.591   6.634   4.757  0.7037  1.9771 -0.3874
 2570TIP3   OH2 7673   1.131   0.986   0.542 -0.1144 -0.1686  0.1687
 2570TIP3    H1 7674   1.067   0.969   0.611 -0.4819  0.0394 -0.1191
 2570TIP3    H2 7675   1.209   1.018   0.589 -0.2710 -0.2820  0.5075
 2571TIP3   OH2 7676   6.825   4.123   1.584 -0.2493 -0.4001 -0.0449
 2571TIP3    H1 7677   6.735   4.155   1.591  0.0805  0.8817 -1.0761
 2571TIP3    H2 7678   6.816   4.030   1.564 -1.4100 -0.0138 -1.5408
 2572TIP3   OH2 7679   4.992   2.292   0.756 -0.1568 -0.1561  0.2265
 2572TIP3    H1 7680   5.083   2.291   0.726 -0.7561  0.3134 -1.7605
 2572TIP3    H2 7681   4.946   2.349   0.694 -1.4868  1.1153  2.2577
 2573TIP3   OH2 7682   6.024   4.355   5.231  0.1810 -0.2574 -0.3254
 2573TIP3    H1 7683   6.025   4.268   5.272 -0.4867  0.7341  1.9655
 2573TIP3    H2 7684   5.951   4.400   5.274  1.0265  1.7091 -0.8690
 2574TIP3   OH2 7685   1.538   0.187   4.607 -0.0275 -0.5182 -0.1226
 2574TIP3    H1 7686   1.553   0.279   4.587 -2.4482  0.0715  0.4696
 2574TIP3    H2 7687   1.465   0.161   4.550  0.2161 -1.8933  0.1558
 2575TIP3   OH2 7688   3.007   6.717   5.496  0.2566  0.3720  0.0866
 2575TIP3    H1 7689   2.940   6.726   5.565  1.3758  0.0619  1.2475
 2575TIP3    H2 7690   3.032   6.807   5.475  0.3107  0.4534  0.4936
 2576TIP3   OH2 7691   7.117   5.577   5.670  0.0258 -0.1145  0.0533
 2576TIP3    H1 7692   7.050   5.516   5.702 -0.4841 -0.8094 -2.1771
 2576TIP3    H2 7693   7.185   5.520   5.633  0.3129  0.6365 -0.5937
 2577TIP3   OH2 7694   1.100   4.287   1.998 -0.1963  0.5415  0.1153
 2577TIP3    H1 7695   1.162   4.253   1.934 -0.1445 -1.0478  0.9512
 2577TIP3    H2 7696   1.015   4.283   1.955  0.0362  0.9914 -0.3929
 2578TIP3   OH2 7697   6.566   5.270   0.078 -0.2909  0.1670 -0.0364
 2578TIP3    H1 7698   6.522   5.349   0.046  1.0399  0.8301 -0.3042
 2578TIP3    H2 7699   6.499   5.225   0.130 -2.1976 -0.3539 -2.7319
 2579TIP3   OH2 7700   3.044   6.005   3.154  0.0711 -0.3693  0.5947
 2579TIP3    H1 7701   3.046   5.943   3.081 -0.1147  1.0311 -0.6346
 2579TIP3    H2 7702   2.956   5.996   3.190 -0.9208  1.0171 -1.2813
 2580TIP3   OH2 7703   4.125   1.564   1.511  0.2440  0.5621  0.0963
 2580TIP3    H1 7704   4.154   1.538   1.599  1.9587 -0.7981 -0.8228
 2580TIP3    H2 7705   4.148   1.490   1.455 -0.1817  1.6864 -1.6376
 2581TIP3   OH2 7706   4.721   2.167   1.867 -0.3551 -0.7277  0.3301
 2581TIP3    H1 7707   4.710   2.152   1.961  0.5426  0.0398  0.5758
 2581TIP3    H2 7708   4.741   2.261   1.860  1.0215 -1.0499 -0.4749
 2582TIP3   OH2 7709   2.534   3.959   5.673 -0.4990  0.3561 -0.1208
 2582TIP3    H1 7710   2.449   3.976   5.714 -1.0910 -0.0919 -1.1002
 2582TIP3    H2 7711   2.529   4.005   5.589  1.0806  2.1449  0.6952
 2583TIP3   OH2 7712   1.178   4.314   2.278 -0.0789  0.1255  0.3044
 2583TIP3    H1 7713   1.098   4.334   2.326  0.5696  1.6012  0.8222
 2583TIP3    H2 7714   1.148   4.287   2.191 -1.1147  3.0703 -0.3696
 2584TIP3   OH2 7715   4.765   4.003   2.632  0.4536 -0.1797  0.3073
 2584TIP3    H1 7716   4.698   4.069   2.651  0.8036 -0.1036  1.3752
 2584TIP3    H2 7717   4.844   4.035   2.675  1.2262 -0.2201 -1.0235
 2585TIP3   OH2 7718   1.298   2.013   2.854 -0.0248  0.5772 -0.6878
 2585TIP3    H1 7719   1.219   2.011   2.801  0.2702  0.7312 -1.1374
 2585TIP3    H2 7720   1.267   2.020   2.944 -0.5051  1.2696 -0.9082
 2586TIP3   OH2 7721   0.483   5.630   0.736 -0.4832  0.2314  0.3153
 2586TIP3    H1 7722   0.569   5.588   0.738 -0.6623 -0.1144  2.0904
 2586TIP3    H2 7723   0.496   5.708   0.681  0.3011 -1.1155 -1.5392
 2587TIP3   OH2 7724   6.660   1.226   3.512 -0.1659  0.8729 -0.0150
 2587TIP3    H1 7725   6.656   1.218   3.607 -0.2037  0.9387 -0.0111
 2587TIP3    H2 7726   6.624   1.313   3.494  1.8675  1.8200  0.0988
 2588TIP3   OH2 7727   2.058   0.736   0.402  0.1205  0.2558 -0.0082
 2588TIP3    H1 7728   2.047   0.731   0.307 -1.5300  0.4925  0.1342
 2588TIP3    H2 7729   1.982   0.786   0.432  1.4623  1.6139  1.2907
 2589TIP3   OH2 7730   2.089   6.555   1.658  0.2626  0.0709  0.6128
 2589TIP3    H1 7731   2.157   6.611   1.622  0.6723 -0.1311  1.0656
 2589TIP3    H2 7732   2.075   6.588   1.747 -2.0264  1.7544 -0.2391
 2590TIP3   OH2 7733   2.323   4.728   3.995 -0.1693 -0.8659 -0.8125
 2590TIP3    H1 7734   2.344   4.815   3.961  1.9075 -0.9060  0.2389
 2590TIP3    H2 7735   2.290   4.743   4.083 -1.5827 -1.0606 -1.2747
 2591TIP3   OH2 7736   1.943   2.475   3.671 -0.2574  0.4474  0.6407
 2591TIP3    H1 7737   2.007   2.545   3.684  3.8063 -2.9646  1.3202
 2591TIP3    H2 7738   1.949   2.453   3.578  0.8514 -0.8625  0.9848
 2592TIP3   OH2 7739   6.858   6.608   3.450  0.3473  0.8564 -0.2933
 2592TIP3    H1 7740   6.914   6.543   3.494 -0.1098  1.5425  1.3831
 2592TIP3    H2 7741   6.861   6.685   3.507 -0.8548  1.5488 -1.1210
 2593TIP3   OH2 7742   0.884   1.970   5.581 -0.1899 -0.0526 -0.1437
 2593TIP3    H1 7743   0.823   1.949   5.510 -0.1987 -1.0630  0.1497
 2593TIP3    H2 7744   0.849   1.923   5.657  1.2509 -1.1151 -0.0990
 2594TIP3   OH2 7745   1.603   4.862   4.892 -0.1380 -0.9518  0.1864
 2594TIP3    H1 7746   1.645   4.944   4.865  0.3989 -0.9244  1.0741
 2594TIP3    H2 7747   1.600   4.809   4.812  1.6324 -0.9698  0.0851
 2595TIP3   OH2 7748   0.095   0.029   5.522  0.4479  0.6884 -0.4032
 2595TIP3    H1 7749   0.077   0.122   5.532  0.4782  0.9159 -2.1470
 2595TIP3    H2 7750   0.040   0.002   5.448  0.6124 -0.6269 -0.0668
 2596TIP3   OH2 7751   5.327   1.606   1.288 -0.6169 -0.2899  0.0470
 2596TIP3    H1 7752   5.289   1.613   1.375 -1.0644 -0.1280 -0.1577
 2596TIP3    H2 7753   5.354   1.695   1.266  1.1182 -0.6013  0.7267
 2597TIP3   OH2 7754   1.964   4.038   3.747 -0.5485 -0.1752  0.3759
 2597TIP3    H1 7755   1.985   3.945   3.739 -0.2958  0.0539 -2.4390
 2597TIP3    H2 7756   1.912   4.058   3.669 -0.6988  2.0308  0.9726
 2598TIP3   OH2 7757   6.687   2.708   4.621 -0.7019 -0.8650 -0.0290
 2598TIP3    H1 7758   6.628   2.725   4.694 -0.0565  0.9653  0.1056
 2598TIP3    H2 7759   6.731   2.626   4.644 -0.0023  0.0095  2.0138
 2599TIP3   OH2 7760   0.224   0.816   0.937  0.0236 -0.4349 -0.0663
 2599TIP3    H1 7761   0.316   0.817   0.964 -0.2757 -0.8260  0.9915
 2599TIP3    H2 7762   0.179   0.874   0.998 -0.1135  1.5434 -1.9202
 2600TIP3   OH2 7763   4.309   1.542   2.164 -0.6772  0.4184  0.0907
 2600TIP3    H1 7764   4.273   1.628   2.145  0.4845  0.4719 -2.3104
 2600TIP3    H2 7765   4.398   1.559   2.195 -0.5302  0.1180 -0.1491
 2601TIP3   OH2 7766   5.212   1.172   2.297  0.0862  0.0412 -0.0314
 2601TIP3    H1 7767   5.243   1.126   2.375  1.4338 -2.4432 -1.8968
 2601TIP3    H2 7768   5.283   1.233   2.276  0.3074 -0.2145 -0.0369
 2602TIP3   OH2 7769   1.252   4.613   3.472  0.4997 -0.0812  0.2628
 2602TIP3    H1 7770   1.292   4.675   3.411 -0.5476  0.8539  0.5078
 2602TIP3    H2 7771   1.326   4.573   3.517  1.2912 -0.5924 -1.4117
 2603TIP3   OH2 7772   0.842   4.285   1.878  0.0584 -0.0018 -0.3437
 2603TIP3    H1 7773   0.750   4.271   1.857  0.1468 -1.3530  0.0633
 2603TIP3    H2 7774   0.879   4.326   1.800 -1.0673  1.3758 -0.1788
 2604TIP3   OH2 7775   1.399   5.449   2.907 -0.3282 -0.0733  0.1556
 2604TIP3    H1 7776   1.488   5.434   2.874 -0.2825 -1.9093  0.9658
 2604TIP3    H2 7777   1.411   5.463   3.001 -0.7762  1.4283  0.0148
 2605TIP3   OH2 7778   4.991   1.489   5.252 -0.4520 -0.3758 -0.3458
 2605TIP3    H1 7779   5.080   1.453   5.247 -0.9080 -1.6504  0.2458
 2605TIP3    H2 7780   4.949   1.463   5.170 -0.3592  0.0217 -0.5220
 2606TIP3   OH2 7781   1.456   5.004   3.552 -0.3951  0.3271 -0.4567
 2606TIP3    H1 7782   1.538   4.955   3.548 -1.1803 -1.1251  0.3390
 2606TIP3    H2 7783   1.411   4.981   3.471  1.0247  3.1948 -2.2026
 2607TIP3   OH2 7784   1.671   5.351   4.011  0.7100 -0.3687 -0.2049
 2607TIP3    H1 7785   1.617   5.274   3.993 -0.6743  0.5587 -0.1557
 2607TIP3    H2 7786   1.744   5.318   4.063  0.3637 -1.7053 -0.5373
 2608TIP3   OH2 7787   5.206   2.215   3.755  0.1760  0.1235  0.2693
 2608TIP3    H1 7788   5.259   2.139   3.781  2.1862  1.4299  0.2269
 2608TIP3    H2 7789   5.241   2.286   3.808 -0.4991  1.3706 -0.9223
 2609TIP3   OH2 7790   6.483   6.247   5.074 -0.2909 -0.2604  0.1402
 2609TIP3    H1 7791   6.414   6.220   5.134  0.3200 -1.1997  0.4444
 2609TIP3    H2 7792   6.521   6.326   5.113  0.0880 -0.8533  0.9926
 2610TIP3   OH2 7793   4.679   2.246   2.513 -0.4508 -0.0811 -0.2951
 2610TIP3    H1 7794   4.763   2.209   2.487 -0.8483 -1.2656  0.0520
 2610TIP3    H2 7795   4.701   2.316   2.574  0.2805 -0.3466 -0.2564
 2611TIP3   OH2 7796   1.174   4.172   3.500  0.3257 -0.2891 -0.0754
 2611TIP3    H1 7797   1.080   4.165   3.482  0.3973 -2.5906  0.0553
 2611TIP3    H2 7798   1.212   4.195   3.415 -0.3213  0.2846 -0.2214
 2612TIP3   OH2 7799   6.091   5.506   4.892 -0.0054 -0.4888 -0.2996
 2612TIP3    H1 7800   6.110   5.539   4.980 -0.0458 -0.6647 -0.2249
 2612TIP3    H2 7801   6.002   5.537   4.873  0.3709  0.4082 -0.6849
 2613TIP3   OH2 7802   6.378   1.434   1.877 -0.0862 -0.2488 -0.3848
 2613TIP3    H1 7803   6.359   1.342   1.861 -0.9024 -0.6797  2.5275
 2613TIP3    H2 7804   6.354   1.478   1.795  0.7109 -2.6067 -1.9937
 2614TIP3   OH2 7805   4.329   5.106   3.629 -0.0685 -0.6768  0.2029
 2614TIP3    H1 7806   4.393   5.176   3.637 -0.5347 -0.0076 -1.5180
 2614TIP3    H2 7807   4.269   5.120   3.702  0.1494  0.3884  0.1881
 2615TIP3   OH2 7808   0.555   4.996   4.201 -0.6011 -0.0795 -0.0999
 2615TIP3    H1 7809   0.505   5.049   4.139  0.1089 -0.6559 -1.2032
 2615TIP3    H2 7810   0.545   5.041   4.285  0.6403  2.2650 -1.1171
 2616TIP3   OH2 7811   3.588   0.741   2.359  0.3037  0.0722  0.4835
 2616TIP3    H1 7812   3.573   0.817   2.414 -0.3036 -0.9295  1.7744
 2616TIP3    H2 7813   3.512   0.685   2.374  0.7250 -0.7870 -0.4293
 2617TIP3   OH2 7814   1.001   5.709   0.826  0.6742  0.4711  0.2095
 2617TIP3    H1 7815   1.051   5.687   0.748 -0.9694 -1.4514 -0.3807
 2617TIP3    H2 7816   0.981   5.802   0.817  3.6481  1.2203  0.2662
 2618TIP3   OH2 7817   3.192   1.588   2.503 -0.9041  0.3574 -0.4846
 2618TIP3    H1 7818   3.158   1.616   2.418 -1.0900 -0.9464 -0.8552
 2618TIP3    H2 7819   3.266   1.647   2.520  0.0800 -0.3154 -2.2540
 2619TIP3   OH2 7820   1.051   6.118   3.898 -0.6472  0.0599 -0.2880
 2619TIP3    H1 7821   1.096   6.203   3.907 -1.6544  0.7296 -1.2898
 2619TIP3    H2 7822   0.985   6.119   3.967 -0.6475  0.0897 -0.2884
 2620TIP3   OH2 7823   2.225   3.295   2.461 -0.4523 -0.1552  0.1889
 2620TIP3    H1 7824   2.274   3.225   2.417 -1.1967  0.2558 -1.3834
 2620TIP3    H2 7825   2.230   3.369   2.400 -1.5237  0.4464  0.8018
 2621TIP3   OH2 7826   5.789   1.464   3.109  0.7231  0.3251  0.0044
 2621TIP3    H1 7827   5.733   1.531   3.070  0.9503  0.1470 -0.6475
 2621TIP3    H2 7828   5.866   1.462   3.053  1.0726  0.0733  0.4835
 2622TIP3   OH2 7829   2.944   5.303   4.004  0.1317  0.4862  0.1640
 2622TIP3    H1 7830   2.969   5.321   4.094  0.6076 -0.8291  0.3087
 2622TIP3    H2 7831   2.983   5.218   3.984 -1.0259  0.1669 -0.8707
 2623TIP3   OH2 7832   1.710   5.257  -0.010 -0.3343  0.4098  0.0534
 2623TIP3    H1 7833   1.635   5.313   0.009 -0.0797  0.7188  0.1640
 2623TIP3    H2 7834   1.771   5.273   0.063 -0.3711 -0.2113  0.2266
 2624TIP3   OH2 7835   0.617   3.129   5.657 -0.3108  0.1268 -0.3904
 2624TIP3    H1 7836   0.633   3.077   5.578  0.7458 -0.2110  0.0341
 2624TIP3    H2 7837   0.559   3.199   5.627  0.4838  0.3111 -1.6028
 2625TIP3   OH2 7838   7.045   6.190   5.435 -0.5244 -0.1622  0.0397
 2625TIP3    H1 7839   7.122   6.241   5.410 -0.7704 -0.4096 -1.3085
 2625TIP3    H2 7840   6.971   6.249   5.420 -0.6415 -0.1252  0.7487
 2626TIP3   OH2 7841   3.320   0.567   1.203  0.1864 -0.3089 -0.3930
 2626TIP3    H1 7842   3.340   0.611   1.121  3.1813  1.6065  1.1875
 2626TIP3    H2 7843   3.276   0.634   1.256  1.4146 -0.3509  0.7302
 2627TIP3   OH2 7844   3.859   6.291   0.935 -0.0757  0.5269  0.5211
 2627TIP3    H1 7845   3.890   6.381   0.925 -0.5307  0.6341  0.0218
 2627TIP3    H2 7846   3.938   6.239   0.943  0.3231  0.6461 -1.8862
 2628TIP3   OH2 7847   1.605   1.581   2.849  0.0345  0.7276 -0.4500
 2628TIP3    H1 7848   1.623   1.587   2.755 -1.1709 -0.5191 -0.7896
 2628TIP3    H2 7849   1.523   1.629   2.860 -0.9015 -0.8003 -0.4186
 2629TIP3   OH2 7850   3.869   5.173   2.559  0.3078  0.0062  0.2117
 2629TIP3    H1 7851   3.821   5.171   2.476 -0.3896 -2.9433  0.5765
 2629TIP3    H2 7852   3.889   5.081   2.577  3.2414  0.8531  1.7704
 2630TIP3   OH2 7853   4.210   3.758   3.382 -0.2369  0.0338  0.5107
 2630TIP3    H1 7854   4.132   3.802   3.415 -0.8394 -1.6577  1.5244
 2630TIP3    H2 7855   4.211   3.775   3.288  0.1545  2.9776  0.9469
 2631TIP3   OH2 7856   1.700   2.467   3.309  0.1390  0.3747 -0.2582
 2631TIP3    H1 7857   1.729   2.557   3.321  0.9553  0.0099  0.6589
 2631TIP3    H2 7858   1.615   2.474   3.266 -1.2538  1.6998  2.4895
 2632TIP3   OH2 7859   5.131   5.388   2.879  0.2834 -0.1458 -0.3111
 2632TIP3    H1 7860   5.144   5.297   2.852 -0.9894 -0.2037 -0.8030
 2632TIP3    H2 7861   5.215   5.430   2.862  1.2536 -1.4679  1.0020
 2633TIP3   OH2 7862   1.908   4.790   5.552  0.0558 -0.1793  0.0583
 2633TIP3    H1 7863   1.943   4.710   5.590 -0.3155 -0.5822 -0.4382
 2633TIP3    H2 7864   1.975   4.856   5.570  0.6864 -0.7493 -0.1394
 2634TIP3   OH2 7865   1.993   2.069   1.172  0.0489 -0.0941  0.1065
 2634TIP3    H1 7866   1.960   2.032   1.254 -0.5084 -0.7589 -0.4138
 2634TIP3    H2 7867   2.005   1.994   1.115  4.0865 -0.1736  0.7746
 2635TIP3   OH2 7868   0.335   4.281   0.526  0.6591 -0.0251  0.1057
 2635TIP3    H1 7869   0.273   4.215   0.555  0.3483  0.2750  0.1236
 2635TIP3    H2 7870   0.286   4.363   0.526  0.0518 -0.2379 -2.9958
 2636TIP3   OH2 7871   0.194   5.509   0.664 -0.1239 -0.8189 -0.0061
 2636TIP3    H1 7872   0.191   5.433   0.606  0.2618 -1.6038  0.9725
 2636TIP3    H2 7873   0.286   5.518   0.688 -0.2145 -0.2371  0.1530
 2637TIP3   OH2 7874   0.018   5.327   4.377  0.0211 -1.1644 -0.2778
 2637TIP3    H1 7875   0.038   5.353   4.287 -0.1315  1.6599  0.4148
 2637TIP3    H2 7876   0.089   5.267   4.401  2.2884  1.0113 -1.0843
 2638TIP3   OH2 7877   4.798   0.103   3.645  0.4896  0.0944  0.3525
 2638TIP3    H1 7878   4.890   0.104   3.616  0.0006 -0.3154 -1.3117
 2638TIP3    H2 7879   4.790   0.022   3.695  0.7398 -0.5091 -0.5666
 2639TIP3   OH2 7880   3.126   6.224   2.639  0.3571  0.4223  0.2875
 2639TIP3    H1 7881   3.146   6.188   2.725 -2.0338 -0.2032  0.6640
 2639TIP3    H2 7882   3.106   6.316   2.655  1.3895  0.6823  0.1391
 2640TIP3   OH2 7883   4.322   4.186   3.438  0.1914  0.0493 -0.6238
 2640TIP3    H1 7884   4.304   4.273   3.401 -0.7404 -0.0945 -0.5126
 2640TIP3    H2 7885   4.329   4.200   3.532  1.3234  0.2059 -0.7169
 2641TIP3   OH2 7886   7.077   1.853   2.310 -0.3909  0.1534 -0.3944
 2641TIP3    H1 7887   7.153   1.804   2.342 -1.2230 -0.6149  0.4540
 2641TIP3    H2 7888   7.085   1.850   2.215  0.8189  0.3675 -0.3135
 2642TIP3   OH2 7889   0.236   0.019   2.158  0.3405  0.0232  0.4128
 2642TIP3    H1 7890   0.189   0.072   2.222 -0.6509 -0.5323  0.1613
 2642TIP3    H2 7891   0.328   0.035   2.177  0.1572 -1.4892  3.2225
 2643TIP3   OH2 7892   3.783   4.183   1.933 -0.1908  0.1947  0.3597
 2643TIP3    H1 7893   3.863   4.132   1.929 -0.0815  0.1779  1.8922
 2643TIP3    H2 7894   3.774   4.223   1.847  0.1128 -1.8104 -0.6438
 2644TIP3   OH2 7895   3.266   2.319   1.475 -0.5502 -0.1756  0.3712
 2644TIP3    H1 7896   3.175   2.339   1.451 -0.7488 -0.4685  0.8656
 2644TIP3    H2 7897   3.275   2.354   1.564  0.5606  2.0659 -0.5604
 2645TIP3   OH2 7898   5.520   2.043   1.823 -0.0731 -0.0082 -0.7133
 2645TIP3    H1 7899   5.461   1.982   1.779 -0.6784  0.1519 -0.1356
 2645TIP3    H2 7900   5.600   1.992   1.838 -0.3315 -0.4572 -0.8341
 2646TIP3   OH2 7901   4.639   3.355   1.434  0.1636  0.2941 -0.1711
 2646TIP3    H1 7902   4.722   3.401   1.419  1.0954 -1.6432 -1.3234
 2646TIP3    H2 7903   4.648   3.317   1.522  0.8365 -0.5143 -0.5734
 2647TIP3   OH2 7904   5.693   0.172   2.048  0.1918 -0.2071  0.2692
 2647TIP3    H1 7905   5.782   0.183   2.013  0.2392 -0.2992  0.3595
 2647TIP3    H2 7906   5.696   0.088   2.094  0.5653  0.6000  1.8025
 2648TIP3   OH2 7907   0.031   1.663   4.730  0.2987  0.1249 -0.1309
 2648TIP3    H1 7908  -0.021   1.649   4.809 -0.8342  1.9064 -0.5105
 2648TIP3    H2 7909   0.043   1.575   4.694 -1.6270 -0.4528  0.4848
 2649TIP3   OH2 7910   1.852   0.056   5.155 -0.1853 -0.1848  0.0075
 2649TIP3    H1 7911   1.865   0.066   5.060  0.2987  1.9058  0.2529
 2649TIP3    H2 7912   1.907   0.122   5.194  1.1955 -2.3215  1.9268
 2650TIP3   OH2 7913   2.688   0.668   3.340 -0.0123  0.3962 -0.0943
 2650TIP3    H1 7914   2.617   0.605   3.352  0.4550  0.1330  1.5399
 2650TIP3    H2 7915   2.699   0.673   3.245 -2.3118  0.5896 -0.4030
 2651TIP3   OH2 7916   6.323   6.488   2.312  0.5081 -0.3242  0.3028
 2651TIP3    H1 7917   6.293   6.512   2.399 -0.1090  2.2434 -0.5179
 2651TIP3    H2 7918   6.246   6.448   2.270 -0.3720  1.7470 -0.1813
 2652TIP3   OH2 7919   0.136   0.825   1.827  0.7161  0.6595 -0.4083
 2652TIP3    H1 7920   0.181   0.805   1.909 -0.2567  0.0349  0.0022
 2652TIP3    H2 7921   0.199   0.874   1.776  2.2064 -0.9846 -0.2456
 2653TIP3   OH2 7922   2.917   4.247   4.960  0.4203  0.6267 -0.7005
 2653TIP3    H1 7923   2.869   4.298   5.025 -0.5921  0.3692 -1.2311
 2653TIP3    H2 7924   2.951   4.172   5.009 -1.4477 -0.2691 -0.6919
 2654TIP3   OH2 7925   3.070   0.375   1.657  0.2680 -0.1802 -0.3291
 2654TIP3    H1 7926   2.983   0.415   1.654  0.1776 -0.1579  1.5826
 2654TIP3    H2 7927   3.055   0.282   1.644 -0.0566 -0.1897  0.1136
 2655TIP3   OH2 7928   3.622   2.128   1.268  0.3648  0.5048 -0.3873
 2655TIP3    H1 7929   3.646   2.183   1.194 -1.6752  1.4659 -0.3957
 2655TIP3    H2 7930   3.526   2.132   1.272  0.2709 -1.3812  0.8980
 2656TIP3   OH2 7931   2.023   4.756   0.731 -0.1678 -0.3824  0.2834
 2656TIP3    H1 7932   1.983   4.834   0.692 -0.3192 -0.0347  1.1191
 2656TIP3    H2 7933   1.962   4.685   0.709  0.7569 -0.5903 -1.8626
 2657TIP3   OH2 7934   5.329   0.119   3.914 -0.6570  0.0611  0.1239
 2657TIP3    H1 7935   5.340   0.101   3.821  0.9741  0.8132  0.1283
 2657TIP3    H2 7936   5.378   0.049   3.958  0.1944  0.7487  0.3228
 2658TIP3   OH2 7937   5.125   4.671   2.331  0.1557 -0.4895 -0.0299
 2658TIP3    H1 7938   5.191   4.740   2.332 -0.5957  0.2418  0.1145
 2658TIP3    H2 7939   5.050   4.708   2.378 -0.1181 -1.5535  0.4109
 2659TIP3   OH2 7940   6.035   0.026   5.874  0.2875 -0.2412  0.1976
 2659TIP3    H1 7941   5.955   0.014   5.823  0.3809  0.7432 -0.1984
 2659TIP3    H2 7942   6.105  -0.005   5.817  0.3669  0.6412 -0.2124
 2660TIP3   OH2 7943   0.932   4.382   2.367 -0.1057 -0.3195 -0.0087
 2660TIP3    H1 7944   0.897   4.356   2.452  1.0237  0.5191  0.7366
 2660TIP3    H2 7945   0.893   4.319   2.305 -1.6542 -0.3765  0.9750
 2661TIP3   OH2 7946   1.395   5.345   3.184  0.4503 -0.4329  0.4283
 2661TIP3    H1 7947   1.489   5.364   3.192  0.1971  1.3386 -0.3127
 2661TIP3    H2 7948   1.352   5.408   3.241 -0.3200 -1.0102  0.5080
 2662TIP3   OH2 7949   0.912   5.812   5.140  0.0965  0.2696  0.4639
 2662TIP3    H1 7950   0.849   5.847   5.204 -0.7754  0.0645 -0.2618
 2662TIP3    H2 7951   0.902   5.717   5.145 -1.0047  0.2868 -0.9625
 2663TIP3   OH2 7952   0.086   6.741   3.760 -0.3608 -0.4494  0.1209
 2663TIP3    H1 7953   0.061   6.825   3.798  0.8952 -0.0130  0.0338
 2663TIP3    H2 7954   0.170   6.720   3.801 -0.8766 -1.9132  0.5056
 2664TIP3   OH2 7955   4.154   0.111   4.853 -0.3999 -0.6014 -0.1216
 2664TIP3    H1 7956   4.229   0.054   4.872  1.2653  1.5118  0.0697
 2664TIP3    H2 7957   4.091   0.089   4.921 -0.0711 -2.5822 -0.3941
 2665TIP3   OH2 7958   3.038   4.296   2.906  0.0862 -0.3760  0.0614
 2665TIP3    H1 7959   3.076   4.377   2.873 -0.8927  0.0474 -0.0701
 2665TIP3    H2 7960   3.068   4.291   2.997 -0.8849  0.8338  0.4877
 2666TIP3   OH2 7961   0.854   0.339   1.476  0.3983  0.3293  0.3380
 2666TIP3    H1 7962   0.808   0.344   1.392  0.2912  0.0945  0.3807
 2666TIP3    H2 7963   0.901   0.422   1.483 -2.0755  1.7597  1.4932
 2667TIP3   OH2 7964   3.760   5.174   4.454  0.4287  0.2002  0.2898
 2667TIP3    H1 7965   3.739   5.258   4.413  1.5129  1.0155  1.3446
 2667TIP3    H2 7966   3.837   5.143   4.406  0.6322  0.3018  0.5477
 2668TIP3   OH2 7967   0.385   4.794   5.482 -0.3907 -0.0414  0.2156
 2668TIP3    H1 7968   0.318   4.757   5.424 -1.2553 -0.7076  1.5709
 2668TIP3    H2 7969   0.365   4.887   5.486  0.5817  0.2891 -1.6752
 2669TIP3   OH2 7970   5.677   2.270   2.876  0.8618  0.7136  1.3547
 2669TIP3    H1 7971   5.656   2.198   2.936 -0.8089  1.3398  1.5819
 2669TIP3    H2 7972   5.773   2.270   2.871  0.9151 -2.1468  0.5330
 2670TIP3   OH2 7973   5.721   4.410   5.831  0.0535 -0.5700  0.6479
 2670TIP3    H1 7974   5.696   4.483   5.888  1.9335 -0.9214  2.0507
 2670TIP3    H2 7975   5.667   4.337   5.861 -0.8376 -0.1141  0.1857
 2671TIP3   OH2 7976   2.574   5.351   2.662  0.6014 -0.1096 -0.3664
 2671TIP3    H1 7977   2.587   5.404   2.583 -0.0257  1.7172  0.7005
 2671TIP3    H2 7978   2.623   5.398   2.730 -3.0482  1.4041  1.4939
 2672TIP3   OH2 7979   0.965   3.191   0.060  0.5974 -0.2198 -0.2434
 2672TIP3    H1 7980   0.894   3.129   0.077  0.1805 -1.1931 -4.5145
 2672TIP3    H2 7981   0.924   3.261   0.009  2.0633  1.0629  0.2602
 2673TIP3   OH2 7982   6.129   5.166   3.468  0.2747 -0.2507  0.1436
 2673TIP3    H1 7983   6.046   5.177   3.513 -0.2093  1.6644 -1.0634
 2673TIP3    H2 7984   6.195   5.180   3.536 -0.4256  1.1419  0.5879
 2674TIP3   OH2 7985   6.287   4.379   2.296  0.1062 -0.5515  1.0764
 2674TIP3    H1 7986   6.323   4.325   2.226  1.2678 -0.6460  1.7116
 2674TIP3    H2 7987   6.213   4.328   2.329 -0.3860 -0.5522  0.0126
 2675TIP3   OH2 7988   4.309   5.638   3.949 -0.0276 -0.3609 -0.3669
 2675TIP3    H1 7989   4.358   5.719   3.942 -0.3678 -0.0962  0.1880
 2675TIP3    H2 7990   4.217   5.665   3.943 -0.1214 -0.8044 -1.0199
 2676TIP3   OH2 7991   4.653   0.404   3.011  0.0179  0.0796 -0.2877
 2676TIP3    H1 7992   4.680   0.348   2.938  1.7344  0.9153 -0.3508
 2676TIP3    H2 7993   4.573   0.447   2.980  0.8336  0.6076 -1.8120
 2677TIP3   OH2 7994   2.660   2.162   0.510  0.3206 -0.5650 -0.2558
 2677TIP3    H1 7995   2.568   2.170   0.535  0.7290  0.4737  1.0222
 2677TIP3    H2 7996   2.669   2.071   0.482 -0.8452 -1.0027  0.7082
 2678TIP3   OH2 7997   3.632   3.063   3.107  0.3886 -0.0194  0.1065
 2678TIP3    H1 7998   3.634   2.971   3.134 -6.0076 -0.6154 -0.0822
 2678TIP3    H2 7999   3.616   3.111   3.188  1.6521  0.7596 -0.0852
 2679TIP3   OH2 8000   6.767   0.357   3.371  0.0662  0.2696  0.1860
 2679TIP3    H1 8001   6.782   0.434   3.315  0.2257  1.4091  1.7304
 2679TIP3    H2 8002   6.852   0.313   3.374  0.0846  0.2612 -0.3895
 2680TIP3   OH2 8003   2.131   3.964   4.754  0.7112 -0.0458  0.2475
 2680TIP3    H1 8004   2.176   3.989   4.834  1.5048 -0.5106 -0.0416
 2680TIP3    H2 8005   2.127   3.868   4.758  2.3140 -0.2149 -1.0615
 2681TIP3   OH2 8006   2.890   1.505   3.267 -0.0492 -0.4042  0.2240
 2681TIP3    H1 8007   2.890   1.442   3.195 -0.4490 -1.1376  0.8438
 2681TIP3    H2 8008   2.805   1.492   3.310  0.1670  0.0407  0.8068
 2682TIP3   OH2 8009   4.047   4.582   3.376  0.0799 -0.5458  0.3135
 2682TIP3    H1 8010   3.999   4.616   3.300 -0.1772  1.2279  1.2063
 2682TIP3    H2 8011   4.136   4.569   3.345  0.5194  2.2178  0.1642
 2683TIP3   OH2 8012   4.303   6.292   3.062  0.1853  0.6486  0.2013
 2683TIP3    H1 8013   4.231   6.346   3.028  1.0767  2.3172  0.8293
 2683TIP3    H2 8014   4.321   6.229   2.993 -1.2102  0.8596 -0.3842
 2684TIP3   OH2 8015   3.673   6.355   1.463  0.2606 -0.7000 -0.0293
 2684TIP3    H1 8016   3.730   6.349   1.386 -0.0910  1.6085 -0.5688
 2684TIP3    H2 8017   3.585   6.338   1.429  0.1243  0.1717 -0.1501
 2685TIP3   OH2 8018   6.649   4.573   3.002 -0.0833 -0.1463  0.0005
 2685TIP3    H1 8019   6.645   4.606   2.912 -0.4129  1.0955  0.4379
 2685TIP3    H2 8020   6.574   4.614   3.045  0.6343  0.0700  1.0886
 2686TIP3   OH2 8021   5.925   3.440   2.418 -0.1981 -0.5493  0.0357
 2686TIP3    H1 8022   5.861   3.446   2.488  0.5179 -2.4749  0.9220
 2686TIP3    H2 8023   6.009   3.457   2.461  0.0917 -0.0937 -0.6943
 2687TIP3   OH2 8024   6.885   1.742   3.287 -0.2439  0.6511 -0.3093
 2687TIP3    H1 8025   6.846   1.797   3.354 -1.8193 -0.6800 -0.0714
 2687TIP3    H2 8026   6.979   1.746   3.304 -0.5838  0.6438  1.7609
 2688TIP3   OH2 8027   2.311   6.681   4.186  0.0772 -1.4193 -0.0971
 2688TIP3    H1 8028   2.377   6.618   4.215 -1.5184 -2.5202  1.3287
 2688TIP3    H2 8029   2.299   6.739   4.260  1.6981  0.8373 -1.4791
 2689TIP3   OH2 8030   1.375   6.714   4.881 -0.3526 -0.1693  0.4916
 2689TIP3    H1 8031   1.289   6.740   4.913 -0.0213 -0.4269  1.6538
 2689TIP3    H2 8032   1.434   6.785   4.908 -0.3440  0.5147 -1.2051
 2690TIP3   OH2 8033   5.021   2.092   4.165  0.0804 -0.2264 -0.6687
 2690TIP3    H1 8034   4.976   2.138   4.094 -1.8339 -0.7884  0.1161
 2690TIP3    H2 8035   4.970   2.114   4.244  0.4374 -1.8840  0.0607
 2691TIP3   OH2 8036   1.963   3.354   4.495 -0.3283  0.5422 -0.3581
 2691TIP3    H1 8037   1.921   3.353   4.581  0.7871  1.8940  0.2354
 2691TIP3    H2 8038   1.934   3.436   4.455 -1.3368 -0.3617 -1.5671
 2692TIP3   OH2 8039   2.216   2.159   3.672 -0.3403 -0.1351  0.7859
 2692TIP3    H1 8040   2.294   2.203   3.637 -0.1155  0.0688  1.5254
 2692TIP3    H2 8041   2.248   2.074   3.702 -0.7659 -0.8018 -0.5990
 2693TIP3   OH2 8042   5.329   2.663   2.505  0.1168 -0.0469  0.6815
 2693TIP3    H1 8043   5.410   2.710   2.483  0.9197 -1.7586 -0.1511
 2693TIP3    H2 8044   5.311   2.688   2.596  0.8859  1.3027  0.4964
 2694TIP3   OH2 8045   3.450   2.558   5.599 -0.2071  0.1673  0.1413
 2694TIP3    H1 8046   3.398   2.627   5.558  1.8490  1.2363 -0.8379
 2694TIP3    H2 8047   3.537   2.597   5.611  1.5847 -2.7120 -2.0595
 2695TIP3   OH2 8048   4.329   3.219   4.089 -0.5710  0.0777  0.1718
 2695TIP3    H1 8049   4.309   3.128   4.065 -1.3515  0.3410 -0.1947
 2695TIP3    H2 8050   4.245   3.256   4.117 -0.4057  0.9047 -0.4011
 2696TIP3   OH2 8051   3.987   3.683   2.511  0.1954 -0.1539 -0.3219
 2696TIP3    H1 8052   4.020   3.647   2.593 -1.7345 -0.0031  0.5879
 2696TIP3    H2 8053   3.957   3.607   2.461 -1.1998 -0.0886  0.3560
 2697TIP3   OH2 8054   1.515   2.884   4.458 -0.0807  0.1475 -0.2173
 2697TIP3    H1 8055   1.600   2.925   4.475  0.0904 -0.8327  1.5477
 2697TIP3    H2 8056   1.532   2.822   4.387  0.7320 -0.1701  0.2421
 2698TIP3   OH2 8057   4.360   3.477   0.871 -0.0050 -0.5468  0.5324
 2698TIP3    H1 8058   4.417   3.532   0.925 -0.3527 -0.8199  1.1858
 2698TIP3    H2 8059   4.410   3.463   0.791  1.2901 -1.6120  1.4911
 2699TIP3   OH2 8060   1.645   4.858   5.531 -0.3285 -0.0418  0.1530
 2699TIP3    H1 8061   1.740   4.854   5.529 -0.2829  0.3397  1.1268
 2699TIP3    H2 8062   1.624   4.951   5.529 -0.6822 -0.1209  0.0609
 2700TIP3   OH2 8063   0.886   4.586   1.822 -0.2749 -0.0828 -0.6696
 2700TIP3    H1 8064   0.923   4.554   1.905  0.8965 -1.2875 -1.6156
 2700TIP3    H2 8065   0.815   4.644   1.849 -1.9771 -2.7838  1.1931
 2701TIP3   OH2 8066   6.046   5.724   2.628 -0.1080  0.2695  0.1556
 2701TIP3    H1 8067   6.060   5.648   2.685  1.0834  0.0183 -0.4435
 2701TIP3    H2 8068   6.079   5.798   2.679 -0.6395  0.2921  0.4709
 2702TIP3   OH2 8069   2.633   5.739   5.220 -1.2181  0.3894  0.7143
 2702TIP3    H1 8070   2.611   5.714   5.310 -0.4698 -1.7408  0.3479
 2702TIP3    H2 8071   2.554   5.784   5.188 -3.2939 -2.7616  0.9956
 2703TIP3   OH2 8072   3.800   0.591   1.510 -0.1273 -0.1935  0.1014
 2703TIP3    H1 8073   3.749   0.602   1.590 -0.2835  0.8319 -0.1223
 2703TIP3    H2 8074   3.740   0.616   1.440  0.7194  1.2527 -0.1540
 2704TIP3   OH2 8075   4.340   4.384   0.327 -0.2793 -0.3018 -0.5303
 2704TIP3    H1 8076   4.315   4.401   0.237 -3.1825  2.3194  0.5774
 2704TIP3    H2 8077   4.326   4.467   0.372  1.0241 -1.5064  2.3749
 2705TIP3   OH2 8078   5.627   5.527   2.934 -0.5447  0.6223 -0.3952
 2705TIP3    H1 8079   5.622   5.435   2.908 -2.7348  0.9349 -1.3394
 2705TIP3    H2 8080   5.579   5.531   3.017  1.5064  0.5920  0.8593
 2706TIP3   OH2 8081   1.362   0.524   5.675 -0.1603  0.7833  0.1718
 2706TIP3    H1 8082   1.307   0.541   5.598  0.4230  3.0925  0.1995
 2706TIP3    H2 8083   1.302   0.486   5.739 -0.6457 -1.3204 -1.3812
 2707TIP3   OH2 8084   7.142   3.560   4.764 -0.0444 -0.3644 -0.3521
 2707TIP3    H1 8085   7.222   3.565   4.712 -0.2686  2.1410 -0.5993
 2707TIP3    H2 8086   7.071   3.564   4.699 -0.4857 -3.7165 -0.2286
 2708TIP3   OH2 8087   0.190   0.328   3.596 -0.9306 -0.0275  0.1241
 2708TIP3    H1 8088   0.154   0.299   3.680  0.4966 -1.1646  0.3764
 2708TIP3    H2 8089   0.206   0.246   3.547  1.6424  0.3570  0.1910
 2709TIP3   OH2 8090   4.151   2.407   1.737  0.4002 -0.5411 -0.4883
 2709TIP3    H1 8091   4.194   2.398   1.822 -1.5356  1.4276  0.8027
 2709TIP3    H2 8092   4.212   2.460   1.685  1.2479 -1.0788 -0.0645
 2710TIP3   OH2 8093   0.849   1.606   0.140 -0.2036  0.0869 -0.8325
 2710TIP3    H1 8094   0.898   1.569   0.065 -1.2369  0.3736 -1.6746
 2710TIP3    H2 8095   0.868   1.546   0.212  1.5318  0.2883 -1.0610
 2711TIP3   OH2 8096   1.781   0.737   3.542 -0.0928 -0.3788  0.0995
 2711TIP3    H1 8097   1.848   0.681   3.503  1.0520  1.0336 -0.0403
 2711TIP3    H2 8098   1.812   0.752   3.631  0.3781  1.1715 -0.3021
 2712TIP3   OH2 8099   2.320   2.709   5.648 -0.5741  0.3948  0.1540
 2712TIP3    H1 8100   2.333   2.664   5.732  1.3908  0.3030 -0.1441
 2712TIP3    H2 8101   2.391   2.774   5.645 -1.2928  1.1596 -0.9455
 2713TIP3   OH2 8102   5.383   3.985   5.052  0.1817  0.3530  0.4357
 2713TIP3    H1 8103   5.421   3.934   4.980  0.5377  1.7192 -0.3753
 2713TIP3    H2 8104   5.289   3.972   5.043  0.2588 -0.0370  0.1397
 2714TIP3   OH2 8105   7.107   2.787   4.258  0.0129  0.5005 -0.1593
 2714TIP3    H1 8106   7.013   2.770   4.261  0.0751 -0.7861 -2.6750
 2714TIP3    H2 8107   7.121   2.826   4.172  1.9601 -0.7152 -0.4354
 2715TIP3   OH2 8108   4.092   0.763   4.008 -0.6297  0.2778 -0.2465
 2715TIP3    H1 8109   4.103   0.798   4.096  0.6511 -1.6693  0.4252
 2715TIP3    H2 8110   4.043   0.682   4.021  0.1393 -0.3630 -1.2348
 2716TIP3   OH2 8111   0.556   6.772   3.078 -0.1148  0.1287  0.1051
 2716TIP3    H1 8112   0.568   6.789   2.985  1.1273 -0.6916  0.0878
 2716TIP3    H2 8113   0.550   6.677   3.084  0.6041  0.1195  0.9219
 2717TIP3   OH2 8114   0.851   5.655   4.012 -0.0104 -0.3167  0.3029
 2717TIP3    H1 8115   0.804   5.605   3.945  0.2796 -0.7982  0.4538
 2717TIP3    H2 8116   0.941   5.660   3.979  0.4197 -1.6001  1.2183
 2718TIP3   OH2 8117   1.311   4.981   4.574  0.4788  0.3414  0.0514
 2718TIP3    H1 8118   1.284   5.009   4.486 -0.6641  2.6017  1.0384
 2718TIP3    H2 8119   1.338   4.890   4.563  1.4693  0.8856 -2.8428
 2719TIP3   OH2 8120   4.639   2.684   1.859  0.2520  0.1958  0.4352
 2719TIP3    H1 8121   4.596   2.624   1.798  0.4361 -0.4857  0.9615
 2719TIP3    H2 8122   4.603   2.661   1.944  0.6006  0.5952  0.6914
 2720TIP3   OH2 8123   0.890   0.283   5.335 -0.0552 -0.5417 -0.4796
 2720TIP3    H1 8124   0.823   0.287   5.403 -0.9149 -0.6149 -1.2969
 2720TIP3    H2 8125   0.842   0.299   5.253  1.3374  2.4508 -0.8665
 2721TIP3   OH2 8126   4.166   4.346   1.191 -0.6365  0.1512  0.0344
 2721TIP3    H1 8127   4.165   4.441   1.189 -0.1642  0.1919  1.0865
 2721TIP3    H2 8128   4.249   4.322   1.150  0.3736  0.2951  1.9212
 2722TIP3   OH2 8129   1.914   6.533   5.133 -0.3409 -0.1170  0.1924
 2722TIP3    H1 8130   1.827   6.558   5.102 -0.5381  1.0028  1.5413
 2722TIP3    H2 8131   1.898   6.495   5.219  0.5117  0.1297  0.4638
 2723TIP3   OH2 8132   1.657   3.851   3.972 -0.2652  0.4351  0.3639
 2723TIP3    H1 8133   1.687   3.894   3.892 -1.8023 -0.3845 -0.7032
 2723TIP3    H2 8134   1.735   3.806   4.005  0.1034 -0.3660 -1.4505
 2724TIP3   OH2 8135   2.588   0.027   3.432  0.3234  0.2685  0.1521
 2724TIP3    H1 8136   2.610  -0.057   3.472  1.9448  0.3616 -0.4686
 2724TIP3    H2 8137   2.493   0.031   3.437  0.3044 -0.8732  1.6366
 2725TIP3   OH2 8138   1.823   2.364   1.793  0.4150 -0.1905 -0.1878
 2725TIP3    H1 8139   1.775   2.320   1.723 -0.4183 -0.1680  0.3531
 2725TIP3    H2 8140   1.778   2.337   1.873 -0.2679  1.8148  0.1610
 2726TIP3   OH2 8141   4.581   6.324   4.040 -0.1686 -0.2189  0.9146
 2726TIP3    H1 8142   4.523   6.283   3.976 -0.6096  2.0174 -0.2271
 2726TIP3    H2 8143   4.529   6.327   4.121 -1.5288  1.2885  0.0393
 2727TIP3   OH2 8144   4.732   4.490   4.029  0.0585 -0.5475  0.2122
 2727TIP3    H1 8145   4.781   4.448   4.100  2.6255  0.2625 -0.9390
 2727TIP3    H2 8146   4.753   4.583   4.037 -0.0802 -0.3640 -1.1953
 2728TIP3   OH2 8147   2.041   1.744   3.162  0.1031  0.4066 -0.3457
 2728TIP3    H1 8148   1.987   1.671   3.132 -1.0005  0.5260  1.2313
 2728TIP3    H2 8149   2.078   1.781   3.081 -1.0992 -0.5207 -1.3681
 2729TIP3   OH2 8150   5.375   1.325   2.125  0.5141 -0.4439 -0.5958
 2729TIP3    H1 8151   5.367   1.412   2.086  1.3323 -0.8841 -1.8050
 2729TIP3    H2 8152   5.306   1.273   2.083  0.2460 -0.4671 -0.1306
 2730TIP3   OH2 8153   0.690   5.905   0.375 -0.5329  0.4162 -0.2484
 2730TIP3    H1 8154   0.602   5.892   0.338  0.6812  0.7490 -3.6071
 2730TIP3    H2 8155   0.701   6.000   0.377 -0.3316  0.3861  0.4969
 2731TIP3   OH2 8156   0.804   1.471   2.057  0.5543  0.3351  0.0418
 2731TIP3    H1 8157   0.871   1.468   1.989  0.4822  0.6546 -0.0461
 2731TIP3    H2 8158   0.824   1.551   2.106  0.7490 -0.0137  0.5446
 2732TIP3   OH2 8159   6.913   4.667   2.857  0.4609 -0.2098 -0.4787
 2732TIP3    H1 8160   6.833   4.615   2.855  0.9245 -0.9388 -3.0272
 2732TIP3    H2 8161   6.887   4.752   2.823  0.3511  0.2603  0.7436
 2733TIP3   OH2 8162   1.160   1.371   3.670  0.2872 -0.2106 -1.1173
 2733TIP3    H1 8163   1.104   1.352   3.745  1.6723  1.3179  0.4115
 2733TIP3    H2 8164   1.152   1.466   3.658  2.9014  0.1780 -0.4433
 2734TIP3   OH2 8165   0.062   0.696   3.036 -0.0362  0.5116 -0.2516
 2734TIP3    H1 8166   0.082   0.767   2.974  0.5465  1.2330  0.7318
 2734TIP3    H2 8167   0.130   0.631   3.021 -0.0487  0.5626 -0.5418
 2735TIP3   OH2 8168   2.289   3.038   3.926  0.1474  0.2594 -0.2099
 2735TIP3    H1 8169   2.269   3.093   4.002 -0.1610 -1.5923  1.1174
 2735TIP3    H2 8170   2.380   3.058   3.905  0.2502  0.7882  0.6801
 2736TIP3   OH2 8171   4.303   4.401   1.747 -0.0657 -0.3786 -0.1620
 2736TIP3    H1 8172   4.244   4.421   1.819  1.0270  0.6524  0.4935
 2736TIP3    H2 8173   4.387   4.383   1.790  0.4431 -0.3952 -1.1358
 2737TIP3   OH2 8174   7.048   4.108   4.195  0.6107  0.2919  0.0267
 2737TIP3    H1 8175   6.977   4.168   4.217 -0.7832 -1.0061 -0.6923
 2737TIP3    H2 8176   7.111   4.161   4.146 -1.0273  1.0129 -1.4013
 2738TIP3   OH2 8177   6.555   5.941   1.093 -0.0987  0.0195  0.3504
 2738TIP3    H1 8178   6.630   5.955   1.152  2.5119 -0.3942 -2.6027
 2738TIP3    H2 8179   6.514   6.027   1.086  0.0770  0.2743  2.0097
 2739TIP3   OH2 8180   4.671   3.002   4.768 -0.5934  0.3938 -0.0270
 2739TIP3    H1 8181   4.751   2.972   4.812 -1.1989 -1.4549 -0.0932
 2739TIP3    H2 8182   4.603   2.993   4.835 -0.8523  1.4677 -0.1308
 2740TIP3   OH2 8183   2.631   6.654   2.556  0.8174  0.5992  0.0104
 2740TIP3    H1 8184   2.622   6.656   2.461  0.2586 -0.7724  0.0133
 2740TIP3    H2 8185   2.542   6.659   2.589  1.0597  2.0541  0.5148
 2741TIP3   OH2 8186   2.683   3.894   3.600 -0.4550 -0.1089 -0.9090
 2741TIP3    H1 8187   2.606   3.945   3.625  0.2029  1.1239 -1.3362
 2741TIP3    H2 8188   2.755   3.957   3.600  0.6210 -1.3076 -0.2353
 2742TIP3   OH2 8189   6.823   3.359   3.719 -0.3692 -0.2255 -0.3753
 2742TIP3    H1 8190   6.815   3.455   3.720 -0.7196 -0.2478 -0.6522
 2742TIP3    H2 8191   6.820   3.336   3.626  1.5019 -0.3801 -0.4201
 2743TIP3   OH2 8192   4.572   0.450   2.379  0.0261 -0.0548  0.1163
 2743TIP3    H1 8193   4.658   0.438   2.421  0.6325  1.6712 -0.5413
 2743TIP3    H2 8194   4.588   0.431   2.287 -0.6155 -1.0076  0.2016
 2744TIP3   OH2 8195   4.020   4.212   0.605 -0.3270 -0.0405 -0.0839
 2744TIP3    H1 8196   4.033   4.307   0.608  0.8134 -0.1388 -1.0281
 2744TIP3    H2 8197   3.993   4.189   0.694  1.6044  0.8819  0.8067
 2745TIP3   OH2 8198   2.964   3.393   1.614 -0.1459 -0.2862  0.5327
 2745TIP3    H1 8199   2.953   3.471   1.668  0.5476  0.4654 -0.3650
 2745TIP3    H2 8200   2.895   3.399   1.548 -1.0795 -1.2729  1.3939
 2746TIP3   OH2 8201   0.272   3.134   3.860 -1.0296 -0.2826 -0.0399
 2746TIP3    H1 8202   0.256   3.047   3.898  3.8066 -1.4033  0.1284
 2746TIP3    H2 8203   0.302   3.187   3.935  0.6128  0.0047 -0.8594
 2747TIP3   OH2 8204   6.081   3.963   4.341 -0.2673  0.5148  0.4292
 2747TIP3    H1 8205   6.030   4.019   4.282  1.9848  1.6716 -0.5482
 2747TIP3    H2 8206   6.066   3.874   4.309 -1.1615  0.8733 -0.1930
 2748TIP3   OH2 8207   6.678   5.012   1.989 -0.1641 -0.1519 -0.1677
 2748TIP3    H1 8208   6.665   5.090   2.043 -0.4649 -0.0270 -0.4147
 2748TIP3    H2 8209   6.708   4.945   2.050 -1.3835 -0.2723  0.3144
 2749TIP3   OH2 8210   2.165   3.240   1.189  0.2955  0.3448 -0.5601
 2749TIP3    H1 8211   2.177   3.328   1.153 -0.4811  0.7968  0.2707
 2749TIP3    H2 8212   2.158   3.252   1.283  0.4209 -0.6359 -0.4083
 2750TIP3   OH2 8213   5.842   1.673   4.827 -0.8173 -0.1146 -0.1643
 2750TIP3    H1 8214   5.900   1.741   4.862 -0.0110 -1.1771  0.6270
 2750TIP3    H2 8215   5.769   1.670   4.889 -0.4395 -0.5264  0.2738
 2751TIP3   OH2 8216   1.842   6.257   1.834  0.0641  0.2008 -0.3523
 2751TIP3    H1 8217   1.825   6.332   1.777 -0.1360  1.0554  0.8019
 2751TIP3    H2 8218   1.937   6.245   1.832 -0.0080 -0.3149 -1.5072
 2752TIP3   OH2 8219   4.230   1.808   1.243  0.6652  0.0667 -0.3868
 2752TIP3    H1 8220   4.211   1.895   1.209  0.3294 -0.1593 -0.7833
 2752TIP3    H2 8221   4.224   1.818   1.338 -0.1292  0.3106 -0.4535
 2753TIP3   OH2 8222   0.615   4.475   2.418 -0.3638  0.2383  0.2004
 2753TIP3    H1 8223   0.690   4.435   2.461  0.5342  0.0986 -1.4305
 2753TIP3    H2 8224   0.609   4.431   2.333 -1.5027  1.1432 -0.2149
 2754TIP3   OH2 8225   6.160   3.163   0.479 -0.0664 -0.0019 -0.2703
 2754TIP3    H1 8226   6.108   3.187   0.402 -1.2640  1.1562  0.8498
 2754TIP3    H2 8227   6.224   3.101   0.446 -0.3098  0.7404 -2.2805
 2755TIP3   OH2 8228   4.704   0.031   4.816 -0.6534  0.0998  0.0260
 2755TIP3    H1 8229   4.639   0.017   4.746 -0.7007 -0.0161  0.0920
 2755TIP3    H2 8230   4.685  -0.038   4.879  0.5215 -0.9159 -0.6893
 2756TIP3   OH2 8231   2.464   4.967   3.381 -0.1858  0.4063 -0.2195
 2756TIP3    H1 8232   2.541   5.000   3.336  0.2917  0.2798  0.4893
 2756TIP3    H2 8233   2.499   4.916   3.454 -0.9424  0.5671  0.2656
 2757TIP3   OH2 8234   3.619   2.715   3.610 -0.3251  0.1741 -0.3491
 2757TIP3    H1 8235   3.592   2.652   3.676  0.2501  1.3480  1.0769
 2757TIP3    H2 8236   3.708   2.739   3.635  0.1873  0.1235 -1.9995
 2758TIP3   OH2 8237   5.360   1.770   3.997 -0.4303 -0.0655 -0.4881
 2758TIP3    H1 8238   5.424   1.763   3.926  0.1145 -0.3679  0.0208
 2758TIP3    H2 8239   5.355   1.681   4.032 -0.5199  0.1313  0.0016
 2759TIP3   OH2 8240   6.149   3.436   0.581  0.5832 -0.3810  0.0979
 2759TIP3    H1 8241   6.147   3.346   0.548 -0.3220  0.1041 -1.2828
 2759TIP3    H2 8242   6.135   3.490   0.503  2.2132  1.0249  0.7096
 2760TIP3   OH2 8243   3.181   2.682   1.507 -0.4982  0.1386 -0.2455
 2760TIP3    H1 8244   3.183   2.775   1.482  1.6935  0.3308  0.4391
 2760TIP3    H2 8245   3.188   2.684   1.603 -1.4271 -0.7449 -0.1441
 2761TIP3   OH2 8246   0.079   4.266   4.256  1.0393 -0.2187 -0.0482
 2761TIP3    H1 8247   0.154   4.209   4.245  1.4418  0.2043  0.4761
 2761TIP3    H2 8248   0.054   4.290   4.166  0.5583 -1.5846 -0.3003
 2762TIP3   OH2 8249   7.161   5.200   3.846  0.0435 -1.0031  0.4434
 2762TIP3    H1 8250   7.160   5.296   3.849 -0.9298 -1.0172  3.0042
 2762TIP3    H2 8251   7.136   5.179   3.756  0.4676  1.1240 -0.2352
 2763TIP3   OH2 8252   6.236   5.023   0.918 -0.1509 -0.6753  0.3149
 2763TIP3    H1 8253   6.309   4.963   0.904 -0.1564 -1.3978  2.9277
 2763TIP3    H2 8254   6.213   5.053   0.830  3.5794 -0.0193 -0.6374
 2764TIP3   OH2 8255   2.627   5.975   1.275  0.4051  0.4363 -0.3487
 2764TIP3    H1 8256   2.598   6.059   1.239  0.1801  1.1263  1.3371
 2764TIP3    H2 8257   2.548   5.937   1.313  1.0218  0.8139  1.4068
 2765TIP3   OH2 8258   2.342   2.639   3.894 -0.1459  0.1610  0.3389
 2765TIP3    H1 8259   2.350   2.546   3.914 -0.1830 -0.2200 -1.2690
 2765TIP3    H2 8260   2.431   2.673   3.902  0.1797 -0.3951 -0.7055
 2766TIP3   OH2 8261   0.612   6.631   4.363  0.3809 -0.5004  0.3426
 2766TIP3    H1 8262   0.635   6.691   4.435  1.9498  0.2813 -0.7287
 2766TIP3    H2 8263   0.546   6.573   4.400  1.0692 -0.0769  2.3904
 2767TIP3   OH2 8264   6.371   5.560   4.374 -0.1946 -0.0344 -0.5658
 2767TIP3    H1 8265   6.333   5.496   4.314 -0.0023  0.1010 -0.8297
 2767TIP3    H2 8266   6.306   5.568   4.444  0.0694 -1.0182 -0.1776
 2768TIP3   OH2 8267   3.154   0.448   5.639 -0.1863  0.0844 -0.2139
 2768TIP3    H1 8268   3.209   0.501   5.697  0.8728 -1.5235  0.3028
 2768TIP3    H2 8269   3.104   0.513   5.588 -0.7552  1.5820  2.0592
 2769TIP3   OH2 8270   0.936   0.197   0.756  0.2749 -0.3663  0.6129
 2769TIP3    H1 8271   0.954   0.187   0.849  1.2467  0.7218  0.5631
 2769TIP3    H2 8272   1.020   0.177   0.714  0.3680  1.0234  0.1059
 2770TIP3   OH2 8273   0.851   1.200   4.316 -0.1418  0.4113 -0.4324
 2770TIP3    H1 8274   0.854   1.275   4.376 -1.0491  1.4805 -1.6897
 2770TIP3    H2 8275   0.901   1.228   4.239 -1.0701 -0.0130 -1.2038
 2771TIP3   OH2 8276   3.661   0.612   1.245  0.1547  0.0740  0.3562
 2771TIP3    H1 8277   3.599   0.578   1.181 -1.1731  3.1170 -0.1176
 2771TIP3    H2 8278   3.728   0.656   1.192  0.8584 -0.2283  0.9796
 2772TIP3   OH2 8279   7.055   0.162   3.964 -0.6279 -0.2967  0.4904
 2772TIP3    H1 8280   7.070   0.144   4.057  1.3675  1.9559  0.6980
 2772TIP3    H2 8281   7.073   0.079   3.920  0.5329 -0.8579  1.9479
 2773TIP3   OH2 8282   0.772   3.041   3.305 -0.1042  0.2258  0.2715
 2773TIP3    H1 8283   0.792   3.065   3.215 -0.4965  0.2897  0.1991
 2773TIP3    H2 8284   0.818   3.107   3.358 -0.7026  0.7990  0.0909
 2774TIP3   OH2 8285   2.887   2.631   3.836  0.2010  0.0971 -0.4479
 2774TIP3    H1 8286   2.878   2.725   3.846 -1.4316 -0.2090  1.8045
 2774TIP3    H2 8287   2.947   2.605   3.906 -1.0819 -0.7293  0.3923
 2775TIP3   OH2 8288   2.513   2.453   5.724  0.3404  0.1055  0.4074
 2775TIP3    H1 8289   2.438   2.399   5.698  0.6583 -1.1389  1.9434
 2775TIP3    H2 8290   2.476   2.519   5.782 -0.1712  2.1149 -2.0552
 2776TIP3   OH2 8291   0.767   0.206   5.644 -0.2001  0.3793 -0.2074
 2776TIP3    H1 8292   0.692   0.162   5.604  0.4132 -0.3180 -0.6030
 2776TIP3    H2 8293   0.773   0.169   5.732  0.1858 -0.1718 -0.4656
 2777TIP3   OH2 8294   5.061   1.778   3.377 -0.1910 -0.1748  0.2324
 2777TIP3    H1 8295   5.009   1.747   3.303  0.5372 -0.1808 -0.2819
 2777TIP3    H2 8296   5.130   1.831   3.338  1.8635 -2.3838  0.6097
 2778TIP3   OH2 8297   3.180   1.779   3.389  0.1853  0.2412  0.0612
 2778TIP3    H1 8298   3.190   1.708   3.327 -0.0764 -0.5050  0.8558
 2778TIP3    H2 8299   3.085   1.787   3.401  0.1213  1.6700 -1.0734
 2779TIP3   OH2 8300   1.133   0.528   1.826 -0.0176 -0.2522  0.4925
 2779TIP3    H1 8301   1.111   0.586   1.899 -2.1632  0.5145 -0.6943
 2779TIP3    H2 8302   1.160   0.587   1.756 -1.2235 -0.7036 -0.3909
 2780TIP3   OH2 8303   0.135   2.519   1.661 -0.1037 -0.0240 -0.0927
 2780TIP3    H1 8304   0.111   2.606   1.631  0.4455  0.1783  0.0249
 2780TIP3    H2 8305   0.156   2.471   1.581  2.5413  0.8743 -0.0486
 2781TIP3   OH2 8306   3.153   2.057   4.158  0.0658 -0.1080  0.2859
 2781TIP3    H1 8307   3.179   2.146   4.135 -0.1229 -0.1193  0.0173
 2781TIP3    H2 8308   3.057   2.061   4.159  0.0400 -0.4543 -0.3354
 2782TIP3   OH2 8309   4.237   4.173   5.448  0.6180  0.1756  0.1424
 2782TIP3    H1 8310   4.157   4.169   5.397  1.1941 -0.1581 -0.7703
 2782TIP3    H2 8311   4.284   4.092   5.426  0.4382 -0.4642  1.9808
 2783TIP3   OH2 8312   3.943   1.369   3.307  0.1336 -0.1146  0.1247
 2783TIP3    H1 8313   3.990   1.412   3.378 -0.0984  0.6749 -0.1886
 2783TIP3    H2 8314   3.856   1.352   3.343  0.7912 -2.1544  0.9246
 2784TIP3   OH2 8315   2.771   1.783   0.829  0.1206 -0.0714  0.1079
 2784TIP3    H1 8316   2.806   1.699   0.858  0.1249 -0.2741 -0.4743
 2784TIP3    H2 8317   2.677   1.770   0.825  0.2387 -0.7003 -1.9261
 2785TIP3   OH2 8318   3.815   1.654   4.333 -0.0232 -0.3163  0.4046
 2785TIP3    H1 8319   3.843   1.745   4.348 -2.2089  0.3834  0.5623
 2785TIP3    H2 8320   3.840   1.608   4.414  0.5739  0.2784  0.5671
 2786TIP3   OH2 8321   3.365   2.288   2.845 -0.2259  0.1706 -0.0487
 2786TIP3    H1 8322   3.423   2.361   2.870 -0.0155 -0.3175  0.9368
 2786TIP3    H2 8323   3.314   2.271   2.924  0.1954 -1.1853 -0.0511
 2787TIP3   OH2 8324   1.087   3.117   4.255 -0.3133  0.0079  1.1037
 2787TIP3    H1 8325   1.006   3.127   4.204 -0.2273  0.8476  1.1189
 2787TIP3    H2 8326   1.153   3.094   4.189 -0.4153  0.0454  0.9867
 2788TIP3   OH2 8327   3.496   5.345   5.121  0.0945  0.1204 -0.4267
 2788TIP3    H1 8328   3.571   5.350   5.062  0.6052  0.2979  0.2292
 2788TIP3    H2 8329   3.524   5.390   5.200 -1.7934  3.0184 -1.2615
 2789TIP3   OH2 8330  -0.015   1.747   1.523  0.2918 -0.1860  0.2060
 2789TIP3    H1 8331   0.008   1.659   1.552 -1.3200 -1.0260 -0.9622
 2789TIP3    H2 8332   0.009   1.748   1.430 -0.4323  0.3409  0.0240
 2790TIP3   OH2 8333   3.677   3.021   4.324  0.1720 -0.1395 -0.9184
 2790TIP3    H1 8334   3.683   2.927   4.310 -0.5253 -0.4030  0.4312
 2790TIP3    H2 8335   3.768   3.052   4.319  0.3082 -0.6769 -2.4741
 2791TIP3   OH2 8336   2.703   5.677   1.834  0.5330 -0.1532 -0.3014
 2791TIP3    H1 8337   2.613   5.655   1.810  0.3786  1.0940 -0.9859
 2791TIP3    H2 8338   2.704   5.673   1.929  0.0559 -1.2504 -0.3307
 2792TIP3   OH2 8339   2.066   4.308   1.253  0.4209 -0.1933 -0.2453
 2792TIP3    H1 8340   2.008   4.384   1.259  0.1820 -0.4311  0.7796
 2792TIP3    H2 8341   2.007   4.234   1.241  0.4426 -0.4927  1.2649
 2793TIP3   OH2 8342   3.334   1.577   5.112  0.1836 -0.4343 -0.5720
 2793TIP3    H1 8343   3.366   1.661   5.080 -1.1095 -0.3457 -1.7223
 2793TIP3    H2 8344   3.350   1.580   5.206 -0.5388  1.4390 -0.4643
 2794TIP3   OH2 8345   2.334   1.800   3.224 -0.0368  0.1414 -0.5444
 2794TIP3    H1 8346   2.374   1.884   3.206  0.4546 -0.3001 -1.5847
 2794TIP3    H2 8347   2.344   1.788   3.319  0.3361  1.0068 -0.4672
 2795TIP3   OH2 8348   1.056   4.775   2.927 -0.0191  0.4680  0.0403
 2795TIP3    H1 8349   1.144   4.757   2.961  0.5080  0.3875 -1.3337
 2795TIP3    H2 8350   1.025   4.848   2.981  1.8061  2.0213 -0.8830
 2796TIP3   OH2 8351   6.090   5.973   0.461 -0.5797 -0.0103 -0.3268
 2796TIP3    H1 8352   6.023   5.984   0.528 -0.2233 -1.3018  0.2590
 2796TIP3    H2 8353   6.150   6.046   0.475 -1.6665  0.9753 -0.6579
 2797TIP3   OH2 8354   1.391   3.488   0.203  0.0297 -0.4032 -0.4826
 2797TIP3    H1 8355   1.321   3.465   0.141 -0.9873  0.7652  0.1966
 2797TIP3    H2 8356   1.393   3.583   0.203  0.0250 -0.3748  1.2594
 2798TIP3   OH2 8357   2.741   4.702   1.024 -0.2630 -0.1062 -0.0502
 2798TIP3    H1 8358   2.837   4.697   1.026 -0.2419  0.3167  2.0030
 2798TIP3    H2 8359   2.712   4.612   1.036 -0.0767  0.0584  1.8834
 2799TIP3   OH2 8360   6.363   4.052   0.625  0.1348 -0.2877 -0.2841
 2799TIP3    H1 8361   6.357   4.116   0.554 -0.5900 -0.1517 -0.1035
 2799TIP3    H2 8362   6.392   4.103   0.701  0.6129 -0.3787 -0.3990
 2800TIP3   OH2 8363   2.005   1.235   5.547  0.2404  0.0724  0.0950
 2800TIP3    H1 8364   2.018   1.196   5.633  0.6363  2.6082  1.2485
 2800TIP3    H2 8365   2.061   1.312   5.546 -1.9125  1.7420 -1.3248
 2801TIP3   OH2 8366   3.793   3.244   4.653  0.5961  0.0445 -0.0683
 2801TIP3    H1 8367   3.703   3.214   4.641 -0.4633  2.0865  2.0525
 2801TIP3    H2 8368   3.787   3.339   4.650  2.4756  0.2502  1.3145
 2802TIP3   OH2 8369   6.798   2.010   5.255  0.5031  0.0513  0.1917
 2802TIP3    H1 8370   6.797   1.917   5.278  0.5742 -0.1171 -0.4805
 2802TIP3    H2 8371   6.750   2.052   5.326 -1.0799 -0.7019 -0.3845
 2803TIP3   OH2 8372   5.629   4.191   3.004 -0.1019 -0.0596  0.7503
 2803TIP3    H1 8373   5.549   4.244   3.000 -0.8455 -0.9778  2.3249
 2803TIP3    H2 8374   5.698   4.249   2.971 -1.2912  0.9854 -0.0132
 2804TIP3   OH2 8375   4.878   0.499   0.945 -0.2332  0.4578 -0.0082
 2804TIP3    H1 8376   4.811   0.494   0.877 -0.7800 -2.0132  0.6098
 2804TIP3    H2 8377   4.944   0.436   0.918  0.8615  1.3744  0.4434
 2805TIP3   OH2 8378   6.222   6.254   3.520  0.0619  0.1402 -0.2609
 2805TIP3    H1 8379   6.217   6.343   3.556  0.4949 -0.4862  1.4221
 2805TIP3    H2 8380   6.246   6.199   3.594 -1.3345 -1.5728 -1.0068
 2806TIP3   OH2 8381   3.335   0.128   4.768  0.1155  0.1822  0.2274
 2806TIP3    H1 8382   3.333   0.060   4.836  2.4560 -0.2944 -0.0813
 2806TIP3    H2 8383   3.355   0.080   4.687 -0.2450  1.0099 -0.3656
 2807TIP3   OH2 8384   6.351   4.044   4.372  0.2090  0.5021  0.5239
 2807TIP3    H1 8385   6.257   4.041   4.384  0.4256 -0.2943  2.3000
 2807TIP3    H2 8386   6.372   3.967   4.319 -0.0987  0.5729  0.2978
 2808TIP3   OH2 8387   3.762   3.287   4.093 -0.8544 -0.2233  0.1799
 2808TIP3    H1 8388   3.793   3.265   4.180 -0.2127  1.5134  0.4178
 2808TIP3    H2 8389   3.763   3.382   4.089 -2.2972 -0.2034 -1.2243
 2809TIP3   OH2 8390   4.010   3.678   2.131 -0.3308 -0.1231 -0.4796
 2809TIP3    H1 8391   4.035   3.738   2.201  0.7839 -0.4950 -0.5388
 2809TIP3    H2 8392   3.923   3.707   2.104  0.0595  1.2734 -0.3036
 2810TIP3   OH2 8393   3.892   4.128   5.665  1.0636  0.3732  0.0343
 2810TIP3    H1 8394   3.951   4.053   5.668  0.5799 -0.2136 -2.6211
 2810TIP3    H2 8395   3.805   4.091   5.680  1.1574  1.2724  4.2382
 2811TIP3   OH2 8396   1.830   4.221   2.313  0.2850 -0.6590 -0.6076
 2811TIP3    H1 8397   1.781   4.256   2.387 -0.5174 -1.1183 -0.9093
 2811TIP3    H2 8398   1.846   4.297   2.256 -2.5325 -0.9017 -1.8771
 2812TIP3   OH2 8399   0.349   0.345   0.605 -0.0073  0.5001 -0.7934
 2812TIP3    H1 8400   0.378   0.413   0.666  2.7571 -1.2445  0.0103
 2812TIP3    H2 8401   0.280   0.299   0.652 -0.7766  1.6926 -0.7023
 2813TIP3   OH2 8402   2.114   3.502   1.092  0.0363 -0.0305 -0.0320
 2813TIP3    H1 8403   2.078   3.549   1.017 -0.9667  0.1097  0.5075
 2813TIP3    H2 8404   2.126   3.569   1.159  0.0415 -0.2985  0.2383
 2814TIP3   OH2 8405   2.767   4.205   3.308  0.1846  0.1832 -0.0336
 2814TIP3    H1 8406   2.676   4.233   3.302  0.7417  2.4037  0.8024
 2814TIP3    H2 8407   2.792   4.226   3.398  0.9798 -2.2710  0.3739
 2815TIP3   OH2 8408   2.886   6.389   0.850 -0.4780  0.3466  0.2382
 2815TIP3    H1 8409   2.894   6.413   0.942  1.1107  0.0455  0.2125
 2815TIP3    H2 8410   2.893   6.293   0.851  0.0313  0.3774 -0.2273
 2816TIP3   OH2 8411   7.062   0.666   1.964  0.0489  0.2700 -0.1509
 2816TIP3    H1 8412   7.066   0.761   1.974  0.9351  0.0049  2.9276
 2816TIP3    H2 8413   7.153   0.638   1.956 -0.1051 -0.4152  0.3555
 2817TIP3   OH2 8414   0.727   1.232   0.738  0.0523 -0.1793 -0.1574
 2817TIP3    H1 8415   0.798   1.295   0.726 -0.5938  0.5190 -0.4375
 2817TIP3    H2 8416   0.648   1.287   0.748 -0.2685 -0.8886  1.4976
 2818TIP3   OH2 8417   0.824   0.155   1.672  0.5325  0.4805  0.5418
 2818TIP3    H1 8418   0.819   0.222   1.604 -1.5280 -0.8150 -0.7007
 2818TIP3    H2 8419   0.858   0.078   1.628  0.7960  0.0782  1.4197
 2819TIP3   OH2 8420   1.025   4.915   1.913  0.8164  0.6950 -0.6672
 2819TIP3    H1 8421   1.089   4.895   1.844  0.5641  0.7002 -0.9043
 2819TIP3    H2 8422   1.079   4.935   1.990  1.1202  1.1451 -0.9838
 2820TIP3   OH2 8423   3.087   5.549   0.315  0.4029 -0.0338 -0.1527
 2820TIP3    H1 8424   3.148   5.490   0.360  1.1460  0.2491 -0.7614
 2820TIP3    H2 8425   3.059   5.499   0.238  1.6811  0.6961 -1.1183
 2821TIP3   OH2 8426   3.637   1.401   3.980 -0.3197 -0.0619 -0.0118
 2821TIP3    H1 8427   3.732   1.407   3.980 -0.3225  0.1459 -1.0578
 2821TIP3    H2 8428   3.612   1.407   4.072  0.4548  3.3440  0.0960
 2822TIP3   OH2 8429   3.833   3.790   5.829  0.2851 -0.3276  0.0531
 2822TIP3    H1 8430   3.812   3.699   5.845  0.6005 -0.8630 -2.2804
 2822TIP3    H2 8431   3.751   3.830   5.800  0.5900 -0.4113 -0.9722
 2823TIP3   OH2 8432   3.988   4.368   5.708  0.8711  0.3492 -0.3748
 2823TIP3    H1 8433   3.955   4.289   5.665 -0.9490  0.8279  0.0851
 2823TIP3    H2 8434   3.925   4.436   5.686  0.5856  0.9186  1.9269
 2824TIP3   OH2 8435   6.967   4.991   3.906  0.2069 -0.6598 -0.0896
 2824TIP3    H1 8436   7.020   5.070   3.896 -0.2620 -0.2867  0.2915
 2824TIP3    H2 8437   7.027   4.926   3.940  0.2485 -0.0158  1.1059
 2825TIP3   OH2 8438   1.857   5.476   3.849 -0.7654  0.5138 -0.1020
 2825TIP3    H1 8439   1.885   5.547   3.907 -0.8586 -0.4281  1.1327
 2825TIP3    H2 8440   1.798   5.423   3.903 -0.9579 -0.3250 -1.1080
 2826TIP3   OH2 8441   4.805   4.974   5.730  0.3614  0.0765 -0.7390
 2826TIP3    H1 8442   4.895   4.964   5.762  0.2611  0.7669 -0.1943
 2826TIP3    H2 8443   4.780   4.887   5.702  1.1511 -0.1594 -0.7501
 2827TIP3   OH2 8444   3.978   4.806   3.836  0.7930 -0.1554 -0.6536
 2827TIP3    H1 8445   3.983   4.900   3.818  1.0135  0.1198  0.7291
 2827TIP3    H2 8446   3.934   4.770   3.759 -2.3041  1.5392  0.1232
 2828TIP3   OH2 8447   5.800   5.669   4.077  0.1038  0.5575  0.1977
 2828TIP3    H1 8448   5.772   5.684   3.987 -1.3995 -2.6337  0.0062
 2828TIP3    H2 8449   5.756   5.737   4.128 -0.0133  1.6355 -1.2811
 2829TIP3   OH2 8450   2.005   5.581   1.791  0.4386 -0.3710  0.0020
 2829TIP3    H1 8451   2.090   5.566   1.831  0.1125  0.2325  0.9775
 2829TIP3    H2 8452   1.990   5.675   1.802 -0.8725 -0.6565  0.9682
 2830TIP3   OH2 8453   0.317   4.649   5.076  0.2622  0.3152 -0.3862
 2830TIP3    H1 8454   0.275   4.668   5.160 -0.4186  1.0441 -0.8754
 2830TIP3    H2 8455   0.401   4.694   5.081  0.0429  0.7236 -0.2478
 2831TIP3   OH2 8456   6.472   0.464   1.335 -0.2216 -0.1095 -0.2044
 2831TIP3    H1 8457   6.555   0.513   1.332 -0.5811  0.4640 -1.1726
 2831TIP3    H2 8458   6.406   0.530   1.353 -0.4936 -0.5572  0.4718
 2832TIP3   OH2 8459   3.566   6.422   5.777  0.3721  0.4094 -0.5771
 2832TIP3    H1 8460   3.531   6.473   5.849  0.2093  2.1283 -1.8235
 2832TIP3    H2 8461   3.524   6.458   5.699  1.7273 -0.3202 -1.6931
 2833TIP3   OH2 8462   2.495   0.988   5.665 -0.5441  0.4277 -0.1221
 2833TIP3    H1 8463   2.582   0.996   5.704 -0.2006 -0.3512 -0.7145
 2833TIP3    H2 8464   2.493   0.900   5.628 -2.0549 -0.0684  1.0098
 2834TIP3   OH2 8465   6.736   5.238   4.729  0.4265 -0.3737 -0.5868
 2834TIP3    H1 8466   6.694   5.254   4.644  0.1608  1.3312 -0.1705
 2834TIP3    H2 8467   6.687   5.292   4.790  0.3526 -1.9032  0.7662
 2835TIP3   OH2 8468   6.011   0.949   1.617 -0.4595 -0.0609 -0.2316
 2835TIP3    H1 8469   5.962   0.998   1.684 -1.0562 -1.2990  0.2573
 2835TIP3    H2 8470   6.078   0.902   1.667  1.2074  1.4944 -0.8706
 2836TIP3   OH2 8471   4.994   0.817   5.200 -0.6296  0.5388 -0.4538
 2836TIP3    H1 8472   5.081   0.786   5.175 -0.4918  1.1176 -0.7158
 2836TIP3    H2 8473   5.009   0.874   5.276 -0.7312  0.9102 -0.7063
 2837TIP3   OH2 8474   6.203   3.512   1.708 -0.3698 -0.1589  0.1779
 2837TIP3    H1 8475   6.138   3.487   1.643 -1.0035  0.4167  0.5731
 2837TIP3    H2 8476   6.192   3.448   1.779 -0.8013  0.1874  0.4285
 2838TIP3   OH2 8477   4.489   4.793   4.434 -0.3435 -0.1447 -0.3999
 2838TIP3    H1 8478   4.521   4.706   4.458 -0.5724  0.0410  0.6461
 2838TIP3    H2 8479   4.531   4.813   4.351  1.0427 -0.5574  0.1833
 2839TIP3   OH2 8480   5.719   0.804   3.327  0.8188  0.1780 -0.0335
 2839TIP3    H1 8481   5.783   0.807   3.398 -0.7249  0.1632  1.4091
 2839TIP3    H2 8482   5.644   0.759   3.365  0.5278 -1.2717 -2.1850
 2840TIP3   OH2 8483   4.473   4.621   0.729 -0.1510  0.0785 -0.0020
 2840TIP3    H1 8484   4.567   4.620   0.750 -0.3095 -0.2626  0.7103
 2840TIP3    H2 8485   4.466   4.684   0.658  0.7230 -0.4195 -0.5523
 2841TIP3   OH2 8486   2.086   0.725   5.568 -0.4350  0.4317  0.0709
 2841TIP3    H1 8487   2.016   0.736   5.503 -1.2235  0.5734  0.9278
 2841TIP3    H2 8488   2.118   0.814   5.583 -0.1144  0.3761 -0.2606
 2842TIP3   OH2 8489   2.006   2.370   5.804  0.2939 -0.2898  0.3109
 2842TIP3    H1 8490   2.004   2.453   5.756  0.0162 -0.1189  0.6111
 2842TIP3    H2 8491   1.978   2.305   5.739 -0.1366 -0.0530  0.2517
 2843TIP3   OH2 8492   0.214   2.374   0.202 -0.0829  0.8176 -0.0946
 2843TIP3    H1 8493   0.304   2.376   0.237  0.0110  0.2633 -0.3041
 2843TIP3    H2 8494   0.174   2.297   0.242  0.0348  0.1538 -1.2263
 2844TIP3   OH2 8495   3.708   6.236   4.465 -0.4027  0.3516 -0.3856
 2844TIP3    H1 8496   3.770   6.308   4.471  2.1547 -1.7482  0.1839
 2844TIP3    H2 8497   3.694   6.209   4.556 -0.5949 -0.4616 -0.6495
 2845TIP3   OH2 8498   5.551   0.552   1.773 -0.2674  0.3751  0.7149
 2845TIP3    H1 8499   5.520   0.585   1.857  0.9998  1.6897  0.7184
 2845TIP3    H2 8500   5.483   0.576   1.710 -0.1587  1.5111  1.0109
 2846TIP3   OH2 8501   1.307   2.126   4.978 -0.2403 -0.1293  0.1617
 2846TIP3    H1 8502   1.401   2.145   4.975 -0.1234 -0.6765  0.3135
 2846TIP3    H2 8503   1.299   2.055   5.041 -0.7012 -0.4120 -0.2147
 2847TIP3   OH2 8504   4.057   0.473   2.031  0.1147 -0.3977 -0.0744
 2847TIP3    H1 8505   4.034   0.421   2.108 -0.0909  0.1730  0.2602
 2847TIP3    H2 8506   4.153   0.473   2.029  0.1225 -0.3098  0.2596
 2848TIP3   OH2 8507   6.938   2.478   4.088 -0.3021 -0.1598 -0.2412
 2848TIP3    H1 8508   6.964   2.513   4.003 -0.5934  0.4405 -0.0822
 2848TIP3    H2 8509   7.003   2.513   4.149 -1.3537  1.2180  0.1337
 2849TIP3   OH2 8510   1.749   5.706   0.236  0.0189  0.0922 -0.1585
 2849TIP3    H1 8511   1.828   5.760   0.230  0.3434 -0.3488  0.1050
 2849TIP3    H2 8512   1.677   5.769   0.231  0.3251  0.3377 -2.3200
 2850TIP3   OH2 8513   3.572   2.252   5.135 -0.5169 -0.1181 -0.7402
 2850TIP3    H1 8514   3.532   2.171   5.168  0.6678 -1.1830 -1.8138
 2850TIP3    H2 8515   3.608   2.228   5.050  1.2510  1.1114 -0.4009
 2851TIP3   OH2 8516   3.194   4.385   0.079 -0.2433 -0.2955  0.3270
 2851TIP3    H1 8517   3.214   4.468   0.124 -3.3364  1.0434 -0.5239
 2851TIP3    H2 8518   3.275   4.335   0.085  2.4207  3.4177 -0.5182
 2852TIP3   OH2 8519   0.505   0.497   4.154 -0.0448  0.3929  0.3895
 2852TIP3    H1 8520   0.535   0.447   4.078  1.5032  1.1718  0.4582
 2852TIP3    H2 8521   0.573   0.563   4.168 -1.7094  2.1053  0.7144
 2853TIP3   OH2 8522   4.832   2.574   5.493 -0.5352 -0.1665  0.3899
 2853TIP3    H1 8523   4.749   2.591   5.450 -1.9067 -0.8331  2.5947
 2853TIP3    H2 8524   4.812   2.578   5.587  1.9105 -0.3917  1.0073
 2854TIP3   OH2 8525   3.443   5.981   0.325 -0.3885  0.2370  0.2691
 2854TIP3    H1 8526   3.404   5.992   0.411  0.1184  1.0870  0.4018
 2854TIP3    H2 8527   3.528   5.939   0.341 -0.2031  0.5820  0.2119
 2855TIP3   OH2 8528   0.056   1.693   2.414 -0.2353 -0.3090 -0.3084
 2855TIP3    H1 8529   0.121   1.690   2.485  0.3188  0.8397 -0.7355
 2855TIP3    H2 8530   0.093   1.638   2.345  0.0779 -0.0282 -0.3702
 2856TIP3   OH2 8531  -0.013   5.052   0.623  0.2861 -0.4929  0.1299
 2856TIP3    H1 8532   0.008   5.079   0.534  1.7197 -0.3574  0.4836
 2856TIP3    H2 8533   0.065   5.073   0.674 -1.0350  0.8150  1.7349
 2857TIP3   OH2 8534   2.638   0.427   4.449  0.1526 -0.9383  0.2499
 2857TIP3    H1 8535   2.611   0.399   4.361 -0.8796 -0.6586  0.4618
 2857TIP3    H2 8536   2.677   0.349   4.488  1.4987 -0.8132 -0.7791
 2858TIP3   OH2 8537   0.609   3.341   2.865 -0.0097  0.3246  0.4310
 2858TIP3    H1 8538   0.570   3.387   2.790  0.4157  0.4365  0.2763
 2858TIP3    H2 8539   0.555   3.263   2.876  0.3826 -0.0838 -0.4714
 2859TIP3   OH2 8540   0.324   5.214   1.304 -0.2125 -0.2611 -0.5109
 2859TIP3    H1 8541   0.239   5.248   1.275 -0.9516 -1.1423  0.5753
 2859TIP3    H2 8542   0.380   5.292   1.307 -1.3255  0.5477 -0.0148
 2860TIP3   OH2 8543   2.627   0.768   5.553 -0.3203 -0.0880  0.7849
 2860TIP3    H1 8544   2.611   0.709   5.480 -1.1696 -1.6233  2.1482
 2860TIP3    H2 8545   2.723   0.777   5.556 -0.3060  2.4529 -2.2901
 2861TIP3   OH2 8546   6.964   3.907   4.973  0.1708 -0.2050 -0.4586
 2861TIP3    H1 8547   6.888   3.951   5.011  0.8109  0.3540  0.1937
 2861TIP3    H2 8548   6.966   3.939   4.882  0.6766  1.2213  0.0213
 2862TIP3   OH2 8549   1.353   5.865   4.429 -0.0696 -0.0961  0.4266
 2862TIP3    H1 8550   1.278   5.874   4.370  0.4636  1.2312 -0.0962
 2862TIP3    H2 8551   1.396   5.785   4.401  0.3509  0.6728 -1.2343
 2863TIP3   OH2 8552   5.660   0.259   5.018 -0.0189  0.3567  0.0825
 2863TIP3    H1 8553   5.658   0.252   5.113  0.0618 -0.8788  0.0119
 2863TIP3    H2 8554   5.744   0.300   4.999 -0.2196  1.0034  0.5527
 2864TIP3   OH2 8555   6.184   3.427   5.374  1.1209  0.3877 -0.8043
 2864TIP3    H1 8556   6.144   3.381   5.301  1.2089  0.9099 -1.1808
 2864TIP3    H2 8557   6.118   3.426   5.443  1.8080 -2.1116 -0.0330
 2865TIP3   OH2 8558   2.059   3.350   4.907 -0.3712 -0.2841  0.3901
 2865TIP3    H1 8559   2.082   3.265   4.943  1.0751 -0.9270 -1.8109
 2865TIP3    H2 8560   2.143   3.387   4.878 -1.3173  0.3690 -1.7342
 2866TIP3   OH2 8561   2.061   4.940   3.341 -0.8543 -0.7097 -0.4537
 2866TIP3    H1 8562   1.995   4.874   3.324 -2.0525  0.4708 -0.5677
 2866TIP3    H2 8563   2.132   4.920   3.280 -2.1429 -0.5815 -2.0570
 2867TIP3   OH2 8564   4.890   4.481   5.256  0.3640 -0.2619 -0.3650
 2867TIP3    H1 8565   4.856   4.392   5.248 -0.8082  0.1554 -0.2796
 2867TIP3    H2 8566   4.958   4.475   5.323 -0.9768 -0.7747  1.0134
 2868TIP3   OH2 8567   1.245   4.527   4.355  0.1433 -0.3910 -0.2902
 2868TIP3    H1 8568   1.217   4.598   4.414 -2.0947  0.8088 -2.5753
 2868TIP3    H2 8569   1.191   4.452   4.380 -1.8750  0.5326 -1.5892
 2869TIP3   OH2 8570   3.632   1.268   5.556 -0.1821  0.3334  0.2702
 2869TIP3    H1 8571   3.614   1.298   5.645 -0.7732 -0.0482  0.2859
 2869TIP3    H2 8572   3.719   1.229   5.561 -0.5297 -0.3921  0.8716
 2870TIP3   OH2 8573   2.459   0.517   3.371 -0.2473 -0.2451  0.3100
 2870TIP3    H1 8574   2.471   0.535   3.464 -0.2346  1.1401  0.0580
 2870TIP3    H2 8575   2.375   0.556   3.349  0.6516  1.2414 -0.6710
 2871TIP3   OH2 8576   2.557   0.935   4.170  0.4320 -0.1422  0.5564
 2871TIP3    H1 8577   2.525   0.968   4.254 -0.0816 -0.8483  0.6481
 2871TIP3    H2 8578   2.649   0.916   4.185  1.2246  2.7339  0.0537
 2872TIP3   OH2 8579   2.261   4.844   1.304 -0.2556  0.1440 -0.5934
 2872TIP3    H1 8580   2.338   4.864   1.251 -1.0134  0.0463 -1.7697
 2872TIP3    H2 8581   2.197   4.911   1.280 -1.3435 -1.1142 -1.4094
 2873TIP3   OH2 8582   6.743   3.302   3.423  0.5870 -0.0995  0.3270
 2873TIP3    H1 8583   6.672   3.269   3.478  0.1979  1.1209  0.5952
 2873TIP3    H2 8584   6.731   3.259   3.339  0.0501 -0.5554  0.6311
 2874TIP3   OH2 8585   3.921   3.978   2.523 -0.1105 -0.4342  0.6195
 2874TIP3    H1 8586   3.970   3.985   2.606  3.6340 -2.0914 -1.1913
 2874TIP3    H2 8587   3.913   3.884   2.508  0.6184 -0.2106 -1.5280
 2875TIP3   OH2 8588   2.608   6.197   1.101 -0.5218 -0.8996  0.6116
 2875TIP3    H1 8589   2.596   6.233   1.013 -2.7079 -0.5951  0.9839
 2875TIP3    H2 8590   2.637   6.271   1.154 -2.6302 -0.1884  0.8517
 2876TIP3   OH2 8591   6.034   0.618   3.137  0.4511 -0.4183  0.5085
 2876TIP3    H1 8592   6.015   0.648   3.226 -0.8408  0.8614 -0.1577
 2876TIP3    H2 8593   6.127   0.597   3.138  0.5534 -0.0307  2.0379
 2877TIP3   OH2 8594   3.841   6.136   5.612 -0.5561  0.4468  0.1207
 2877TIP3    H1 8595   3.837   6.209   5.550  1.8440  0.8872  0.4163
 2877TIP3    H2 8596   3.787   6.164   5.685  0.6219  2.1346  0.3874
 2878TIP3   OH2 8597   6.642   0.157   1.627 -0.5071  0.7566 -0.4160
 2878TIP3    H1 8598   6.709   0.210   1.670  0.5522 -0.8877  0.0405
 2878TIP3    H2 8599   6.565   0.165   1.683  0.8787 -1.4703  2.0421
 2879TIP3   OH2 8600   3.043   4.442   4.809  0.1943  0.1571  0.6738
 2879TIP3    H1 8601   3.043   4.413   4.900 -2.1882  1.2401  1.0863
 2879TIP3    H2 8602   2.952   4.463   4.790  0.7754  0.9052 -1.6740
 2880TIP3   OH2 8603   3.756   0.887   0.375  0.4927  0.1648 -0.1005
 2880TIP3    H1 8604   3.815   0.896   0.300  1.2188  0.9703  0.5412
 2880TIP3    H2 8605   3.687   0.952   0.359 -0.8105 -1.4477 -1.3407
 2881TIP3   OH2 8606   1.413   2.405   0.455 -0.4461 -0.0861  0.0007
 2881TIP3    H1 8607   1.475   2.476   0.437 -2.1719  1.3185 -0.7151
 2881TIP3    H2 8608   1.465   2.338   0.499  1.6108  0.9250 -0.7660
 2882TIP3   OH2 8609   2.283   1.394   4.073  0.2959  0.2972  0.6624
 2882TIP3    H1 8610   2.340   1.317   4.071 -1.1972 -0.8371 -0.7093
 2882TIP3    H2 8611   2.255   1.405   3.982 -0.8961  1.4206  1.1396
 2883TIP3   OH2 8612   5.321   4.868   2.357 -0.1795  0.4642 -0.1727
 2883TIP3    H1 8613   5.384   4.882   2.429  0.0275 -0.4909 -0.1581
 2883TIP3    H2 8614   5.264   4.945   2.361 -0.0940  0.4958  0.9431
 2884TIP3   OH2 8615   4.804   1.412   2.842  0.3805  0.2025  0.1371
 2884TIP3    H1 8616   4.726   1.379   2.796 -0.2368  0.2101  1.1405
 2884TIP3    H2 8617   4.828   1.492   2.795 -2.3183  2.1786  1.7798
 2885TIP3   OH2 8618   6.535   6.526   4.923  0.3341  0.5294 -0.1186
 2885TIP3    H1 8619   6.555   6.615   4.951 -1.1127  1.2451 -1.2382
 2885TIP3    H2 8620   6.442   6.515   4.942  0.0636 -0.0779 -1.6465
 2886TIP3   OH2 8621   0.442   2.430   0.340 -0.1052  0.7733  0.0839
 2886TIP3    H1 8622   0.483   2.497   0.285  1.1770  1.5628  1.9128
 2886TIP3    H2 8623   0.385   2.479   0.399 -0.4829  0.0604  0.3205
 2887TIP3   OH2 8624   0.697   5.728   0.160  0.3223  0.0432 -0.0805
 2887TIP3    H1 8625   0.769   5.665   0.162 -1.1591 -1.7414  0.3783
 2887TIP3    H2 8626   0.703   5.774   0.244 -0.2394 -1.5309  0.8615
 2888TIP3   OH2 8627   4.404   0.241   4.718 -0.1726 -0.1394 -0.1361
 2888TIP3    H1 8628   4.339   0.182   4.682 -0.3359  0.1406 -0.2993
 2888TIP3    H2 8629   4.388   0.325   4.675  1.1374 -0.3944 -1.1817
 2889TIP3   OH2 8630   0.349   5.220   4.980  0.1355  0.4131 -0.1886
 2889TIP3    H1 8631   0.364   5.240   5.072 -1.9952 -0.8286  0.4808
 2889TIP3    H2 8632   0.264   5.259   4.960  0.1054 -0.2037 -1.3629
 2890TIP3   OH2 8633   1.724   1.939   1.884 -0.4907 -0.3778  0.1714
 2890TIP3    H1 8634   1.773   2.002   1.937 -1.7497 -0.0176  0.9537
 2890TIP3    H2 8635   1.786   1.867   1.870  0.6498  0.5821  0.0939
 2891TIP3   OH2 8636   1.230   2.403   4.795  0.6559 -0.0356  0.0525
 2891TIP3    H1 8637   1.324   2.401   4.811  0.8794  0.6788 -1.0718
 2891TIP3    H2 8638   1.206   2.496   4.799  0.5036  0.0791 -2.2724
 2892TIP3   OH2 8639   1.885   1.998   1.433  0.1098 -0.3265 -0.1661
 2892TIP3    H1 8640   1.805   1.996   1.485 -0.1663 -0.4668 -0.5866
 2892TIP3    H2 8641   1.932   2.076   1.463 -2.7675  3.1748 -3.6744
 2893TIP3   OH2 8642   0.644   5.517   3.057  0.0768  0.1969 -0.0446
 2893TIP3    H1 8643   0.562   5.516   3.107  0.6582  1.8176  1.0378
 2893TIP3    H2 8644   0.622   5.566   2.977  0.3080  1.9645  0.9330
 2894TIP3   OH2 8645   2.140   1.383   3.838  0.8121 -1.2869 -0.0970
 2894TIP3    H1 8646   2.184   1.305   3.805 -0.1422 -1.4746 -0.9864
 2894TIP3    H2 8647   2.050   1.354   3.855  0.3755 -0.3269 -0.7069
 2895TIP3   OH2 8648   5.995   1.674   3.792 -0.9534  0.0444  0.0557
 2895TIP3    H1 8649   5.916   1.629   3.761 -0.7530  0.1668 -0.6482
 2895TIP3    H2 8650   6.067   1.629   3.748 -0.4546 -1.2696  2.0860
 2896TIP3   OH2 8651   3.118   5.761   0.109  0.4332  0.5718  0.1083
 2896TIP3    H1 8652   3.048   5.722   0.056  0.1507  1.0071  0.1566
 2896TIP3    H2 8653   3.099   5.732   0.199  0.0625  1.0498  0.1848
 2897TIP3   OH2 8654   5.204   0.784   3.124 -0.3624 -0.0243 -0.1617
 2897TIP3    H1 8655   5.159   0.867   3.141  0.9179  0.2922  2.1656
 2897TIP3    H2 8656   5.250   0.798   3.042 -1.0397  1.1800 -0.3639
 2898TIP3   OH2 8657   3.875   4.484   4.861  0.0972 -0.1054 -0.3656
 2898TIP3    H1 8658   3.867   4.406   4.806 -0.2831  0.7049 -1.4882
 2898TIP3    H2 8659   3.785   4.516   4.869  0.3551  0.6806 -0.6007
 2899TIP3   OH2 8660   2.257   0.111   4.910  0.1165  0.3537 -0.0933
 2899TIP3    H1 8661   2.289   0.181   4.967  0.3206  0.2007 -0.0171
 2899TIP3    H2 8662   2.162   0.122   4.908  0.1384  0.5520  0.0232
 2900TIP3   OH2 8663   5.883   6.069   0.921  0.9933 -0.1098  0.0528
 2900TIP3    H1 8664   5.870   6.130   0.993 -1.0643 -0.9997  0.5035
 2900TIP3    H2 8665   5.905   6.125   0.846  0.6950  1.0436  0.8013
 2901TIP3   OH2 8666   2.754   5.500   3.126  0.1698 -0.4108 -0.7644
 2901TIP3    H1 8667   2.849   5.504   3.134  0.0203  0.8847  1.1908
 2901TIP3    H2 8668   2.731   5.409   3.145  0.9913 -0.6156 -0.7455
 2902TIP3   OH2 8669   1.197   5.901   5.179 -0.1747 -0.0956 -0.4361
 2902TIP3    H1 8670   1.131   5.958   5.219  0.6877 -0.3382  1.4405
 2902TIP3    H2 8671   1.204   5.826   5.238  0.2885 -1.1062 -1.7088
 2903TIP3   OH2 8672   4.124   4.749   1.766  0.3763  0.1950 -0.1288
 2903TIP3    H1 8673   4.117   4.737   1.860 -0.3155 -0.7651 -0.2828
 2903TIP3    H2 8674   4.062   4.819   1.745 -1.2594 -1.1624 -0.1309
 2904TIP3   OH2 8675   3.349   6.289   4.203  0.0641  0.2810 -0.1833
 2904TIP3    H1 8676   3.376   6.338   4.280  1.2340  0.0314 -0.4253
 2904TIP3    H2 8677   3.430   6.271   4.155 -0.6258  0.4053 -1.4620
 2905TIP3   OH2 8678   5.903   6.288   2.536 -0.3174  0.8862 -0.2082
 2905TIP3    H1 8679   5.905   6.279   2.441 -0.2907  2.2861 -0.3611
 2905TIP3    H2 8680   5.830   6.232   2.564 -0.5229  0.7083 -1.0784
 2906TIP3   OH2 8681   7.150   4.166   5.626 -0.4742  0.3052  0.2837
 2906TIP3    H1 8682   7.238   4.157   5.589  0.4274  3.0565  1.4847
 2906TIP3    H2 8683   7.155   4.120   5.710  0.4537  1.9093  1.1634
 2907TIP3   OH2 8684   1.723   1.390   1.448 -0.5994 -0.1589  0.5532
 2907TIP3    H1 8685   1.811   1.427   1.446 -0.6537 -0.0514 -0.1422
 2907TIP3    H2 8686   1.730   1.314   1.505  0.2030 -0.8023 -0.3839
 2908TIP3   OH2 8687   4.748   3.022   1.591  0.1418  0.1261 -0.3178
 2908TIP3    H1 8688   4.710   3.069   1.516  1.0641  0.6773 -0.4526
 2908TIP3    H2 8689   4.673   2.984   1.636 -0.5063  0.5940 -0.9864
 2909TIP3   OH2 8690   3.640   6.213   5.014  0.3034  0.2041  0.5171
 2909TIP3    H1 8691   3.692   6.146   5.059 -1.0556 -0.0419  1.8064
 2909TIP3    H2 8692   3.661   6.294   5.060  0.7353  0.3988 -0.0072
 2910TIP3   OH2 8693   2.253   2.461   1.859  0.2470 -0.1521 -0.7778
 2910TIP3    H1 8694   2.159   2.476   1.868  0.3446 -0.1336  0.3704
 2910TIP3    H2 8695   2.266   2.441   1.766 -0.7346  0.9128 -1.1654
 2911TIP3   OH2 8696   6.588   3.657   4.588  0.1685  0.0793  0.1975
 2911TIP3    H1 8697   6.546   3.578   4.552 -1.0961  0.4660  0.7835
 2911TIP3    H2 8698   6.529   3.728   4.563 -0.2763  0.4722  2.2064
 2912TIP3   OH2 8699   4.690   4.750   0.992 -0.3168  0.0895  0.2042
 2912TIP3    H1 8700   4.691   4.739   1.087 -2.4701 -1.1402  0.1485
 2912TIP3    H2 8701   4.644   4.833   0.978  0.8409  0.7517  0.2323
 2913TIP3   OH2 8702   3.104   5.476   5.108 -0.1945  0.1336  0.1560
 2913TIP3    H1 8703   3.030   5.437   5.154 -2.8156 -0.6346 -4.1442
 2913TIP3    H2 8704   3.077   5.566   5.090  0.4374  0.2278 -0.3848
 2914TIP3   OH2 8705   2.453   2.905   0.376 -0.2441 -0.3427 -0.3860
 2914TIP3    H1 8706   2.467   2.980   0.434 -0.3449 -1.7944  1.6076
 2914TIP3    H2 8707   2.384   2.934   0.316 -0.8158  0.9194  0.8205
 2915TIP3   OH2 8708   6.103   2.276   0.266  0.0463  0.5379 -0.0158
 2915TIP3    H1 8709   6.015   2.249   0.241  0.4595 -0.8172 -0.0697
 2915TIP3    H2 8710   6.096   2.371   0.277 -1.2334  0.5607 -0.7569
 2916TIP3   OH2 8711   3.256   5.374   0.476 -0.0625 -0.4021 -0.1315
 2916TIP3    H1 8712   3.345   5.350   0.503 -0.0661  0.7960  1.0164
 2916TIP3    H2 8713   3.204   5.295   0.493  0.2880 -0.2825  1.7484
 2917TIP3   OH2 8714   3.342   0.060   2.875  0.2906  0.4248 -0.0126
 2917TIP3    H1 8715   3.285   0.086   2.803  0.5194 -0.5525 -0.5520
 2917TIP3    H2 8716   3.408   0.129   2.879  1.0859 -0.1934 -1.6452
 2918TIP3   OH2 8717   5.233   5.596   3.279 -0.4789  0.2787 -0.7486
 2918TIP3    H1 8718   5.225   5.504   3.255 -1.8193  0.1684  0.0150
 2918TIP3    H2 8719   5.281   5.596   3.362 -0.8404  0.2254 -0.5363
 2919TIP3   OH2 8720   2.129   4.730   4.540  0.3922 -0.1433 -0.1120
 2919TIP3    H1 8721   2.050   4.690   4.502 -0.6456  1.1396  0.6053
 2919TIP3    H2 8722   2.176   4.657   4.579 -1.1757 -0.7711  0.7001
 2920TIP3   OH2 8723   4.786   5.062   4.479  0.6438 -0.1920 -0.3724
 2920TIP3    H1 8724   4.807   5.142   4.528  0.4855  0.6297 -1.5833
 2920TIP3    H2 8725   4.694   5.073   4.454  1.1123  0.1522 -2.1100
 2921TIP3   OH2 8726   1.211   5.622   4.545 -0.4913 -0.6291 -0.6854
 2921TIP3    H1 8727   1.274   5.605   4.615 -2.4315 -2.3127  0.7654
 2921TIP3    H2 8728   1.259   5.603   4.465  0.8841 -1.7405  0.3392
 2922TIP3   OH2 8729   1.033   0.983   1.968 -0.2425  1.0847  0.5170
 2922TIP3    H1 8730   1.086   1.002   2.045  1.4516 -0.1392 -0.2712
 2922TIP3    H2 8731   0.976   0.911   1.994  2.2680 -1.2896 -0.0302
 2923TIP3   OH2 8732   5.550   5.265   1.175 -0.4075  0.2364  0.0699
 2923TIP3    H1 8733   5.626   5.209   1.163 -0.7185 -0.3185  0.6417
 2923TIP3    H2 8734   5.529   5.258   1.268  1.5937  3.9739  0.9867
 2924TIP3   OH2 8735   0.068   2.018   1.641  0.1112  0.3857  0.9425
 2924TIP3    H1 8736   0.153   2.061   1.634 -0.5339  1.7652  1.2286
 2924TIP3    H2 8737   0.075   1.941   1.583  1.8541 -0.0908  1.7149
 2925TIP3   OH2 8738   0.587   5.381   0.118  0.0374  0.0799 -1.0111
 2925TIP3    H1 8739   0.541   5.465   0.125  0.3510  0.0989  1.8968
 2925TIP3    H2 8740   0.540   5.334   0.049 -0.3734  2.4523 -2.4738
 2926TIP3   OH2 8741   7.123   1.986   5.586  0.0540  0.4266  0.8582
 2926TIP3    H1 8742   7.091   1.916   5.529 -0.9952  1.6566 -0.1335
 2926TIP3    H2 8743   7.134   1.945   5.671  1.4049 -1.4077 -0.1416
 2927TIP3   OH2 8744   7.076   2.213   4.055  0.3088 -0.3224  0.9054
 2927TIP3    H1 8745   7.051   2.124   4.028  1.3759 -0.4822  0.4037
 2927TIP3    H2 8746   7.108   2.203   4.145 -0.2958 -0.3123  1.1246
 2928TIP3   OH2 8747   2.765   1.504   4.699 -0.3568 -0.1811  0.2845
 2928TIP3    H1 8748   2.754   1.573   4.765  0.1114 -0.7308  0.9530
 2928TIP3    H2 8749   2.812   1.546   4.627 -0.1958  0.2280  0.6242
 2929TIP3   OH2 8750   3.920   2.809   5.780  0.0098 -0.7128 -0.2476
 2929TIP3    H1 8751   3.975   2.883   5.808 -0.9413 -0.2151  0.3444
 2929TIP3    H2 8752   3.979   2.733   5.782  0.7350 -0.1510  0.1262
 2930TIP3   OH2 8753   3.816   1.954   5.258 -0.2014  0.2179  0.4384
 2930TIP3    H1 8754   3.820   1.972   5.164  0.4274 -0.6039  0.2928
 2930TIP3    H2 8755   3.885   2.008   5.296 -1.6711  1.9991  0.7041
 2931TIP3   OH2 8756   3.313   4.521   3.865  0.3375  0.0862 -0.4203
 2931TIP3    H1 8757   3.315   4.469   3.785  1.3682  1.3428 -1.2509
 2931TIP3    H2 8758   3.369   4.596   3.846  1.3726 -0.0510  1.8061
 2932TIP3   OH2 8759   0.394   2.532   5.815 -0.3206  0.4617 -0.6260
 2932TIP3    H1 8760   0.324   2.570   5.763  0.1248  1.1935 -0.7057
 2932TIP3    H2 8761   0.349   2.479   5.881 -0.9794  1.4828 -0.2277
 2933TIP3   OH2 8762   3.417   1.064   5.560 -0.1439 -0.5175  0.0328
 2933TIP3    H1 8763   3.483   1.132   5.566 -0.3344 -0.4192  1.0950
 2933TIP3    H2 8764   3.366   1.087   5.482  0.0104  0.3587  0.1829
 2934TIP3   OH2 8765   6.793   5.369   1.268 -0.3049  0.5805  0.2508
 2934TIP3    H1 8766   6.698   5.382   1.273 -0.3489  0.2352  0.3750
 2934TIP3    H2 8767   6.803   5.288   1.218 -0.0574  0.8805 -0.1824
 2935TIP3   OH2 8768   3.588   4.726   4.183 -0.3329 -0.2694  0.3706
 2935TIP3    H1 8769   3.634   4.772   4.253 -0.7159 -0.0078  0.4532
 2935TIP3    H2 8770   3.585   4.635   4.212  0.4954 -0.3666  0.1710
 2936TIP3   OH2 8771   4.408   1.302   4.660 -0.2399 -0.7972  0.5162
 2936TIP3    H1 8772   4.331   1.281   4.712 -0.6917  0.6782  0.4918
 2936TIP3    H2 8773   4.374   1.318   4.572 -0.1249  1.1466  0.7889
 2937TIP3   OH2 8774   5.247   1.427   5.792 -0.2302 -0.0172 -0.2926
 2937TIP3    H1 8775   5.268   1.360   5.726 -0.2407 -0.8419  0.5277
 2937TIP3    H2 8776   5.278   1.391   5.874 -0.0283  1.0994  0.1446
 2938TIP3   OH2 8777   2.031   4.370   4.170 -0.0923 -0.1131  0.5124
 2938TIP3    H1 8778   2.076   4.305   4.224  0.2446 -0.4674 -0.1745
 2938TIP3    H2 8779   2.071   4.360   4.083 -0.2985  0.7538  0.3075
 2939TIP3   OH2 8780   3.732   0.666   1.789 -0.0577  0.2629 -0.3416
 2939TIP3    H1 8781   3.770   0.637   1.872 -4.7823  1.2531  2.5648
 2939TIP3    H2 8782   3.732   0.762   1.795 -0.0711  0.3688 -1.7316
 2940TIP3   OH2 8783   0.168   0.700   5.566  0.0084 -0.7866 -0.5797
 2940TIP3    H1 8784   0.085   0.654   5.580 -1.2220  0.4607 -3.0370
 2940TIP3    H2 8785   0.189   0.738   5.652 -1.9855 -1.1339  0.1164
 2941TIP3   OH2 8786   5.205   4.988   1.199 -0.7524  0.3676 -0.1397
 2941TIP3    H1 8787   5.137   4.930   1.163 -1.5425  1.9823 -1.4070
 2941TIP3    H2 8788   5.248   5.025   1.122  2.8922 -1.8981  0.5542
 2942TIP3   OH2 8789   4.364   3.509   0.393  0.7857  0.2030  0.2683
 2942TIP3    H1 8790   4.271   3.520   0.374  0.9355  0.3797 -0.4042
 2942TIP3    H2 8791   4.400   3.598   0.387  1.0528  0.0916  0.2069
 2943TIP3   OH2 8792   2.306   2.095   4.516 -0.9432  0.1321 -0.4932
 2943TIP3    H1 8793   2.252   2.020   4.541 -0.5145 -0.1578 -0.4476
 2943TIP3    H2 8794   2.243   2.158   4.482 -1.2966 -0.2757 -0.6055
 2944TIP3   OH2 8795   1.698   6.367   0.545  0.2992  0.6775  0.3353
 2944TIP3    H1 8796   1.671   6.276   0.539  0.6172  0.5440  0.8599
 2944TIP3    H2 8797   1.698   6.386   0.639  1.0113  0.9816  0.2774
 2945TIP3   OH2 8798   1.456   2.857   0.379  0.2962  0.2017  0.1743
 2945TIP3    H1 8799   1.539   2.871   0.334  0.0577 -0.4604 -0.5018
 2945TIP3    H2 8800   1.405   2.803   0.319  0.0285 -0.8537  1.2974
 2946TIP3   OH2 8801   6.762   6.423   0.287  0.5709  0.4228 -0.5661
 2946TIP3    H1 8802   6.794   6.338   0.259 -1.3715 -0.1816 -1.1328
 2946TIP3    H2 8803   6.717   6.406   0.369 -1.0513  0.5701 -1.3688
 2947TIP3   OH2 8804   1.221   2.479   0.279 -0.0559 -0.0721 -0.0177
 2947TIP3    H1 8805   1.167   2.521   0.346 -1.5572  1.1598 -1.8944
 2947TIP3    H2 8806   1.296   2.444   0.327 -1.4675  0.0197  2.3972
 2948TIP3   OH2 8807   1.470   2.048   1.052 -0.5895  0.1165  0.3245
 2948TIP3    H1 8808   1.411   1.988   1.006 -0.1820 -0.2363  0.2535
 2948TIP3    H2 8809   1.549   1.996   1.068 -1.3188 -0.3353  2.9467
 2949TIP3   OH2 8810   5.556   6.564   1.893  0.4819 -0.1402 -0.1320
 2949TIP3    H1 8811   5.612   6.641   1.897  0.6192 -0.2431 -0.0128
 2949TIP3    H2 8812   5.536   6.544   1.985  2.1430 -1.4508 -0.0091
 2950TIP3   OH2 8813   0.719   0.354   2.560  0.1939  0.7659 -0.5155
 2950TIP3    H1 8814   0.754   0.316   2.641 -0.2639  2.5201  0.5526
 2950TIP3    H2 8815   0.792   0.405   2.524  0.1962  0.5169 -0.8652
 2951TIP3   OH2 8816   2.013   4.675   2.758 -0.2541  0.3592  0.6044
 2951TIP3    H1 8817   2.011   4.675   2.662 -0.5702 -0.2449  0.6104
 2951TIP3    H2 8818   2.097   4.634   2.780 -0.9505 -1.1211  0.5917
 2952TIP3   OH2 8819   2.306   3.058   5.082 -0.1411  0.5031  0.3624
 2952TIP3    H1 8820   2.213   3.049   5.061  0.4861  0.7750 -3.0983
 2952TIP3    H2 8821   2.313   3.146   5.119 -1.2271  0.5170  0.5824
 2953TIP3   OH2 8822   2.868   3.748   1.526  0.2735 -0.2062  0.1495
 2953TIP3    H1 8823   2.864   3.744   1.431  0.6323  3.2153 -0.1645
 2953TIP3    H2 8824   2.954   3.711   1.548  1.0531  0.7359 -1.1261
 2954TIP3   OH2 8825   4.278   5.912   5.131 -0.7540  0.0152  0.1562
 2954TIP3    H1 8826   4.296   5.820   5.111 -0.9607 -0.1417  0.6753
 2954TIP3    H2 8827   4.284   5.956   5.047 -0.3871 -0.4324 -0.0569
 2955TIP3   OH2 8828   4.430   3.019   3.289 -0.1029 -0.2709  0.1490
 2955TIP3    H1 8829   4.451   3.056   3.375 -2.0919 -0.3487  0.7383
 2955TIP3    H2 8830   4.404   2.929   3.308  1.4518 -0.9654 -0.8418
 2956TIP3   OH2 8831   1.340   1.259   3.094 -0.2071 -0.2186  0.3748
 2956TIP3    H1 8832   1.274   1.321   3.126 -0.3511 -0.3508  0.3401
 2956TIP3    H2 8833   1.300   1.220   3.016 -0.2923 -0.6552  0.6300
 2957TIP3   OH2 8834   3.186   3.718   5.075 -0.6054 -0.0012  0.3576
 2957TIP3    H1 8835   3.206   3.730   5.168 -1.2243 -0.7705  0.5995
 2957TIP3    H2 8836   3.111   3.659   5.074  0.2558 -1.1328 -0.6664
 2958TIP3   OH2 8837   0.723   5.363   2.642 -0.4404 -0.3493 -0.4060
 2958TIP3    H1 8838   0.679   5.279   2.653 -1.1364 -0.2329 -2.0631
 2958TIP3    H2 8839   0.759   5.360   2.553 -1.5211  1.5462 -0.9565
 2959TIP3   OH2 8840   0.789   3.664   3.699 -0.0491  0.5602  0.0015
 2959TIP3    H1 8841   0.836   3.709   3.769  0.9433 -0.8760  0.2932
 2959TIP3    H2 8842   0.742   3.734   3.653 -1.0698  1.5230  2.3283
 2960TIP3   OH2 8843   4.778   2.143   3.247  0.1225  0.8731 -0.2928
 2960TIP3    H1 8844   4.736   2.058   3.258  0.2824  0.7489 -0.6399
 2960TIP3    H2 8845   4.859   2.137   3.298  0.6039  0.4805 -1.0918
 2961TIP3   OH2 8846   4.328   3.014   4.368  0.1693  0.3211 -0.7458
 2961TIP3    H1 8847   4.405   2.996   4.422 -1.3473  1.9501  2.1532
 2961TIP3    H2 8848   4.329   3.109   4.357 -1.2935  0.3303 -0.8786
 2962TIP3   OH2 8849   3.910   0.312   0.803  0.0068  0.0807  0.4739
 2962TIP3    H1 8850   3.921   0.218   0.813  2.0202 -0.3044 -3.4747
 2962TIP3    H2 8851   3.837   0.321   0.740  1.4927  0.9193 -1.2257
 2963TIP3   OH2 8852   2.972   4.906   0.089 -1.1416  0.1195  0.6791
 2963TIP3    H1 8853   2.991   4.954   0.009  1.2354 -1.5850  0.1129
 2963TIP3    H2 8854   2.923   4.968   0.144  0.2072  2.5156 -0.6740
 2964TIP3   OH2 8855   4.891   2.654   3.165  0.1112 -0.1653 -0.4072
 2964TIP3    H1 8856   4.963   2.601   3.199  1.1136  0.5977 -1.2531
 2964TIP3    H2 8857   4.812   2.607   3.190  0.9233 -1.2593  0.1673
 2965TIP3   OH2 8858   1.658   0.750   5.485 -0.1274 -0.6843  0.0560
 2965TIP3    H1 8859   1.677   0.751   5.579 -1.8593 -1.1585  0.4461
 2965TIP3    H2 8860   1.646   0.842   5.461 -1.9487 -0.6899  0.8273
 2966TIP3   OH2 8861   6.588   6.411   2.771 -0.3727  0.0330 -0.2419
 2966TIP3    H1 8862   6.635   6.331   2.796  1.9469  1.0049 -1.1563
 2966TIP3    H2 8863   6.620   6.430   2.683 -1.1815  1.7522 -0.1962
 2967TIP3   OH2 8864   3.677   2.738   0.482 -0.5921 -0.3815 -0.5031
 2967TIP3    H1 8865   3.612   2.679   0.445  0.0562 -1.5414  0.1309
 2967TIP3    H2 8866   3.761   2.695   0.465 -0.1026  0.3202  0.0486
 2968TIP3   OH2 8867   2.388   1.228   4.493  1.0906 -0.3740  0.1442
 2968TIP3    H1 8868   2.426   1.316   4.493 -0.8454  0.5524  1.7479
 2968TIP3    H2 8869   2.319   1.231   4.427  1.6123 -0.9849 -0.4355
 2969TIP3   OH2 8870   1.381   5.310   1.769  0.9125 -0.0313  0.3001
 2969TIP3    H1 8871   1.373   5.366   1.692  1.1907  0.2789  0.4917
 2969TIP3    H2 8872   1.474   5.284   1.769  1.3351  1.3394  1.4606
 2970TIP3   OH2 8873   2.631   0.997   1.811  0.0310  0.3614 -0.0470
 2970TIP3    H1 8874   2.641   1.024   1.720 -0.5043 -0.3147 -0.3154
 2970TIP3    H2 8875   2.712   1.025   1.854  0.3881  0.4686 -0.7774
 2971TIP3   OH2 8876   3.345   5.015   3.079 -0.0671 -0.0814  0.1199
 2971TIP3    H1 8877   3.370   5.004   2.987  2.6896  1.2834  0.5819
 2971TIP3    H2 8878   3.395   4.948   3.125  1.3842  1.4388  0.8937
 2972TIP3   OH2 8879   0.815   1.218   1.187  0.1427 -0.3400  0.5832
 2972TIP3    H1 8880   0.811   1.148   1.251  1.9347 -0.8200  0.2231
 2972TIP3    H2 8881   0.785   1.178   1.106 -1.9649  0.2237  1.0256
 2973TIP3   OH2 8882   5.621   6.679   5.526  0.6032  0.4617  0.0242
 2973TIP3    H1 8883   5.617   6.616   5.598 -0.2615  1.3771  0.8034
 2973TIP3    H2 8884   5.530   6.693   5.501  0.8156  1.0714 -0.4365
 2974TIP3   OH2 8885   5.574   4.223   3.336  0.5725 -0.2893 -0.7046
 2974TIP3    H1 8886   5.532   4.233   3.421  0.2242  2.4546 -1.1035
 2974TIP3    H2 8887   5.557   4.132   3.311 -0.2129 -0.8601  1.6566
 2975TIP3   OH2 8888   0.401   0.565   2.417  0.6652  0.5199  0.0032
 2975TIP3    H1 8889   0.342   0.491   2.433  1.6920 -0.5028 -0.7865
 2975TIP3    H2 8890   0.458   0.568   2.494  3.9921 -2.8506 -2.0072
 2976TIP3   OH2 8891   5.587   1.787   4.960  0.3221 -0.8117 -0.3931
 2976TIP3    H1 8892   5.552   1.798   4.872  0.9899  1.5361 -0.4171
 2976TIP3    H2 8893   5.516   1.746   5.009 -0.5675 -0.8640 -1.6729
 2977TIP3   OH2 8894   2.609   2.557   0.512 -0.2132  0.2479  0.1512
 2977TIP3    H1 8895   2.650   2.641   0.492 -1.1121  1.1227  1.7552
 2977TIP3    H2 8896   2.681   2.499   0.535  0.8031 -0.5394 -4.1773
 2978TIP3   OH2 8897   4.298   5.953   2.342 -0.1629 -0.1155  0.0205
 2978TIP3    H1 8898   4.314   5.865   2.309  0.4662 -0.0393  0.1186
 2978TIP3    H2 8899   4.285   6.006   2.263  1.0868  0.0153 -0.1221
 2979TIP3   OH2 8900   2.015   1.050   4.250  0.5402 -0.0914  0.0448
 2979TIP3    H1 8901   1.933   1.015   4.213 -0.3139  1.1727  0.6778
 2979TIP3    H2 8902   2.044   0.983   4.311  0.5749 -1.0417 -0.9743
 2980TIP3   OH2 8903   5.407   2.400   5.370 -0.7016 -0.0355  0.7657
 2980TIP3    H1 8904   5.466   2.412   5.295  0.1267 -0.3429  1.3494
 2980TIP3    H2 8905   5.461   2.355   5.436 -1.0416  1.2752  1.9864
 2981TIP3   OH2 8906   2.355   2.474   3.559 -0.1512 -0.1510 -0.0855
 2981TIP3    H1 8907   2.399   2.390   3.543  0.0354 -0.2478  0.9133
 2981TIP3    H2 8908   2.420   2.525   3.607 -1.5400 -0.7414  2.5493
 2982TIP3   OH2 8909   0.639   3.259   1.861 -0.2316 -0.1728  1.0001
 2982TIP3    H1 8910   0.619   3.195   1.793  1.9480 -1.1556  1.1935
 2982TIP3    H2 8911   0.655   3.340   1.815 -0.4445 -0.4191  0.4909
 2983TIP3   OH2 8912   4.673   5.963   0.363  0.0623 -0.1721  0.1173
 2983TIP3    H1 8913   4.763   5.990   0.383  0.1067 -1.2569  1.5575
 2983TIP3    H2 8914   4.675   5.944   0.269  1.0800  0.7529 -0.0679
 2984TIP3   OH2 8915   6.825   4.306   4.205 -0.5882  0.4262 -0.2622
 2984TIP3    H1 8916   6.879   4.351   4.140  0.4417  0.3386  0.5148
 2984TIP3    H2 8917   6.798   4.376   4.265 -0.6015  0.3230 -0.1493
 2985TIP3   OH2 8918   4.668   1.542   1.960 -0.0717 -0.1896  0.3480
 2985TIP3    H1 8919   4.689   1.539   2.053 -0.1457 -1.0306  0.3491
 2985TIP3    H2 8920   4.593   1.601   1.953  0.6535  0.7857  0.6705
 2986TIP3   OH2 8921   2.980   5.353   4.768  0.3441 -0.0989 -0.3566
 2986TIP3    H1 8922   2.954   5.300   4.843 -2.2292 -1.2247 -1.9055
 2986TIP3    H2 8923   2.945   5.306   4.692  0.2368  2.4867 -2.0379
 2987TIP3   OH2 8924   1.499   4.531   3.578 -0.0823  0.1325  0.1651
 2987TIP3    H1 8925   1.501   4.554   3.671  1.3360  0.8259 -0.0051
 2987TIP3    H2 8926   1.587   4.498   3.560 -0.5518 -0.6306 -0.7829
 2988TIP3   OH2 8927   0.008   5.642   2.782  0.2423  0.2926  0.3016
 2988TIP3    H1 8928   0.098   5.621   2.759  0.0121 -0.7246  0.3006
 2988TIP3    H2 8929  -0.045   5.607   2.711 -0.2359 -0.0866  0.8368
 2989TIP3   OH2 8930   2.491   3.307   2.846 -0.3628 -0.4003 -0.2083
 2989TIP3    H1 8931   2.400   3.333   2.830  0.1680  1.5842 -0.3021
 2989TIP3    H2 8932   2.530   3.382   2.890  1.4025 -0.9397 -0.7600
 2990TIP3   OH2 8933   1.286   1.876   0.943 -0.4438 -0.1679 -0.0432
 2990TIP3    H1 8934   1.321   1.861   0.855  0.2617 -0.3053  0.2579
 2990TIP3    H2 8935   1.290   1.791   0.985 -1.3331 -0.2292 -0.0640
 2991TIP3   OH2 8936   0.807   2.293   3.537  0.4187 -0.3461 -0.1217
 2991TIP3    H1 8937   0.836   2.226   3.476  0.4754 -0.5247  0.0982
 2991TIP3    H2 8938   0.759   2.356   3.483  0.0439 -0.7548 -0.2765
 2992TIP3   OH2 8939   5.869   1.106   2.103 -1.0764 -0.2420 -0.5972
 2992TIP3    H1 8940   5.774   1.117   2.104 -0.9717  0.7291  0.8305
 2992TIP3    H2 8941   5.903   1.192   2.127  0.0871 -1.1831  1.2994
 2993TIP3   OH2 8942   6.765   2.300   0.554 -0.1408 -0.5261 -0.1330
 2993TIP3    H1 8943   6.754   2.243   0.478  1.2569  0.1069 -0.8458
 2993TIP3    H2 8944   6.736   2.247   0.628 -3.0687 -0.6507 -1.2115
 2994TIP3   OH2 8945   4.725   3.521   2.694 -0.0081 -0.5790  0.1782
 2994TIP3    H1 8946   4.736   3.442   2.746 -2.1280 -1.1415 -0.1529
 2994TIP3    H2 8947   4.648   3.564   2.731  0.9935  1.2831  0.2476
 2995TIP3   OH2 8948   1.009   3.765   4.248  0.2498 -0.7285  0.2552
 2995TIP3    H1 8949   0.925   3.752   4.203  0.2020  2.0792 -0.6537
 2995TIP3    H2 8950   1.073   3.722   4.192 -0.2286 -0.2939 -0.6342
 2996TIP3   OH2 8951   3.153   4.918   0.456 -0.4412 -0.8032 -0.0272
 2996TIP3    H1 8952   3.115   5.001   0.485 -0.2308 -0.5996 -0.3188
 2996TIP3    H2 8953   3.083   4.854   0.466 -0.2161 -0.8580  1.4367
 2997TIP3   OH2 8954   3.446   2.521   2.143 -0.1086  0.2027 -0.5273
 2997TIP3    H1 8955   3.353   2.512   2.160 -0.0092  0.4034  0.1698
 2997TIP3    H2 8956   3.465   2.459   2.072 -0.6583 -0.2342 -0.2917
 2998TIP3   OH2 8957   5.330   0.011   2.493 -0.4526 -0.3018 -0.1373
 2998TIP3    H1 8958   5.330   0.081   2.559 -0.0831 -0.9057  0.5176
 2998TIP3    H2 8959   5.238  -0.005   2.475 -0.6630 -1.5321  1.7789
 2999TIP3   OH2 8960   1.101   0.685   2.096 -0.4177  0.1892 -0.4773
 2999TIP3    H1 8961   1.009   0.713   2.094 -0.3101  0.6309 -2.9537
 2999TIP3    H2 8962   1.140   0.734   2.168 -1.5717  1.9548 -0.9938
 3000TIP3   OH2 8963   4.472   1.288   3.105 -0.2052 -0.0297 -0.0203
 3000TIP3    H1 8964   4.445   1.210   3.153 -1.0037  0.1479 -0.1767
 3000TIP3    H2 8965   4.397   1.310   3.050 -0.5876  1.7471  1.1360
 3001TIP3   OH2 8966   4.713   3.685   0.585 -0.0287  0.0483 -0.1857
 3001TIP3    H1 8967   4.642   3.721   0.532  1.2151  1.6345 -0.8392
 3001TIP3    H2 8968   4.698   3.719   0.673 -0.0037  0.5063 -0.3574
 3002TIP3   OH2 8969   2.089   5.015   5.611  0.4815 -0.4072  0.8295
 3002TIP3    H1 8970   2.161   4.974   5.657 -0.7516 -1.3141  2.0308
 3002TIP3    H2 8971   2.117   5.106   5.599  1.4582 -0.5099  2.0905
 3003TIP3   OH2 8972   2.724   5.537   1.215 -1.1815 -0.4304  0.5528
 3003TIP3    H1 8973   2.731   5.491   1.131  2.0156 -0.8626  0.9153
 3003TIP3    H2 8974   2.728   5.467   1.281 -0.1445  0.0867  1.0625
 3004TIP3   OH2 8975   4.557   0.056   0.638 -0.0900 -0.3968 -0.1902
 3004TIP3    H1 8976   4.632   0.079   0.693 -1.3947 -1.2142  2.0389
 3004TIP3    H2 8977   4.563  -0.039   0.627 -1.0369 -0.5397  0.4221
 3005TIP3   OH2 8978   6.642   2.002   2.006 -0.0775  0.5663 -0.6641
 3005TIP3    H1 8979   6.592   1.957   1.937  0.7318  0.8416 -1.4539
 3005TIP3    H2 8980   6.624   2.095   1.991  3.1482  0.9720 -3.0764
 3006TIP3   OH2 8981   1.637   0.181   1.216  0.2615 -0.5641  0.3247
 3006TIP3    H1 8982   1.639   0.134   1.299  0.1706  0.7762  1.1226
 3006TIP3    H2 8983   1.675   0.267   1.237  0.1005 -0.1546 -0.9886
 3007TIP3   OH2 8984   3.580   4.584   3.529  0.4166  0.0986 -0.1290
 3007TIP3    H1 8985   3.486   4.567   3.519  0.0757  0.7958  1.5993
 3007TIP3    H2 8986   3.622   4.508   3.488 -0.9130 -0.6683 -0.1365
 3008TIP3   OH2 8987   6.976   1.748   3.656  0.0228  0.9576 -0.3999
 3008TIP3    H1 8988   7.013   1.798   3.583  0.7200  0.2310 -0.5540
 3008TIP3    H2 8989   7.048   1.735   3.716  0.3572 -1.3940 -1.2072
 3009TIP3   OH2 8990   5.218   4.909   3.596 -0.2381  0.7694 -0.3921
 3009TIP3    H1 8991   5.141   4.854   3.611  0.5410 -0.1116  0.5789
 3009TIP3    H2 8992   5.271   4.858   3.535  0.3879  0.5175  0.3427
 3010TIP3   OH2 8993   3.901   3.304   4.995  0.1910 -0.3877  0.0124
 3010TIP3    H1 8994   3.824   3.357   4.976  0.1714 -0.5381 -0.3370
 3010TIP3    H2 8995   3.869   3.214   4.993  0.0124 -0.3802  1.6007
 3011TIP3   OH2 8996   4.658   6.687   1.577  0.7368 -0.1896  0.5697
 3011TIP3    H1 8997   4.610   6.659   1.499  0.4487 -0.5976  0.8923
 3011TIP3    H2 8998   4.673   6.606   1.626 -0.7473  0.3004  1.8803
 3012TIP3   OH2 8999   3.043   2.636   4.066  0.5273 -0.2611 -0.2777
 3012TIP3    H1 9000   2.986   2.648   4.142  0.2410 -0.5958 -0.4322
 3012TIP3    H2 9001   3.121   2.688   4.085  1.0093 -1.3304  0.8195
 3013TIP3   OH2 9002   6.281   1.933   5.405 -0.5255  0.1562  0.3546
 3013TIP3    H1 9003   6.295   1.999   5.473 -1.2904  1.6605 -0.9139
 3013TIP3    H2 9004   6.197   1.955   5.366 -0.7689 -1.5361 -0.1732
 3014TIP3   OH2 9005   0.052   4.792   2.505 -0.3701 -0.7159 -0.2823
 3014TIP3    H1 9006   0.037   4.819   2.596  1.1147  0.5151 -0.3686
 3014TIP3    H2 9007  -0.030   4.813   2.460  0.0629  2.0771  0.0486
 3015TIP3   OH2 9008   2.381   1.249   2.666  0.3235  0.1625  0.1364
 3015TIP3    H1 9009   2.439   1.200   2.608  1.5431  0.5621  0.9760
 3015TIP3    H2 9010   2.342   1.182   2.722  0.0799 -0.0932 -0.3329
 3016TIP3   OH2 9011   4.552   6.188   0.857 -0.1784 -0.2879 -0.5019
 3016TIP3    H1 9012   4.626   6.176   0.798  1.3155  0.4567  1.1503
 3016TIP3    H2 9013   4.576   6.263   0.911 -1.4591 -0.9525  1.0737
 3017TIP3   OH2 9014   5.504   4.276   1.618  0.0458  0.4282  0.2574
 3017TIP3    H1 9015   5.513   4.188   1.582  0.7778  0.1394  1.0909
 3017TIP3    H2 9016   5.489   4.262   1.712 -0.2207  1.1810  0.3362
 3018TIP3   OH2 9017   4.544   5.283   4.610 -0.2508 -0.1208 -0.5788
 3018TIP3    H1 9018   4.507   5.211   4.560 -0.1994 -0.6443  0.1257
 3018TIP3    H2 9019   4.523   5.263   4.701  2.2353 -0.7580 -0.0656
 3019TIP3   OH2 9020   5.680   3.538   2.546  0.5813  0.3933 -0.0240
 3019TIP3    H1 9021   5.667   3.445   2.530  1.9146 -0.3514  2.5416
 3019TIP3    H2 9022   5.604   3.564   2.599  0.5365  0.5900 -0.1860
 3020TIP3   OH2 9023   1.079   1.127   3.170  1.1283  0.0943 -0.0360
 3020TIP3    H1 9024   1.169   1.120   3.202  1.0780  2.5615  0.9178
 3020TIP3    H2 9025   1.036   1.185   3.233 -1.5115 -1.9101  0.1960
 3021TIP3   OH2 9026   0.666   3.050   5.393 -0.3919 -0.2264 -0.0044
 3021TIP3    H1 9027   0.607   3.123   5.373 -0.5045 -0.0992  0.7744
 3021TIP3    H2 9028   0.681   3.008   5.308 -0.9833  0.2050 -0.3333
 3022TIP3   OH2 9029   1.362   4.061   2.961 -0.1395 -0.3565  0.1443
 3022TIP3    H1 9030   1.325   4.139   2.919 -0.3662 -1.2507 -1.3604
 3022TIP3    H2 9031   1.456   4.073   2.955 -0.1720  0.0236  0.3588
 3023TIP3   OH2 9032   3.650   2.343   1.068 -0.2014 -0.2819 -0.3236
 3023TIP3    H1 9033   3.703   2.298   1.002 -0.1242 -1.2661  0.3846
 3023TIP3    H2 9034   3.714   2.376   1.130 -0.3788 -1.4571  0.5251
 3024TIP3   OH2 9035   0.297   1.438   3.492  0.2329  1.1300 -0.1393
 3024TIP3    H1 9036   0.368   1.421   3.554  0.2396  2.2980  0.2069
 3024TIP3    H2 9037   0.325   1.395   3.411 -0.4145 -1.6279  0.9813
 3025TIP3   OH2 9038   3.892   1.500   5.503  0.0618  0.2819  0.0102
 3025TIP3    H1 9039   3.903   1.542   5.589 -1.1845 -0.6380  0.6490
 3025TIP3    H2 9040   3.812   1.539   5.467 -1.1845 -1.5221  0.6613
 3026TIP3   OH2 9041   4.376   4.165   3.128 -0.3064  0.0989  0.0398
 3026TIP3    H1 9042   4.466   4.162   3.097 -0.6648  1.1429 -1.1704
 3026TIP3    H2 9043   4.383   4.166   3.224  0.9337 -0.2383 -0.0335
 3027TIP3   OH2 9044   6.012   0.526   4.361  0.1138  0.2071  0.6091
 3027TIP3    H1 9045   5.993   0.504   4.270  1.5763 -2.9175  0.9481
 3027TIP3    H2 9046   5.929   0.514   4.407  0.3776 -3.2478  0.4267
 3028TIP3   OH2 9047   5.316   3.434   2.241  0.2263  0.3050 -0.0973
 3028TIP3    H1 9048   5.402   3.476   2.239  0.0756  0.6051 -0.4775
 3028TIP3    H2 9049   5.264   3.488   2.301  0.3990 -0.0711  0.3954
 3029TIP3   OH2 9050   0.571   6.281   5.678  0.1359  0.0120 -0.6981
 3029TIP3    H1 9051   0.598   6.348   5.740 -0.1766  0.1435 -0.7037
 3029TIP3    H2 9052   0.475   6.287   5.675  0.2168  1.1067 -2.4285
 3030TIP3   OH2 9053   7.022   1.751   2.036  0.3105  0.6211 -0.5013
 3030TIP3    H1 9054   7.039   1.773   1.945 -0.6115  0.8738 -0.6258
 3030TIP3    H2 9055   6.927   1.760   2.045  0.2908 -0.2215  0.2655
 3031TIP3   OH2 9056   6.351   3.279   5.017  0.0284 -0.3721 -0.4311
 3031TIP3    H1 9057   6.363   3.276   5.112  0.6829 -1.4889 -0.5340
 3031TIP3    H2 9058   6.257   3.293   5.005 -0.3381 -1.8867  0.3883
 3032TIP3   OH2 9059   1.739   2.815   0.326  0.5639 -0.3170 -0.6811
 3032TIP3    H1 9060   1.831   2.789   0.330  1.0092  1.2632  0.2025
 3032TIP3    H2 9061   1.719   2.821   0.233  1.6134  0.1527 -0.8885
 3033TIP3   OH2 9062   0.224   3.377   3.288 -0.6150 -0.5275 -0.0799
 3033TIP3    H1 9063   0.192   3.301   3.238 -1.1753 -0.0129 -0.5210
 3033TIP3    H2 9064   0.310   3.396   3.251 -0.0022 -1.5838  0.7378
 3034TIP3   OH2 9065   6.705   4.711   0.292 -0.0647  0.6177  0.1768
 3034TIP3    H1 9066   6.679   4.619   0.296  0.2581  0.5725  1.6726
 3034TIP3    H2 9067   6.736   4.731   0.380  1.5947  1.6664 -0.5919
 3035TIP3   OH2 9068   7.227   4.038   0.212  0.1310  0.3929 -0.1787
 3035TIP3    H1 9069   7.194   4.026   0.302 -0.1612  0.8514 -0.2220
 3035TIP3    H2 9070   7.149   4.048   0.159  0.3197  0.7267 -0.3979
 3036TIP3   OH2 9071   6.486   2.408   5.133 -0.1506  0.0935  0.3418
 3036TIP3    H1 9072   6.395   2.427   5.111 -0.6735 -1.0602  1.3795
 3036TIP3    H2 9073   6.480   2.339   5.199  1.5227 -1.3460 -0.9458
 3037TIP3   OH2 9074   4.125   0.294   5.710  0.4065  0.3229 -0.0650
 3037TIP3    H1 9075   4.029   0.288   5.710  0.4300 -0.9284 -1.7260
 3037TIP3    H2 9076   4.151   0.264   5.622  2.4011 -1.0233  0.9044
 3038TIP3   OH2 9077   4.914   2.656   4.892  0.1721  0.3793  0.0714
 3038TIP3    H1 9078   4.940   2.609   4.813  0.1777  1.6216 -0.6913
 3038TIP3    H2 9079   4.959   2.611   4.963  1.9070  0.5572 -0.8757
 3039TIP3   OH2 9080   2.362   2.378   3.965 -0.4590 -0.3713 -0.0516
 3039TIP3    H1 9081   2.337   2.355   4.055 -2.7225 -0.6938 -0.7129
 3039TIP3    H2 9082   2.352   2.296   3.917 -1.0596  0.2256 -0.9553
 3040TIP3   OH2 9083   2.557   5.729   4.124  0.5313 -0.3101  0.0082
 3040TIP3    H1 9084   2.570   5.769   4.038 -1.3316  0.0425 -0.1385
 3040TIP3    H2 9085   2.513   5.796   4.175  2.5742 -0.1121  1.6322
 3041TIP3   OH2 9086   5.197   6.227   0.352 -0.7058 -0.4308  0.2943
 3041TIP3    H1 9087   5.138   6.292   0.314  1.2837  1.7625  0.7382
 3041TIP3    H2 9088   5.176   6.146   0.305 -2.1104  0.8962 -1.5473
 3042TIP3   OH2 9089   6.176   2.733   5.531 -0.3056 -0.0348 -0.3346
 3042TIP3    H1 9090   6.093   2.686   5.515 -0.0313 -0.7814  0.3576
 3042TIP3    H2 9091   6.165   2.816   5.486 -0.0803 -1.4744 -3.2715
 3043TIP3   OH2 9092   6.318   0.351   3.002 -0.1504  0.0017 -0.0260
 3043TIP3    H1 9093   6.413   0.357   3.008  0.4268 -3.3349 -2.6729
 3043TIP3    H2 9094   6.293   0.292   3.073  0.1753 -1.1495 -0.8330
 3044TIP3   OH2 9095   2.974   5.810   4.672 -0.3187 -0.2603 -0.0991
 3044TIP3    H1 9096   2.880   5.796   4.679 -0.3386 -0.4836 -0.7113
 3044TIP3    H2 9097   3.011   5.770   4.750 -0.6155 -1.3857 -0.5156
 3045TIP3   OH2 9098   5.825   0.843   3.674  0.2962  0.0200  0.2047
 3045TIP3    H1 9099   5.799   0.759   3.636 -0.0692  1.0075 -1.8225
 3045TIP3    H2 9100   5.918   0.833   3.692  0.4051 -0.5949 -0.6535
 3046TIP3   OH2 9101   2.556   2.683   0.252  0.0654  0.4421  0.4236
 3046TIP3    H1 9102   2.507   2.742   0.309 -1.0960  0.1378 -0.2214
 3046TIP3    H2 9103   2.614   2.739   0.202  0.7756  0.7603  1.5693
 3047TIP3   OH2 9104   6.118   4.513   0.697  0.2387 -0.2561 -0.2121
 3047TIP3    H1 9105   6.101   4.606   0.712  1.2318 -0.2767  1.1451
 3047TIP3    H2 9106   6.189   4.512   0.633  1.1887 -0.0348  0.8101
 3048TIP3   OH2 9107   2.724   6.287   3.506  0.4711  0.4452 -0.0944
 3048TIP3    H1 9108   2.704   6.378   3.484 -1.4763  0.0878 -0.0394
 3048TIP3    H2 9109   2.803   6.291   3.559 -1.9412  2.6783  3.8653
 3049TIP3   OH2 9110   4.784   0.249   3.200 -0.3104  0.0327 -0.3051
 3049TIP3    H1 9111   4.730   0.306   3.145  0.1946 -0.3245 -1.2061
 3049TIP3    H2 9112   4.776   0.163   3.161  0.9897 -0.0049 -0.5470
 3050TIP3   OH2 9113   1.528   0.542   1.422  0.2571 -0.0727  0.6892
 3050TIP3    H1 9114   1.469   0.592   1.366  1.7587 -0.3111 -1.1690
 3050TIP3    H2 9115   1.598   0.603   1.444  2.0200 -1.1970 -1.4604
 3051TIP3   OH2 9116   2.509   2.808   0.646  0.6626 -0.4913 -0.0596
 3051TIP3    H1 9117   2.444   2.739   0.664 -0.7431  0.7645 -0.1352
 3051TIP3    H2 9118   2.488   2.837   0.557 -0.0796  1.3646  0.6790
 3052TIP3   OH2 9119   2.149   0.251   1.981  0.0051 -0.6393  0.9302
 3052TIP3    H1 9120   2.149   0.167   2.026  1.4046 -1.9748 -1.4064
 3052TIP3    H2 9121   2.225   0.297   2.018  0.8158 -1.5025  0.3988
 3053TIP3   OH2 9122   1.255   6.558   4.055 -0.6477 -0.0700 -0.2958
 3053TIP3    H1 9123   1.198   6.490   4.020 -1.1580  1.2900 -2.2267
 3053TIP3    H2 9124   1.331   6.510   4.090 -1.4142 -1.6719 -0.7500
 3054TIP3   OH2 9125   1.945   3.522   2.163  0.5598 -0.1313 -0.5025
 3054TIP3    H1 9126   1.869   3.566   2.200  0.1465 -0.5390 -0.8638
 3054TIP3    H2 9127   1.938   3.536   2.069  0.5320 -0.7993 -0.6006
 3055TIP3   OH2 9128   2.708   0.168   5.668  0.2363 -0.1116  0.1245
 3055TIP3    H1 9129   2.768   0.093   5.666 -0.1025 -0.4458  1.5134
 3055TIP3    H2 9130   2.647   0.147   5.738 -1.1898  0.4859 -0.9017
 3056TIP3   OH2 9131   4.366   4.435   5.410  0.3367 -0.7063 -0.9055
 3056TIP3    H1 9132   4.366   4.340   5.420  0.0306 -0.7725 -1.4499
 3056TIP3    H2 9133   4.454   4.456   5.379  0.7608 -0.6782  0.2702
 3057TIP3   OH2 9134   3.520   5.359   2.913  0.4529  0.4557  0.1813
 3057TIP3    H1 9135   3.458   5.370   2.840 -0.2657 -3.0164  0.0458
 3057TIP3    H2 9136   3.603   5.339   2.871  0.4014  0.0123  0.2763
 3058TIP3   OH2 9137   5.868   6.347   3.795  0.0222  0.3651 -0.1209
 3058TIP3    H1 9138   5.947   6.348   3.849 -0.7822 -0.4929  1.1230
 3058TIP3    H2 9139   5.884   6.277   3.731  0.2868  0.2013  0.1215
 3059TIP3   OH2 9140   4.542   2.952   4.540  0.2643  0.0699 -0.5570
 3059TIP3    H1 9141   4.606   2.948   4.611  0.1322 -1.1903 -0.4954
 3059TIP3    H2 9142   4.591   2.985   4.465  0.6351  0.4781 -0.1420
 3060TIP3   OH2 9143   5.574   6.525   4.439 -0.6322  0.3228  0.3765
 3060TIP3    H1 9144   5.492   6.482   4.461  0.1281 -1.4776 -0.1340
 3060TIP3    H2 9145   5.596   6.492   4.352  1.6883 -0.9615  1.3631
 3061TIP3   OH2 9146   7.235   1.133   5.483 -0.1405  0.2315 -0.8797
 3061TIP3    H1 9147   7.213   1.225   5.477 -0.9585  0.1889  0.8632
 3061TIP3    H2 9148   7.152   1.087   5.469 -0.2625 -0.1120  0.7008
 3062TIP3   OH2 9149   4.261   6.668   2.528 -0.4083  0.1481 -0.2900
 3062TIP3    H1 9150   4.314   6.736   2.570  1.6893  0.2663 -2.8260
 3062TIP3    H2 9151   4.222   6.713   2.452  1.4864 -1.4498 -2.3580
 3063TIP3   OH2 9152   6.268   2.360   2.632  0.1691  0.5010 -0.1251
 3063TIP3    H1 9153   6.358   2.390   2.621 -0.3708  1.9584 -0.8093
 3063TIP3    H2 9154   6.256   2.355   2.727  1.0533 -0.0211 -0.0276
 3064TIP3   OH2 9155   2.389   0.068   1.019 -0.0283 -0.0400 -0.5754
 3064TIP3    H1 9156   2.350  -0.017   1.038 -0.3632  0.3326  0.4849
 3064TIP3    H2 9157   2.317   0.122   0.985 -0.1766  0.2738  0.2127
 3065TIP3   OH2 9158   6.176   4.946   3.305 -0.3272  0.3301 -0.2926
 3065TIP3    H1 9159   6.205   4.885   3.373  0.6989  1.4575  0.3171
 3065TIP3    H2 9160   6.151   5.025   3.352 -2.4400  0.1499 -1.0085
 3066TIP3   OH2 9161   4.958   3.836   1.595  0.3663 -0.1351  0.4403
 3066TIP3    H1 9162   4.953   3.894   1.670 -0.5594 -1.0450  1.1144
 3066TIP3    H2 9163   5.028   3.774   1.617  1.7332  1.0107 -0.5172
 3067TIP3   OH2 9164   5.145   4.582   4.488  0.2848 -0.0119 -0.1293
 3067TIP3    H1 9165   5.234   4.559   4.461  0.7302  0.7607  0.6185
 3067TIP3    H2 9166   5.089   4.520   4.441  1.2562 -0.9619 -0.0873
 3068TIP3   OH2 9167   6.864   0.411   4.361 -0.6651 -0.1151  0.6322
 3068TIP3    H1 9168   6.788   0.421   4.303 -0.1778  0.8269  0.1365
 3068TIP3    H2 9169   6.830   0.363   4.436 -1.4515 -0.8208 -0.1548
 3069TIP3   OH2 9170   4.661   0.518   4.660 -0.4954  0.2516 -0.4244
 3069TIP3    H1 9171   4.628   0.487   4.744 -0.3621  0.9057 -0.1224
 3069TIP3    H2 9172   4.584   0.547   4.612 -0.6765 -0.9427 -0.8931
 3070TIP3   OH2 9173   6.343   1.537   2.452  0.0965 -0.3679 -0.2550
 3070TIP3    H1 9174   6.389   1.485   2.387  3.4159  1.2400  0.5486
 3070TIP3    H2 9175   6.389   1.518   2.534 -3.2039 -1.4713  1.5039
 3071TIP3   OH2 9176   3.695   3.195   3.848 -0.3805  0.0298 -0.4112
 3071TIP3    H1 9177   3.606   3.167   3.866  0.3568 -1.4519  1.2360
 3071TIP3    H2 9178   3.725   3.233   3.931  0.8222 -0.3742 -0.6474
 3072TIP3   OH2 9179   6.473   3.655   1.872 -0.6351 -0.6312 -0.0151
 3072TIP3    H1 9180   6.437   3.569   1.892 -1.2677 -0.6911 -1.3247
 3072TIP3    H2 9181   6.452   3.669   1.780  0.3301  0.5042 -0.0825
 3073TIP3   OH2 9182   6.269   2.464   1.563  0.4039 -0.2320  0.1016
 3073TIP3    H1 9183   6.198   2.409   1.594 -0.3045  0.1920 -0.7332
 3073TIP3    H2 9184   6.236   2.553   1.570  0.3680 -0.1013 -1.4333
 3074TIP3   OH2 9185   6.555   6.521   0.745  0.4567 -0.0813 -0.2223
 3074TIP3    H1 9186   6.542   6.572   0.665 -2.2578  1.0969  0.8458
 3074TIP3    H2 9187   6.512   6.437   0.727 -0.7902  0.4420  0.1675
 3075TIP3   OH2 9188   0.797   0.705   0.224 -1.1552 -0.1838  0.7279
 3075TIP3    H1 9189   0.874   0.755   0.252 -1.0551  0.5314 -0.7230
 3075TIP3    H2 9190   0.830   0.616   0.212 -0.9704 -0.2731  1.8084
 3076TIP3   OH2 9191   0.983   5.747   2.420 -0.2134 -0.1273 -0.6023
 3076TIP3    H1 9192   0.982   5.732   2.514 -1.6263  1.0169 -0.4131
 3076TIP3    H2 9193   1.021   5.666   2.384  1.1007 -0.2675  0.9646
 3077TIP3   OH2 9194   2.075   2.271   2.047  0.0107  0.2917  0.0351
 3077TIP3    H1 9195   2.169   2.280   2.063  0.1820 -0.0126 -0.7304
 3077TIP3    H2 9196   2.041   2.360   2.050  0.8025  0.7402 -2.4288
 3078TIP3   OH2 9197   1.414   0.558   5.153 -0.2622 -0.0627  0.3861
 3078TIP3    H1 9198   1.435   0.598   5.069 -1.6350  1.2922  0.6418
 3078TIP3    H2 9199   1.350   0.490   5.132 -0.6738  0.3364  0.3451
 3079TIP3   OH2 9200   2.507   6.644   2.284  0.8064  0.1024  0.1547
 3079TIP3    H1 9201   2.520   6.571   2.344 -3.2004  0.3814  1.6748
 3079TIP3    H2 9202   2.446   6.612   2.219 -1.1174  1.9968  0.9041
 3080TIP3   OH2 9203   2.493   3.091   3.041  0.3282  0.2226 -0.0411
 3080TIP3    H1 9204   2.517   3.172   2.997 -2.4084  1.8187  1.1824
 3080TIP3    H2 9205   2.510   3.107   3.134  0.5556 -0.9546  0.1463
 3081TIP3   OH2 9206   2.223   2.942   3.133  0.2370  0.1622  0.4903
 3081TIP3    H1 9207   2.301   2.946   3.078  1.3897  1.1522  2.1373
 3081TIP3    H2 9208   2.217   2.851   3.160  1.6459  0.3180  1.4393
 3082TIP3   OH2 9209   2.634   1.709   3.269  0.2609 -0.2813 -0.0561
 3082TIP3    H1 9210   2.708   1.769   3.258  0.8807 -1.0459 -0.1731
 3082TIP3    H2 9211   2.595   1.702   3.182 -0.3052  0.5594  0.1213
 3083TIP3   OH2 9212   1.732   1.556   0.094  0.1615 -0.7342 -0.2194
 3083TIP3    H1 9213   1.689   1.510   0.022  1.3051 -0.6139 -1.0019
 3083TIP3    H2 9214   1.815   1.511   0.106  0.6210  0.1459  0.0481
 3084TIP3   OH2 9215   4.713   3.983   0.561  0.1734  0.0525 -0.0124
 3084TIP3    H1 9216   4.783   3.949   0.506  1.4748 -0.0934  1.6464
 3084TIP3    H2 9217   4.643   4.005   0.500  1.9774  1.0580 -1.8513
 3085TIP3   OH2 9218   4.456   2.458   3.200  0.5828 -0.2998  0.3881
 3085TIP3    H1 9219   4.462   2.391   3.268  0.2139  0.0123  0.7332
 3085TIP3    H2 9220   4.547   2.487   3.187  0.8482 -1.3960 -0.3124
 3086TIP3   OH2 9221   1.152   0.362   3.216  0.1195  0.8173  0.0902
 3086TIP3    H1 9222   1.057   0.364   3.222  0.0085 -0.9042 -0.5536
 3086TIP3    H2 9223   1.182   0.392   3.302 -0.9371  2.9065 -0.1978
 3087TIP3   OH2 9224   0.595   5.062   1.968 -0.0390 -0.6521 -0.5563
 3087TIP3    H1 9225   0.615   5.011   1.889 -0.8173 -1.0456 -0.5028
 3087TIP3    H2 9226   0.571   4.997   2.033  1.9436 -0.4488  0.4519
 3088TIP3   OH2 9227   4.804   1.660   3.458  0.4612  0.1053 -0.1562
 3088TIP3    H1 9228   4.783   1.744   3.417  0.7116  0.4890  0.4997
 3088TIP3    H2 9229   4.899   1.664   3.473  0.5527 -0.4856 -0.5395
 3089TIP3   OH2 9230   4.429   6.244   4.750 -0.2264 -0.0167  0.0490
 3089TIP3    H1 9231   4.426   6.270   4.658  0.9522 -1.3915 -0.4327
 3089TIP3    H2 9232   4.497   6.299   4.788 -0.0172 -0.1223 -0.1645
 3090TIP3   OH2 9233   0.722   3.164   3.571  0.1206 -0.4147 -0.0964
 3090TIP3    H1 9234   0.780   3.089   3.562 -0.6058 -0.8913 -1.0557
 3090TIP3    H2 9235   0.778   3.240   3.561  0.9195 -0.8076  1.1954
 3091TIP3   OH2 9236   0.880   6.124   1.801  0.7276 -0.3220  0.1563
 3091TIP3    H1 9237   0.840   6.192   1.855  0.6758  0.0999 -0.4076
 3091TIP3    H2 9238   0.867   6.044   1.852 -2.3939 -0.5290 -0.7225
 3092TIP3   OH2 9239   6.616   1.837   1.772 -0.2745  0.3927 -0.3751
 3092TIP3    H1 9240   6.689   1.791   1.730  0.0096  0.5441 -0.0601
 3092TIP3    H2 9241   6.582   1.775   1.836 -0.5444  0.2528 -0.6572
 3093TIP3   OH2 9242   6.969   4.936   5.183 -0.2514 -0.2980  0.4936
 3093TIP3    H1 9243   7.028   4.932   5.108 -0.4566  0.6918  0.2547
 3093TIP3    H2 9244   6.960   5.030   5.200 -2.6801 -0.3432 -0.2122
 3094TIP3   OH2 9245   1.340   3.920   4.067  0.2890  0.0063 -0.3144
 3094TIP3    H1 9246   1.284   3.890   4.138 -1.0340  0.4653 -1.1237
 3094TIP3    H2 9247   1.399   3.846   4.050 -0.6115 -0.8136  0.0287
 3095TIP3   OH2 9248   4.699   2.104   1.302  0.2955 -0.3179  0.3864
 3095TIP3    H1 9249   4.747   2.135   1.225  0.0365  0.7042  0.6259
 3095TIP3    H2 9250   4.625   2.055   1.266  0.2043  0.1100 -0.0104
 3096TIP3   OH2 9251   2.266   3.563   1.666 -0.2240 -0.7975 -0.5217
 3096TIP3    H1 9252   2.323   3.523   1.601  1.9227 -0.6552  1.1541
 3096TIP3    H2 9253   2.254   3.495   1.733 -1.9823 -0.7853 -0.7796
 3097TIP3   OH2 9254   6.882   0.090   1.076  0.0362 -0.6881  0.5452
 3097TIP3    H1 9255   6.952   0.025   1.085  2.8838  2.1555  0.6046
 3097TIP3    H2 9256   6.893   0.146   1.153 -1.7891  0.3563  0.0790
 3098TIP3   OH2 9257   0.132   1.304   4.241 -0.1760  0.0411  0.2101
 3098TIP3    H1 9258   0.176   1.256   4.171 -0.4306  1.4442 -0.9585
 3098TIP3    H2 9259   0.115   1.238   4.308  0.6792 -1.2064 -0.7478
 3099TIP3   OH2 9260   3.336   5.444   5.700 -0.3280 -0.4041 -0.5503
 3099TIP3    H1 9261   3.399   5.425   5.769  0.5612  0.0476 -1.2099
 3099TIP3    H2 9262   3.379   5.510   5.646  0.0113 -2.3486 -2.8473
 3100TIP3   OH2 9263   1.738   1.678   1.226 -0.0132  0.0340  0.3700
 3100TIP3    H1 9264   1.792   1.684   1.147  2.2290 -1.7838  1.6321
 3100TIP3    H2 9265   1.692   1.595   1.218 -0.9868  0.5648  0.3030
 3101TIP3   OH2 9266   1.873   1.027   0.658  0.1345 -0.4719 -0.3161
 3101TIP3    H1 9267   1.845   1.119   0.660 -1.1969 -0.8660  0.6201
 3101TIP3    H2 9268   1.959   1.029   0.616  0.2844  1.2432 -0.0117
 3102TIP3   OH2 9269   6.420   0.581   4.187  0.4345  0.1565 -0.0222
 3102TIP3    H1 9270   6.389   0.560   4.276 -0.0207 -0.7347 -0.3780
 3102TIP3    H2 9271   6.350   0.549   4.130  0.7390  0.7037 -0.7061
 3103TIP3   OH2 9272   0.879   3.084   0.978 -0.2701  0.5419 -0.4705
 3103TIP3    H1 9273   0.905   3.136   1.054 -0.3859 -0.1348  0.0452
 3103TIP3    H2 9274   0.942   3.013   0.975 -1.1395 -0.2675 -0.1062
 3104TIP3   OH2 9275   0.543   1.410   3.633 -0.0860 -0.7065  0.2879
 3104TIP3    H1 9276   0.551   1.409   3.728 -0.4003 -1.6604  0.3168
 3104TIP3    H2 9277   0.623   1.368   3.601  0.4219  0.3869  0.0861
 3105TIP3   OH2 9278   4.226   6.187   1.038  0.4702  0.2474  0.0131
 3105TIP3    H1 9279   4.237   6.134   1.117  1.7233 -0.7567 -0.7901
 3105TIP3    H2 9280   4.286   6.260   1.049  0.2350  0.4083  0.2303
 3106TIP3   OH2 9281   1.332   3.126   3.840  0.1828 -0.2993  0.0416
 3106TIP3    H1 9282   1.272   3.191   3.804 -1.4401 -2.0687 -0.6112
 3106TIP3    H2 9283   1.295   3.104   3.926  1.0564  0.0365  0.5180
 3107TIP3   OH2 9284   7.080   6.201   3.314 -0.0327  0.0299  0.0302
 3107TIP3    H1 9285   7.107   6.261   3.384  1.0057 -1.7509  1.2487
 3107TIP3    H2 9286   7.111   6.243   3.234 -1.5496  2.3016  0.5109
 3108TIP3   OH2 9287   5.838   5.994   5.887  0.6655 -0.0548 -0.6963
 3108TIP3    H1 9288   5.847   6.086   5.864  1.8057 -0.3284 -1.4787
 3108TIP3    H2 9289   5.786   5.956   5.817 -0.7223  0.1770  0.1788
 3109TIP3   OH2 9290   6.643   2.252   3.833 -0.1107  0.3126  0.6358
 3109TIP3    H1 9291   6.630   2.300   3.751 -0.3338 -1.4844 -0.4460
 3109TIP3    H2 9292   6.674   2.318   3.895  0.1735  1.7123 -0.9140
 3110TIP3   OH2 9293   4.481   4.901   3.718 -0.0991 -0.1688 -0.5348
 3110TIP3    H1 9294   4.428   4.973   3.683 -1.3340 -1.0655 -0.5787
 3110TIP3    H2 9295   4.504   4.849   3.641  1.2403  0.4369 -0.5718
 3111TIP3   OH2 9296   6.229   5.017   0.637  0.2047  0.5397  0.2445
 3111TIP3    H1 9297   6.196   4.928   0.631  1.2919  0.1601 -0.3126
 3111TIP3    H2 9298   6.324   5.008   0.637  0.3905  1.5199  2.9163
 3112TIP3   OH2 9299   4.539   5.290   3.626 -0.4296 -0.1324 -0.9052
 3112TIP3    H1 9300   4.523   5.353   3.697 -2.1070 -0.2823 -1.1080
 3112TIP3    H2 9301   4.516   5.337   3.546 -2.1531 -1.0901 -1.0254
 3113TIP3   OH2 9302   6.244   4.902   2.038  0.0602  0.5204 -0.5943
 3113TIP3    H1 9303   6.243   4.984   1.988  0.4641 -0.2274 -1.8670
 3113TIP3    H2 9304   6.164   4.857   2.012 -0.0136  0.3647 -0.1169
 3114TIP3   OH2 9305   6.927   5.640   0.912  0.1617 -0.4812  0.1559
 3114TIP3    H1 9306   6.985   5.654   0.987  0.8273 -1.2842 -0.1881
 3114TIP3    H2 9307   6.839   5.657   0.946  0.4762 -0.5811  1.0558
 3115TIP3   OH2 9308   1.897   5.927   2.261  0.0797  0.0130 -0.0843
 3115TIP3    H1 9309   1.827   5.938   2.198 -1.1481 -0.4305  1.1601
 3115TIP3    H2 9310   1.929   6.016   2.277 -1.2010  0.4055  0.4190
 3116TIP3   OH2 9311   6.600   4.792   2.484 -0.2458  0.2008 -0.0958
 3116TIP3    H1 9312   6.624   4.717   2.430 -1.7192  0.8025 -1.6604
 3116TIP3    H2 9313   6.505   4.791   2.487 -0.2653  1.5619  0.5382
 3117TIP3   OH2 9314   1.081   4.339   0.594 -0.5383 -0.0420 -0.4727
 3117TIP3    H1 9315   1.141   4.274   0.557 -1.7950 -0.8238 -1.2057
 3117TIP3    H2 9316   1.032   4.291   0.660 -2.7024 -0.3879 -2.2180
 3118TIP3   OH2 9317   3.393   2.254   1.255  0.1285 -0.2507  0.1787
 3118TIP3    H1 9318   3.415   2.343   1.230  1.4684 -0.5005  0.4011
 3118TIP3    H2 9319   3.359   2.261   1.344 -1.4627  0.2237 -0.4257
 3119TIP3   OH2 9320   5.106   3.653   2.760 -0.3322  0.1075  0.2470
 3119TIP3    H1 9321   5.115   3.566   2.722 -1.7284 -0.1367  0.4248
 3119TIP3    H2 9322   5.145   3.712   2.695 -0.4579 -0.5399 -0.4200
 3120TIP3   OH2 9323   5.089   3.063   5.692  0.5996  0.1283 -0.0899
 3120TIP3    H1 9324   5.095   2.974   5.657 -1.3760 -0.5082  1.0866
 3120TIP3    H2 9325   5.126   3.057   5.780 -1.4815 -0.0740  0.8230
 3121TIP3   OH2 9326   4.199   4.996   0.034  0.0479  0.0253  0.0310
 3121TIP3    H1 9327   4.196   4.904   0.009 -0.8101  0.6195 -2.3200
 3121TIP3    H2 9328   4.292   5.014   0.050  0.3447 -1.0016 -0.5038
 3122TIP3   OH2 9329   0.900   2.735   5.789  0.3729  0.3532 -0.1815
 3122TIP3    H1 9330   0.811   2.717   5.759  0.5630 -0.1763 -0.4323
 3122TIP3    H2 9331   0.915   2.671   5.858  1.2664 -0.9028 -1.4866
 3123TIP3   OH2 9332   6.892   0.773   1.112  0.0281  0.1398 -0.5773
 3123TIP3    H1 9333   6.971   0.790   1.163 -0.3067  1.1509 -0.3629
 3123TIP3    H2 9334   6.914   0.697   1.058  0.4080 -0.9227  1.0055
 3124TIP3   OH2 9335   1.583   5.040   4.582  0.0330  0.1178  0.1228
 3124TIP3    H1 9336   1.489   5.032   4.599  0.2750 -2.0904  0.7118
 3124TIP3    H2 9337   1.621   5.053   4.669  0.5024 -2.4077  0.3850
 3125TIP3   OH2 9338   1.473   6.320   2.407 -0.1601 -0.1637  0.2178
 3125TIP3    H1 9339   1.541   6.253   2.412 -1.0997 -1.5025 -2.7031
 3125TIP3    H2 9340   1.412   6.297   2.477  0.9170 -0.6434  1.0410
 3126TIP3   OH2 9341   2.639   4.432   5.397  0.1792 -0.5603 -0.4624
 3126TIP3    H1 9342   2.665   4.518   5.364 -0.3154  0.7082  2.1838
 3126TIP3    H2 9343   2.605   4.386   5.320  0.3689  1.6242 -1.9490
 3127TIP3   OH2 9344   0.083   3.055  -0.002  0.0849 -0.4311  0.3520
 3127TIP3    H1 9345   0.113   3.105   0.073 -1.1251 -0.8879  1.1747
 3127TIP3    H2 9346   0.028   3.116  -0.051 -0.6742 -0.6626  0.8850
 3128TIP3   OH2 9347   5.053   5.882   3.522 -0.4036  0.5901 -0.4483
 3128TIP3    H1 9348   5.122   5.816   3.529 -1.3922 -0.3496  0.9747
 3128TIP3    H2 9349   5.099   5.962   3.496  1.0341 -0.2934 -0.7371
 3129TIP3   OH2 9350   4.183   0.163   0.037 -0.6732  0.0980 -0.3858
 3129TIP3    H1 9351   4.206   0.103  -0.034 -0.5783  0.5402 -0.7389
 3129TIP3    H2 9352   4.213   0.248   0.005  3.7444 -0.2541  2.0533
 3130TIP3   OH2 9353   4.035   5.271   2.894 -0.0860  0.2103 -0.1298
 3130TIP3    H1 9354   3.961   5.292   2.951  0.3548  1.2245  0.0855
 3130TIP3    H2 9355   4.035   5.341   2.828  1.2597  0.7823  0.4505
 3131TIP3   OH2 9356   3.798   6.411   1.711  0.1777 -0.0059 -0.5649
 3131TIP3    H1 9357   3.871   6.470   1.693 -0.1330  0.7608  0.5995
 3131TIP3    H2 9358   3.736   6.427   1.640  0.3377  0.6708 -0.5551
 3132TIP3   OH2 9359   0.261   1.558   4.233 -0.1236  0.2609 -0.3889
 3132TIP3    H1 9360   0.202   1.487   4.259 -0.6509  0.6090 -0.6105
 3132TIP3    H2 9361   0.219   1.597   4.156 -1.1318  2.3405  1.1020
 3133TIP3   OH2 9362   3.792   1.184   4.504 -0.1228  0.6064  0.3158
 3133TIP3    H1 9363   3.877   1.149   4.475 -0.9401 -0.5565 -0.7945
 3133TIP3    H2 9364   3.787   1.159   4.596  1.0536  1.3559  0.6059
 3134TIP3   OH2 9365   4.713   1.770   1.400  0.1739  0.6408  0.0605
 3134TIP3    H1 9366   4.676   1.744   1.485 -0.1646  0.6930 -0.0696
 3134TIP3    H2 9367   4.641   1.758   1.338  0.1769  1.3526 -0.0915
 3135TIP3   OH2 9368   0.052   3.236   4.562  0.3531  0.3407 -0.1115
 3135TIP3    H1 9369   0.082   3.326   4.552  0.3891  0.2452 -0.9494
 3135TIP3    H2 9370  -0.041   3.239   4.541 -0.1344  0.5218  1.8423
 3136TIP3   OH2 9371   3.141   0.946   4.890  0.0394  0.1701  0.0377
 3136TIP3    H1 9372   3.149   0.907   4.803 -1.7260 -1.1402  0.3869
 3136TIP3    H2 9373   3.196   0.891   4.946 -1.6304 -1.3055  0.3377
 3137TIP3   OH2 9374   4.127   6.586   1.758  0.0720  0.3404 -0.0466
 3137TIP3    H1 9375   4.149   6.611   1.668 -0.6964  2.0196  0.1955
 3137TIP3    H2 9376   4.050   6.639   1.780  0.0228 -0.3048  1.4800
 3138TIP3   OH2 9377   2.686   0.837   2.818 -0.3130 -0.3371 -0.0290
 3138TIP3    H1 9378   2.712   0.801   2.733 -1.8923  0.9521 -1.1341
 3138TIP3    H2 9379   2.667   0.929   2.799 -2.1785 -0.3872  1.3866
 3139TIP3   OH2 9380   1.006   2.416   3.348  0.2962 -0.8478 -0.2605
 3139TIP3    H1 9381   0.923   2.425   3.394  0.0442 -1.3724 -0.5972
 3139TIP3    H2 9382   1.072   2.446   3.410 -0.0933 -0.9542  0.2089
 3140TIP3   OH2 9383   5.814   4.041   1.270  0.1192 -0.0587 -0.3825
 3140TIP3    H1 9384   5.749   4.109   1.254 -0.4982 -0.0329  1.8524
 3140TIP3    H2 9385   5.898   4.083   1.253 -0.1928  1.6342  1.8442
 3141TIP3   OH2 9386   0.370   6.086   2.399  0.7472  0.4739  0.4765
 3141TIP3    H1 9387   0.333   6.084   2.487 -0.0994  2.1129  0.1987
 3141TIP3    H2 9388   0.420   6.168   2.396 -0.1501  1.0128 -0.8818
 3142TIP3   OH2 9389   4.092   3.901   2.845 -0.1723 -0.3551  0.0438
 3142TIP3    H1 9390   4.129   3.902   2.934  0.3255 -0.6403 -0.1576
 3142TIP3    H2 9391   4.004   3.867   2.857  0.3650 -1.7360  0.2591
 3143TIP3   OH2 9392   3.333   4.549   4.869 -0.0777 -0.3823 -0.6787
 3143TIP3    H1 9393   3.282   4.623   4.904  1.7975  1.3079 -1.3031
 3143TIP3    H2 9394   3.286   4.524   4.789 -0.9024 -0.0687 -0.3093
 3144TIP3   OH2 9395   5.930   5.060   0.388  0.6689 -0.3608  0.0557
 3144TIP3    H1 9396   5.968   5.071   0.476 -2.2568  1.0467  1.2790
 3144TIP3    H2 9397   5.900   5.147   0.363  0.8301 -0.8695 -2.0784
 3145TIP3   OH2 9398   0.792   5.994   5.782  0.2628  0.8554 -0.0272
 3145TIP3    H1 9399   0.850   5.950   5.720 -0.5080  0.1523 -0.2698
 3145TIP3    H2 9400   0.805   5.947   5.865  1.0861  1.6185  0.2981
 3146TIP3   OH2 9401   2.393   5.546   0.174 -0.4335 -0.3419 -0.2950
 3146TIP3    H1 9402   2.313   5.591   0.202  0.3625  1.7927 -1.2555
 3146TIP3    H2 9403   2.464   5.595   0.216  0.4325 -1.4961 -0.3760
 3147TIP3   OH2 9404   4.424   0.967   0.155 -0.8746 -0.4965 -0.4241
 3147TIP3    H1 9405   4.477   0.991   0.079  0.2793 -0.4363  0.3746
 3147TIP3    H2 9406   4.436   1.039   0.217  0.9349 -2.0540  1.1604
 3148TIP3   OH2 9407   5.183   4.620   0.576 -0.3281  0.1400 -0.1682
 3148TIP3    H1 9408   5.203   4.709   0.605  0.3743  0.1954 -0.7893
 3148TIP3    H2 9409   5.088   4.612   0.587 -0.2386  0.5613  0.9752
 3149TIP3   OH2 9410   4.454   0.808   5.369  0.0347 -0.2542  0.2517
 3149TIP3    H1 9411   4.487   0.867   5.436  2.2085  1.1256 -1.8733
 3149TIP3    H2 9412   4.531   0.783   5.318 -1.3836 -1.9546 -1.2053
 3150TIP3   OH2 9413   0.869   4.807   1.629  0.0514 -0.3033 -0.1464
 3150TIP3    H1 9414   0.807   4.809   1.702 -0.4396  1.4923 -0.5381
 3150TIP3    H2 9415   0.821   4.765   1.558 -0.1255 -0.4098  0.0364
 3151TIP3   OH2 9416   2.820   0.306   2.119  0.0907 -0.4478  0.5018
 3151TIP3    H1 9417   2.875   0.362   2.173  0.7164 -1.0675  0.5241
 3151TIP3    H2 9418   2.879   0.273   2.051 -0.4254 -0.5514  0.0961
 3152TIP3   OH2 9419   2.178   5.316   0.338 -0.4921  0.1816  0.2351
 3152TIP3    H1 9420   2.217   5.296   0.423  0.7476 -1.2153 -0.6245
 3152TIP3    H2 9421   2.213   5.250   0.279 -0.9462  1.4015 -1.4844
 3153TIP3   OH2 9422   3.124   1.995   1.985 -0.4004 -0.1187  0.2335
 3153TIP3    H1 9423   3.133   2.079   2.029 -1.1039 -1.6563  3.6781
 3153TIP3    H2 9424   3.212   1.957   1.989 -0.3797 -0.0953 -0.0403
 3154TIP3   OH2 9425   5.305   4.815   4.175  0.6963 -0.2686  0.0988
 3154TIP3    H1 9426   5.227   4.787   4.127  0.2914  0.2127  0.4697
 3154TIP3    H2 9427   5.310   4.755   4.249  1.2233 -0.9013 -0.4357
 3155TIP3   OH2 9428   5.210   5.431   1.455 -0.0614  0.1465 -0.5707
 3155TIP3    H1 9429   5.162   5.356   1.420 -1.0151 -0.1100  1.1680
 3155TIP3    H2 9430   5.299   5.419   1.424 -0.8703  0.1782 -3.1927
 3156TIP3   OH2 9431   7.015   4.881   2.247 -0.0218 -0.0100 -0.4121
 3156TIP3    H1 9432   7.096   4.924   2.218  0.7909 -0.1815  1.4662
 3156TIP3    H2 9433   6.973   4.945   2.304 -0.3532 -0.5486 -0.0469
 3157TIP3   OH2 9434   6.726   5.108   3.251  0.1530  0.2972  0.2165
 3157TIP3    H1 9435   6.660   5.083   3.187  1.3988 -1.5258 -0.4328
 3157TIP3    H2 9436   6.787   5.164   3.202 -0.2879  1.0810  0.5351
 3158TIP3   OH2 9437   0.567   1.425   2.913  0.0279 -0.7500 -0.3078
 3158TIP3    H1 9438   0.575   1.517   2.939  0.8528 -0.4413 -1.5501
 3158TIP3    H2 9439   0.583   1.376   2.994  1.3871  0.1814  0.0331
 3159TIP3   OH2 9440   5.837   1.753   1.303 -0.4493 -0.1232  0.8771
 3159TIP3    H1 9441   5.920   1.712   1.329 -0.8877 -0.4199  1.8454
 3159TIP3    H2 9442   5.863   1.839   1.270  0.5890 -1.4589 -2.1021
 3160TIP3   OH2 9443   5.318   0.656   0.486 -0.5450 -0.0970 -0.5505
 3160TIP3    H1 9444   5.278   0.732   0.444 -1.0540  0.4231  0.8203
 3160TIP3    H2 9445   5.247   0.591   0.490  0.2707 -1.2752 -3.0660
 3161TIP3   OH2 9446   4.341   4.192   1.367 -0.4617  0.4259  0.1225
 3161TIP3    H1 9447   4.259   4.237   1.347 -0.8589 -0.2092  0.2797
 3161TIP3    H2 9448   4.325   4.101   1.342  0.7757  0.5939 -1.4483
 3162TIP3   OH2 9449   0.168   2.428   5.047 -0.0249 -0.3863  0.1975
 3162TIP3    H1 9450   0.097   2.482   5.012  2.2568  1.1011 -2.6216
 3162TIP3    H2 9451   0.204   2.384   4.969  2.9260 -0.0103  1.2201
 3163TIP3   OH2 9452   2.708   2.346   1.174  0.0182  0.0428  0.1739
 3163TIP3    H1 9453   2.758   2.380   1.248  0.4838 -0.1040 -0.0703
 3163TIP3    H2 9454   2.698   2.252   1.193  0.1477  0.0031  0.0465
 3164TIP3   OH2 9455   6.028   0.520   5.595  0.0626  0.0031  0.4632
 3164TIP3    H1 9456   5.976   0.597   5.572  0.9333  0.5473  0.2694
 3164TIP3    H2 9457   5.968   0.446   5.586 -1.4973  0.8422  2.9189
 3165TIP3   OH2 9458   2.307   1.457   0.817  0.2470  0.3604 -0.6266
 3165TIP3    H1 9459   2.245   1.427   0.749  0.9296  3.7214 -3.0016
 3165TIP3    H2 9460   2.392   1.456   0.773  1.0274  0.8473  0.8381
 3166TIP3   OH2 9461   6.180   3.567   4.042  0.2879  0.0846 -0.1392
 3166TIP3    H1 9462   6.234   3.497   4.079  0.4655 -0.3020 -1.1135
 3166TIP3    H2 9463   6.140   3.609   4.119 -0.2093 -1.3921  0.4417
 3167TIP3   OH2 9464   0.406   2.213   1.211 -1.3039  0.5011 -0.1954
 3167TIP3    H1 9465   0.341   2.157   1.168  0.6083 -1.6947 -0.4340
 3167TIP3    H2 9466   0.439   2.270   1.142 -4.0448  2.8819  0.2705
 3168TIP3   OH2 9467   6.083   5.158   2.987 -0.3613  0.4168 -0.1190
 3168TIP3    H1 9468   5.995   5.190   2.970 -0.9857 -1.4416 -0.6985
 3168TIP3    H2 9469   6.117   5.135   2.901 -0.4530 -1.5595  0.3188
 3169TIP3   OH2 9470   1.397   1.912   1.804  0.0083  0.0820 -0.0715
 3169TIP3    H1 9471   1.395   1.853   1.879  0.9200 -0.2005 -0.2518
 3169TIP3    H2 9472   1.449   1.866   1.739  1.1358  1.2509 -0.0455
 3170TIP3   OH2 9473   1.860   2.780   4.103  0.4802 -0.7284  0.0759
 3170TIP3    H1 9474   1.782   2.819   4.064  0.5641  1.5249  1.9546
 3170TIP3    H2 9475   1.931   2.806   4.044  0.1862 -0.2256 -0.0626
 3171TIP3   OH2 9476   4.372   5.715   4.657 -0.2475  0.5557 -0.4992
 3171TIP3    H1 9477   4.408   5.706   4.569 -0.2619  0.0477 -0.4593
 3171TIP3    H2 9478   4.434   5.772   4.702 -0.9809  1.9750 -1.2333
 3172TIP3   OH2 9479   7.061   0.302   3.362 -0.9595  0.0304 -0.2065
 3172TIP3    H1 9480   7.103   0.309   3.277  0.8285 -0.7187  0.5553
 3172TIP3    H2 9481   7.050   0.392   3.392  0.6954  0.2468 -0.1812
 3173TIP3   OH2 9482   0.169   4.052   4.559 -0.3951 -0.7932  0.2252
 3173TIP3    H1 9483   0.075   4.066   4.553 -0.1029  1.0482 -1.1570
 3173TIP3    H2 9484   0.194   4.018   4.474  0.3117 -0.3084  0.2272
 3174TIP3   OH2 9485   1.478   2.641   4.618  0.0694  0.4553  0.2165
 3174TIP3    H1 9486   1.515   2.721   4.581 -0.7692 -0.0338 -1.8295
 3174TIP3    H2 9487   1.390   2.635   4.582 -0.8019 -0.1730  2.2718
 3175TIP3   OH2 9488   0.847   1.584   5.529 -0.4545  0.4672 -0.2403
 3175TIP3    H1 9489   0.901   1.654   5.492 -0.4495  0.5074 -0.1556
 3175TIP3    H2 9490   0.817   1.535   5.452 -2.4365  1.9840 -0.5191
 3176TIP3   OH2 9491   0.353   5.988   5.534 -0.1298 -0.0499  0.4996
 3176TIP3    H1 9492   0.356   6.005   5.440  0.1194  1.8140  0.8183
 3176TIP3    H2 9493   0.441   5.960   5.557 -0.3727 -1.2344  0.0870
 3177TIP3   OH2 9494   4.312   4.352   0.032 -0.2258 -0.1507  0.0653
 3177TIP3    H1 9495   4.244   4.289   0.006  1.3138 -1.5562 -0.7356
 3177TIP3    H2 9496   4.263   4.428   0.063 -2.1956 -0.5613 -1.7426
 3178TIP3   OH2 9497   5.930   5.372   5.172 -0.0240 -0.1008  0.2272
 3178TIP3    H1 9498   5.835   5.384   5.179 -0.0489 -0.6639  0.9482
 3178TIP3    H2 9499   5.946   5.363   5.078 -0.9199 -1.7189  0.2005
 3179TIP3   OH2 9500   0.416   2.117   3.695 -0.4637  0.5003  0.0091
 3179TIP3    H1 9501   0.458   2.201   3.716  0.9718  0.2655 -1.7396
 3179TIP3    H2 9502   0.389   2.126   3.604 -2.1944 -0.2374  0.4020
 3180TIP3   OH2 9503   4.306   1.266   5.175 -0.5389 -0.1904 -0.4294
 3180TIP3    H1 9504   4.397   1.284   5.197 -0.1515 -2.3132 -0.0893
 3180TIP3    H2 9505   4.255   1.317   5.239  0.4128  0.1796  0.0494
 3181TIP3   OH2 9506   1.848   2.760   2.059 -0.0332 -0.1130 -0.4127
 3181TIP3    H1 9507   1.876   2.765   2.151  0.9192  0.3404 -0.7234
 3181TIP3    H2 9508   1.760   2.798   2.060 -0.0342 -0.1118  0.3155
 3182TIP3   OH2 9509   2.506   4.500   0.560 -0.1670 -0.1854 -0.1368
 3182TIP3    H1 9510   2.491   4.411   0.592 -0.4702 -0.3255 -0.6537
 3182TIP3    H2 9511   2.532   4.549   0.638 -1.6367 -0.3432  0.4836
 3183TIP3   OH2 9512   0.140   2.463   2.534  0.0334  0.5957 -0.7164
 3183TIP3    H1 9513   0.075   2.430   2.472 -1.0918 -0.0785  0.7325
 3183TIP3    H2 9514   0.087   2.508   2.601  1.2110  1.5088 -0.3748
 3184TIP3   OH2 9515   0.715   6.345   5.007  0.4380 -0.1503 -0.2635
 3184TIP3    H1 9516   0.760   6.271   4.967 -0.1352 -0.4791 -0.3104
 3184TIP3    H2 9517   0.784   6.394   5.051  0.8892 -0.4624 -0.6127
 3185TIP3   OH2 9518   2.967   2.189   4.829 -0.0628 -0.2425 -0.3807
 3185TIP3    H1 9519   2.902   2.229   4.887  1.3475 -1.3801  2.1268
 3185TIP3    H2 9520   2.928   2.104   4.805 -0.1522 -0.2659 -0.1540
 3186TIP3   OH2 9521   5.533   5.680   4.460 -0.1034 -0.7750 -0.2450
 3186TIP3    H1 9522   5.500   5.729   4.534 -0.8847 -1.7348  0.0571
 3186TIP3    H2 9523   5.612   5.728   4.433 -1.5829  1.4395 -0.8673
 3187TIP3   OH2 9524   4.358   0.071   4.127  0.2018  0.0705  0.3084
 3187TIP3    H1 9525   4.366   0.127   4.204  0.6871  0.3633  0.0443
 3187TIP3    H2 9526   4.319  -0.010   4.161 -0.0117  0.3663  0.7796
 3188TIP3   OH2 9527   0.911   1.458   3.031  0.3135 -0.2406  0.2527
 3188TIP3    H1 9528   0.818   1.463   3.010  0.5977  2.9896 -0.7741
 3188TIP3    H2 9529   0.952   1.421   2.953  0.0834  0.2347 -0.0970
 3189TIP3   OH2 9530   1.258   1.005   4.908 -0.0200 -0.5272 -0.1569
 3189TIP3    H1 9531   1.218   0.945   4.972 -1.6777  1.1931  0.5251
 3189TIP3    H2 9532   1.310   1.065   4.960  1.2715 -1.0771 -0.7872
 3190TIP3   OH2 9533   0.942   1.755   2.733 -0.1639 -0.0089 -0.2654
 3190TIP3    H1 9534   0.847   1.753   2.719  0.1385  0.8515 -2.8912
 3190TIP3    H2 9535   0.978   1.705   2.660  1.4424 -0.2776  0.6617
 3191TIP3   OH2 9536   5.701   2.169   1.237 -0.1376  0.5270  0.0451
 3191TIP3    H1 9537   5.687   2.116   1.316 -0.3702 -0.0025 -0.3483
 3191TIP3    H2 9538   5.705   2.259   1.270  0.5793  0.2447  0.7528
 3192TIP3   OH2 9539   4.294   0.659   3.853  0.2668 -0.4949 -0.3281
 3192TIP3    H1 9540   4.348   0.615   3.919 -1.9000 -0.8886  1.3152
 3192TIP3    H2 9541   4.226   0.703   3.904 -1.6212 -0.9706 -2.2918
 3193TIP3   OH2 9542   5.073   4.039   0.420  0.3308  0.5564 -0.1759
 3193TIP3    H1 9543   4.999   3.984   0.394 -0.7684  1.9629 -0.1056
 3193TIP3    H2 9544   5.098   4.086   0.341  0.0150  1.3652  0.1952
 3194TIP3   OH2 9545   0.487   1.431   4.391 -0.1319 -0.8021 -0.1217
 3194TIP3    H1 9546   0.405   1.448   4.346  0.7722  0.1926 -1.4709
 3194TIP3    H2 9547   0.555   1.467   4.333  1.1492 -0.1122  1.7072
 3195TIP3   OH2 9548   6.086   0.405   3.602 -0.3349  0.4178  0.2498
 3195TIP3    H1 9549   6.069   0.375   3.692 -0.0350  0.6222  0.3764
 3195TIP3    H2 9550   6.152   0.473   3.612 -0.1979  0.3428 -0.1436
 3196TIP3   OH2 9551   3.312   3.376   2.913 -0.2758  0.2928  0.5045
 3196TIP3    H1 9552   3.322   3.307   2.847 -1.0198 -0.7567  1.4519
 3196TIP3    H2 9553   3.391   3.430   2.903  0.2820 -0.6348 -0.3163
 3197TIP3   OH2 9554   0.215   1.767   3.040 -0.2632  0.4851 -0.5762
 3197TIP3    H1 9555   0.211   1.678   3.004 -1.6054 -0.1305  0.9848
 3197TIP3    H2 9556   0.178   1.822   2.971 -1.3263 -0.4562 -0.7949
 3198TIP3   OH2 9557   2.775   6.150   1.491 -0.2135 -0.1217 -0.2330
 3198TIP3    H1 9558   2.711   6.146   1.562  2.3276 -2.0034  2.1746
 3198TIP3    H2 9559   2.757   6.072   1.438 -0.4776 -0.1292 -0.1358
 3199TIP3   OH2 9560   1.305   0.234   2.329  0.5000 -0.0489  1.2583
 3199TIP3    H1 9561   1.290   0.301   2.262 -0.6803 -1.5298 -0.0555
 3199TIP3    H2 9562   1.231   0.244   2.389 -0.3416 -0.8911  0.3974
 3200TIP3   OH2 9563   2.607   0.378   0.930 -0.2640  0.0704 -0.6048
 3200TIP3    H1 9564   2.674   0.445   0.919 -0.5573  0.6680  1.0049
 3200TIP3    H2 9565   2.632   0.332   1.010 -1.7769  0.3509  0.0670
 3201TIP3   OH2 9566   1.394   0.650   3.272 -0.6638  0.5482 -0.5202
 3201TIP3    H1 9567   1.414   0.666   3.364 -2.3529  1.3381 -0.2391
 3201TIP3    H2 9568   1.478   0.655   3.227  0.2434 -0.1963  1.0136
 3202TIP3   OH2 9569   5.606   2.166   3.820 -0.3856 -0.3966 -0.1098
 3202TIP3    H1 9570   5.685   2.203   3.781 -1.1783  0.7971 -0.6406
 3202TIP3    H2 9571   5.551   2.143   3.746 -2.5206  3.2150  0.0829
 3203TIP3   OH2 9572   5.224   5.422   2.123  0.3673  0.2957  0.2550
 3203TIP3    H1 9573   5.245   5.497   2.067  0.7442 -1.2050 -1.7319
 3203TIP3    H2 9574   5.134   5.399   2.097  0.7669 -0.7891 -0.2358
 3204TIP3   OH2 9575   3.262   0.411   4.025  0.4137  0.3575  1.1426
 3204TIP3    H1 9576   3.270   0.328   3.979 -1.1785 -0.0897  1.6029
 3204TIP3    H2 9577   3.244   0.475   3.957  0.7171  0.1657  0.8794
 3205TIP3   OH2 9578   1.926   2.798   3.121  0.4606 -0.2536  0.7154
 3205TIP3    H1 9579   2.008   2.761   3.153  0.0592 -0.6318  1.3309
 3205TIP3    H2 9580   1.926   2.780   3.027  1.3533  0.2801  0.6034
 3206TIP3   OH2 9581   0.669   3.910   3.587 -0.2404 -0.1994  0.2903
 3206TIP3    H1 9582   0.679   3.996   3.627 -2.0970  0.2166 -0.0129
 3206TIP3    H2 9583   0.581   3.882   3.613  0.8265 -2.6616  1.5511
 3207TIP3   OH2 9584   1.295   3.466   3.872 -0.5707  0.1722  0.2171
 3207TIP3    H1 9585   1.221   3.414   3.841 -1.8865  1.1065  1.6607
 3207TIP3    H2 9586   1.319   3.427   3.956  0.8090 -0.3081 -0.3723
 3208TIP3   OH2 9587   3.646   1.208   1.561 -0.2196 -0.3471 -0.4030
 3208TIP3    H1 9588   3.616   1.225   1.651 -2.0043  1.0413 -1.2145
 3208TIP3    H2 9589   3.719   1.269   1.549 -2.2193  2.0860 -0.9879
 3209TIP3   OH2 9590   1.939   6.152   0.098 -0.2209 -0.2383 -0.4348
 3209TIP3    H1 9591   1.932   6.212   0.173 -1.9390 -0.3377 -0.4752
 3209TIP3    H2 9592   1.874   6.185   0.036 -1.0899 -2.0268 -0.5306
 3210TIP3   OH2 9593   5.679   1.273   0.605  0.1150 -0.3972 -0.2528
 3210TIP3    H1 9594   5.695   1.195   0.552  0.2525 -0.9555  0.5921
 3210TIP3    H2 9595   5.588   1.298   0.585  0.0006 -0.9006 -0.3575
 3211TIP3   OH2 9596   4.331   5.193   2.864  0.2820  0.4027 -0.6144
 3211TIP3    H1 9597   4.361   5.255   2.930 -1.5199  1.6676 -0.8778
 3211TIP3    H2 9598   4.241   5.221   2.844  0.3910 -0.5553 -2.8293
 3212TIP3   OH2 9599   0.170   4.533   2.454 -0.1072  0.3606 -0.4150
 3212TIP3    H1 9600   0.167   4.535   2.550  1.1287  0.5501 -0.3726
 3212TIP3    H2 9601   0.126   4.614   2.427 -1.6608 -0.3182 -0.0685
 3213TIP3   OH2 9602   4.531   6.065   4.535 -0.0320 -0.1494 -1.1202
 3213TIP3    H1 9603   4.555   6.150   4.496  0.2522 -0.0704 -0.7809
 3213TIP3    H2 9604   4.592   6.055   4.608 -1.1703  0.1511 -0.1001
 3214TIP3   OH2 9605   3.709   1.110   1.161 -0.0788  0.3213 -0.1213
 3214TIP3    H1 9606   3.769   1.039   1.185  1.1732  1.2403 -0.3983
 3214TIP3    H2 9607   3.639   1.105   1.226 -0.3509 -1.5333 -0.5116
 3215TIP3   OH2 9608   1.119   3.291   5.570 -0.5718 -0.0131 -0.8550
 3215TIP3    H1 9609   1.140   3.247   5.652 -2.2282 -0.2443 -0.5289
 3215TIP3    H2 9610   1.189   3.264   5.510 -0.6913 -1.8626 -0.2231
 3216TIP3   OH2 9611   0.916   5.584   3.108 -0.0024  0.0526  0.1743
 3216TIP3    H1 9612   0.956   5.551   3.189 -0.3231  1.3435  0.8813
 3216TIP3    H2 9613   0.846   5.522   3.089 -1.1970  0.7429  1.9809
 3217TIP3   OH2 9614   2.682   4.704   5.314  0.1192 -0.0175 -0.5391
 3217TIP3    H1 9615   2.682   4.794   5.346  0.6752 -0.5316  1.0102
 3217TIP3    H2 9616   2.725   4.708   5.229 -0.5710  1.2770 -0.8485
 3218TIP3   OH2 9617   6.952   2.331   1.745  0.0847 -0.5794 -0.5201
 3218TIP3    H1 9618   6.948   2.257   1.805 -1.6910  0.1413  0.3389
 3218TIP3    H2 9619   6.890   2.310   1.676 -1.6584  0.7212  0.5574
 3219TIP3   OH2 9620   0.920   1.229   2.645 -0.2550 -0.2465 -0.0596
 3219TIP3    H1 9621   0.960   1.260   2.564 -0.9769 -1.0954 -0.7589
 3219TIP3    H2 9622   0.826   1.233   2.629 -0.5334  1.8613  1.6150
 3220TIP3   OH2 9623   2.541   5.233   2.289  0.1243  0.0425  0.0114
 3220TIP3    H1 9624   2.620   5.180   2.296 -0.1721 -0.4710 -0.5372
 3220TIP3    H2 9625   2.475   5.185   2.339  0.2446  0.6500  0.7697
 3221TIP3   OH2 9626   6.866   5.074   5.849 -0.1112 -0.7946  0.1080
 3221TIP3    H1 9627   6.775   5.045   5.859 -0.2115 -0.4264  0.3008
 3221TIP3    H2 9628   6.911   5.037   5.924 -0.6083  0.9572  1.3496
 3222TIP3   OH2 9629   2.114   3.989   4.492 -0.0704 -0.0309  0.7280
 3222TIP3    H1 9630   2.183   4.048   4.462 -0.5986 -0.2132 -0.9621
 3222TIP3    H2 9631   2.123   3.987   4.587  0.5734  2.0055  0.7524
 3223TIP3   OH2 9632   4.175   5.019   5.238 -0.6314  0.0271  0.3520
 3223TIP3    H1 9633   4.147   5.100   5.281  0.7708 -0.6526  2.6964
 3223TIP3    H2 9634   4.096   4.965   5.235 -1.1857  0.8224  0.3490
 3224TIP3   OH2 9635   4.916   4.009   1.796  0.0648  0.1099 -0.0028
 3224TIP3    H1 9636   4.922   4.050   1.883 -0.0521  0.1296 -0.0034
 3224TIP3    H2 9637   4.902   4.082   1.736 -0.6576  0.0299  0.0532
 3225TIP3   OH2 9638   5.291   0.831   2.429 -0.0412  0.4905  0.8843
 3225TIP3    H1 9639   5.197   0.845   2.445 -0.6376 -1.2948 -0.6894
 3225TIP3    H2 9640   5.316   0.762   2.490  0.0258  0.3538  0.7037
 3226TIP3   OH2 9641   1.449   5.843   1.027  0.4168 -0.1925  0.0924
 3226TIP3    H1 9642   1.386   5.785   0.983  1.2771 -0.2497 -1.1177
 3226TIP3    H2 9643   1.533   5.819   0.989  1.1412  0.0917  1.4687
 3227TIP3   OH2 9644   6.207   0.618   5.788  0.5172 -0.3951 -0.5335
 3227TIP3    H1 9645   6.177   0.573   5.867  0.4368 -0.2436 -0.4767
 3227TIP3    H2 9646   6.151   0.583   5.718 -0.5041  0.6336 -0.2611
 3228TIP3   OH2 9647   3.964   5.583   0.311  0.3794  0.0018 -0.2274
 3228TIP3    H1 9648   4.049   5.576   0.354  0.7797 -0.0361 -0.9998
 3228TIP3    H2 9649   3.967   5.667   0.266 -0.5287  0.6299  0.8412
 3229TIP3   OH2 9650   3.628   1.718   3.892  0.1084  0.7205 -0.1281
 3229TIP3    H1 9651   3.606   1.732   3.984 -0.1362 -0.0973 -0.0578
 3229TIP3    H2 9652   3.682   1.794   3.868  2.6823 -0.4826  1.4845
 3230TIP3   OH2 9653   0.703   3.522   5.035 -0.6383 -0.3403  0.0358
 3230TIP3    H1 9654   0.752   3.449   4.998  0.4408  0.5168 -0.2874
 3230TIP3    H2 9655   0.737   3.530   5.124 -0.3299  0.1322 -0.1234
 3231TIP3   OH2 9656   6.269   1.374   0.413  0.0797  0.8899  1.0184
 3231TIP3    H1 9657   6.227   1.313   0.473  1.8353  0.0697  1.4902
 3231TIP3    H2 9658   6.320   1.432   0.470  1.2443  0.5180  0.3951
 3232TIP3   OH2 9659   3.997   3.899   3.523 -0.1250  0.2691 -0.2142
 3232TIP3    H1 9660   4.046   3.879   3.604  0.2104  0.9513 -0.2394
 3232TIP3    H2 9661   3.916   3.850   3.532  1.4405 -2.7667 -1.1851
 3233TIP3   OH2 9662   6.931   5.071   2.536 -0.2260 -0.2395  0.5726
 3233TIP3    H1 9663   6.869   5.043   2.468  3.1927  0.5633 -3.3125
 3233TIP3    H2 9664   6.948   5.163   2.516  2.8120 -0.6550  0.7684
 3234TIP3   OH2 9665   4.755   5.134   2.422  0.0237 -0.7340  0.1074
 3234TIP3    H1 9666   4.833   5.157   2.371  1.1835 -1.4480  1.4638
 3234TIP3    H2 9667   4.699   5.212   2.417  1.4568  0.3584  0.2294
 3235TIP3   OH2 9668   0.466   0.750   4.617  0.6382  0.1862  0.1908
 3235TIP3    H1 9669   0.540   0.698   4.587  0.4968  0.4428 -0.6292
 3235TIP3    H2 9670   0.504   0.813   4.679  1.1081  0.3435 -0.2526
 3236TIP3   OH2 9671   1.869   4.151   3.125  0.0534  0.7210  0.1603
 3236TIP3    H1 9672   1.958   4.135   3.095  0.1246  0.2019  0.6089
 3236TIP3    H2 9673   1.867   4.113   3.213 -0.3937  1.4061  0.4532
 3237TIP3   OH2 9674   4.886   3.654   0.962  0.0924  0.4737 -0.1369
 3237TIP3    H1 9675   4.827   3.584   0.936 -0.3491  1.3834 -1.7534
 3237TIP3    H2 9676   4.837   3.704   1.027  0.2819 -0.4894  0.7689
 3238TIP3   OH2 9677   1.911   4.878   1.861 -0.1402 -0.9350 -0.2200
 3238TIP3    H1 9678   1.979   4.821   1.899 -0.9381 -1.7090  0.0833
 3238TIP3    H2 9679   1.861   4.909   1.936  0.3682  0.3214 -0.3669
 3239TIP3   OH2 9680   1.434   3.124   5.529  0.2046 -0.9524  0.1605
 3239TIP3    H1 9681   1.395   3.097   5.612 -1.8828  1.8374  0.2317
 3239TIP3    H2 9682   1.516   3.166   5.553 -0.1154 -0.6652  0.7594
 3240TIP3   OH2 9683   5.369   5.940   1.871 -0.2481  0.4434  0.3270
 3240TIP3    H1 9684   5.419   5.942   1.953 -0.6269 -1.7387  0.6807
 3240TIP3    H2 9685   5.435   5.941   1.802  0.2914 -1.1658  0.7706
 3241TIP3   OH2 9686   3.608   4.502   4.942  0.0018 -0.0834 -0.5029
 3241TIP3    H1 9687   3.619   4.423   4.994 -0.6061  1.2052  1.6807
 3241TIP3    H2 9688   3.516   4.500   4.914  0.5258 -1.1833 -2.3422
 3242TIP3   OH2 9689   5.695   4.412   1.788  0.5468 -0.1570 -0.1720
 3242TIP3    H1 9690   5.731   4.328   1.759  2.2817  0.7039 -0.6730
 3242TIP3    H2 9691   5.639   4.441   1.716  0.8991 -0.3400 -0.5252
 3243TIP3   OH2 9692   4.964   3.923   5.192  0.4780  0.3844 -0.0993
 3243TIP3    H1 9693   4.988   3.833   5.214 -1.4809 -0.0566  0.4477
 3243TIP3    H2 9694   4.982   3.973   5.272  1.0940  0.4009 -0.2409
 3244TIP3   OH2 9695   5.201   0.425   1.378 -0.1974  0.1224  0.2141
 3244TIP3    H1 9696   5.137   0.433   1.308 -0.7586  2.4936  0.9004
 3244TIP3    H2 9697   5.272   0.485   1.353 -0.4720  1.1221  1.6801
 3245TIP3   OH2 9698   6.301   3.030   4.869  0.0461 -0.0914  0.8023
 3245TIP3    H1 9699   6.328   3.045   4.779  2.2329 -0.8660  1.2766
 3245TIP3    H2 9700   6.327   3.109   4.916 -3.3192  1.4344  0.4420
 3246TIP3   OH2 9701   5.715   0.933   4.141 -0.3730 -0.0851  0.2395
 3246TIP3    H1 9702   5.720   0.851   4.191 -0.7243 -1.9259 -2.4876
 3246TIP3    H2 9703   5.659   0.990   4.194  0.0948 -1.4847  2.3654
 3247TIP3   OH2 9704   2.323   3.312   4.014 -0.5328  0.6654 -0.2801
 3247TIP3    H1 9705   2.321   3.406   4.029  1.2825  0.6417  0.3600
 3247TIP3    H2 9706   2.407   3.284   4.049 -1.1300 -1.2427 -0.2646
 3248TIP3   OH2 9707   2.683   1.524   2.590 -0.2035  0.1058 -0.3510
 3248TIP3    H1 9708   2.716   1.473   2.665 -0.3362  0.5336  0.0005
 3248TIP3    H2 9709   2.661   1.609   2.627 -2.5153 -0.4015 -0.3591
 3249TIP3   OH2 9710   2.623   3.943   2.299  0.0929 -0.3592  0.6359
 3249TIP3    H1 9711   2.602   3.854   2.271  0.6289 -0.0941 -0.6840
 3249TIP3    H2 9712   2.540   3.978   2.333  0.0640 -1.6110  1.9369
 3250TIP3   OH2 9713   2.876   3.329   0.537  0.1703 -0.6031 -0.1694
 3250TIP3    H1 9714   2.875   3.311   0.631 -1.2029  1.5135  0.2688
 3250TIP3    H2 9715   2.962   3.297   0.509  0.8223 -0.8434  1.8777
 3251TIP3   OH2 9716   2.041   4.735   2.045 -0.2884  0.1418  0.1699
 3251TIP3    H1 9717   2.015   4.774   2.128  0.2367 -0.1628  0.4844
 3251TIP3    H2 9718   2.135   4.720   2.054 -0.6092 -2.0389  0.4380
 3252TIP3   OH2 9719   0.927   5.608   5.411 -0.1507  0.3590 -0.4007
 3252TIP3    H1 9720   1.000   5.663   5.440 -1.0337  1.2679  0.1752
 3252TIP3    H2 9721   0.955   5.573   5.326  0.8348  0.9250 -0.3202
 3253TIP3   OH2 9722   3.776   0.675   5.335  0.2300  0.0668 -0.1071
 3253TIP3    H1 9723   3.755   0.768   5.338  0.0769  0.0108  0.7586
 3253TIP3    H2 9724   3.862   0.671   5.292 -1.7154  0.2185 -4.5833
 3254TIP3   OH2 9725   3.780   6.347   3.657  0.4389  0.1581  0.4490
 3254TIP3    H1 9726   3.868   6.371   3.686  1.1624 -1.2832 -0.4425
 3254TIP3    H2 9727   3.752   6.281   3.721 -0.2582  1.0380  1.0749
 3255TIP3   OH2 9728   5.285   2.568   0.504 -0.1056  0.0129  0.3258
 3255TIP3    H1 9729   5.286   2.479   0.469  2.3826  0.4549 -0.8998
 3255TIP3    H2 9730   5.193   2.596   0.494 -0.6643 -1.9378 -0.4579
 3256TIP3   OH2 9731   0.308   6.369   2.679  0.2602  0.0265  0.7203
 3256TIP3    H1 9732   0.383   6.388   2.623  1.2221  0.1805  2.0104
 3256TIP3    H2 9733   0.234   6.360   2.619  1.4720 -1.0376 -0.6632
 3257TIP3   OH2 9734   0.613   4.075   1.346 -0.3485 -0.3714  0.5953
 3257TIP3    H1 9735   0.548   4.007   1.328 -0.1371 -0.2272 -0.8540
 3257TIP3    H2 9736   0.561   4.153   1.366 -0.6169 -0.4599  0.2557
 3258TIP3   OH2 9737   2.419   2.054   3.188  0.3967  0.3792 -0.1277
 3258TIP3    H1 9738   2.501   2.070   3.143  0.8868  0.8386  0.8899
 3258TIP3    H2 9739   2.424   2.108   3.267 -1.9670  2.4003 -1.2379
 3259TIP3   OH2 9740   5.398   4.479   0.640 -0.0838 -0.7076  0.1105
 3259TIP3    H1 9741   5.316   4.522   0.614 -0.3162 -1.3537 -0.2821
 3259TIP3    H2 9742   5.369   4.407   0.697  0.3608  0.1806  1.4921
 3260TIP3   OH2 9743   7.194   1.295   5.830  0.2547  0.5548 -0.3454
 3260TIP3    H1 9744   7.191   1.200   5.818  0.9206  0.4352  0.3792
 3260TIP3    H2 9745   7.104   1.324   5.814  0.0181 -0.2115 -0.4265
 3261TIP3   OH2 9746   4.210   5.711   5.824 -0.0462  0.4417  0.1695
 3261TIP3    H1 9747   4.139   5.647   5.815 -0.3054  0.9023 -1.2102
 3261TIP3    H2 9748   4.223   5.746   5.736 -0.2121  2.6225  0.9422
 3262TIP3   OH2 9749   4.838   3.891   4.949 -0.4477 -0.4444  0.0300
 3262TIP3    H1 9750   4.882   3.899   5.033 -0.4057  1.0477 -0.1065
 3262TIP3    H2 9751   4.744   3.889   4.971 -0.6229  2.8008  0.0485
 3263TIP3   OH2 9752   1.824   3.307   1.392 -0.0074  0.4798  0.2390
 3263TIP3    H1 9753   1.919   3.305   1.403  0.1310 -1.4340 -0.9039
 3263TIP3    H2 9754   1.803   3.401   1.388  1.9856  0.9620 -0.6910
 3264TIP3   OH2 9755   1.761   0.903   1.686 -1.0378 -0.0517 -0.1220
 3264TIP3    H1 9756   1.730   0.822   1.645  0.2719  0.3881 -2.1468
 3264TIP3    H2 9757   1.701   0.917   1.759 -1.4976 -2.6646  0.1215
 3265TIP3   OH2 9758   0.250   6.168   3.279  0.3368 -0.5303 -0.0488
 3265TIP3    H1 9759   0.245   6.255   3.240  0.6814 -0.8632 -0.8483
 3265TIP3    H2 9760   0.271   6.185   3.371 -0.0409  0.2424 -0.0914
 3266TIP3   OH2 9761   0.308   4.665   1.943  0.2735 -0.1488  0.0983
 3266TIP3    H1 9762   0.368   4.733   1.974  1.1785 -0.2892 -1.2437
 3266TIP3    H2 9763   0.230   4.713   1.914  1.5480  0.5472 -2.3776
 3267TIP3   OH2 9764   1.919   5.528   4.321 -0.5215 -0.2933 -0.4093
 3267TIP3    H1 9765   1.825   5.507   4.318 -0.9968  1.3946  0.8141
 3267TIP3    H2 9766   1.928   5.603   4.262 -0.2345  0.4398  0.5407
 3268TIP3   OH2 9767   0.256   0.470   2.945 -0.1542 -0.5201 -0.1531
 3268TIP3    H1 9768   0.311   0.547   2.926 -0.7540  0.1575  0.7372
 3268TIP3    H2 9769   0.318   0.403   2.972  0.3124  0.0069  0.1267
 3269TIP3   OH2 9770   6.318   4.121   1.889  0.2581  0.0416  0.2199
 3269TIP3    H1 9771   6.256   4.067   1.937  1.8991 -0.3139  2.0860
 3269TIP3    H2 9772   6.333   4.075   1.807  0.8591 -1.8820  1.3403
 3270TIP3   OH2 9773   1.473   0.136   1.978 -0.7440 -0.1954 -0.0636
 3270TIP3    H1 9774   1.461   0.072   1.908 -0.0517  0.5147 -0.8575
 3270TIP3    H2 9775   1.526   0.090   2.043  0.6174 -0.1226 -1.0905
 3271TIP3   OH2 9776   1.291   0.944   2.958  0.0921  0.4465 -0.1924
 3271TIP3    H1 9777   1.231   0.914   2.890 -0.7538 -1.7063  1.3923
 3271TIP3    H2 9778   1.376   0.951   2.913 -0.2228 -1.8465 -1.3205
 3272TIP3   OH2 9779   2.864   6.359   2.987 -0.0684 -0.5300  0.5810
 3272TIP3    H1 9780   2.816   6.435   2.955  0.6776 -0.1262  0.4189
 3272TIP3    H2 9781   2.844   6.356   3.081 -0.2628 -0.2614  0.5500
 3273TIP3   OH2 9782   6.228   6.558   3.867 -0.1823 -0.0277  0.0911
 3273TIP3    H1 9783   6.227   6.631   3.805 -1.2499 -0.6795 -0.7082
 3273TIP3    H2 9784   6.137   6.548   3.894  0.1649 -0.2207  1.2169
 3274TIP3   OH2 9785   1.057   1.327   2.864 -0.0066  0.0105 -0.0187
 3274TIP3    H1 9786   1.151   1.306   2.860 -0.0384 -0.3966  1.1048
 3274TIP3    H2 9787   1.017   1.268   2.800  0.4200 -0.3492  0.0406
 3275TIP3   OH2 9788   6.738   0.061   0.862 -0.2487 -0.2808  0.7364
 3275TIP3    H1 9789   6.793   0.019   0.797  0.4727  4.3132 -2.0282
 3275TIP3    H2 9790   6.796   0.078   0.936  1.3242  1.5935 -0.8291
 3276TIP3   OH2 9791   5.520   1.776   2.324 -0.5613  0.1224 -0.0340
 3276TIP3    H1 9792   5.593   1.749   2.380 -0.4108  0.9844  0.1992
 3276TIP3    H2 9793   5.448   1.718   2.348  0.0891 -0.8471 -0.3796
 3277TIP3   OH2 9794   3.868   0.916   2.132 -0.0449  0.0641 -0.3787
 3277TIP3    H1 9795   3.861   0.843   2.194 -0.4118  0.4823  0.0790
 3277TIP3    H2 9796   3.887   0.874   2.048  0.7244 -0.4941  0.0572
 3278TIP3   OH2 9797   6.854   4.508   4.412  0.1548  0.5075  0.2709
 3278TIP3    H1 9798   6.945   4.507   4.442 -0.2479 -2.1498  1.7302
 3278TIP3    H2 9799   6.805   4.545   4.485 -0.3825 -2.4426  1.5521
 3279TIP3   OH2 9800   4.224   3.978   1.256  0.8534  0.3683  0.0411
 3279TIP3    H1 9801   4.160   3.975   1.327  1.8730  1.2775  1.0126
 3279TIP3    H2 9802   4.223   3.889   1.220 -1.4937  0.5376 -0.4891
 3280TIP3   OH2 9803   5.687   5.046   3.919 -0.2474  0.2569  0.3726
 3280TIP3    H1 9804   5.650   5.019   3.835  1.6277  1.1321 -0.8001
 3280TIP3    H2 9805   5.630   5.007   3.985 -2.1846  0.1322 -1.3042
 3281TIP3   OH2 9806   5.360   1.908   1.313 -0.1375  0.0335 -0.6324
 3281TIP3    H1 9807   5.450   1.873   1.313 -0.8258 -1.8489 -0.8340
 3281TIP3    H2 9808   5.348   1.940   1.224  0.3295  0.2897 -0.6082
 3282TIP3   OH2 9809   0.966   4.002   0.549 -0.4219 -0.4703  0.1848
 3282TIP3    H1 9810   1.015   3.931   0.590  0.6273  0.2947  0.2833
 3282TIP3    H2 9811   0.875   3.971   0.548  0.1563 -2.2774 -0.7827
 3283TIP3   OH2 9812   3.059   0.018   4.592  0.1051 -0.2106  0.1365
 3283TIP3    H1 9813   3.116   0.085   4.629  1.7448 -0.9493 -0.9840
 3283TIP3    H2 9814   3.040  -0.041   4.666  0.7082  0.0929  0.5395
 3284TIP3   OH2 9815   3.304   0.186   5.274  0.2922  0.0346  0.6398
 3284TIP3    H1 9816   3.323   0.225   5.189 -0.2129 -0.4457  0.2998
 3284TIP3    H2 9817   3.371   0.221   5.332  0.9825 -0.0620 -0.0792
 3285TIP3   OH2 9818   2.354   4.005   3.374  0.5094  0.2910 -0.1537
 3285TIP3    H1 9819   2.272   3.957   3.386  1.1269 -0.6404  0.4607
 3285TIP3    H2 9820   2.378   4.034   3.462  1.8659 -1.1973 -0.0014
 3286TIP3   OH2 9821   6.028   6.549   5.070 -0.3395 -0.0023 -0.2768
 3286TIP3    H1 9822   6.109   6.563   5.119 -0.9022  1.1519  0.3609
 3286TIP3    H2 9823   5.960   6.589   5.125 -1.2707 -0.4966 -1.0454
 3287TIP3   OH2 9824   2.134   3.026   3.651 -0.0467 -0.1163 -0.0652
 3287TIP3    H1 9825   2.176   3.005   3.734 -0.0480 -1.2770 -0.3410
 3287TIP3    H2 9826   2.206   3.048   3.592 -0.1030  1.6685  0.4747
 3288TIP3   OH2 9827   4.317   4.975   1.738 -0.6458 -0.0439 -0.6258
 3288TIP3    H1 9828   4.299   4.930   1.821 -0.0058 -0.6504 -0.8040
 3288TIP3    H2 9829   4.395   4.931   1.704  0.6387  1.8655 -0.3053
 3289TIP3   OH2 9830   5.697   0.358   0.676 -0.4772  0.3489  0.2117
 3289TIP3    H1 9831   5.670   0.377   0.766  2.1589  1.0746  0.9302
 3289TIP3    H2 9832   5.622   0.312   0.638 -1.9028  0.5518  2.5757
 3290TIP3   OH2 9833   3.613   5.671   0.669  0.6337  0.4201  0.0899
 3290TIP3    H1 9834   3.598   5.739   0.734  0.5520  1.1640 -0.6982
 3290TIP3    H2 9835   3.708   5.671   0.656  0.4709  1.8373 -1.4182
 3291TIP3   OH2 9836   2.902   0.929   3.133 -0.2245  0.0129  0.4244
 3291TIP3    H1 9837   2.837   0.995   3.158 -1.0458 -0.5587 -0.1638
 3291TIP3    H2 9838   2.921   0.948   3.041 -0.4438 -0.5364  0.2587
 3292TIP3   OH2 9839   2.118   3.709   4.605 -0.0102  0.2002 -0.0480
 3292TIP3    H1 9840   2.025   3.688   4.601  0.1400 -0.3740 -0.6580
 3292TIP3    H2 9841   2.136   3.755   4.523  0.0715  1.0838  0.4438
 3293TIP3   OH2 9842   1.564   5.425   3.593  0.1997 -0.3575 -0.1260
 3293TIP3    H1 9843   1.618   5.497   3.624 -0.1887 -0.3228  0.4931
 3293TIP3    H2 9844   1.624   5.350   3.586  0.6384  0.0646 -0.9396
 3294TIP3   OH2 9845   2.599   3.236   1.617  0.2575 -0.0774  0.6741
 3294TIP3    H1 9846   2.535   3.208   1.551  1.7223  0.0216 -0.8746
 3294TIP3    H2 9847   2.551   3.296   1.674 -0.5337  1.7560 -1.7332
 3295TIP3   OH2 9848   0.886   2.458   5.271  0.3684 -0.3986 -0.2489
 3295TIP3    H1 9849   0.942   2.385   5.295 -0.3117 -0.6902  0.5164
 3295TIP3    H2 9850   0.889   2.461   5.176  2.6003  0.3462 -0.1991
 3296TIP3   OH2 9851   0.975   5.184   4.261  0.0082  0.1713 -0.5119
 3296TIP3    H1 9852   0.930   5.262   4.228 -1.3002 -0.9330 -1.4592
 3296TIP3    H2 9853   0.950   5.180   4.354  0.0825  0.8699 -0.4538
 3297TIP3   OH2 9854   4.585   5.442   2.813  0.1616  0.0119  0.6120
 3297TIP3    H1 9855   4.656   5.378   2.806 -2.7199 -3.4835  0.4145
 3297TIP3    H2 9856   4.554   5.454   2.723 -0.7663 -0.1087  0.9010
 3298TIP3   OH2 9857   0.368   3.379   2.306 -0.4950 -0.1236 -0.7163
 3298TIP3    H1 9858   0.370   3.320   2.381  0.0627  0.4453 -0.2681
 3298TIP3    H2 9859   0.285   3.426   2.314 -1.1688 -1.1786 -1.3498
 3299TIP3   OH2 9860   4.262   5.612   3.329 -0.3068 -0.4406 -0.0189
 3299TIP3    H1 9861   4.189   5.593   3.270 -1.4329  1.0359  0.8354
 3299TIP3    H2 9862   4.235   5.691   3.376  1.4128 -0.4455  1.0561
 3300TIP3   OH2 9863   1.853   1.643   2.961 -0.3743 -0.3973 -0.4404
 3300TIP3    H1 9864   1.770   1.604   2.934 -0.0093 -0.5710 -1.3571
 3300TIP3    H2 9865   1.912   1.626   2.888  0.2345  0.4759 -0.1617
 3301TIP3   OH2 9866   5.917   0.100   0.279  0.1837  0.3722  0.2819
 3301TIP3    H1 9867   5.830   0.101   0.319  0.1925 -0.8672  0.3757
 3301TIP3    H2 9868   5.899   0.088   0.185  0.2571 -1.8584  0.4979
 3302TIP3   OH2 9869   5.574   3.276   2.355  0.3019  0.3624 -0.1578
 3302TIP3    H1 9870   5.612   3.270   2.442  1.5565 -0.7326 -0.7388
 3302TIP3    H2 9871   5.480   3.267   2.369  0.4354  0.8261  1.1265
 3303TIP3   OH2 9872   5.445   2.058   2.296 -0.2451 -0.6436 -0.0317
 3303TIP3    H1 9873   5.447   2.085   2.204  2.9672 -0.7649 -0.1181
 3303TIP3    H2 9874   5.473   1.967   2.294  0.4690 -0.4663  1.0687
 3304TIP3   OH2 9875   1.605   4.593   2.128 -0.6151  0.0058  0.2194
 3304TIP3    H1 9876   1.536   4.533   2.098 -0.8346  0.5273 -0.3385
 3304TIP3    H2 9877   1.610   4.659   2.059  1.7072 -0.9965 -0.6921
 3305TIP3   OH2 9878   1.563   0.294   0.952 -0.5995 -0.1621 -0.0634
 3305TIP3    H1 9879   1.582   0.248   1.034 -0.0606 -0.0028 -0.0948
 3305TIP3    H2 9880   1.468   0.301   0.950 -0.5559  1.5692  1.5181
 3306TIP3   OH2 9881   1.532   1.652   1.711  0.4668 -0.1091  0.0703
 3306TIP3    H1 9882   1.496   1.573   1.671  0.1526 -0.7747  1.5967
 3306TIP3    H2 9883   1.490   1.657   1.797 -0.4564  2.4110 -0.4458
 3307TIP3   OH2 9884   5.870   5.904   1.775  0.2526  0.0509 -0.0701
 3307TIP3    H1 9885   5.960   5.932   1.755  0.5492 -0.2261  0.7943
 3307TIP3    H2 9886   5.840   5.966   1.841 -0.3609  0.4040 -0.6707
 3308TIP3   OH2 9887   0.427   0.300   0.981 -0.0311 -0.3419 -0.4479
 3308TIP3    H1 9888   0.455   0.261   0.899 -1.6390 -0.9342 -0.7573
 3308TIP3    H2 9889   0.483   0.377   0.992 -0.0652 -0.0218 -2.3089
 3309TIP3   OH2 9890   0.695   0.976   1.745 -0.8529 -0.0761  0.1018
 3309TIP3    H1 9891   0.728   0.893   1.709  0.0453 -0.1191  0.9821
 3309TIP3    H2 9892   0.774   1.024   1.769 -1.3539  1.1820 -0.6909
 3310TIP3   OH2 9893   3.761   5.089   3.732 -0.1566 -0.1137  0.5324
 3310TIP3    H1 9894   3.727   5.096   3.822  0.6092 -0.5842  0.8748
 3310TIP3    H2 9895   3.766   4.995   3.716  1.1364 -0.0734  0.5700
 3311TIP3   OH2 9896   5.839   6.606   4.417  0.4220  0.0252 -0.0797
 3311TIP3    H1 9897   5.757   6.558   4.415  0.8671 -0.7274 -0.4084
 3311TIP3    H2 9898   5.830   6.673   4.350 -0.3493  0.6719  0.6393
 3312TIP3   OH2 9899   4.093   5.508   0.779  0.2009  0.2818  0.3015
 3312TIP3    H1 9900   4.051   5.445   0.838 -1.0099  0.2881 -0.5344
 3312TIP3    H2 9901   4.072   5.593   0.817  2.1925  0.2393  1.6718
 3313TIP3   OH2 9902   5.812   2.931   4.822  0.1967 -0.3678  0.0981
 3313TIP3    H1 9903   5.836   2.839   4.818 -0.0249 -0.4553  0.6912
 3313TIP3    H2 9904   5.855   2.971   4.746  1.5901 -0.6541  0.7145
 3314TIP3   OH2 9905   5.893   6.440   3.513 -0.4827  0.3546 -0.4702
 3314TIP3    H1 9906   5.973   6.490   3.529 -0.9720  0.5769  1.6572
 3314TIP3    H2 9907   5.910   6.355   3.553 -0.3006 -0.6284 -2.5349
 3315TIP3   OH2 9908   2.092   1.380   5.270  0.7828  0.0320 -0.0893
 3315TIP3    H1 9909   2.181   1.347   5.259  0.3128 -0.9978 -1.0032
 3315TIP3    H2 9910   2.058   1.386   5.180 -1.4509 -3.5348  0.3092
 3316TIP3   OH2 9911   0.651   0.075   1.420 -0.0822 -0.0416 -0.2264
 3316TIP3    H1 9912   0.588   0.146   1.408 -0.1126 -0.2955 -1.6358
 3316TIP3    H2 9913   0.690   0.093   1.506 -2.1850  0.0051  0.7822
 3317TIP3   OH2 9914   6.461   3.221   3.775  0.1722 -0.2514  0.0693
 3317TIP3    H1 9915   6.379   3.180   3.800 -0.0789  0.3105  0.1999
 3317TIP3    H2 9916   6.456   3.228   3.679  0.2522 -0.5965  0.0404
 3318TIP3   OH2 9917   2.522   3.956   1.280 -0.0562  0.1599  0.1612
 3318TIP3    H1 9918   2.534   3.867   1.315  1.3093  0.7872  1.4067
 3318TIP3    H2 9919   2.489   4.007   1.355 -2.0471  0.4792 -0.8655
 3319TIP3   OH2 9920   1.580   5.040   1.054 -0.2594 -0.5114 -0.2431
 3319TIP3    H1 9921   1.657   5.093   1.073 -1.6346  2.3621 -2.0711
 3319TIP3    H2 9922   1.508   5.083   1.099 -1.9635  1.2341 -4.1402
 3320TIP3   OH2 9923   1.606   1.227   5.798 -0.3843 -0.0607 -0.1190
 3320TIP3    H1 9924   1.549   1.149   5.799  0.4643 -0.6927 -0.0867
 3320TIP3    H2 9925   1.617   1.248   5.706 -0.9396  0.2764 -0.1154
 3321TIP3   OH2 9926   3.774   3.470   3.111 -0.1239  0.2311  0.6678
 3321TIP3    H1 9927   3.807   3.552   3.075 -0.1740 -0.3624 -0.7681
 3321TIP3    H2 9928   3.748   3.493   3.201  1.1290  1.4588  0.7632
 3322TIP3   OH2 9929   3.742   1.834   5.754  0.5343 -0.1665  0.3068
 3322TIP3    H1 9930   3.720   1.906   5.814 -0.9594  1.0923 -1.6287
 3322TIP3    H2 9931   3.817   1.866   5.705  0.1916 -0.1345 -0.1994
 3323TIP3   OH2 9932   0.579   4.044   2.318 -0.2306 -0.0918  0.0307
 3323TIP3    H1 9933   0.558   4.071   2.228 -0.6739  0.9485  0.4261
 3323TIP3    H2 9934   0.541   3.957   2.326 -1.8368  0.5436 -0.2292
 3324TIP3   OH2 9935   5.192   6.263   5.633  0.0273 -0.0450  0.4076
 3324TIP3    H1 9936   5.130   6.260   5.561  0.5872  2.2362 -0.2270
 3324TIP3    H2 9937   5.203   6.171   5.659 -2.1727 -0.6680 -0.6469
 3325TIP3   OH2 9938   5.537   3.911   2.512  0.1294  0.0011 -0.0807
 3325TIP3    H1 9939   5.592   3.881   2.439 -3.2948 -0.8375 -2.5428
 3325TIP3    H2 9940   5.514   4.001   2.490  0.7349  0.4804  1.1343
 3326TIP3   OH2 9941   1.740   6.748   3.060  0.2093  0.1266  0.6724
 3326TIP3    H1 9942   1.755   6.825   3.114 -0.4246  1.0506 -0.4237
 3326TIP3    H2 9943   1.812   6.747   2.998 -1.0752  1.3137 -0.9270
 3327TIP3   OH2 9944   2.525   5.829   4.590  0.0463  0.1847 -0.3744
 3327TIP3    H1 9945   2.445   5.840   4.538  0.0434 -1.7003 -0.8570
 3327TIP3    H2 9946   2.586   5.784   4.530  2.5711  4.0074 -1.0187
 3328TIP3   OH2 9947   4.404   6.315   2.326 -0.7359 -0.0034 -0.0431
 3328TIP3    H1 9948   4.475   6.251   2.335 -0.9721 -0.1972  0.4509
 3328TIP3    H2 9949   4.433   6.373   2.256  0.0874  0.1458  0.4122
 3329TIP3   OH2 9950   4.805   2.917   0.155 -0.2580  0.2399 -0.2124
 3329TIP3    H1 9951   4.790   2.823   0.144 -0.1852  0.2533 -0.4389
 3329TIP3    H2 9952   4.808   2.951   0.066 -2.2794  0.7832 -0.1082
 3330TIP3   OH2 9953   6.286   5.969   5.018  0.2460 -0.4275 -0.5211
 3330TIP3    H1 9954   6.193   5.961   4.995  0.3987  0.3111 -1.4708
 3330TIP3    H2 9955   6.329   5.990   4.935  1.4879 -2.2104 -0.3952
 3331TIP3   OH2 9956   3.436   4.711   2.078  0.0801 -0.1217  0.6772
 3331TIP3    H1 9957   3.427   4.805   2.092  2.9723  0.5731 -1.2734
 3331TIP3    H2 9958   3.415   4.698   1.986  3.3035 -0.6671 -0.0908
 3332TIP3   OH2 9959   5.069   2.515   2.050  0.1322  0.5626  0.2040
 3332TIP3    H1 9960   5.114   2.570   2.114  2.1549  0.5924 -1.1601
 3332TIP3    H2 9961   4.996   2.568   2.020  0.5238  1.4623  0.8087
 3333TIP3   OH2 9962   0.384   3.199   4.726 -0.1296  0.1798  0.4817
 3333TIP3    H1 9963   0.389   3.292   4.707  0.0904  0.2100  0.6774
 3333TIP3    H2 9964   0.443   3.186   4.801 -0.2240 -0.0998  0.5118
 3334TIP3   OH2 9965   1.739   5.596   2.669 -0.1490 -0.1062  0.7851
 3334TIP3    H1 9966   1.668   5.654   2.698  0.7538  1.6121 -0.3013
 3334TIP3    H2 9967   1.819   5.639   2.699  0.6032 -0.2596 -0.8884
 3335TIP3   OH2 9968   1.252   5.228   5.124 -0.1203 -0.0817 -0.0478
 3335TIP3    H1 9969   1.296   5.175   5.058  0.3004 -0.5191  0.5732
 3335TIP3    H2 9970   1.162   5.237   5.091 -0.2619 -1.3613 -0.0690
 3336TIP3   OH2 9971   4.409   5.547   0.283  0.2885 -0.3887 -0.3009
 3336TIP3    H1 9972   4.356   5.606   0.337  1.4716  0.7753 -0.3779
 3336TIP3    H2 9973   4.480   5.602   0.250 -0.1657 -1.1377 -2.7323
 3337TIP3   OH2 9974   1.137   6.054   1.706  0.1131 -0.0069 -0.0151
 3337TIP3    H1 9975   1.077   6.070   1.779 -0.1518 -1.4572  0.1239
 3337TIP3    H2 9976   1.086   6.080   1.628 -0.6298 -0.9603  0.1247
 3338TIP3   OH2 9977   4.369   2.277   1.559 -0.4009  0.1654  0.6364
 3338TIP3    H1 9978   4.437   2.210   1.563  0.2321  0.5861 -1.4982
 3338TIP3    H2 9979   4.304   2.251   1.625  0.5396 -1.6974  0.8786
 3339TIP3   OH2 9980   1.845   2.423   0.655 -0.0462 -0.1237 -0.2028
 3339TIP3    H1 9981   1.885   2.377   0.729  0.9708  0.2464 -0.5097
 3339TIP3    H2 9982   1.751   2.407   0.666  0.2849 -3.3599 -1.0036
 3340TIP3   OH2 9983   4.050   3.422   1.026  0.5402  0.1228  0.6620
 3340TIP3    H1 9984   3.961   3.398   1.001  1.3861 -0.5250 -2.0278
 3340TIP3    H2 9985   4.042   3.509   1.064 -0.9591  1.2165 -1.9221
 3341TIP3   OH2 9986   6.742   2.909   3.181  0.0852 -0.4810  0.4585
 3341TIP3    H1 9987   6.728   2.917   3.275  1.7559 -2.4436  0.9566
 3341TIP3    H2 9988   6.757   2.998   3.151  0.0473  0.1302  2.1341
 3342TIP3   OH2 9989   2.897   6.667   4.295  0.1386  0.0378  0.3060
 3342TIP3    H1 9990   2.906   6.714   4.378  0.2926 -0.8753  0.8153
 3342TIP3    H2 9991   2.849   6.588   4.317 -1.8136  0.8122 -0.8778
 3343TIP3   OH2 9992   4.547   1.657   2.313  0.4637 -0.4932 -0.3293
 3343TIP3    H1 9993   4.596   1.605   2.377 -1.0970 -0.8309  0.6631
 3343TIP3    H2 9994   4.579   1.746   2.325  0.8159 -0.6979  0.3218
 3344TIP3   OH2 9995   4.514   1.138   0.349  0.4068 -0.3942 -0.0499
 3344TIP3    H1 9996   4.465   1.215   0.379  1.0438 -0.0138  0.0262
 3344TIP3    H2 9997   4.575   1.119   0.421  0.6838 -0.5901 -0.3364
 3345TIP3   OH2 9998   4.387   1.598   3.828  0.6261 -0.2698 -0.4458
 3345TIP3    H1 9999   4.323   1.548   3.778 -0.8706  1.1297 -0.0085
 3345TIP3    H210000   4.343   1.682   3.847  3.1144  1.3718 -1.4300
 3346TIP3   OH210001   2.076   2.221   3.455  0.0753 -0.1717 -0.0018
 3346TIP3    H110002   2.105   2.220   3.546 -2.8239 -0.4070  1.0198
 3346TIP3    H210003   2.156   2.206   3.404  2.0932  1.7458  2.3544
 3347TIP3   OH210004   0.471   3.084   4.201 -0.5076 -0.5203  0.5382
 3347TIP3    H110005   0.382   3.118   4.210 -0.9047 -1.4154  0.0503
 3347TIP3    H210006   0.503   3.075   4.291 -1.3333 -1.3126  0.7526
 3348TIP3   OH210007   6.463   1.908   2.926  0.6198 -0.2459  0.0938
 3348TIP3    H110008   6.395   1.961   2.884  1.3883  0.9908  0.3576
 3348TIP3    H210009   6.445   1.818   2.897 -2.9167 -0.5211  2.4831
 3349TIP3   OH210010   5.344   3.892   3.697  0.6087  0.3401  0.0784
 3349TIP3    H110011   5.301   3.840   3.764 -1.0098 -0.3207 -1.4093
 3349TIP3    H210012   5.393   3.829   3.645  0.3974  0.5842 -0.4245
 3350TIP3   OH210013   3.888   3.033   3.699  0.0856  0.0062  0.9855
 3350TIP3    H110014   3.866   3.095   3.631  0.6333 -1.4559 -0.5904
 3350TIP3    H210015   3.816   3.039   3.762 -0.4716  1.3127  0.2455
 3351TIP3   OH210016   5.384   1.571   0.287 -0.0837  0.1699 -0.0955
 3351TIP3    H110017   5.434   1.645   0.254  1.5248 -1.4015 -1.3680
 3351TIP3    H210018   5.300   1.577   0.242  0.0461  1.1555 -0.2273
 3352TIP3   OH210019   6.202   3.561   0.818 -0.6645 -0.0792 -0.5923
 3352TIP3    H110020   6.194   3.654   0.839  1.2710 -0.1355  0.6328
 3352TIP3    H210021   6.185   3.555   0.724 -2.9301  1.1737 -0.3446
 3353TIP3   OH210022   0.855   3.997   5.408 -0.6368  0.4774 -0.1255
 3353TIP3    H110023   0.807   4.037   5.481 -0.6299 -0.2651  0.3050
 3353TIP3    H210024   0.946   3.999   5.435 -0.6386  0.1665 -0.0895
 3354TIP3   OH210025   5.124   6.081   4.769  0.7254 -0.1579  0.2626
 3354TIP3    H110026   5.175   6.048   4.695  0.4934 -0.6817  0.3343
 3354TIP3    H210027   5.033   6.071   4.741  0.6526  0.3756  0.3051
 3355TIP3   OH210028   2.839   1.979   1.996  0.0346  0.3668 -0.1960
 3355TIP3    H110029   2.934   1.971   1.996  0.1340  1.1766 -1.6716
 3355TIP3    H210030   2.813   1.961   1.906 -1.2634 -0.2856  0.2898
 3356TIP3   OH210031   4.138   1.547   5.158 -0.2364 -0.3067  0.0991
 3356TIP3    H110032   4.179   1.525   5.074  0.4979 -0.1097  0.3955
 3356TIP3    H210033   4.191   1.619   5.193 -0.8185 -0.0696  0.5159
 3357TIP3   OH210034   5.065   1.679   2.180  0.5127 -0.1387  0.5267
 3357TIP3    H110035   4.988   1.687   2.236 -0.4595  1.9229 -0.9512
 3357TIP3    H210036   5.034   1.636   2.101  1.6439 -2.1238  1.0944
 3358TIP3   OH210037   6.758   1.940   2.656  0.4414  0.2763  0.0989
 3358TIP3    H110038   6.694   2.010   2.653  0.6868  0.5150  0.3482
 3358TIP3    H210039   6.833   1.974   2.608 -0.0794 -0.4926 -1.3197
 3359TIP3   OH210040   5.419   0.635   5.367  0.0711  0.3614 -0.7493
 3359TIP3    H110041   5.479   0.607   5.298 -0.5275 -0.6188 -0.8855
 3359TIP3    H210042   5.462   0.607   5.448 -0.1323 -0.2292 -0.8396
 3360TIP3   OH210043   6.869   3.193   5.332  0.3040 -0.8259 -0.0788
 3360TIP3    H110044   6.851   3.116   5.386 -0.5100 -0.6440 -0.0830
 3360TIP3    H210045   6.899   3.157   5.248  0.4699 -1.1272  0.1093
 3361TIP3   OH210046   5.769   5.337   2.384  0.1158  0.1084  0.3116
 3361TIP3    H110047   5.740   5.427   2.400 -0.6541 -0.0809  0.0338
 3361TIP3    H210048   5.846   5.326   2.440 -0.6360  0.4899  1.4578
 3362TIP3   OH210049   5.640   2.697   2.557 -0.4065 -0.0917 -0.1050
 3362TIP3    H110050   5.628   2.792   2.565 -0.0259 -0.1119  0.8589
 3362TIP3    H210051   5.659   2.668   2.646  0.7845 -0.8850 -0.5892
 3363TIP3   OH210052   0.285   3.172   5.910  0.4051  0.3851 -0.1683
 3363TIP3    H110053   0.257   3.185   5.819  1.2029 -0.6298 -0.5792
 3363TIP3    H210054   0.348   3.099   5.906 -0.8124 -0.8383  1.4172
 3364TIP3   OH210055   1.721   0.917   3.007 -0.0469  0.3147 -0.0852
 3364TIP3    H110056   1.746   0.845   2.948  1.6262  1.0654 -0.3644
 3364TIP3    H210057   1.748   0.888   3.094 -1.0871 -0.1447  0.0990
 3365TIP3   OH210058   4.959   2.169   2.400 -1.0262  0.2432 -0.1330
 3365TIP3    H110059   4.984   2.260   2.387 -0.7888  0.1905 -0.0548
 3365TIP3    H210060   5.027   2.134   2.458 -0.1476 -0.4418 -1.5203
 3366TIP3   OH210061   1.286   1.065   1.648 -0.2308 -0.0081 -0.2183
 3366TIP3    H110062   1.240   1.038   1.568 -0.8975  0.1917  0.0895
 3366TIP3    H210063   1.259   1.001   1.714  0.4715 -0.2899 -0.1877
 3367TIP3   OH210064   7.076   2.493   4.779 -0.2545 -0.8153  0.3303
 3367TIP3    H110065   7.074   2.516   4.872 -2.4827 -0.0372  0.1442
 3367TIP3    H210066   7.150   2.432   4.771 -0.6923 -1.7754  2.8044
 3368TIP3   OH210067   7.134   0.422   1.506  0.4166 -0.0434  0.0195
 3368TIP3    H110068   7.211   0.379   1.468  0.6779 -0.4048  0.9456
 3368TIP3    H210069   7.069   0.352   1.513  0.2977  0.0702  0.0513
 3369TIP3   OH210070   4.590   0.755   3.142  0.1918  0.8259 -0.1798
 3369TIP3    H110071   4.646   0.702   3.086 -0.2034  0.4577 -0.2298
 3369TIP3    H210072   4.635   0.757   3.227  1.6382  2.7313 -0.9081
 3370TIP3   OH210073   2.991   1.095   5.547 -0.4384 -0.3130 -0.0906
 3370TIP3    H110074   3.048   1.171   5.559 -1.9361  1.0528 -1.1045
 3370TIP3    H210075   3.044   1.020   5.574  1.0009  1.1074  1.2165
 3371TIP3   OH210076   5.029   6.563   0.498  0.4092 -0.0961  0.2654
 3371TIP3    H110077   5.037   6.618   0.576  0.5322  1.0653 -0.5280
 3371TIP3    H210078   5.118   6.530   0.483  0.2450 -0.8965  1.0030
 3372TIP3   OH210079   3.092   5.302   3.370 -0.4557 -0.2527  0.4468
 3372TIP3    H110080   3.171   5.258   3.401 -0.0482  0.9390  1.1493
 3372TIP3    H210081   3.034   5.302   3.446 -1.0536 -0.9214 -0.0002
 3373TIP3   OH210082   3.532   2.277   3.698 -0.3272  0.1172  0.3382
 3373TIP3    H110083   3.490   2.325   3.627 -0.1738  1.3735  1.0640
 3373TIP3    H210084   3.508   2.185   3.683 -0.1194  0.3110 -1.4403
 3374TIP3   OH210085   4.807   1.847   2.080  0.0537 -0.2443  0.3871
 3374TIP3    H110086   4.775   1.833   2.169  0.3472  1.9660  0.9040
 3374TIP3    H210087   4.884   1.903   2.091  0.7947 -0.8835 -1.2042
 3375TIP3   OH210088   4.552   4.284   5.651 -0.7432  0.2213 -0.4005
 3375TIP3    H110089   4.460   4.265   5.669 -0.7759 -0.1926 -0.9963
 3375TIP3    H210090   4.573   4.233   5.574 -0.4577  1.5348 -1.2272
 3376TIP3   OH210091   5.269   1.770   4.453  0.4839 -0.2820 -0.5929
 3376TIP3    H110092   5.219   1.696   4.487  1.6415 -0.8426 -0.0618
 3376TIP3    H210093   5.219   1.798   4.376 -0.9817 -0.3994  0.2685
 3377TIP3   OH210094   5.867   0.281   5.557 -0.4519  0.0767  0.6444
 3377TIP3    H110095   5.821   0.263   5.475 -0.9540 -0.1056  0.9578
 3377TIP3    H210096   5.815   0.349   5.599 -0.2771  0.0697  0.8765
 3378TIP3   OH210097   1.954   5.270   4.460 -0.4859 -0.2577  0.3498
 3378TIP3    H110098   2.025   5.246   4.519 -1.6853 -0.8476  1.5748
 3378TIP3    H210099   1.967   5.364   4.444  0.9012 -0.4734  0.0576
 3379TIP3   OH210100   5.171   1.950   5.454 -0.5562 -0.8606 -0.1807
 3379TIP3    H110101   5.124   1.909   5.527 -0.1105 -1.7592 -0.3881
 3379TIP3    H210102   5.199   2.034   5.489 -0.5540 -1.1799  0.6132
 3380TIP3   OH210103   3.004   5.841   5.551 -0.2789  0.3144 -0.2746
 3380TIP3    H110104   2.985   5.799   5.467 -2.1118  1.0316 -0.2601
 3380TIP3    H210105   3.042   5.771   5.604  2.0598  0.1137 -2.0127
 3381TIP3   OH210106   0.912   0.058   4.306  0.0106  0.2353 -0.1394
 3381TIP3    H110107   0.882   0.051   4.396  0.4320  1.3659  0.1059
 3381TIP3    H210108   0.847   0.114   4.263 -0.9888 -1.4651 -0.9352
 3382TIP3   OH210109   2.814   4.697   1.368  0.3015 -0.0774 -0.5277
 3382TIP3    H110110   2.826   4.775   1.422  2.1146 -1.2476  0.8770
 3382TIP3    H210111   2.795   4.627   1.431 -0.4757 -0.9490 -1.6818
 3383TIP3   OH210112   5.036   1.581   5.735 -0.1838  0.2085  0.3100
 3383TIP3    H110113   5.126   1.550   5.743  0.3666  1.6437  0.0286
 3383TIP3    H210114   4.989   1.507   5.696  1.2368 -0.0047 -1.1227
 3384TIP3   OH210115   2.701   1.708   4.459 -0.3717 -0.2595  0.0799
 3384TIP3    H110116   2.745   1.750   4.533 -0.7561 -0.4284  0.4071
 3384TIP3    H210117   2.613   1.747   4.458 -0.4872 -0.5188 -0.0631
 3385TIP3   OH210118   7.083   0.768   4.973 -0.1185  0.2452  0.1416
 3385TIP3    H110119   7.149   0.809   4.917  0.2012  0.9850  1.0398
 3385TIP3    H210120   7.004   0.765   4.919 -0.0976  1.8777 -0.0340
 3386TIP3   OH210121   5.594   1.534   5.362 -0.0920  0.3707  0.0882
 3386TIP3    H110122   5.606   1.443   5.335  1.0327 -0.0348  1.7880
 3386TIP3    H210123   5.539   1.528   5.440  0.6406  1.0835  0.6616
 3387TIP3   OH210124   3.609   3.866   2.730 -0.2550  0.3424 -0.2796
 3387TIP3    H110125   3.703   3.855   2.743 -0.1087 -0.3749 -1.7074
 3387TIP3    H210126   3.569   3.794   2.779 -0.0021  0.1464 -0.3588
 3388TIP3   OH210127   3.082   5.768   5.106  0.2042 -0.2881  0.7955
 3388TIP3    H110128   3.116   5.850   5.069  1.1035 -0.4969  1.1271
 3388TIP3    H210129   3.000   5.753   5.059  0.4596  0.3528  0.1141
 3389TIP3   OH210130   7.080   6.461   5.163  0.1462 -0.2014  0.1550
 3389TIP3    H110131   7.033   6.535   5.202 -2.2814 -1.9765  0.8600
 3389TIP3    H210132   7.153   6.444   5.223 -0.8577 -0.0148  1.4721
 3390TIP3   OH210133   1.037   2.462   1.400 -0.1916  0.1249 -0.4786
 3390TIP3    H110134   1.028   2.394   1.333 -0.9607  0.0754 -0.3319
 3390TIP3    H210135   1.126   2.494   1.389  0.2615 -1.0480 -0.4180
 3391TIP3   OH210136   5.641   0.600   1.411 -0.0046 -0.4950 -0.0505
 3391TIP3    H110137   5.555   0.583   1.372 -0.0436  0.5140 -0.4248
 3391TIP3    H210138   5.637   0.691   1.441  0.0960 -1.1588  2.1721
 3392TIP3   OH210139   0.799   0.311   0.539 -0.1611 -0.3147  0.4676
 3392TIP3    H110140   0.838   0.250   0.601 -2.2466 -0.4737  1.7161
 3392TIP3    H210141   0.735   0.259   0.490 -0.5248  0.4266  0.1303
 3393TIP3   OH210142   4.102   2.143   2.479 -0.0987  0.2467  0.1176
 3393TIP3    H110143   4.093   2.223   2.532  0.3427  0.1482  0.3487
 3393TIP3    H210144   4.032   2.086   2.509 -1.1056  0.9562 -0.8069
 3394TIP3   OH210145   5.232   5.759   3.058  0.1363  0.0920  0.3632
 3394TIP3    H110146   5.158   5.725   3.007  0.5099 -0.7095  0.3447
 3394TIP3    H210147   5.230   5.707   3.139  0.7122  0.0344  0.3395
 3395TIP3   OH210148   5.939   2.526   2.285 -0.3149 -0.3348 -0.4425
 3395TIP3    H110149   5.931   2.473   2.365 -0.7791 -0.8900 -0.8489
 3395TIP3    H210150   6.032   2.522   2.263 -0.2604 -0.5628 -0.1837
 3396TIP3   OH210151   1.328   4.262   0.417 -0.3650 -0.2416 -0.3356
 3396TIP3    H110152   1.309   4.193   0.481 -0.4076  0.0436 -0.0391
 3396TIP3    H210153   1.288   4.231   0.336 -0.6682 -0.4110 -0.1225
 3397TIP3   OH210154   3.201   5.508   3.973 -0.9041 -0.5620  0.1421
 3397TIP3    H110155   3.215   5.515   4.067 -0.9525 -1.1876  0.2001
 3397TIP3    H210156   3.151   5.587   3.950  0.6830  0.5412  0.3160
 3398TIP3   OH210157   5.150   3.105   4.163  0.0165 -0.6127 -0.6368
 3398TIP3    H110158   5.055   3.116   4.155  0.0489  1.2217  0.7744
 3398TIP3    H210159   5.161   3.055   4.243  0.2663  0.0570 -0.2524
 3399TIP3   OH210160   5.711   0.017   3.877  0.2114 -0.1321  0.6998
 3399TIP3    H110161   5.633  -0.038   3.869 -1.6063  2.4650 -2.3048
 3399TIP3    H210162   5.734   0.038   3.786  1.4001  3.0435  1.5953
 3400TIP3   OH210163   6.399   5.901   3.910 -0.0015  0.3762 -0.0152
 3400TIP3    H110164   6.372   5.811   3.930 -1.2384  0.6555 -0.3308
 3400TIP3    H210165   6.351   5.923   3.830  0.3276  1.3048  0.0310
 3401TIP3   OH210166   0.747   1.255   3.457  0.0579  0.5265 -0.2462
 3401TIP3    H110167   0.788   1.191   3.399  1.3768  0.8198  0.3158
 3401TIP3    H210168   0.767   1.339   3.418  1.0561  0.7350  0.6443
 3402TIP3   OH210169   3.177   0.060   1.254  0.0126  0.2058 -0.6378
 3402TIP3    H110170   3.152   0.033   1.166  1.4871 -0.4552 -0.8786
 3402TIP3    H210171   3.228   0.140   1.242 -2.8891  2.2894 -0.0498
 3403TIP3   OH210172   6.710   4.121   0.659  0.1487  0.9904 -0.0385
 3403TIP3    H110173   6.659   4.119   0.740 -1.1935  0.7337 -0.8641
 3403TIP3    H210174   6.708   4.030   0.627  1.3609  0.9124  0.0324
 3404TIP3   OH210175   2.818   1.871   4.682 -0.2453 -0.0624 -0.3273
 3404TIP3    H110176   2.910   1.886   4.660 -0.0677  0.1057  0.4771
 3404TIP3    H210177   2.814   1.887   4.776 -0.9239 -0.9277 -0.2010
 3405TIP3   OH210178   0.570   2.218   4.880 -0.6775  0.3527  0.2422
 3405TIP3    H110179   0.650   2.271   4.887 -0.2554 -0.4488  2.1433
 3405TIP3    H210180   0.511   2.272   4.828  1.0361  1.0185 -1.1431
 3406TIP3   OH210181   0.678   5.963   3.743 -0.3397 -0.4981 -0.2286
 3406TIP3    H110182   0.690   6.050   3.781 -0.3903 -0.3119 -0.6426
 3406TIP3    H210183   0.602   5.927   3.790 -1.1004  0.1647 -0.9170
 3407TIP3   OH210184   4.792   6.165   4.159 -0.3839 -0.1032 -0.6113
 3407TIP3    H110185   4.752   6.217   4.089  0.3339  0.2795 -0.7457
 3407TIP3    H210186   4.882   6.149   4.128 -0.3323 -0.6791 -0.1743
 3408TIP3   OH210187   7.216   5.358   5.274  0.0235  0.2702  0.7929
 3408TIP3    H110188   7.250   5.350   5.363  0.1408  0.0214  0.7269
 3408TIP3    H210189   7.134   5.406   5.284  0.2203  0.5636  0.9924
 3409TIP3   OH210190   5.955   6.529   1.411  0.0144 -0.6029 -0.1444
 3409TIP3    H110191   5.870   6.508   1.374 -0.3394 -1.5485  1.1382
 3409TIP3    H210192   5.982   6.609   1.366 -1.3856 -0.4849 -0.8126
 3410TIP3   OH210193   4.881   1.215   5.846  0.2503 -0.0464 -0.0381
 3410TIP3    H110194   4.962   1.165   5.853  0.3407  0.3072  1.7767
 3410TIP3    H210195   4.880   1.271   5.923 -1.4970  0.3091 -0.2710
 3411TIP3   OH210196   6.323   1.488   4.648  0.3579  0.1966  0.0898
 3411TIP3    H110197   6.314   1.583   4.637 -0.1526  0.2973  1.2124
 3411TIP3    H210198   6.259   1.466   4.715 -0.2300 -1.1146 -0.8659
 3412TIP3   OH210199   4.701   4.667   1.709 -0.1334  0.0432  0.3094
 3412TIP3    H110200   4.747   4.584   1.722  0.6811  0.4318 -0.0243
 3412TIP3    H210201   4.725   4.720   1.786  0.2261  0.3527 -0.0109
 3413TIP3   OH210202   2.760   2.555   1.926 -0.3374  0.5756 -0.3453
 3413TIP3    H110203   2.742   2.643   1.959 -3.1364  0.3460 -1.0381
 3413TIP3    H210204   2.682   2.505   1.947  0.5899 -1.3746 -1.3063
 3414TIP3   OH210205   2.884   4.590   2.359 -0.0732 -0.3419 -0.2469
 3414TIP3    H110206   2.917   4.523   2.419  0.4784  0.3531  0.2450
 3414TIP3    H210207   2.871   4.544   2.276 -1.1436 -1.3861  0.4790
 3415TIP3   OH210208   3.391   2.418   5.272  0.2582 -0.4900 -0.3183
 3415TIP3    H110209   3.346   2.443   5.191  0.6499  2.4031  0.2476
 3415TIP3    H210210   3.469   2.371   5.243  0.0692 -0.0538 -1.5945
 3416TIP3   OH210211   3.810   4.873   4.416  0.0725  0.2465 -0.1994
 3416TIP3    H110212   3.900   4.853   4.389 -0.1764  0.5646 -1.2958
 3416TIP3    H210213   3.782   4.794   4.462 -0.1517 -1.1802 -2.6199
 3417TIP3   OH210214   7.014   0.549   3.484 -0.1604 -0.0295  0.1315
 3417TIP3    H110215   6.980   0.609   3.550 -1.2286  2.0421 -2.1448
 3417TIP3    H210216   7.102   0.581   3.466 -0.1114 -0.1861  0.0881
 3418TIP3   OH210217   0.825   5.852   1.918 -0.1001 -0.2182  0.2430
 3418TIP3    H110218   0.861   5.877   2.004 -0.7420 -0.7475  0.6774
 3418TIP3    H210219   0.736   5.822   1.937 -1.0547  1.6920 -0.8925
 3419TIP3   OH210220   0.498   0.778   1.053  0.2324  0.2094  0.1013
 3419TIP3    H110221   0.497   0.810   1.143 -0.2494 -0.8264  0.4798
 3419TIP3    H210222   0.591   0.768   1.032  0.3446  0.3581  0.5106
 3420TIP3   OH210223   3.424   5.273   1.106 -0.3773  0.3049 -0.0418
 3420TIP3    H110224   3.487   5.237   1.169 -0.2465  0.7601  0.0905
 3420TIP3    H210225   3.430   5.368   1.117 -0.7168  0.3708 -0.3913
 3421TIP3   OH210226   3.998   6.412   2.629  0.2205 -0.4373  0.9699
 3421TIP3    H110227   4.088   6.417   2.662  0.0202 -1.7811  1.8005
 3421TIP3    H210228   4.005   6.439   2.537  1.4766 -0.5055  1.0236
 3422TIP3   OH210229   6.911   6.339   4.713 -0.0694 -0.6095  0.0112
 3422TIP3    H110230   6.904   6.356   4.807 -1.9329  0.1460 -0.2206
 3422TIP3    H210231   6.969   6.408   4.681 -1.2140  0.5042  0.2844
 3423TIP3   OH210232   0.852   1.497   3.312 -0.0345 -0.3599  0.3096
 3423TIP3    H110233   0.934   1.459   3.342  1.5097  1.4377 -1.3729
 3423TIP3    H210234   0.852   1.484   3.217 -0.3381  1.9926 -0.0856
 3424TIP3   OH210235   2.889   3.843   2.210 -0.0034 -0.0053  0.0282
 3424TIP3    H110236   2.961   3.802   2.259 -0.6698 -1.4117 -0.1153
 3424TIP3    H210237   2.828   3.872   2.278 -0.6013 -1.3329  0.0806
 3425TIP3   OH210238   0.578   0.074   0.031  0.4181 -0.3436  0.1016
 3425TIP3    H110239   0.491   0.092   0.066 -0.5660 -1.6877 -1.5095
 3425TIP3    H210240   0.562   0.020  -0.047  2.7185 -0.9456 -0.0234
 3426TIP3   OH210241   3.982   4.736   4.770 -0.4271  0.1529  0.1166
 3426TIP3    H110242   3.894   4.769   4.749 -0.2024  0.6163 -0.1100
 3426TIP3    H210243   3.966   4.655   4.819 -0.9728 -0.2305 -0.6660
 3427TIP3   OH210244   3.723   5.480   0.210  0.2792  0.3682  0.1958
 3427TIP3    H110245   3.797   5.507   0.264  0.7576 -2.0626  0.8597
 3427TIP3    H210246   3.763   5.454   0.127  0.0705 -0.0802  0.2353
 3428TIP3   OH210247   0.957   3.952   0.113  0.6038 -0.2357 -0.1452
 3428TIP3    H110248   0.866   3.921   0.117  0.7814 -0.8836 -1.0107
 3428TIP3    H210249   0.963   4.016   0.184 -0.3866 -0.5607  0.2473
 3429TIP3   OH210250   4.056   3.932   5.742  0.4218 -0.0843 -0.7903
 3429TIP3    H110251   3.995   3.870   5.781  2.1661 -1.3108  0.0864
 3429TIP3    H210252   4.120   3.878   5.696  0.0430  1.2281 -3.0117
 3430TIP3   OH210253   0.721   5.353   5.742  0.6484 -0.5444 -0.2544
 3430TIP3    H110254   0.696   5.261   5.752 -0.2978 -0.1430  1.5872
 3430TIP3    H210255   0.765   5.375   5.824  0.7119  0.6890 -0.6005
 3431TIP3   OH210256   1.679   1.694   5.663 -0.0170 -0.0650 -0.0799
 3431TIP3    H110257   1.774   1.697   5.678 -0.1974  1.7871  1.0565
 3431TIP3    H210258   1.643   1.659   5.745 -0.3147 -1.2335 -0.6863
 3432TIP3   OH210259   7.191   6.621   4.741 -0.1394  0.0796  0.2715
 3432TIP3    H110260   7.249   6.683   4.786 -0.0006  0.0279  0.1649
 3432TIP3    H210261   7.164   6.560   4.809  1.5146 -1.0848 -0.0667
 3433TIP3   OH210262   3.724   1.383   2.241  0.4908  0.2080 -0.8426
 3433TIP3    H110263   3.658   1.408   2.305  0.8516 -0.5731 -0.1417
 3433TIP3    H210264   3.734   1.460   2.184  0.0387  0.8446 -0.0691
 3434TIP3   OH210265   0.919   0.491   2.887  0.2676  0.2090 -0.5041
 3434TIP3    H110266   0.921   0.555   2.816  1.6960  0.3213 -0.3962
 3434TIP3    H210267   1.011   0.471   2.904 -0.0920 -0.6604  0.5645
 3435TIP3   OH210268   2.789   1.943   3.406 -0.0522  0.6432  0.4067
 3435TIP3    H110269   2.856   1.917   3.344  0.3640  0.5547  0.8851
 3435TIP3    H210270   2.800   1.883   3.480 -1.3556 -0.0748  0.0479
 3436TIP3   OH210271   4.230   5.769   1.307 -0.3103  0.0650  0.0248
 3436TIP3    H110272   4.239   5.728   1.393 -1.4267  1.3283  0.7769
 3436TIP3    H210273   4.310   5.743   1.260 -0.4053 -1.9615  0.8467
 3437TIP3   OH210274   1.050   3.600   3.780 -0.3742  0.1092  0.2196
 3437TIP3    H110275   1.031   3.649   3.860 -2.0731 -0.2826  0.0894
 3437TIP3    H210276   0.968   3.601   3.731  0.1327 -1.1616 -0.7094
 3438TIP3   OH210277   1.125   0.191   4.178 -0.5713 -0.1983  0.1082
 3438TIP3    H110278   1.173   0.140   4.114 -0.2799 -1.1934  1.0933
 3438TIP3    H210279   1.064   0.129   4.218 -0.2617  0.2234  1.2722
 3439TIP3   OH210280   7.172   2.963   3.787 -0.2030 -0.2179  0.3960
 3439TIP3    H110281   7.136   3.025   3.723 -0.8310  0.8265  1.7063
 3439TIP3    H210282   7.244   2.920   3.741 -1.3417 -0.3272 -1.3782
 3440TIP3   OH210283   3.345   1.935   2.191 -0.2827  0.3530 -0.5151
 3440TIP3    H110284   3.372   2.012   2.242 -2.1075  1.8002 -1.6009
 3440TIP3    H210285   3.403   1.935   2.115  0.8243 -0.3790  0.2929
 3441TIP3   OH210286   0.095  -0.002   4.954 -0.2663  0.2998  0.0992
 3441TIP3    H110287   0.112  -0.038   4.867 -2.5503 -0.8683  0.0880
 3441TIP3    H210288   0.076   0.091   4.938  0.6878  0.4177 -0.4471
 3442TIP3   OH210289   5.281   2.606   0.806 -0.2148 -0.1638 -0.3018
 3442TIP3    H110290   5.318   2.542   0.867 -0.0998  0.0182 -0.1809
 3442TIP3    H210291   5.319   2.583   0.721  1.4474  1.0079  0.0841
 3443TIP3   OH210292   7.038   2.840   3.527  0.3210  0.2714  0.0582
 3443TIP3    H110293   6.949   2.861   3.498  0.5196  1.9800  0.5640
 3443TIP3    H210294   7.074   2.924   3.554  1.7006 -0.5754  0.9455
 3444TIP3   OH210295   5.637   4.458   3.205 -0.1298 -0.1304 -0.2915
 3444TIP3    H110296   5.719   4.430   3.167  2.1567  1.9581  2.6017
 3444TIP3    H210297   5.613   4.387   3.265  0.2253 -0.2379 -0.2743
 3445TIP3   OH210298   1.315   3.500   1.871  0.3243 -0.3710 -0.1769
 3445TIP3    H110299   1.377   3.430   1.851 -0.0751 -0.2905 -1.9223
 3445TIP3    H210300   1.291   3.535   1.785 -0.0685  1.4020  0.6218
 3446TIP3   OH210301   3.826   0.204   0.074  0.0235  0.1231 -0.1322
 3446TIP3    H110302   3.830   0.293   0.039  0.6715  0.0549 -0.2408
 3446TIP3    H210303   3.882   0.153   0.016 -1.9846 -0.8166 -1.3793
 3447TIP3   OH210304   5.736   2.677   5.759  0.0970 -0.0054 -0.2999
 3447TIP3    H110305   5.677   2.692   5.685 -0.4092  0.4982  0.1943
 3447TIP3    H210306   5.800   2.747   5.753 -0.4401  0.5445  0.2130
 3448TIP3   OH210307   4.124   2.624   3.989 -0.2566  0.4575 -0.6237
 3448TIP3    H110308   4.177   2.686   4.039 -0.7044  0.8040 -0.5806
 3448TIP3    H210309   4.158   2.632   3.899  1.4043 -1.0817 -0.1744
 3449TIP3   OH210310   4.600   3.093   1.892 -0.0311 -0.2761 -0.0502
 3449TIP3    H110311   4.685   3.049   1.889 -0.2769 -0.8013  0.3473
 3449TIP3    H210312   4.561   3.063   1.975  0.2450  1.5640  0.7773
 3450TIP3   OH210313   2.116   3.702   2.514  0.4028 -0.0587  0.2445
 3450TIP3    H110314   2.108   3.795   2.494 -0.5911 -0.2169 -0.1471
 3450TIP3    H210315   2.068   3.691   2.596  0.9629 -0.1479  0.5697
 3451TIP3   OH210316   6.451   1.284   2.759  0.6953 -0.0838  0.1107
 3451TIP3    H110317   6.464   1.354   2.695 -0.1512  0.7461  0.8346
 3451TIP3    H210318   6.476   1.323   2.843 -0.0017 -0.5699  0.5534
 3452TIP3   OH210319   2.124   3.928   2.745  0.2092 -0.3403 -0.0583
 3452TIP3    H110320   2.066   3.853   2.756  0.9206 -0.7489  0.9363
 3452TIP3    H210321   2.190   3.919   2.813 -0.3160  1.7809  0.8237
 3453TIP3   OH210322   3.910   1.784   3.709 -0.1975  0.0640  0.6905
 3453TIP3    H110323   3.878   1.747   3.626  0.0176  0.4235  0.4431
 3453TIP3    H210324   3.832   1.818   3.752 -0.2633  0.1928  0.4721
 3454TIP3   OH210325   1.179   3.444   3.487  0.2417 -0.5243 -0.3036
 3454TIP3    H110326   1.192   3.457   3.393  0.3333  0.2764 -0.1876
 3454TIP3    H210327   1.231   3.514   3.528  0.4241 -1.0327  0.3524
 3455TIP3   OH210328   5.714   1.583   3.761  0.2592  0.0746  0.0625
 3455TIP3    H110329   5.695   1.573   3.855  1.4601 -0.4214  0.2797
 3455TIP3    H210330   5.738   1.495   3.732  0.0101  0.2488 -0.6852
 3456TIP3   OH210331   3.259   2.597   2.609  1.1446 -0.4619 -0.2308
 3456TIP3    H110332   3.295   2.685   2.603 -1.4536  0.7012 -0.1771
 3456TIP3    H210333   3.208   2.597   2.691  1.9414 -2.3982  0.3361
 3457TIP3   OH210334   0.051   0.242   0.928 -0.4423  0.6330 -0.0413
 3457TIP3    H110335  -0.027   0.263   0.877 -0.9789  0.0130  0.4959
 3457TIP3    H210336   0.088   0.327   0.952 -0.8949  0.9305 -0.3884
 3458TIP3   OH210337   1.489   0.356   4.922  0.3800 -0.1670  0.0347
 3458TIP3    H110338   1.449   0.349   4.835  0.2004  0.9843  0.0071
 3458TIP3    H210339   1.425   0.318   4.982  0.6143 -1.2040 -0.3545
 3459TIP3   OH210340   2.690   4.210   1.814  0.1899  0.1209  0.3362
 3459TIP3    H110341   2.753   4.165   1.871 -0.5513 -1.0092  0.2957
 3459TIP3    H210342   2.630   4.254   1.874  0.4577  0.4169  0.3901
 3460TIP3   OH210343   4.719   6.582   3.596  0.1215  0.0938  0.6082
 3460TIP3    H110344   4.710   6.566   3.502  0.1075  1.0038  0.4427
 3460TIP3    H210345   4.642   6.541   3.635 -0.0502  0.0050  0.1821
 3461TIP3   OH210346   1.784   4.187   3.564  0.9297 -0.7967 -0.7736
 3461TIP3    H110347   1.812   4.276   3.544 -2.4035  0.1745 -1.7993
 3461TIP3    H210348   1.757   4.151   3.479  1.0057 -2.3367 -0.1825
 3462TIP3   OH210349   4.973   5.061   0.629  0.6824 -0.2629  0.3508
 3462TIP3    H110350   5.010   5.096   0.548 -0.3747 -1.1237 -0.5380
 3462TIP3    H210351   4.959   5.138   0.684  0.2090  0.5050 -0.8024
 3463TIP3   OH210352   4.509   1.778   0.572 -0.8206  0.3860 -0.2868
 3463TIP3    H110353   4.498   1.848   0.636 -1.6225  0.5321 -0.5774
 3463TIP3    H210354   4.421   1.763   0.537 -0.0936  2.1708 -3.3047
 3464TIP3   OH210355   5.737   3.190   3.593  0.5519 -0.3572 -0.1384
 3464TIP3    H110356   5.831   3.205   3.601  0.3610  1.0064 -0.2009
 3464TIP3    H210357   5.702   3.274   3.564 -0.2616 -1.7099 -3.5933
 3465TIP3   OH210358   3.948   1.181   5.577  0.4937  0.7200  0.3579
 3465TIP3    H110359   4.039   1.197   5.604  1.1520  1.3350 -1.9775
 3465TIP3    H210360   3.927   1.255   5.520 -1.5142  0.6092  0.8962
 3466TIP3   OH210361   4.518   5.937   5.470  0.5510 -0.0964 -0.8236
 3466TIP3    H110362   4.493   5.847   5.448 -1.1411  0.6012 -2.0028
 3466TIP3    H210363   4.544   5.933   5.562 -2.5829 -1.2836  0.1706
 3467TIP3   OH210364   1.755   3.004   4.474  0.2898  0.0699  0.1349
 3467TIP3    H110365   1.840   2.959   4.474  1.2934  1.8174  1.1241
 3467TIP3    H210366   1.735   3.018   4.382  0.8445 -0.7758 -0.1251
 3468TIP3   OH210367   3.051   0.791   1.208  0.0301 -0.1664 -0.3130
 3468TIP3    H110368   3.006   0.770   1.126  1.6911 -0.7038 -1.1368
 3468TIP3    H210369   3.106   0.866   1.187  0.2322 -0.1134  0.3880
 3469TIP3   OH210370   0.764   2.748   3.235  0.4542  0.0029 -0.4906
 3469TIP3    H110371   0.775   2.842   3.242 -0.2542 -0.0391  1.5970
 3469TIP3    H210372   0.709   2.736   3.157 -0.5980  1.4063  0.0045
 3470TIP3   OH210373   4.767   1.984   0.382  0.0028 -0.3184  0.2835
 3470TIP3    H110374   4.806   2.051   0.327  0.2880 -0.3056  0.5004
 3470TIP3    H210375   4.790   2.010   0.472 -1.2937  0.2139  0.4820
 3471TIP3   OH210376   1.793   6.169   3.116  0.0369 -0.1432 -0.8328
 3471TIP3    H110377   1.846   6.170   3.037 -0.9769 -1.6082 -1.5835
 3471TIP3    H210378   1.712   6.213   3.091 -1.2232 -2.6122 -1.3899
 3472TIP3   OH210379   5.645   0.861   1.499  0.2858  0.3097  0.0045
 3472TIP3    H110380   5.678   0.869   1.589 -0.5004  0.4947  0.2868
 3472TIP3    H210381   5.628   0.951   1.471  0.0366  0.2227 -0.1326
 3473TIP3   OH210382   1.008   0.064   5.428  0.2141 -0.2960  0.2845
 3473TIP3    H110383   0.937   0.003   5.447 -0.8457  0.5572 -0.7897
 3473TIP3    H210384   0.964   0.147   5.410  1.1628 -0.4050 -3.3485
 3474TIP3   OH210385   1.113   2.177   2.139  0.0978 -0.4302  0.3013
 3474TIP3    H110386   1.020   2.182   2.117  0.2871  1.8946 -0.2832
 3474TIP3    H210387   1.126   2.088   2.171 -2.3789 -0.7115  0.7002
 3475TIP3   OH210388   3.473   6.527   3.964  0.1683  0.0108 -0.0689
 3475TIP3    H110389   3.491   6.579   4.042  0.9341  0.0254 -0.2467
 3475TIP3    H210390   3.548   6.468   3.957  0.3729  0.3648 -1.0841
 3476TIP3   OH210391   6.210   0.517   2.764  0.1617 -0.3232 -0.1363
 3476TIP3    H110392   6.249   0.479   2.843 -0.1253  1.1713  0.7779
 3476TIP3    H210393   6.126   0.472   2.755  0.1955 -0.5166  0.4192
 3477TIP3   OH210394   1.813   5.465   5.764  0.0352 -0.2808 -0.0496
 3477TIP3    H110395   1.859   5.387   5.734 -0.4389 -0.9864  0.9759
 3477TIP3    H210396   1.721   5.439   5.763 -0.3370  0.9617 -1.6563
 3478TIP3   OH210397   5.466   2.019   4.327 -0.8861 -0.1869 -0.4197
 3478TIP3    H110398   5.383   1.977   4.304 -0.3976 -0.9170 -0.9222
 3478TIP3    H210399   5.513   2.025   4.244  0.0435 -0.8878  0.0444
 3479TIP3   OH210400   4.675   4.146   3.072  0.5976  0.5069 -0.4180
 3479TIP3    H110401   4.728   4.223   3.052  1.0998  0.3092  0.1087
 3479TIP3    H210402   4.739   4.076   3.085  0.2375  0.3655  0.6697
 3480TIP3   OH210403   6.816   5.813   5.714  0.3951 -0.0463  0.5001
 3480TIP3    H110404   6.746   5.869   5.747  0.4975  0.4942 -0.1769
 3480TIP3    H210405   6.826   5.745   5.780 -0.0978  0.4324  1.0727
 3481TIP3   OH210406   3.440   4.493   3.176  0.2579  0.0773 -0.0722
 3481TIP3    H110407   3.450   4.475   3.082  1.6522  0.3998 -0.0072
 3481TIP3    H210408   3.523   4.466   3.215  0.0320  0.7752  0.9341
 3482TIP3   OH210409   2.162   2.691   3.238  0.1113  0.9874  0.0219
 3482TIP3    H110410   2.223   2.721   3.305 -1.6394  3.5316  0.6455
 3482TIP3    H210411   2.097   2.640   3.285 -0.1896  1.3373 -0.0075
 3483TIP3   OH210412   5.993   3.210   5.350  0.0870 -0.7199  0.3542
 3483TIP3    H110413   5.936   3.268   5.298  2.0398  0.5804 -0.4449
 3483TIP3    H210414   5.935   3.174   5.417 -1.1684  2.7593  1.3890
 3484TIP3   OH210415   3.063   3.398   2.772 -0.0649 -0.5229  0.1356
 3484TIP3    H110416   3.105   3.365   2.852  0.0881 -0.6910 -0.0140
 3484TIP3    H210417   2.970   3.405   2.795  0.1817  0.9507  0.8429
 3485TIP3   OH210418   6.417   2.697   1.915  0.3710  0.5676  0.2117
 3485TIP3    H110419   6.428   2.779   1.964 -1.4657  0.9048  0.1310
 3485TIP3    H210420   6.424   2.722   1.823  1.1057  0.3905  0.2105
 3486TIP3   OH210421   3.719   1.560   4.803  0.5372 -0.2378  0.5556
 3486TIP3    H110422   3.703   1.551   4.709 -0.4756 -0.9642  0.7823
 3486TIP3    H210423   3.796   1.617   4.809  0.0233  0.6280 -0.6830
 3487TIP3   OH210424   0.365   4.065   1.614 -0.4229 -0.3804  0.1944
 3487TIP3    H110425   0.276   4.073   1.580 -1.9509  0.2720  3.8708
 3487TIP3    H210426   0.364   3.985   1.667  1.0897 -0.2367  0.4918
 3488TIP3   OH210427   1.100   3.472   5.905 -0.2608 -0.3436  0.3594
 3488TIP3    H110428   1.095   3.535   5.833  0.9762  0.3786  0.8700
 3488TIP3    H210429   1.168   3.411   5.878  0.5400  0.1946  1.0810
 3489TIP3   OH210430   3.884   2.566   0.388 -0.3630  0.2118 -0.9002
 3489TIP3    H110431   3.878   2.612   0.304  0.7842 -1.6409 -2.0379
 3489TIP3    H210432   3.901   2.475   0.366 -1.6567 -0.6623  1.3183
 3490TIP3   OH210433   2.542   1.013   4.437  0.7434  0.1985 -0.4788
 3490TIP3    H110434   2.480   1.084   4.454 -0.3618 -0.8902  0.2729
 3490TIP3    H210435   2.527   0.952   4.510  0.9122 -1.2775 -1.6493
 3491TIP3   OH210436   0.679   6.263   3.279  0.2866 -0.0326 -0.0598
 3491TIP3    H110437   0.737   6.255   3.204 -1.2914  0.3979 -1.3806
 3491TIP3    H210438   0.687   6.178   3.324  0.6395 -0.6220 -1.1902
 3492TIP3   OH210439   4.957   5.300   2.267  0.2000 -0.7650  0.2124
 3492TIP3    H110440   4.917   5.289   2.180 -1.5977 -1.7228  1.1179
 3492TIP3    H210441   4.908   5.371   2.307 -0.7443 -2.0417  1.3908
 3493TIP3   OH210442   6.571   2.562   4.161 -0.6112  0.2178  0.4947
 3493TIP3    H110443   6.510   2.581   4.090  0.0759  0.3318 -0.0723
 3493TIP3    H210444   6.635   2.633   4.158  0.3992 -0.6735  0.1119
 3494TIP3   OH210445   0.582   5.541   2.793  0.4440  0.1227  0.0490
 3494TIP3    H110446   0.618   5.472   2.737  2.9464  0.8838  0.5667
 3494TIP3    H210447   0.555   5.609   2.732  0.3501 -0.2775 -0.3620
 3495TIP3   OH210448   2.523   1.905   0.162 -0.0805 -0.2074 -0.4249
 3495TIP3    H110449   2.511   1.898   0.068 -0.9561  1.7817 -0.5037
 3495TIP3    H210450   2.496   1.994   0.184 -1.2043 -1.0277  1.9049
 3496TIP3   OH210451   5.015   1.255   3.168  0.4818  0.6781  0.1030
 3496TIP3    H110452   4.920   1.268   3.161  0.3266 -1.1540 -2.6200
 3496TIP3    H210453   5.038   1.293   3.253 -2.4491  2.3884  0.2664
 3497TIP3   OH210454   2.859   3.688   4.311 -0.8094  0.5957  0.0722
 3497TIP3    H110455   2.772   3.653   4.291 -0.3621 -1.8370  1.8171
 3497TIP3    H210456   2.859   3.697   4.407  0.6924  1.0257  0.0583
 3498TIP3   OH210457   7.002   1.975   3.874 -0.0455 -0.3771  0.5301
 3498TIP3    H110458   6.971   1.885   3.884 -1.7226 -0.0678 -1.3849
 3498TIP3    H210459   6.924   2.029   3.885  0.0315  0.5452 -2.4992
 3499TIP3   OH210460   4.718   3.943   5.677 -0.0825  0.0143 -0.6495
 3499TIP3    H110461   4.742   3.956   5.585 -2.7052  2.3152 -1.1369
 3499TIP3    H210462   4.683   3.855   5.681  0.4069 -0.2483 -1.7549
 3500TIP3   OH210463   2.611   1.623   2.976 -0.0884  0.0604 -0.1714
 3500TIP3    H110464   2.555   1.582   2.909 -0.5575 -1.6421  1.1838
 3500TIP3    H210465   2.692   1.643   2.929 -0.8127 -0.0018 -1.5194
 3501TIP3   OH210466   5.836   5.308   0.321 -0.4760  0.6407  0.0263
 3501TIP3    H110467   5.770   5.357   0.370 -1.5889  0.4798 -1.2427
 3501TIP3    H210468   5.802   5.305   0.232  2.0156  1.8815 -1.0648
 3502TIP3   OH210469   1.245   1.846   1.372 -0.1048  0.1385  0.3802
 3502TIP3    H110470   1.339   1.828   1.371 -0.4082 -1.6109 -0.4724
 3502TIP3    H210471   1.206   1.769   1.413 -1.1020  1.4355  1.9891
 3503TIP3   OH210472   5.943   0.229   0.656  0.6033  0.1089  1.0338
 3503TIP3    H110473   5.854   0.265   0.659  0.8087  0.7391  0.1007
 3503TIP3    H210474   5.934   0.140   0.691 -0.7420 -0.4947 -0.7056
 3504TIP3   OH210475   0.475   2.024   0.837 -0.0997  0.2066 -0.3899
 3504TIP3    H110476   0.457   1.941   0.793 -0.5154 -0.6118  1.2637
 3504TIP3    H210477   0.407   2.032   0.903  0.5805  1.3419  0.1988
 3505TIP3   OH210478   1.890   1.308   3.694  0.3479 -0.2201 -0.0214
 3505TIP3    H110479   1.820   1.317   3.759  0.3167  0.9211 -0.1991
 3505TIP3    H210480   1.875   1.222   3.654 -0.6782 -0.1773  0.2563
 3506TIP3   OH210481   0.619   0.495   1.017  0.3962 -0.6474  0.2839
 3506TIP3    H110482   0.662   0.449   0.945  0.6332 -0.9100  0.5909
 3506TIP3    H210483   0.658   0.583   1.016 -0.2602 -0.3539 -0.4809
 3507TIP3   OH210484   1.008   2.943   5.424 -0.4893  0.3858 -0.1298
 3507TIP3    H110485   0.964   2.873   5.376 -1.6094  1.2516 -0.4180
 3507TIP3    H210486   1.050   2.899   5.498  1.3325 -0.9882 -1.8712
 3508TIP3   OH210487   1.049   6.545   3.793  0.0600  0.1419 -0.2551
 3508TIP3    H110488   0.998   6.476   3.835  0.7227  0.0390  0.3873
 3508TIP3    H210489   1.130   6.551   3.844  1.6646 -1.1469 -2.4448
 3509TIP3   OH210490   1.179   1.916   2.223  0.1803  0.0639 -0.3667
 3509TIP3    H110491   1.265   1.873   2.218  0.0938 -0.0082 -1.6779
 3509TIP3    H210492   1.134   1.871   2.294  0.5092 -1.2548 -0.9625
 3510TIP3   OH210493   2.216   4.359   2.470  0.8438  0.4780 -0.1198
 3510TIP3    H110494   2.178   4.385   2.386 -0.3244 -0.1399  0.1835
 3510TIP3    H210495   2.186   4.268   2.482  2.3017  0.0155  0.2331
 3511TIP3   OH210496   0.666   3.139   0.339  0.2928 -0.2242  0.0733
 3511TIP3    H110497   0.761   3.150   0.337  0.2878 -0.2630 -0.3888
 3511TIP3    H210498   0.636   3.203   0.405  0.5203  0.6825 -0.6733
 3512TIP3   OH210499   0.975   0.545   0.869 -0.1153 -0.2876  0.5743
 3512TIP3    H110500   0.893   0.553   0.821  1.1665 -1.7534 -2.0376
 3512TIP3    H210501   1.017   0.467   0.833  2.2838  0.1833  2.1078
 3513TIP3   OH210502   3.756   4.195   2.753  0.1467  0.3158 -0.1549
 3513TIP3    H110503   3.752   4.150   2.837  0.3182 -0.1318 -0.3811
 3513TIP3    H210504   3.846   4.183   2.723  0.4771  1.6593  0.2337
 3514TIP3   OH210505   2.983   1.330   4.164 -0.0864  0.0760 -0.5137
 3514TIP3    H110506   3.010   1.289   4.246  0.2854  0.4145 -0.4618
 3514TIP3    H210507   2.937   1.409   4.190 -0.3959 -0.0643 -0.6238
 3515TIP3   OH210508   4.798   5.059   1.561  0.2230  0.5423 -0.1592
 3515TIP3    H110509   4.732   5.108   1.610 -0.0997 -2.0176  2.2263
 3515TIP3    H210510   4.881   5.102   1.584 -0.1115  0.4793  1.2549
 3516TIP3   OH210511   0.120   1.653   0.745  0.3599  0.0367 -0.1207
 3516TIP3    H110512   0.140   1.609   0.663  0.4741 -0.5757  0.2349
 3516TIP3    H210513   0.139   1.746   0.727 -0.8483  0.1114 -1.1788
 3517TIP3   OH210514   5.868   6.613   1.978 -0.0171  0.6794 -0.3111
 3517TIP3    H110515   5.932   6.557   1.935 -1.6314  0.4118 -2.5239
 3517TIP3    H210516   5.912   6.698   1.984  0.7309  0.3854 -1.3143
 3518TIP3   OH210517   5.026   2.003   2.202 -0.4660 -0.0394 -0.5572
 3518TIP3    H110518   5.001   2.053   2.279  0.9193 -0.1637  0.0022
 3518TIP3    H210519   5.096   1.946   2.233 -1.6157 -1.9454 -1.3055
 3519TIP3   OH210520   1.322   2.411   1.416  0.1815 -0.0359  0.1301
 3519TIP3    H110521   1.332   2.316   1.420 -2.6937 -0.3970  2.5378
 3519TIP3    H210522   1.383   2.444   1.482 -0.0171 -0.3782  0.4889
 3520TIP3   OH210523   4.083   1.124   5.083  0.2605  0.1081  0.0960
 3520TIP3    H110524   4.115   1.046   5.038  1.5034  0.6661 -0.0451
 3520TIP3    H210525   4.163   1.173   5.105 -0.4757  1.2144  0.3950
 3521TIP3   OH210526   0.458   1.647   5.391  0.3424 -0.5772 -0.1935
 3521TIP3    H110527   0.416   1.578   5.441 -2.8550  1.4841  0.2120
 3521TIP3    H210528   0.460   1.613   5.301 -1.2885 -1.1576 -0.0343
 3522TIP3   OH210529   1.356   6.112   5.170  0.0416 -0.7320  0.2117
 3522TIP3    H110530   1.378   6.097   5.078  0.7261  0.8386  0.0919
 3522TIP3    H210531   1.320   6.028   5.200 -0.0307 -1.3193 -1.4265
 3523TIP3   OH210532   0.069   2.713   4.665 -0.1931  0.3337 -0.2229
 3523TIP3    H110533   0.157   2.747   4.651  0.0255  0.1913  0.7508
 3523TIP3    H210534   0.076   2.618   4.652  0.0353  0.1859  0.8754
 3524TIP3   OH210535   1.446   5.925   4.912 -0.9124  0.2686  0.6233
 3524TIP3    H110536   1.477   5.873   4.986 -1.4291  1.3982  1.6680
 3524TIP3    H210537   1.353   5.902   4.904 -0.4014 -1.3985 -1.0337
 3525TIP3   OH210538   5.584   3.722   1.334 -0.0372 -0.1993 -0.1505
 3525TIP3    H110539   5.580   3.648   1.273 -0.8645  0.3396 -0.7839
 3525TIP3    H210540   5.671   3.716   1.373  0.4854 -0.6246 -1.3155
 3526TIP3   OH210541   2.706   3.989   4.413  0.0761  0.7603  0.3508
 3526TIP3    H110542   2.736   3.908   4.455 -0.2075  0.1781 -0.5363
 3526TIP3    H210543   2.785   4.043   4.406  0.2417  0.6213  1.0660
 3527TIP3   OH210544   2.006   2.269   3.817  0.0655 -0.2185 -0.3229
 3527TIP3    H110545   1.971   2.344   3.768 -1.4984 -1.3588 -1.0392
 3527TIP3    H210546   2.087   2.246   3.770 -0.2695  0.0529 -1.0551
 3528TIP3   OH210547   1.678   4.935   1.657 -0.4228  0.0065 -0.3790
 3528TIP3    H110548   1.692   4.852   1.702 -1.1981 -0.7711 -1.5115
 3528TIP3    H210549   1.598   4.921   1.606 -0.2099  1.2357 -1.0857
 3529TIP3   OH210550   5.993   2.997   4.602 -0.5447 -0.3757 -0.3394
 3529TIP3    H110551   6.078   3.040   4.612 -0.7441  0.0090 -0.2750
 3529TIP3    H210552   5.973   3.004   4.509 -0.9107  0.3261 -0.2184
 3530TIP3   OH210553   4.378   1.325   4.389  0.0423  0.0963 -0.3085
 3530TIP3    H110554   4.473   1.319   4.379  0.0229  1.9929 -2.5417
 3530TIP3    H210555   4.344   1.247   4.345  0.5375 -0.2963 -0.0043
 3531TIP3   OH210556   4.012   1.116   0.321  0.3547  0.1618 -0.2591
 3531TIP3    H110557   3.955   1.140   0.249 -0.4818 -0.0429  0.3208
 3531TIP3    H210558   3.970   1.153   0.399  1.0580  0.0826  0.1678
 3532TIP3   OH210559   0.185   5.793   0.489  0.6363 -0.5796  0.2079
 3532TIP3    H110560   0.180   5.702   0.460  2.3520 -1.0315  1.2302
 3532TIP3    H210561   0.178   5.788   0.584 -2.1375  0.6527  0.1820
 3533TIP3   OH210562   5.467   5.452   5.690  0.0456  0.0798 -0.3322
 3533TIP3    H110563   5.469   5.526   5.629  1.0470  0.3183 -0.0193
 3533TIP3    H210564   5.533   5.473   5.756  1.6288 -1.8722 -1.1898
 3534TIP3   OH210565   2.333   5.543   3.411  0.1603  0.5121 -0.0870
 3534TIP3    H110566   2.285   5.578   3.335  0.7173  1.6970  0.0880
 3534TIP3    H210567   2.314   5.604   3.482  0.2694 -0.1632  0.5393
 3535TIP3   OH210568   1.663   3.969   4.999  0.1446 -0.5556 -0.3410
 3535TIP3    H110569   1.662   3.987   5.093  2.4345  2.0174 -0.6732
 3535TIP3    H210570   1.702   3.882   4.992  0.1047 -0.7130  1.0963
 3536TIP3   OH210571   3.634   3.027   2.830  0.0368 -0.0803 -0.1206
 3536TIP3    H110572   3.659   2.935   2.828  0.8938  0.1421 -0.3162
 3536TIP3    H210573   3.631   3.049   2.924  0.4303 -0.1608 -0.0860
 3537TIP3   OH210574   2.772   1.028   5.700  0.0450 -0.4636  0.5948
 3537TIP3    H110575   2.838   1.040   5.631 -0.9574  2.6641 -0.0256
 3537TIP3    H210576   2.822   1.008   5.779  1.8394  1.7309  0.1327
 3538TIP3   OH210577   2.729   4.039   1.007 -0.0482  0.3127 -0.1292
 3538TIP3    H110578   2.744   4.019   0.915 -2.7863  0.4346 -0.7001
 3538TIP3    H210579   2.686   3.961   1.042  2.4411 -0.4078  1.5620
 3539TIP3   OH210580   3.056   3.065   5.723  0.2056 -0.0177 -0.4888
 3539TIP3    H110581   3.046   3.034   5.634 -0.4757  0.7128 -0.6817
 3539TIP3    H210582   2.991   3.016   5.773  2.4532 -2.5421  0.2185
 3540TIP3   OH210583   6.268   6.125   3.777  0.1740 -0.1952  0.2921
 3540TIP3    H110584   6.179   6.095   3.795 -0.4523  1.3642 -0.1318
 3540TIP3    H210585   6.308   6.134   3.864 -0.4726  0.2812  0.5418
 3541TIP3   OH210586   3.771   0.641   4.247  0.2853 -0.3510 -0.0712
 3541TIP3    H110587   3.858   0.623   4.210  0.3359  1.3873 -0.8522
 3541TIP3    H210588   3.710   0.616   4.178  0.2775  0.6147 -0.4234
 3542TIP3   OH210589   2.275   2.021   2.390 -0.3046 -0.3948  0.3700
 3542TIP3    H110590   2.336   2.094   2.382 -0.7768  0.2180  2.0133
 3542TIP3    H210591   2.314   1.951   2.337  0.3469  0.8989 -0.9203
 3543TIP3   OH210592   1.841   3.824   4.215 -0.5922 -0.1530  0.5278
 3543TIP3    H110593   1.819   3.905   4.261  0.9633 -0.4751  1.9314
 3543TIP3    H210594   1.919   3.846   4.164  0.3045 -0.9264  1.5173
 3544TIP3   OH210595   3.406   5.364   3.684 -0.1114  0.3066 -0.1503
 3544TIP3    H110596   3.492   5.406   3.687  0.0077  0.0098  1.4980
 3544TIP3    H210597   3.373   5.384   3.597  0.3184  3.1073  0.2394
 3545TIP3   OH210598   5.317   3.481   0.724 -0.6083  0.0351 -0.1393
 3545TIP3    H110599   5.260   3.514   0.793 -0.8248  0.3128 -0.4530
 3545TIP3    H210600   5.258   3.442   0.660 -0.4161 -0.1002 -0.2365
 3546TIP3   OH210601   4.553   5.482   3.973 -0.1196 -0.0494 -0.0504
 3546TIP3    H110602   4.608   5.507   4.047 -0.8883  0.2070  0.4411
 3546TIP3    H210603   4.470   5.528   3.988 -0.5598 -0.6344 -0.6496
 3547TIP3   OH210604   1.123   2.759   4.191  0.2585 -0.6199  0.3983
 3547TIP3    H110605   1.041   2.791   4.153  2.0310  2.7594 -0.9853
 3547TIP3    H210606   1.128   2.667   4.164 -2.2161 -0.4221 -0.9823
 3548TIP3   OH210607   0.227   4.209   2.065  0.1478 -0.0407 -0.3514
 3548TIP3    H110608   0.247   4.284   2.009 -1.0048 -1.1696 -2.3887
 3548TIP3    H210609   0.279   4.137   2.029 -0.8099 -0.8492 -0.1639
 3549TIP3   OH210610   0.960   0.584   5.012 -0.2431 -0.6562 -0.0341
 3549TIP3    H110611   0.888   0.582   4.949  0.1570  1.3067 -0.6042
 3549TIP3    H210612   0.917   0.605   5.095 -0.3379  0.8518 -0.4347
 3550TIP3   OH210613   3.578   5.780   2.425 -0.0988  0.5302 -0.2558
 3550TIP3    H110614   3.532   5.785   2.341 -1.9887  2.2563  0.8107
 3550TIP3    H210615   3.598   5.870   2.448  0.9226  0.0439  0.9227
 3551TIP3   OH210616   0.719   1.279   4.912 -0.1399 -0.0011  0.0481
 3551TIP3    H110617   0.807   1.283   4.950 -0.7178  0.7137  1.4006
 3551TIP3    H210618   0.690   1.370   4.910 -1.1900 -0.3136  0.5027
 3552TIP3   OH210619   4.975   2.321   3.646 -0.2794  0.2459  0.3295
 3552TIP3    H110620   5.068   2.309   3.662 -0.3290 -0.0097  0.4328
 3552TIP3    H210621   4.940   2.352   3.730 -0.2704  0.4503  0.2598
 3553TIP3   OH210622   4.209   5.458   3.644  0.1784  0.0018 -0.1399
 3553TIP3    H110623   4.301   5.484   3.646  0.2437 -0.2275 -0.0670
 3553TIP3    H210624   4.165   5.526   3.593  0.5444 -0.3843 -0.9775
 3554TIP3   OH210625   2.940   4.942   5.622 -0.2091 -0.0166  0.0381
 3554TIP3    H110626   2.985   4.862   5.652 -0.6282  0.2048  1.3489
 3554TIP3    H210627   2.989   5.013   5.665 -0.9460  0.3061  0.3602
 3555TIP3   OH210628   0.117   6.041   3.992 -0.2296 -0.4756 -0.1856
 3555TIP3    H110629   0.084   5.952   4.004 -2.4036  0.4546  1.4494
 3555TIP3    H210630   0.098   6.084   4.075  1.7252  1.2745 -0.5597
 3556TIP3   OH210631   1.956   5.392   1.290 -0.0987 -0.2146  0.5003
 3556TIP3    H110632   2.003   5.351   1.362 -0.7545  0.5216  1.3708
 3556TIP3    H210633   1.973   5.485   1.300  2.0233 -0.2370 -1.9211
 3557TIP3   OH210634   0.291   5.265   2.645 -0.3781 -0.8274  0.1244
 3557TIP3    H110635   0.321   5.174   2.648  0.4763 -0.5283  1.9495
 3557TIP3    H210636   0.302   5.297   2.734 -0.1098  1.2560 -0.6029
 3558TIP3   OH210637   2.786   0.306   4.157  0.3955  0.2657  0.3186
 3558TIP3    H110638   2.711   0.250   4.177  0.0068 -0.7350 -3.2439
 3558TIP3    H210639   2.861   0.248   4.159  0.6387  0.5865  0.7764
 3559TIP3   OH210640   4.150   1.708   4.169  1.2817 -0.0221 -0.3221
 3559TIP3    H110641   4.120   1.626   4.208  0.1268  0.5158 -0.0416
 3559TIP3    H210642   4.179   1.761   4.244  1.0527  0.2148 -0.4009
 3560TIP3   OH210643   2.287   4.886   2.938  0.0303 -0.3266  0.0417
 3560TIP3    H110644   2.358   4.832   2.906 -0.2201 -0.8459  0.3521
 3560TIP3    H210645   2.307   4.901   3.030  0.1957  0.2705 -0.0863
 3561TIP3   OH210646   3.049   4.367   4.549 -0.6825  0.0341  0.2399
 3561TIP3    H110647   3.042   4.392   4.641 -2.0218 -1.6650  0.6590
 3561TIP3    H210648   2.959   4.354   4.521 -0.2322 -0.5568 -0.9982
 3562TIP3   OH210649   2.150   2.445   5.000  0.0277 -0.3134  0.5261
 3562TIP3    H110650   2.082   2.470   4.937 -0.4615 -2.4848  0.1111
 3562TIP3    H210651   2.135   2.503   5.075 -2.6446 -1.0236  0.6576
 3563TIP3   OH210652   2.991   1.226   3.296 -0.2919  0.2175 -0.2076
 3563TIP3    H110653   2.966   1.213   3.387 -2.7056  1.5268 -0.6119
 3563TIP3    H210654   3.001   1.138   3.261  1.8811 -0.3399  1.5398
 3564TIP3   OH210655   4.061   0.939   2.717  0.7273  0.2340  0.9481
 3564TIP3    H110656   4.025   0.922   2.630  0.5193 -1.7234  1.3888
 3564TIP3    H210657   4.047   1.033   2.730 -0.7374  0.2532 -0.4617
 3565TIP3   OH210658   5.496   2.792   1.870  0.0294 -0.1121  0.2149
 3565TIP3    H110659   5.494   2.730   1.797  1.1234 -0.6123  0.5923
 3565TIP3    H210660   5.482   2.878   1.829 -0.8347 -0.5293 -0.3881
 3566TIP3   OH210661   1.552   6.260   3.347 -0.1460  0.2651 -0.3635
 3566TIP3    H110662   1.612   6.248   3.273  1.5884  1.7532  0.7191
 3566TIP3    H210663   1.490   6.326   3.316  1.9135  2.5658  0.1769
 3567TIP3   OH210664   5.521   6.703   3.333  0.1386  0.3701 -0.1740
 3567TIP3    H110665   5.582   6.726   3.263 -0.4920 -0.1718 -0.9220
 3567TIP3    H210666   5.549   6.617   3.363 -0.1262  0.2117 -0.3758
 3568TIP3   OH210667   6.893   1.591   1.681 -0.1039 -0.4764  0.3128
 3568TIP3    H110668   6.842   1.510   1.676  0.7785 -0.9743 -1.7062
 3568TIP3    H210669   6.891   1.626   1.592 -1.9983  2.7739  1.4552
 3569TIP3   OH210670   2.333   2.720   1.291 -0.1430  0.2851  0.0350
 3569TIP3    H110671   2.370   2.770   1.218  1.6751 -2.1699 -0.8400
 3569TIP3    H210672   2.364   2.765   1.369  0.7862  0.9907 -0.7132
 3570TIP3   OH210673   6.493   5.143   0.723  0.1264  0.3440  0.0780
 3570TIP3    H110674   6.566   5.169   0.666  0.6245  0.3797  0.7264
 3570TIP3    H210675   6.431   5.217   0.718  0.2152  0.3938 -0.3275
 3571TIP3   OH210676   5.862   6.191   2.269  0.6621  0.1268 -0.3045
 3571TIP3    H110677   5.798   6.242   2.220 -0.4590 -0.6770  0.2863
 3571TIP3    H210678   5.827   6.102   2.270  0.2325  0.2320  2.5311
 3572TIP3   OH210679   4.634   1.558   0.938 -0.4731  0.4122 -0.3634
 3572TIP3    H110680   4.622   1.519   1.025 -0.2320  1.5816  0.2177
 3572TIP3    H210681   4.609   1.649   0.950 -1.5291  0.3337 -1.8150
 3573TIP3   OH210682   5.699   1.100   0.377  0.0753 -0.0618  0.3479
 3573TIP3    H110683   5.726   1.100   0.286  1.4996  0.9283  0.7365
 3573TIP3    H210684   5.748   1.029   0.417 -1.1259 -0.9951  0.2078
 3574TIP3   OH210685   0.694   4.994   4.482 -0.4802 -0.1569  0.6293
 3574TIP3    H110686   0.768   4.964   4.535  0.4681  0.9501 -0.0226
 3574TIP3    H210687   0.701   5.090   4.483  0.1473 -0.0842 -2.2317
 3575TIP3   OH210688   2.527   5.040   0.798  0.0056 -0.3948  0.0708
 3575TIP3    H110689   2.572   4.955   0.795  0.9393  0.0981 -0.2099
 3575TIP3    H210690   2.453   5.026   0.857 -0.4107 -1.6693 -0.7097
 3576TIP3   OH210691   4.259   3.646   4.489 -0.0421  0.7431 -0.0914
 3576TIP3    H110692   4.202   3.714   4.526 -0.8656 -0.5725  1.1300
 3576TIP3    H210693   4.309   3.614   4.563  1.1683  0.7605 -0.8696
 3577TIP3   OH210694   0.236   0.526   1.391  0.2049 -0.7864 -0.3325
 3577TIP3    H110695   0.217   0.437   1.421 -1.1224 -0.3294  0.2776
 3577TIP3    H210696   0.261   0.573   1.471 -1.6855  0.0138 -0.1593
 3578TIP3   OH210697   0.089   2.884   3.039 -0.5309  0.0626 -0.1549
 3578TIP3    H110698   0.081   2.865   2.945 -1.1642  2.4582 -0.6470
 3578TIP3    H210699  -0.000   2.904   3.067 -0.1170  0.8871  0.6064
 3579TIP3   OH210700   2.717   6.826   1.234 -0.3330 -0.1058  0.1774
 3579TIP3    H110701   2.804   6.796   1.260 -0.1483 -0.7869 -1.1630
 3579TIP3    H210702   2.666   6.745   1.226  0.1043 -0.1818 -3.2493
 3580TIP3   OH210703   2.865   2.093   0.184  0.1449  0.0454  0.4742
 3580TIP3    H110704   2.804   2.041   0.237 -1.0551  0.8697 -0.0606
 3580TIP3    H210705   2.901   2.030   0.121  0.2796 -0.5667  1.1372
 3581TIP3   OH210706   6.004   1.201   3.731  0.2797  0.5620 -0.2798
 3581TIP3    H110707   6.086   1.201   3.779 -0.0756 -1.8265  0.4175
 3581TIP3    H210708   5.948   1.139   3.777 -1.7403  1.6724 -1.0802
 3582TIP3   OH210709   4.310   1.743   5.244 -0.5125  0.0006 -0.0548
 3582TIP3    H110710   4.314   1.757   5.339 -0.3288  0.3094 -0.1051
 3582TIP3    H210711   4.401   1.731   5.218 -0.6335 -0.9085 -0.0788
 3583TIP3   OH210712   2.260   3.535   2.291 -0.7155 -0.3577  0.6199
 3583TIP3    H110713   2.193   3.592   2.330 -2.1597 -0.4833 -1.5564
 3583TIP3    H210714   2.217   3.493   2.217  0.7474 -3.2313  1.2735
 3584TIP3   OH210715   3.088   6.610   0.862 -0.0467 -0.6469  0.2162
 3584TIP3    H110716   3.001   6.571   0.863  1.2206 -3.7615  0.7219
 3584TIP3    H210717   3.112   6.620   0.954  0.4960 -0.7463  0.0913
 3585TIP3   OH210718   6.659   0.614   0.123  0.0093 -0.0934 -0.0854
 3585TIP3    H110719   6.735   0.596   0.179  0.5164  1.6296 -0.1692
 3585TIP3    H210720   6.687   0.584   0.036 -0.6828 -2.5247  0.4552
 3586TIP3   OH210721   3.513   2.776   4.494  0.0222  0.2848  0.4362
 3586TIP3    H110722   3.594   2.766   4.444  0.1352  1.7340  0.2788
 3586TIP3    H210723   3.465   2.694   4.479  1.6086 -0.7535  0.8382
 3587TIP3   OH210724   6.282   1.585   3.342 -0.1803  0.2652 -0.4226
 3587TIP3    H110725   6.212   1.643   3.372  0.4249  0.5674  0.4501
 3587TIP3    H210726   6.251   1.551   3.258 -0.9331  1.1556 -0.5168
 3588TIP3   OH210727   2.710   2.392   5.878  0.1779  0.2255  0.2355
 3588TIP3    H110728   2.685   2.301   5.895  1.5555 -0.4363 -0.9709
 3588TIP3    H210729   2.650   2.422   5.811  0.2497 -0.0961  0.0246
 3589TIP3   OH210730   2.757   0.004   5.026  0.3973  0.1006  0.0888
 3589TIP3    H110731   2.752   0.036   5.116 -0.5062  0.5928 -0.1301
 3589TIP3    H210732   2.783   0.080   4.974  0.9861 -0.1964 -0.0739
 3590TIP3   OH210733   6.138   6.123   5.650 -0.3577 -0.0062 -0.0333
 3590TIP3    H110734   6.132   6.034   5.682 -1.9325 -0.2467 -0.8956
 3590TIP3    H210735   6.232   6.141   5.645  0.1933 -2.8382 -3.0716
 3591TIP3   OH210736   5.257   3.908   2.309  0.5722 -0.5438  0.0927
 3591TIP3    H110737   5.289   3.987   2.353 -0.6437 -1.2079  2.3083
 3591TIP3    H210738   5.315   3.898   2.234  2.6212  0.8169  1.3788
 3592TIP3   OH210739   4.059   0.590   5.354  0.3971 -0.1277 -0.2042
 3592TIP3    H110740   4.064   0.658   5.421 -0.2780  0.6726 -0.9515
 3592TIP3    H210741   4.145   0.593   5.310  1.0044 -0.9545  0.8831
 3593TIP3   OH210742   6.498   0.069   3.413 -0.0298  0.6920 -0.9004
 3593TIP3    H110743   6.581   0.101   3.449 -0.5223  0.5159  0.4090
 3593TIP3    H210744   6.431   0.102   3.473 -0.9945  1.3927 -2.3012
 3594TIP3   OH210745   1.177   3.244   1.481 -0.2383 -0.1525 -0.7322
 3594TIP3    H110746   1.244   3.312   1.487  0.7731 -1.1824 -0.0578
 3594TIP3    H210747   1.221   3.164   1.509 -1.9489 -0.7293  0.4799
 3595TIP3   OH210748   4.544   4.114   0.364 -0.2463 -0.2245  0.1227
 3595TIP3    H110749   4.511   4.184   0.420  1.0603 -0.0253  0.6885
 3595TIP3    H210750   4.529   4.144   0.275 -2.2016 -0.4626  0.3467
 3596TIP3   OH210751   5.579   1.858   2.056  0.7716  0.2885  0.1472
 3596TIP3    H110752   5.564   1.828   2.145  0.1169  1.5879  0.5078
 3596TIP3    H210753   5.493   1.850   2.013  0.6649  1.2536  0.1538
 3597TIP3   OH210754   7.136   0.979   1.234  0.6219 -0.0238 -0.4927
 3597TIP3    H110755   7.058   1.028   1.209  1.0327  0.2728 -1.2502
 3597TIP3    H210756   7.119   0.949   1.323 -0.7143 -0.7013 -0.9592
 3598TIP3   OH210757   4.021   0.355   3.736 -0.0277  0.5075  0.0202
 3598TIP3    H110758   3.994   0.323   3.651  3.6027  2.1382 -2.0108
 3598TIP3    H210759   4.030   0.276   3.790  1.3151 -1.0957 -2.3648
 3599TIP3   OH210760   3.477   4.217   0.241  0.0439  0.3696  0.1900
 3599TIP3    H110761   3.412   4.202   0.173 -1.3961  0.1366  1.5595
 3599TIP3    H210762   3.522   4.133   0.250 -0.1104  0.2553 -0.0894
 3600TIP3   OH210763   1.787   3.304   2.343 -0.1275 -0.2384 -0.2314
 3600TIP3    H110764   1.800   3.329   2.251 -1.1287  0.6832 -0.1405
 3600TIP3    H210765   1.692   3.299   2.353 -0.0150 -0.7668  0.6504
 3601TIP3   OH210766   5.325   6.603   1.474  0.1553 -0.4582  0.1523
 3601TIP3    H110767   5.335   6.601   1.569  0.8377  0.5304  0.1218
 3601TIP3    H210768   5.375   6.680   1.447 -3.7302  2.1440 -0.5456
 3602TIP3   OH210769   4.028   4.998   2.855 -0.1672  0.4974  0.6721
 3602TIP3    H110770   4.045   5.092   2.859 -0.0001  0.5552 -0.7304
 3602TIP3    H210771   3.937   4.992   2.823  0.4697  0.2261 -1.2390
 3603TIP3   OH210772   2.829   5.198   2.042 -0.4094  0.4385 -0.3075
 3603TIP3    H110773   2.735   5.203   2.026 -1.4394 -4.5689  2.1704
 3603TIP3    H210774   2.868   5.188   1.955 -2.4082  0.5455 -1.2675
 3604TIP3   OH210775   5.866   3.503   3.970  0.9054  0.7515 -0.3545
 3604TIP3    H110776   5.961   3.497   3.963  0.7775  0.4145 -4.2512
 3604TIP3    H210777   5.835   3.415   3.945 -0.5122  0.2345  2.7788
 3605TIP3   OH210778   2.833   0.999   3.516 -0.2015  0.0061 -0.6570
 3605TIP3    H110779   2.839   1.091   3.542 -2.6010 -0.2071  1.0273
 3605TIP3    H210780   2.740   0.986   3.497  0.0905 -2.0801 -0.8797
 3606TIP3   OH210781   4.885   2.914   0.653 -0.0017 -0.0412 -0.4418
 3606TIP3    H110782   4.940   2.844   0.687  1.7210  0.6266 -1.7235
 3606TIP3    H210783   4.891   2.904   0.558 -0.8938  0.9864 -0.6225
 3607TIP3   OH210784   3.138   3.871   2.048 -0.0830  0.3251  0.1499
 3607TIP3    H110785   3.156   3.804   2.114 -0.3833 -0.1206 -0.2207
 3607TIP3    H210786   3.163   3.831   1.965 -1.2928  0.2550 -0.2053
 3608TIP3   OH210787   5.044   5.518   0.027  0.5896 -0.0913  0.3447
 3608TIP3    H110788   4.976   5.479   0.082  0.4195  0.4201  0.5062
 3608TIP3    H210789   5.060   5.453  -0.041 -0.0803 -0.2073  0.2873
 3609TIP3   OH210790   3.659   0.390   2.063 -0.2466  0.0552  0.5688
 3609TIP3    H110791   3.696   0.478   2.064 -0.5398  0.1786  1.7737
 3609TIP3    H210792   3.693   0.351   1.982 -0.0015  1.2111  0.0914
 3610TIP3   OH210793   2.427   6.369   0.627 -0.3466  0.0945 -0.1471
 3610TIP3    H110794   2.338   6.381   0.660 -0.2854 -0.1220  0.0943
 3610TIP3    H210795   2.418   6.304   0.557 -0.7050  1.6180 -1.5734
 3611TIP3   OH210796   5.890   3.861   3.601 -0.4620 -0.0040  0.4928
 3611TIP3    H110797   5.956   3.888   3.665  0.0227 -1.6371  0.7254
 3611TIP3    H210798   5.846   3.943   3.576  0.0212  0.8057  2.1325
 3612TIP3   OH210799   4.667   6.463   2.716 -0.1375 -0.3845  0.1857
 3612TIP3    H110800   4.706   6.474   2.629  0.4054 -0.1104  0.4623
 3612TIP3    H210801   4.576   6.439   2.698  0.2366 -1.3818 -0.4668
 3613TIP3   OH210802   5.088   2.244   1.214  0.0779  0.3447  0.4742
 3613TIP3    H110803   5.181   2.269   1.220 -0.1447  1.5494 -0.5923
 3613TIP3    H210804   5.043   2.305   1.272 -0.1121  0.1151  0.5689
 3614TIP3   OH210805   6.099   1.715   2.126 -0.0246  0.8014 -0.0798
 3614TIP3    H110806   6.155   1.640   2.102 -0.5984  0.5562 -0.6712
 3614TIP3    H210807   6.152   1.792   2.106 -0.4558  0.6114 -2.1633
 3615TIP3   OH210808   0.994   4.493   2.818  0.0091  0.3523  0.2049
 3615TIP3    H110809   0.949   4.503   2.734  0.7000  0.7343 -0.1341
 3615TIP3    H210810   1.007   4.583   2.848  1.4985  0.3093 -0.2344
 3616TIP3   OH210811   4.506   2.011   5.017 -0.1679 -0.2454  0.4564
 3616TIP3    H110812   4.442   1.972   4.957 -0.0037 -2.0397  1.3747
 3616TIP3    H210813   4.464   2.005   5.103  1.0330 -1.0125  1.0015
 3617TIP3   OH210814   2.421   5.120   2.594  0.2993  0.3662  0.4480
 3617TIP3    H110815   2.494   5.058   2.599  0.5702  0.5544 -0.8210
 3617TIP3    H210816   2.458   5.202   2.626  0.9875  0.7341 -1.2272
 3618TIP3   OH210817   5.460   6.300   5.217 -0.3522  0.1229  1.0725
 3618TIP3    H110818   5.409   6.379   5.198 -2.5027 -1.5502 -0.7804
 3618TIP3    H210819   5.397   6.240   5.258 -0.0137 -2.0158 -1.2615
 3619TIP3   OH210820   0.359   2.756   4.201 -0.0591 -0.1904 -0.2212
 3619TIP3    H110821   0.432   2.780   4.143  1.0772  0.6637  1.4855
 3619TIP3    H210822   0.350   2.830   4.261 -3.2446  0.3314 -1.1439
 3620TIP3   OH210823   6.703   1.785   3.561 -0.7980  0.7352  0.0679
 3620TIP3    H110824   6.798   1.793   3.572 -1.0820  2.2489  1.9534
 3620TIP3    H210825   6.689   1.693   3.538  1.2561  0.9275 -2.3037
 3621TIP3   OH210826   4.729   0.836   2.844 -0.1049 -0.4084 -0.8310
 3621TIP3    H110827   4.772   0.759   2.883  0.2826 -0.7585 -1.9158
 3621TIP3    H210828   4.741   0.905   2.910  1.5699 -0.6686 -0.8023
 3622TIP3   OH210829   3.957   5.858   5.770 -0.0053 -0.1083  0.0302
 3622TIP3    H110830   3.955   5.892   5.860  0.4214  0.1000 -0.0381
 3622TIP3    H210831   3.946   5.764   5.781 -0.8135  0.0055  0.2450
 3623TIP3   OH210832   5.454   3.549   4.572 -0.1974  0.2559 -0.2402
 3623TIP3    H110833   5.503   3.521   4.495 -0.0139 -1.2541  0.3806
 3623TIP3    H210834   5.506   3.519   4.647 -1.3102 -0.0608  0.4433
 3624TIP3   OH210835   1.060   3.954   1.896 -0.0393  0.1123  0.3603
 3624TIP3    H110836   1.101   3.916   1.974 -0.5626  0.5108  0.8410
 3624TIP3    H210837   1.121   4.022   1.868  0.2528 -0.1762  0.3014
 3625TIP3   OH210838   2.173   4.487   3.933  0.5724 -0.0963 -0.3195
 3625TIP3    H110839   2.200   4.564   3.983  1.2925 -0.7211  0.3004
 3625TIP3    H210840   2.121   4.521   3.860 -1.7021  0.7541  1.5994
 3626TIP3   OH210841   3.876   4.002   3.065 -0.6789 -0.3827 -0.1813
 3626TIP3    H110842   3.935   4.020   3.138  0.4420  0.0961 -1.1635
 3626TIP3    H210843   3.816   4.077   3.063  1.2916  1.2717 -1.6431
 3627TIP3   OH210844   1.305   2.164   4.494 -0.2867  0.2811 -0.5808
 3627TIP3    H110845   1.298   2.144   4.401 -0.1605  3.2108 -1.3206
 3627TIP3    H210846   1.373   2.232   4.499  2.3307 -2.1914  2.1312
 3628TIP3   OH210847   6.047   1.832   1.106 -0.2558 -0.0476 -0.3865
 3628TIP3    H110848   6.076   1.834   1.015 -1.7808 -0.6967 -0.9213
 3628TIP3    H210849   5.954   1.811   1.101 -0.2744 -0.5419  1.3403
 3629TIP3   OH210850   0.180   5.596   3.616 -0.2198  0.1849  0.2167
 3629TIP3    H110851   0.088   5.576   3.634 -0.1556 -0.9292 -0.6360
 3629TIP3    H210852   0.228   5.550   3.684 -0.2011 -0.6187 -0.3399
 3630TIP3   OH210853   2.850   5.955   5.222  0.1052  0.3321  0.1020
 3630TIP3    H110854   2.774   5.899   5.229 -0.5522  1.1944  0.0723
 3630TIP3    H210855   2.916   5.902   5.177 -0.6949 -0.1938 -0.4634
 3631TIP3   OH210856   3.709   4.899   5.819  0.2618 -0.1598 -0.3681
 3631TIP3    H110857   3.687   4.822   5.767 -0.2574  0.2824 -0.8132
 3631TIP3    H210858   3.628   4.918   5.867  0.3111  0.2598 -0.4546
 3632TIP3   OH210859   1.901   6.065   1.374 -0.1365  0.4062 -0.3737
 3632TIP3    H110860   1.993   6.049   1.353 -0.3106  1.0729 -1.7152
 3632TIP3    H210861   1.890   6.160   1.366 -0.8899  0.3659  0.0303
 3633TIP3   OH210862   1.847   2.614   4.323  0.0328 -0.1792  0.5427
 3633TIP3    H110863   1.754   2.627   4.342 -0.1600  0.4649 -0.7086
 3633TIP3    H210864   1.865   2.674   4.251  1.4153 -0.3421  0.7181
 3634TIP3   OH210865   4.070   3.302   2.307  0.0050  0.1710 -0.0852
 3634TIP3    H110866   3.983   3.312   2.344  0.3040  0.4993  0.5494
 3634TIP3    H210867   4.127   3.354   2.364  0.7135 -0.5374 -0.1232
 3635TIP3   OH210868   0.211   6.660   1.205 -0.4414  0.2837 -0.2512
 3635TIP3    H110869   0.221   6.636   1.113  0.1373  1.3833 -0.4992
 3635TIP3    H210870   0.299   6.685   1.233 -0.2021 -1.8718  1.1810
 3636TIP3   OH210871   5.288   5.935   5.420 -0.2731  0.0606  0.1274
 3636TIP3    H110872   5.286   6.017   5.370 -0.1812  0.1530  0.2773
 3636TIP3    H210873   5.243   5.956   5.502 -1.9287 -0.5305 -0.5838
 3637TIP3   OH210874   1.007   3.723   2.177 -0.1937 -0.4559  0.1969
 3637TIP3    H110875   0.997   3.695   2.268  1.1691 -0.5441  0.3522
 3637TIP3    H210876   0.997   3.818   2.180 -1.5832 -0.5881  0.1946
 3638TIP3   OH210877   3.590   1.441   4.243  0.1716 -0.9374 -1.0435
 3638TIP3    H110878   3.550   1.391   4.314  0.1221 -0.8774 -1.0292
 3638TIP3    H210879   3.630   1.516   4.286  1.6591 -1.8006 -0.8554
 3639TIP3   OH210880   0.335   2.506   3.965 -0.4856  0.1779 -0.2951
 3639TIP3    H110881   0.255   2.466   4.000  0.3979 -0.6139  0.9037
 3639TIP3    H210882   0.396   2.506   4.039  1.7484 -2.3213 -1.9399
 3640TIP3   OH210883   2.182   4.494   4.911 -0.2168  1.0433 -0.6487
 3640TIP3    H110884   2.268   4.465   4.878 -0.0289  1.3360 -0.4170
 3640TIP3    H210885   2.155   4.424   4.970 -0.4226  0.6543 -1.1891
 3641TIP3   OH210886   6.199   3.344   3.167  0.5219  0.3009 -0.0819
 3641TIP3    H110887   6.203   3.405   3.241  1.1398 -1.9641  1.8757
 3641TIP3    H210888   6.131   3.380   3.110  1.2375  3.0773  0.6525
 3642TIP3   OH210889   0.219   0.753   5.306 -0.3269  0.8731 -0.2269
 3642TIP3    H110890   0.194   0.721   5.393  0.1511  1.4346  0.1240
 3642TIP3    H210891   0.264   0.836   5.323 -0.0924  0.9116 -1.0011
 3643TIP3   OH210892   4.090   0.741   1.546 -0.2795  0.0354  0.3566
 3643TIP3    H110893   4.008   0.701   1.575 -0.7624  0.8493  0.1737
 3643TIP3    H210894   4.120   0.792   1.622 -0.7119  0.8912 -0.0276
 3644TIP3   OH210895   5.632   3.725   0.153  0.1135  0.1577  0.1098
 3644TIP3    H110896   5.664   3.656   0.095 -0.6923  0.4321 -0.6916
 3644TIP3    H210897   5.593   3.679   0.227  1.1931 -0.1980  0.4716
 3645TIP3   OH210898   1.313   4.724   3.018 -0.0579  0.1057  0.3540
 3645TIP3    H110899   1.364   4.761   2.947 -0.8593 -0.8781 -0.7626
 3645TIP3    H210900   1.335   4.631   3.019 -0.9702 -0.1230  0.5732
 3646TIP3   OH210901   3.650   4.444   0.849  0.1150 -0.0625 -0.5567
 3646TIP3    H110902   3.599   4.502   0.905  0.8053 -0.7075  0.7905
 3646TIP3    H210903   3.739   4.479   0.853  0.4204 -0.8681 -0.1952
 3647TIP3   OH210904   1.656   2.766   1.094  0.5326  0.5022  0.4530
 3647TIP3    H110905   1.564   2.792   1.095  1.1085  2.8615  1.7789
 3647TIP3    H210906   1.693   2.813   1.020  0.8922  0.5049  0.6315
 3648TIP3   OH210907   4.676   5.423   1.209 -0.4526 -0.0447 -0.2781
 3648TIP3    H110908   4.746   5.427   1.274 -0.9509 -0.2680  0.2818
 3648TIP3    H210909   4.652   5.515   1.194  0.2687  0.0628 -0.8219
 3649TIP3   OH210910   4.148   3.564   0.735  0.3500 -0.2562  0.2852
 3649TIP3    H110911   4.141   3.654   0.703 -1.6936  0.0276  1.3828
 3649TIP3    H210912   4.220   3.567   0.798  0.4567  0.5276  0.1409
 3650TIP3   OH210913   5.100   2.115   3.132 -0.0442  0.1169  0.0273
 3650TIP3    H110914   5.095   2.142   3.224 -1.3527 -0.6683  0.2116
 3650TIP3    H210915   5.174   2.055   3.129  0.1531  0.3290  0.5268
 3651TIP3   OH210916   1.567   1.004   4.002  0.0746  0.1646 -0.4508
 3651TIP3    H110917   1.557   0.930   3.941 -0.9648 -0.3086  0.2719
 3651TIP3    H210918   1.502   1.067   3.973 -1.1936 -0.5220  0.8065
 3652TIP3   OH210919   3.957   3.445   4.465  0.3363 -0.3816 -0.1409
 3652TIP3    H110920   3.990   3.535   4.469  1.0906 -0.6626  0.2110
 3652TIP3    H210921   3.862   3.454   4.475  0.5086  0.2987  1.1124
 3653TIP3   OH210922   4.553   4.064   2.780 -0.0115 -0.0523 -0.3749
 3653TIP3    H110923   4.480   4.007   2.754  1.6773 -1.9157 -1.2825
 3653TIP3    H210924   4.581   4.029   2.865  0.8174 -0.4047 -0.7803
 3654TIP3   OH210925   0.808   4.691   1.349  0.2574 -0.5169 -0.4050
 3654TIP3    H110926   0.728   4.638   1.349 -0.7666  0.8796 -2.1909
 3654TIP3    H210927   0.779   4.777   1.318  2.2961  0.3512 -0.0611
 3655TIP3   OH210928   0.122   6.336   0.457 -0.0596  0.7708  0.5990
 3655TIP3    H110929   0.035   6.373   0.476  0.1775  0.6466  2.0132
 3655TIP3    H210930   0.140   6.364   0.367 -1.4585  1.0022  0.3650
 3656TIP3   OH210931   2.482   2.568   2.699  0.1479  0.2799  1.1116
 3656TIP3    H110932   2.466   2.661   2.681 -1.8170 -0.0101  1.1819
 3656TIP3    H210933   2.436   2.551   2.781  0.0656 -0.8674  0.8472
 3657TIP3   OH210934   5.849   1.747   2.020  0.1942 -0.0898 -0.2083
 3657TIP3    H110935   5.772   1.803   2.031  0.3065  0.3687 -1.6576
 3657TIP3    H210936   5.908   1.774   2.090 -0.5989  0.1411  0.3938
 3658TIP3   OH210937   2.650   1.352   3.256 -0.2636  0.0639  0.3020
 3658TIP3    H110938   2.604   1.408   3.194  0.8222 -0.0329 -0.6375
 3658TIP3    H210939   2.610   1.371   3.341 -0.5615  1.5644 -0.1456
 3659TIP3   OH210940   4.366   4.457   3.353  0.5398  0.7417 -0.0057
 3659TIP3    H110941   4.364   4.553   3.349  1.0722  0.7683  0.2108
 3659TIP3    H210942   4.439   4.438   3.411  0.2027  0.2054  0.2431
 3660TIP3   OH210943   5.288   3.339   4.413 -0.4508  0.3123  0.7142
 3660TIP3    H110944   5.214   3.296   4.456 -0.1572 -1.1166 -0.1635
 3660TIP3    H210945   5.276   3.432   4.433 -2.6589  0.1666  0.3280
 3661TIP3   OH210946   2.074   4.954   4.768 -0.5834  0.5736  0.3635
 3661TIP3    H110947   2.069   4.887   4.837  1.1538  0.4857  0.4475
 3661TIP3    H210948   2.038   4.911   4.690 -0.2163 -0.1857  0.6049
 3662TIP3   OH210949   4.488   1.092   2.446  0.0627 -0.4896  0.4759
 3662TIP3    H110950   4.454   1.101   2.535  0.4646 -2.7203  0.9174
 3662TIP3    H210951   4.410   1.076   2.392 -0.1562  0.6206  0.4446
 3663TIP3   OH210952   0.047   2.475   2.953 -0.3425  0.2222  0.4829
 3663TIP3    H110953  -0.041   2.508   2.933 -0.5030 -0.0491  0.7482
 3663TIP3    H210954   0.035   2.416   3.027  0.0983  0.3629  0.6696
 3664TIP3   OH210955   1.330   2.177   2.526  0.3439 -0.0108  0.4069
 3664TIP3    H110956   1.368   2.094   2.553  1.1327  0.5780  1.1770
 3664TIP3    H210957   1.331   2.230   2.606  0.2494  0.8786 -0.1743
 3665TIP3   OH210958   2.408   1.980   1.920  0.1998 -0.2498  0.1502
 3665TIP3    H110959   2.455   2.033   1.855 -0.9623 -0.2605 -0.7352
 3665TIP3    H210960   2.447   1.893   1.912 -0.2185 -0.3604 -0.8639
 3666TIP3   OH210961   5.319   0.787   1.794 -0.3598 -0.1873  0.8835
 3666TIP3    H110962   5.396   0.773   1.850  0.1734  0.6319  0.3760
 3666TIP3    H210963   5.332   0.875   1.758 -1.3969 -0.1563  0.5645
 3667TIP3   OH210964   2.415   0.736   3.126 -0.3875  0.5240  0.2123
 3667TIP3    H110965   2.347   0.768   3.185  1.3252  0.5589  2.2779
 3667TIP3    H210966   2.481   0.806   3.124 -0.1944  0.3408 -1.4293
 3668TIP3   OH210967   6.208   2.090   5.135  0.5874 -0.4568 -0.2216
 3668TIP3    H110968   6.199   2.158   5.068 -0.2061 -0.1572  0.1760
 3668TIP3    H210969   6.119   2.074   5.165  1.0141  0.1505  1.4927
 3669TIP3   OH210970   1.440   4.755   4.072  0.1007 -0.4955  0.0033
 3669TIP3    H110971   1.495   4.834   4.075 -0.2707 -0.1759 -1.1515
 3669TIP3    H210972   1.350   4.789   4.069 -0.0313 -0.9315 -1.3174
 3670TIP3   OH210973   0.840   3.319   5.162 -0.2274 -0.0233  0.4220
 3670TIP3    H110974   0.871   3.300   5.250  0.9833  0.7390  0.1844
 3670TIP3    H210975   0.849   3.237   5.114 -0.9942 -0.4668  1.0176
 3671TIP3   OH210976   2.281   4.092   4.181 -0.2752 -0.2945  0.1811
 3671TIP3    H110977   2.284   4.137   4.097  0.2935  0.3207  0.5187
 3671TIP3    H210978   2.331   4.012   4.167 -1.4497 -0.9416 -0.4764
 3672TIP3   OH210979   0.581   2.507   0.698  0.6824  0.4157 -0.2325
 3672TIP3    H110980   0.613   2.518   0.608  0.1090 -2.3096 -0.8746
 3672TIP3    H210981   0.540   2.420   0.698 -1.3189  1.2475  2.1082
 3673TIP3   OH210982   6.204   0.488   4.876 -0.5213  0.7686  0.0630
 3673TIP3    H110983   6.272   0.443   4.926 -0.8746  1.4719  1.2350
 3673TIP3    H210984   6.249   0.519   4.797  0.2210  0.1903  0.2456
 3674TIP3   OH210985   4.062   5.836   4.208 -0.4087 -0.2256  0.2793
 3674TIP3    H110986   4.084   5.878   4.124  2.1038  0.4418  1.1650
 3674TIP3    H210987   4.141   5.787   4.231 -1.5036 -1.4006  1.6797
 3675TIP3   OH210988   4.384   6.607   4.811  0.1471 -0.1071  0.5301
 3675TIP3    H110989   4.452   6.577   4.751  0.8398  0.0565  1.2207
 3675TIP3    H210990   4.426   6.677   4.861 -1.1443  1.3805 -0.4068
 3676TIP3   OH210991   3.170   1.402   3.652 -0.1633 -0.1526  0.2102
 3676TIP3    H110992   3.091   1.363   3.690 -1.4018  2.1917  0.1833
 3676TIP3    H210993   3.163   1.495   3.670  1.3705  0.4766 -1.9702
 3677TIP3   OH210994   6.105   3.806   0.074  0.2117 -0.2351  0.3096
 3677TIP3    H110995   6.015   3.793   0.046  0.4741 -0.9681 -0.2342
 3677TIP3    H210996   6.109   3.897   0.104 -0.4768  0.0773 -0.5250
 3678TIP3   OH210997   3.096   5.315   0.903  0.0542  0.1703  0.1927
 3678TIP3    H110998   3.043   5.390   0.931  0.6782 -0.1607  2.5014
 3678TIP3    H210999   3.183   5.352   0.887  1.2368 -0.2914  4.3154
 3679TIP3   OH211000   4.849   0.779   0.927  0.0304  0.0428  0.0769
 3679TIP3    H111001   4.828   0.835   1.001  1.2565  2.0326 -0.9726
 3679TIP3    H211002   4.844   0.690   0.961 -0.0863  0.8632  2.3502
 3680TIP3   OH211003   0.972   2.680   3.052  0.0676 -0.1027  0.6668
 3680TIP3    H111004   0.965   2.586   3.034  0.1599  0.1682 -0.9753
 3680TIP3    H211005   0.900   2.698   3.113 -2.0618 -0.6895 -1.4890
 3681TIP3   OH211006   6.968   6.498   1.253 -0.1018 -0.0101 -0.5621
 3681TIP3    H111007   6.873   6.489   1.255 -0.1154  0.2839  1.0995
 3681TIP3    H211008   7.000   6.408   1.249 -0.4063 -0.1137 -3.6761
 3682TIP3   OH211009   4.297   2.156   2.286 -0.4150  0.4741 -0.3317
 3682TIP3    H111010   4.229   2.131   2.348 -1.4125  1.6150 -0.9365
 3682TIP3    H211011   4.337   2.234   2.325  0.7178 -0.2879  0.1132
 3683TIP3   OH211012   3.447   2.026   3.704  0.6951 -0.2009 -0.3558
 3683TIP3    H111013   3.415   2.002   3.791  1.1357 -1.8090 -0.6016
 3683TIP3    H211014   3.393   1.976   3.644 -0.2216  1.5953 -1.0964
 3684TIP3   OH211015   0.523   4.412   0.143  0.0751  0.3415 -0.3769
 3684TIP3    H111016   0.438   4.456   0.150  0.8944  1.8992  0.3881
 3684TIP3    H211017   0.535   4.371   0.229  0.5065  0.9453 -0.1424
 3685TIP3   OH211018   5.385   1.951   1.029  0.2402 -0.3406  1.1230
 3685TIP3    H111019   5.341   1.915   0.952  0.5943  1.5845 -0.0560
 3685TIP3    H211020   5.467   1.901   1.035  0.8620  0.3979 -0.6331
 3686TIP3   OH211021   2.161   5.455   5.320  0.4830  0.3398 -0.2146
 3686TIP3    H111022   2.204   5.374   5.291  0.2498 -0.3102  1.1832
 3686TIP3    H211023   2.223   5.494   5.381  0.0346  0.5324  0.1228
 3687TIP3   OH211024   5.482   4.688   0.430  0.1816  0.2505  0.2143
 3687TIP3    H111025   5.493   4.613   0.488  1.1555 -0.3833 -0.7434
 3687TIP3    H211026   5.524   4.761   0.476 -0.4368  0.1293  0.9827
 3688TIP3   OH211027   6.860   4.279   1.877 -0.0446 -0.1203  0.3291
 3688TIP3    H111028   6.843   4.185   1.869  0.1345 -0.2415  1.2878
 3688TIP3    H211029   6.923   4.286   1.949 -0.5843  0.7887  0.7268
 3689TIP3   OH211030   7.034   2.665   2.020 -0.2520  0.0072 -0.3786
 3689TIP3    H111031   6.988   2.742   2.052 -1.8890 -1.3509  0.6661
 3689TIP3    H211032   7.014   2.663   1.926 -3.0831 -0.9544  0.1513
 3690TIP3   OH211033   6.732   1.744   1.095  0.3206 -0.5594 -0.2927
 3690TIP3    H111034   6.818   1.772   1.127  0.0683 -0.2512  0.1325
 3690TIP3    H211035   6.747   1.657   1.058  0.6054 -0.9923  0.7928
 3691TIP3   OH211036   6.546   3.415   0.879  0.0433  0.2082 -0.2459
 3691TIP3    H111037   6.595   3.333   0.880  1.6713  1.1201 -0.8005
 3691TIP3    H211038   6.602   3.475   0.830 -0.9869  1.7237  0.3704
 3692TIP3   OH211039   6.406   3.693   1.610 -0.2946  0.2865 -0.1216
 3692TIP3    H111040   6.326   3.653   1.644 -0.7206  0.9067 -0.3604
 3692TIP3    H211041   6.396   3.690   1.515 -0.0789  0.4570 -0.1509
 3693TIP3   OH211042   0.091   1.052   4.356  0.2085 -0.0663 -0.7012
 3693TIP3    H111043   0.015   1.028   4.409  0.9348 -2.2097 -0.5642
 3693TIP3    H211044   0.087   0.995   4.280  1.9809 -0.6205 -0.4166
 3694TIP3   OH211045   1.167   4.089   0.908 -0.1493 -0.6001 -0.3967
 3694TIP3    H111046   1.072   4.094   0.916 -0.1912 -0.9716 -0.6301
 3694TIP3    H211047   1.189   3.999   0.933 -0.0582 -1.1085 -2.1434
 3695TIP3   OH211048   3.924   1.674   5.056  0.2420 -0.1434 -0.3065
 3695TIP3    H111049   3.987   1.728   5.009  1.3102  0.9816  2.2621
 3695TIP3    H211050   3.977   1.612   5.106 -0.8880 -1.8291 -1.0620
 3696TIP3   OH211051   0.775   4.694   3.137 -0.0518 -0.7883  0.5516
 3696TIP3    H111052   0.864   4.659   3.141 -0.1618 -1.2874 -0.8023
 3696TIP3    H211053   0.786   4.785   3.111  0.0274 -1.2630 -1.1930
 3697TIP3   OH211054   5.477   0.612   2.285  0.5713  0.6155 -0.2018
 3697TIP3    H111055   5.423   0.541   2.320  1.1710 -0.9563 -2.2857
 3697TIP3    H211056   5.511   0.657   2.363 -1.5200 -0.0177  1.1672
 3698TIP3   OH211057   1.255   2.796   1.307 -0.1877  0.4944  0.3522
 3698TIP3    H111058   1.231   2.760   1.393 -0.7557  1.9394  0.8287
 3698TIP3    H211059   1.335   2.845   1.324  1.2184 -1.3666 -0.5158
 3699TIP3   OH211060   3.887   5.898   4.616 -0.5123  0.2446 -0.2364
 3699TIP3    H111061   3.982   5.885   4.626 -0.1644  0.9181 -2.1500
 3699TIP3    H211062   3.868   5.978   4.664 -0.3091 -0.3808  0.9257
 3700TIP3   OH211063   2.928   6.415   5.407 -0.0848  0.1403 -0.1553
 3700TIP3    H111064   2.916   6.348   5.340  2.4629 -0.8139  0.1974
 3700TIP3    H211065   2.951   6.494   5.359 -0.9731  0.1984 -0.4943
 3701TIP3   OH211066   3.119   4.419   0.563  0.4309 -0.2148 -0.0882
 3701TIP3    H111067   3.191   4.373   0.519 -0.2527  0.0244 -1.5057
 3701TIP3    H211068   3.151   4.509   0.574 -0.6528  0.7246 -3.4422
 3702TIP3   OH211069   2.415   3.985   1.817  0.9424  0.2673  0.3084
 3702TIP3    H111070   2.387   3.905   1.774 -0.1359  0.9929 -0.4029
 3702TIP3    H211071   2.477   3.956   1.884  1.8600 -0.9835 -1.0224
 3703TIP3   OH211072   0.313   3.219   2.513 -0.8939  0.5481  0.6539
 3703TIP3    H111073   0.310   3.256   2.601 -1.0819 -2.7772  2.1993
 3703TIP3    H211074   0.232   3.169   2.505 -0.7352  0.5290 -1.3076
 3704TIP3   OH211075   0.541   5.707   2.570  0.2933 -0.1557  0.0058
 3704TIP3    H111076   0.489   5.768   2.622  0.8274  0.4194 -0.1283
 3704TIP3    H211077   0.617   5.758   2.541  0.8859 -0.9536  0.1173
 3705TIP3   OH211078   1.169   5.156   4.086 -0.7050  0.3725  0.9333
 3705TIP3    H111079   1.150   5.204   4.005 -0.1819  1.2839  1.3431
 3705TIP3    H211080   1.097   5.179   4.145 -0.7632  0.1900  0.9338
 3706TIP3   OH211081   2.305   6.489   0.260  0.0896 -0.2760 -0.5309
 3706TIP3    H111082   2.346   6.517   0.178 -0.7792  0.7743 -0.6266
 3706TIP3    H211083   2.351   6.540   0.327  1.0098 -1.3586 -0.3070
 3707TIP3   OH211084   3.732   5.817   5.649  0.1306  0.2473  0.1997
 3707TIP3    H111085   3.814   5.836   5.696  0.0254 -0.2791  0.6043
 3707TIP3    H211086   3.697   5.904   5.627  0.6992  0.4816  0.1905
 3708TIP3   OH211087   5.625   1.049   0.929  0.0246  0.3301 -0.2714
 3708TIP3    H111088   5.677   1.055   1.009 -0.2089  0.4850 -0.1282
 3708TIP3    H211089   5.605   1.140   0.907 -0.1591  0.2740 -0.3418
 3709TIP3   OH211090   2.111   4.434   0.506 -0.5518  0.1482  0.1890
 3709TIP3    H111091   2.137   4.415   0.596  0.5467  0.0880 -0.1261
 3709TIP3    H211092   2.134   4.526   0.494  3.3811 -0.8590 -1.3238
 3710TIP3   OH211093   2.571   3.923   0.460 -0.7591  0.1718  0.4091
 3710TIP3    H111094   2.506   3.991   0.472 -0.4125  0.3921  1.1265
 3710TIP3    H211095   2.640   3.964   0.408 -0.8377  0.1748  0.3073
 3711TIP3   OH211096   1.135   3.138   0.785  0.2877 -0.2008 -0.6735
 3711TIP3    H111097   1.144   3.043   0.784  3.7523 -0.0082  0.0476
 3711TIP3    H211098   1.194   3.168   0.854 -0.2922  2.5113 -1.2031
 3712TIP3   OH211099   3.508   1.910   3.114  0.4412  0.0681 -0.1012
 3712TIP3    H111100   3.464   1.961   3.045  0.0414  0.4129  0.4077
 3712TIP3    H211101   3.471   1.823   3.107  0.4788  0.0730 -0.3915
 3713TIP3   OH211102   2.220   1.988   1.317  0.7577 -0.0245  0.2109
 3713TIP3    H111103   2.227   2.008   1.411  0.6039  0.6784  0.0827
 3713TIP3    H211104   2.133   2.020   1.293  0.7104 -0.4021 -0.1286
 3714TIP3   OH211105   3.160   4.668   4.181 -0.2449 -0.2429 -0.4456
 3714TIP3    H111106   3.185   4.577   4.168  0.9677 -0.2259  1.3527
 3714TIP3    H211107   3.064   4.666   4.192 -0.3297 -1.1582 -1.2778
 3715TIP3   OH211108   0.193   3.685   5.625  0.5914  0.3310 -0.4968
 3715TIP3    H111109   0.118   3.735   5.595 -0.3793 -0.3239  0.7496
 3715TIP3    H211110   0.260   3.751   5.642 -0.4884  1.1796  0.6200
 3716TIP3   OH211111   4.265   3.676   3.943 -0.1394  0.2637  0.0676
 3716TIP3    H111112   4.285   3.586   3.916 -1.7583 -0.1609  0.1665
 3716TIP3    H211113   4.275   3.675   4.038  0.0853  0.2581  0.0445
 3717TIP3   OH211114   5.745   0.510   0.145  0.2841  0.2820  0.0903
 3717TIP3    H111115   5.733   0.604   0.159 -0.3747  0.5100 -1.7501
 3717TIP3    H211116   5.737   0.472   0.233 -0.4664  1.8415  0.7427
 3718TIP3   OH211117   3.457   0.153   4.481  0.0239 -0.6279 -0.0379
 3718TIP3    H111118   3.526   0.192   4.535  0.0604  1.6596 -1.5855
 3718TIP3    H211119   3.502   0.088   4.427  0.6742 -0.2633  0.0616
 3719TIP3   OH211120   7.158   1.139   3.901  0.0185  0.9685  0.1846
 3719TIP3    H111121   7.105   1.206   3.945 -0.8688  1.1712 -1.1203
 3719TIP3    H211122   7.207   1.188   3.835 -1.2716  0.2833 -1.3598
 3720TIP3   OH211123   3.797   0.251   2.778 -0.9484  0.0721 -0.3108
 3720TIP3    H111124   3.799   0.346   2.793  0.0137  0.2104 -1.1285
 3720TIP3    H211125   3.850   0.214   2.849  0.0541  0.3186 -0.9094
 3721TIP3   OH211126   2.969   3.984   3.314 -0.3771  0.0107  0.4995
 3721TIP3    H111127   2.913   4.061   3.320 -2.0001 -0.9862 -0.8795
 3721TIP3    H211128   2.911   3.915   3.283  1.8277 -0.7901 -2.3514
 3722TIP3   OH211129   4.391   2.938   4.766 -0.4480 -0.4906 -0.1172
 3722TIP3    H111130   4.365   3.030   4.769 -1.8345 -0.8011 -1.4468
 3722TIP3    H211131   4.437   2.928   4.682  1.5954 -0.5987  0.9349
 3723TIP3   OH211132   3.020   4.125   5.269  0.7335 -0.1930  0.2969
 3723TIP3    H111133   2.939   4.095   5.309  2.3473 -0.1338  3.9770
 3723TIP3    H211134   3.046   4.053   5.211 -0.3594 -1.6190  1.5109
 3724TIP3   OH211135   0.488   2.793   2.731  0.6596 -0.5607 -0.1364
 3724TIP3    H111136   0.462   2.701   2.720 -1.9538  0.1707 -0.8017
 3724TIP3    H211137   0.557   2.806   2.666  0.5181 -1.8659 -0.5795
 3725TIP3   OH211138   6.904   6.020   1.547  0.0414  0.4995  0.1875
 3725TIP3    H111139   6.858   6.101   1.524 -1.4636  0.1037  1.6323
 3725TIP3    H211140   6.861   5.989   1.626  1.7327 -0.8233  0.6595
 3726TIP3   OH211141   3.779   0.983   3.847  0.2056  0.4434 -0.1925
 3726TIP3    H111142   3.781   0.926   3.771  1.0805  0.8430 -0.4807
 3726TIP3    H211143   3.763   1.071   3.811  0.2815  0.5846  0.1134
 3727TIP3   OH211144   5.711   2.994   2.000  0.2344  0.1676 -0.3139
 3727TIP3    H111145   5.653   2.930   1.960  0.8331 -0.0237 -0.8863
 3727TIP3    H211146   5.776   2.941   2.047 -0.1680  0.3815  0.4973
 3728TIP3   OH211147   6.535   1.284   5.749  0.1529 -0.5096 -0.4267
 3728TIP3    H111148   6.493   1.206   5.714 -0.8809  0.6034 -1.7921
 3728TIP3    H211149   6.464   1.349   5.754  0.6661 -0.0450  2.0056
 3729TIP3   OH211150   0.112   4.760   4.906  0.3269  0.1645  0.0927
 3729TIP3    H111151   0.185   4.734   4.963  1.4427  0.4826 -1.1533
 3729TIP3    H211152   0.149   4.760   4.818 -0.9187  1.3389 -0.4566
 3730TIP3   OH211153   3.087   0.762   2.826 -0.4061  0.7859  0.6199
 3730TIP3    H111154   3.093   0.745   2.920  1.3346 -4.0538 -0.0744
 3730TIP3    H211155   3.043   0.685   2.790  3.3322 -0.0452 -2.9183
 3731TIP3   OH211156   6.867   4.278   5.551  0.7234 -0.2292  0.0533
 3731TIP3    H111157   6.883   4.330   5.473 -1.0753 -1.1528 -1.0155
 3731TIP3    H211158   6.949   4.279   5.599  1.5799  1.1656 -1.3675
 3732TIP3   OH211159   1.025   4.559   2.118  0.1693  0.5513 -0.4526
 3732TIP3    H111160   1.077   4.481   2.103 -0.8171 -0.2164 -0.0044
 3732TIP3    H211161   1.042   4.581   2.210  0.9241  1.2470 -0.7434
 3733TIP3   OH211162   6.343   5.729   2.066 -0.4061  0.4175  0.0279
 3733TIP3    H111163   6.357   5.646   2.021  1.0237 -0.5029  2.0198
 3733TIP3    H211164   6.423   5.779   2.051  0.4821 -0.2489  2.0873
 3734TIP3   OH211165   6.737   5.945   1.792  0.3776 -0.7089  0.0158
 3734TIP3    H111166   6.648   5.975   1.812  0.5215  0.1407 -0.5652
 3734TIP3    H211167   6.733   5.850   1.804  0.0843 -0.4435  2.5674
 3735TIP3   OH211168   3.825   2.351   1.684 -0.2530 -0.0014 -0.5324
 3735TIP3    H111169   3.802   2.322   1.772  1.6989  0.2960  0.1102
 3735TIP3    H211170   3.920   2.340   1.678  0.0385  2.4237 -1.6607
 3736TIP3   OH211171   5.891   2.531   0.716 -0.3212  0.2086  0.1530
 3736TIP3    H111172   5.941   2.608   0.743  0.1430  0.8421 -2.2308
 3736TIP3    H211173   5.953   2.481   0.662 -1.2719 -0.7168 -0.1088
 3737TIP3   OH211174   5.687   5.482   0.484 -0.3755 -0.3099 -0.2751
 3737TIP3    H111175   5.768   5.519   0.518 -0.4913 -2.1140  2.3115
 3737TIP3    H211176   5.624   5.554   0.488  0.9227  0.9895 -1.9293
 3738TIP3   OH211177   2.646   4.560   4.473 -0.0831 -0.3686 -0.0969
 3738TIP3    H111178   2.701   4.632   4.442  0.5947 -0.6939  0.3210
 3738TIP3    H211179   2.557   4.592   4.462  0.2181  0.8428  0.7622
 3739TIP3   OH211180   5.817   1.034   3.889  0.3836 -0.0046  0.1661
 3739TIP3    H111181   5.794   0.994   3.973  1.4254 -1.2153 -0.0974
 3739TIP3    H211182   5.801   0.965   3.825  0.6059  0.5656 -0.5108
 3740TIP3   OH211183   2.436   1.820   3.480 -0.4214 -0.2777  0.1944
 3740TIP3    H111184   2.510   1.852   3.429  0.5974 -1.3333  0.9494
 3740TIP3    H211185   2.438   1.871   3.561 -0.7285 -0.0888  0.0870
 3741TIP3   OH211186   4.175   6.113   0.252  0.4013 -0.3034 -0.0024
 3741TIP3    H111187   4.180   6.128   0.346 -0.4877 -1.5863  0.2689
 3741TIP3    H211188   4.249   6.056   0.233  0.5288 -0.1169 -0.0714
 3742TIP3   OH211189   0.039   5.562   3.046  0.3483  0.0651  0.1005
 3742TIP3    H111190   0.038   5.645   3.094 -0.5272  0.5357 -0.7137
 3742TIP3    H211191   0.052   5.587   2.955 -1.1204 -0.5997 -0.3095
 3743TIP3   OH211192   1.910   1.314   1.111  0.6351  0.1580 -0.0249
 3743TIP3    H111193   1.832   1.287   1.063  0.8696 -0.8111  0.1184
 3743TIP3    H211194   1.939   1.235   1.155  1.3046  0.6776  0.4834
 3744TIP3   OH211195   5.007   2.083   1.656  0.1508 -0.2560 -0.2678
 3744TIP3    H111196   5.086   2.103   1.607  0.4782 -0.1511  0.2961
 3744TIP3    H211197   5.034   2.086   1.748 -0.7436  0.8001 -0.0260
 3745TIP3   OH211198   4.133   2.670   5.607 -0.0398  0.2403 -0.2096
 3745TIP3    H111199   4.176   2.753   5.628  1.5671 -0.5543 -0.1648
 3745TIP3    H211200   4.156   2.612   5.681 -0.1982 -0.5521 -0.7694
 3746TIP3   OH211201   0.227   5.375   1.561  0.4915  0.4995  0.5605
 3746TIP3    H111202   0.229   5.314   1.634  1.2451 -0.7707 -0.4800
 3746TIP3    H211203   0.161   5.340   1.502  0.3878  1.1217  0.3042
 3747TIP3   OH211204   5.030   6.074   0.767 -0.3495 -0.3389 -0.3863
 3747TIP3    H111205   5.076   6.028   0.837  1.7126 -1.2475 -2.2388
 3747TIP3    H211206   5.076   6.158   0.760 -0.4756 -0.2988 -0.7374
 3748TIP3   OH211207   6.374   3.726   3.479 -0.1412  0.0065 -0.0260
 3748TIP3    H111208   6.450   3.686   3.437  0.1273 -1.5053  1.7587
 3748TIP3    H211209   6.411   3.777   3.551 -0.7173  0.9109 -0.3512
 3749TIP3   OH211210   6.605   3.241   4.080  0.3750 -0.9451 -0.1227
 3749TIP3    H111211   6.656   3.266   4.002 -0.9048  0.4921 -0.5548
 3749TIP3    H211212   6.640   3.297   4.150 -1.5596  1.2577 -0.7790
 3750TIP3   OH211213   3.296   2.822   5.731  0.2402 -0.8668  0.9584
 3750TIP3    H111214   3.379   2.866   5.748  1.3329 -2.4605  0.0569
 3750TIP3    H211215   3.280   2.836   5.637  1.8772 -4.2039  0.0235
 3751TIP3   OH211216   6.546   3.339   2.161  0.0237 -0.2083 -0.8082
 3751TIP3    H111217   6.609   3.274   2.192  1.7343  1.2680 -0.9838
 3751TIP3    H211218   6.529   3.394   2.238 -1.0167 -0.5392 -0.7866
 3752TIP3   OH211219   2.713   3.448   4.431 -0.2231 -0.0607 -0.3266
 3752TIP3    H111220   2.650   3.498   4.380 -0.4943  1.9829  1.8119
 3752TIP3    H211221   2.661   3.380   4.473 -0.5935  0.2450 -0.2828
 3753TIP3   OH211222   4.929   4.536   0.507 -0.3301  0.1051 -0.9218
 3753TIP3    H111223   4.914   4.599   0.436 -1.6019  2.4431  1.2625
 3753TIP3    H211224   4.854   4.476   0.502 -0.5954  0.4623 -1.3381
 3754TIP3   OH211225   6.206   3.077   3.258 -0.0954 -0.3395  0.0996
 3754TIP3    H111226   6.166   3.158   3.228  1.5739  0.1626 -0.8737
 3754TIP3    H211227   6.183   3.012   3.191 -0.2247 -0.3313  0.1357
 3755TIP3   OH211228   3.413   5.950   4.665 -1.0663 -0.0791 -0.2684
 3755TIP3    H111229   3.487   6.009   4.656 -1.1358  0.3238  1.3424
 3755TIP3    H211230   3.399   5.943   4.760  0.0206 -4.0358 -0.1946
 3756TIP3   OH211231   6.657   6.311   0.541  0.3053  0.5275 -0.5067
 3756TIP3    H111232   6.570   6.326   0.580  0.5899 -0.6466  0.6374
 3756TIP3    H211233   6.697   6.245   0.597  1.8356  0.8336 -1.2048
 3757TIP3   OH211234   1.340   4.679   5.131 -0.2986  0.2582  0.0695
 3757TIP3    H111235   1.413   4.653   5.188  0.0699 -0.8452 -0.8612
 3757TIP3    H211236   1.264   4.633   5.166 -0.0016 -0.7014 -0.5193
 3758TIP3   OH211237   5.209   5.613   5.641 -0.1324  0.2518 -0.4298
 3758TIP3    H111238   5.194   5.519   5.632 -0.5163  0.5000 -2.9101
 3758TIP3    H211239   5.196   5.630   5.734  1.7436 -2.4278  0.4498
 3759TIP3   OH211240   3.731   2.805   1.616  0.0310  0.0149 -0.3413
 3759TIP3    H111241   3.728   2.738   1.684  0.4647 -0.5989 -0.9252
 3759TIP3    H211242   3.823   2.829   1.608 -0.2141  1.3305  0.4795
 3760TIP3   OH211243   0.648   1.622   3.129 -0.3669  0.4274  0.0992
 3760TIP3    H111244   0.648   1.601   3.222  0.1959  0.4876  0.1133
 3760TIP3    H211245   0.589   1.697   3.121 -1.2170 -0.2132  0.2619
 3761TIP3   OH211246   5.314   0.861   0.032  0.9486 -0.1088 -0.0566
 3761TIP3    H111247   5.401   0.848   0.071  1.3755 -1.3217 -1.3346
 3761TIP3    H211248   5.314   0.954   0.006  2.1664 -0.2668 -0.7173
 3762TIP3   OH211249   3.281   3.333   2.026 -0.1940  0.0241 -0.3484
 3762TIP3    H111250   3.304   3.337   1.933 -0.3618  2.2037 -0.3434
 3762TIP3    H211251   3.192   3.299   2.027 -0.6796  1.2338 -1.0926
 3763TIP3   OH211252   5.693   0.179   1.756  0.2170  0.1328  0.2947
 3763TIP3    H111253   5.711   0.273   1.755 -0.5354  0.3212  1.4645
 3763TIP3    H211254   5.601   0.173   1.784 -0.1640 -0.9155 -1.0910
 3764TIP3   OH211255   2.519   2.217   2.804 -1.1504 -0.1257 -0.4429
 3764TIP3    H111256   2.576   2.265   2.743 -0.3441  1.6307  1.5585
 3764TIP3    H211257   2.579   2.159   2.851 -1.1437  0.8475  0.8243
 3765TIP3   OH211258   0.962   5.228   5.633 -0.4880 -0.6937 -0.7634
 3765TIP3    H111259   0.891   5.282   5.669 -0.0498  1.0535 -2.3735
 3765TIP3    H211260   0.937   5.213   5.541  1.1651 -0.1326 -1.3305
 3766TIP3   OH211261   3.101   5.560   2.212 -0.5301  0.2061 -0.8317
 3766TIP3    H111262   3.157   5.632   2.183 -0.9235  0.5321 -0.7946
 3766TIP3    H211263   3.011   5.591   2.196 -0.6841 -0.8334 -2.1153
 3767TIP3   OH211264   3.948   6.041   0.722  0.2906  0.3280 -0.7426
 3767TIP3    H111265   4.010   6.114   0.731  1.7869 -1.0256  0.5669
 3767TIP3    H211266   3.946   6.022   0.628  1.3275  0.8438 -0.8790
 3768TIP3   OH211267   2.131   4.139   3.009  0.2367 -0.0461  0.0773
 3768TIP3    H111268   2.122   4.135   2.914  0.0890  0.6849  0.0528
 3768TIP3    H211269   2.168   4.226   3.026 -1.1773  0.4536  0.7856
 3769TIP3   OH211270   5.473   6.215   0.316 -0.1743 -0.6895 -0.1581
 3769TIP3    H111271   5.382   6.243   0.316  0.0807  0.2225 -0.9058
 3769TIP3    H211272   5.523   6.297   0.313  0.7158 -1.1084  1.9676
 3770TIP3   OH211273   4.411   6.495   2.117 -0.0189 -0.0573  0.4414
 3770TIP3    H111274   4.352   6.566   2.142 -0.8907 -0.3454 -0.6797
 3770TIP3    H211275   4.383   6.472   2.028  1.1061 -0.9238  0.2926
 3771TIP3   OH211276   0.446   1.046   4.280 -0.7987 -0.2341  0.2716
 3771TIP3    H111277   0.434   0.963   4.233 -3.4286 -0.0882  0.4940
 3771TIP3    H211278   0.359   1.087   4.279 -0.7293  0.4352  4.0034
 3772TIP3   OH211279   7.055   5.281   1.874  0.0664  0.1447 -0.2003
 3772TIP3    H111280   7.058   5.288   1.779 -0.2905 -0.4440 -0.2621
 3772TIP3    H211281   7.043   5.187   1.891 -1.0585  0.3733  0.3923
 3773TIP3   OH211282   2.925   1.570   0.941  0.1244 -0.3173  0.1611
 3773TIP3    H111283   2.979   1.519   0.880  0.7620  1.0292 -0.4408
 3773TIP3    H211284   2.982   1.587   1.016  0.2101  0.2072 -0.0139
 3774TIP3   OH211285   2.394   0.571   0.893  0.5876 -0.0491  0.0473
 3774TIP3    H111286   2.394   0.505   0.824 -2.7936 -0.8725  0.6675
 3774TIP3    H211287   2.403   0.654   0.847 -0.1789 -0.6628 -1.2686
 3775TIP3   OH211288   3.658   0.152   1.375 -0.1640  0.3826 -0.4024
 3775TIP3    H111289   3.588   0.191   1.428  0.2284  1.0951 -0.4052
 3775TIP3    H211290   3.683   0.221   1.314 -0.7939 -0.5094 -1.7219
 3776TIP3   OH211291   3.799   0.785   3.657  0.1334  0.0135  0.1413
 3776TIP3    H111292   3.705   0.804   3.662  0.2905  0.8726 -0.0952
 3776TIP3    H211293   3.804   0.689   3.658 -0.7908 -0.0590 -0.6729
 3777TIP3   OH211294   2.026   3.085   5.046 -0.2213 -0.5729 -0.2096
 3777TIP3    H111295   2.005   3.059   5.136 -0.6303  0.2556 -0.0598
 3777TIP3    H211296   1.944   3.074   4.998 -0.0467 -0.8455 -0.4508
 3778TIP3   OH211297   1.605   1.096   3.679 -0.2449 -0.0060 -0.0632
 3778TIP3    H111298   1.555   1.165   3.635 -0.9887  0.5485  1.5758
 3778TIP3    H211299   1.541   1.027   3.696  0.3408 -0.8174 -1.0458
 3779TIP3   OH211300   5.907   5.322   3.626  0.8009  0.0884 -0.5368
 3779TIP3    H111301   5.975   5.389   3.619  1.1298  0.0374  1.5560
 3779TIP3    H211302   5.878   5.327   3.717 -0.1832 -1.6547 -0.7166
 3780TIP3   OH211303   3.605   0.566   0.047  0.1241  0.0164 -0.1006
 3780TIP3    H111304   3.589   0.645  -0.005 -0.7733  1.2619  1.9486
 3780TIP3    H211305   3.659   0.511  -0.009  0.9770  2.1890 -1.5437
 3781TIP3   OH211306   1.578   0.324   0.239  0.2712  0.1154  0.1043
 3781TIP3    H111307   1.595   0.292   0.327  1.9599  1.7900  0.4502
 3781TIP3    H211308   1.486   0.349   0.239 -0.0430 -0.9825  1.0100
 3782TIP3   OH211309   1.902   5.173   4.879 -0.3445  0.0048  0.2855
 3782TIP3    H111310   1.937   5.187   4.967  0.6941  0.0254 -0.1149
 3782TIP3    H211311   1.951   5.097   4.847 -1.1506 -0.3831 -0.0559
 3783TIP3   OH211312   3.031   1.948   3.804 -0.5948 -0.2840  0.0975
 3783TIP3    H111313   3.092   1.939   3.731  1.0078  0.2707  1.3018
 3783TIP3    H211314   3.012   1.858   3.831  0.6784 -0.4559  0.4680
 3784TIP3   OH211315   3.388   5.205   2.649  0.2442  0.1262 -0.6514
 3784TIP3    H111316   3.368   5.296   2.671 -0.1329 -0.1339  0.1524
 3784TIP3    H211317   3.434   5.209   2.566 -0.7336  0.9787 -1.1719
 3785TIP3   OH211318   4.349   4.615   5.761  0.2749 -0.2335  0.3422
 3785TIP3    H111319   4.366   4.669   5.684  2.3852  0.5993  1.3214
 3785TIP3    H211320   4.395   4.533   5.744  0.4257 -0.1913  0.5404
 3786TIP3   OH211321   5.429   0.584   1.252  0.3803  0.5221  0.7006
 3786TIP3    H111322   5.423   0.667   1.205  1.6659  0.5286  0.5159
 3786TIP3    H211323   5.404   0.518   1.188 -0.4235  0.7327  0.7822
 3787TIP3   OH211324   5.503   5.610   5.365  0.5420  0.1332 -0.3315
 3787TIP3    H111325   5.591   5.603   5.402  0.0691 -1.3327  0.6518
 3787TIP3    H211326   5.513   5.661   5.286  2.5027 -1.0675 -0.9199
 3788TIP3   OH211327   0.136   5.897   0.141  0.3287 -0.0286 -0.3987
 3788TIP3    H111328   0.112   5.983   0.175  0.3836 -0.0960 -0.1911
 3788TIP3    H211329   0.081   5.836   0.189  0.4673 -0.1299 -0.3709
 3789TIP3   OH211330   1.923   1.871   3.378  0.0156  0.3770  0.7133
 3789TIP3    H111331   1.845   1.815   3.372  1.0138 -1.2496  1.9572
 3789TIP3    H211332   1.980   1.840   3.307  0.3755  0.1366  1.1055
 3790TIP3   OH211333   4.007   4.422   3.601  0.0104 -0.1833 -0.1537
 3790TIP3    H111334   4.014   4.431   3.506 -1.9333  1.1517 -0.2309
 3790TIP3    H211335   3.992   4.328   3.615 -1.2102 -0.2048 -1.3326
 3791TIP3   OH211336   4.333   2.407   0.693 -0.5887 -0.4898  0.5342
 3791TIP3    H111337   4.337   2.342   0.763 -0.9276  0.2849  1.3087
 3791TIP3    H211338   4.288   2.482   0.734  2.9254  1.6583  0.8609
 3792TIP3   OH211339   6.340   4.655   1.595  0.3027  0.0574  0.3024
 3792TIP3    H111340   6.295   4.729   1.555  0.7643 -0.2207 -0.7736
 3792TIP3    H211341   6.308   4.579   1.547 -0.0064 -0.4243  1.2555
 3793TIP3   OH211342   5.045   6.336   5.400  0.3931 -0.0445  0.1963
 3793TIP3    H111343   5.076   6.422   5.426  0.1193  0.8396 -2.1387
 3793TIP3    H211344   4.950   6.347   5.387  0.4483 -0.5051 -0.7123
 3794TIP3   OH211345   1.498   1.403   5.239 -0.3711 -0.1161  0.1640
 3794TIP3    H111346   1.566   1.444   5.291 -0.4066  1.8135 -1.2002
 3794TIP3    H211347   1.491   1.314   5.274  1.7018  0.1371  1.3777
 3795TIP3   OH211348   3.350   1.015   4.525 -0.3555 -0.0236 -0.0958
 3795TIP3    H111349   3.301   0.933   4.522  0.0540 -0.4056  1.9111
 3795TIP3    H211350   3.373   1.033   4.434 -0.9456 -1.8278 -0.6466
 3796TIP3   OH211351   3.743   3.004   0.499 -0.6178  0.0176  0.1561
 3796TIP3    H111352   3.720   2.911   0.499 -2.3473  0.3569  2.3872
 3796TIP3    H211353   3.781   3.019   0.585  1.0852  1.1011 -0.7440
 3797TIP3   OH211354   1.965   0.492   2.787 -0.0299  0.4561  0.0201
 3797TIP3    H111355   2.029   0.435   2.829  2.1479  1.9812 -1.0289
 3797TIP3    H211356   1.997   0.502   2.697 -0.6648  2.7769 -0.0223
 3798TIP3   OH211357   2.823   2.407   2.362 -0.1258 -0.4568 -0.3310
 3798TIP3    H111358   2.915   2.384   2.371  0.5120  1.3524 -1.5955
 3798TIP3    H211359   2.820   2.501   2.382 -1.3607 -0.0860 -2.0383
 3799TIP3   OH211360   1.224   0.697   1.646 -0.0854 -0.5749  0.0453
 3799TIP3    H111361   1.260   0.748   1.574  1.4146 -1.1911  0.3046
 3799TIP3    H211362   1.267   0.733   1.724 -0.9276 -0.5739  0.5238
 3800TIP3   OH211363   4.550   0.214   0.401 -0.1414  0.0187  0.7909
 3800TIP3    H111364   4.575   0.164   0.478 -1.4484  0.1966  1.3580
 3800TIP3    H211365   4.482   0.162   0.359  0.3134  0.0910 -0.0704
 3801TIP3   OH211366   4.136   5.978   1.714  0.4113 -0.8076  0.1913
 3801TIP3    H111367   4.127   5.924   1.792 -0.1329  0.4607  1.0385
 3801TIP3    H211368   4.211   5.941   1.667  0.6046 -1.7307  1.2016
 3802TIP3   OH211369   3.632   1.755   0.982 -0.0646 -0.0317 -0.1732
 3802TIP3    H111370   3.680   1.822   0.935 -0.1122 -1.3634 -2.2812
 3802TIP3    H211371   3.683   1.739   1.061  1.7156  0.2132 -1.2137
 3803TIP3   OH211372   5.488   5.591   3.183  0.3368  0.2183  0.2714
 3803TIP3    H111373   5.476   5.683   3.208 -0.4339  0.5152 -1.1025
 3803TIP3    H211374   5.537   5.553   3.256  1.7192  1.9917  0.3509
 3804TIP3   OH211375   3.221   6.326   5.638  0.5562 -0.2474  0.0832
 3804TIP3    H111376   3.182   6.262   5.579 -1.9171  1.0404  0.1832
 3804TIP3    H211377   3.279   6.275   5.694 -0.9166 -2.3247 -0.1597
 3805TIP3   OH211378   4.867   2.126   4.399 -0.8063  0.1147 -0.0186
 3805TIP3    H111379   4.840   2.035   4.411  0.8554 -0.0816  3.2715
 3805TIP3    H211380   4.788   2.177   4.419 -0.8073 -0.5983  2.0722
 3806TIP3   OH211381   4.879   5.470   1.368 -0.1900  0.3612 -0.4691
 3806TIP3    H111382   4.955   5.415   1.351  1.1320  1.7155  0.7352
 3806TIP3    H211383   4.915   5.559   1.372 -1.8935  1.0695 -0.1595
 3807TIP3   OH211384   1.172   6.283   0.852  0.4923 -0.5019  0.2084
 3807TIP3    H111385   1.222   6.259   0.774  0.7068  1.4776 -0.3125
 3807TIP3    H211386   1.229   6.261   0.926  1.3321 -0.0828 -0.3021
 3808TIP3   OH211387   4.511   5.800   3.506 -0.7692  0.0478  0.5060
 3808TIP3    H111388   4.542   5.869   3.448 -0.2685 -0.7197 -0.1621
 3808TIP3    H211389   4.463   5.846   3.575 -0.9108  1.0132 -0.2212
 3809TIP3   OH211390   5.746   4.762   0.359 -0.0188  0.6234 -0.2316
 3809TIP3    H111391   5.732   4.700   0.430  1.6171 -0.6809 -0.9795
 3809TIP3    H211392   5.741   4.848   0.401 -0.8846 -0.0497  1.1065
 3810TIP3   OH211393   6.170   6.610   0.675  0.0764  0.2312  0.4137
 3810TIP3    H111394   6.176   6.623   0.769  1.3810  0.2976  0.3366
 3810TIP3    H211395   6.157   6.698   0.639 -4.3428 -0.0696  0.7105
 3811TIP3   OH211396   3.271   5.314   4.654  0.6155  0.1646  0.2282
 3811TIP3    H111397   3.363   5.342   4.660  1.0276 -0.8186 -0.9932
 3811TIP3    H211398   3.232   5.374   4.590  0.7552 -0.2322 -0.2343
 3812TIP3   OH211399   3.844   4.878   3.543  0.4884 -0.0953  0.2737
 3812TIP3    H111400   3.929   4.894   3.502  0.3214  0.4580  0.1349
 3812TIP3    H211401   3.853   4.792   3.583  0.3103 -1.1708 -1.8322
 3813TIP3   OH211402   6.976   5.975   3.162  0.1448  0.1108 -0.4501
 3813TIP3    H111403   7.014   6.048   3.212  3.5356 -0.3962 -2.0409
 3813TIP3    H211404   6.951   6.014   3.078  0.9607 -0.3089 -0.9004
 3814TIP3   OH211405   3.150   2.719   1.148  0.3745  0.5590  0.2720
 3814TIP3    H111406   3.130   2.673   1.229  1.0491  1.3467  0.8991
 3814TIP3    H211407   3.076   2.700   1.090 -0.0577 -0.0967  1.0306
 3815TIP3   OH211408   2.155   2.391   4.616  0.1750  0.3590 -0.1189
 3815TIP3    H111409   2.248   2.369   4.610  0.5105  1.6784 -0.0801
 3815TIP3    H211410   2.125   2.346   4.695  0.8714  0.2351  0.0829
 3816TIP3   OH211411   2.753   6.773   2.103 -0.1200  0.5188 -0.1793
 3816TIP3    H111412   2.755   6.678   2.091 -0.6348  0.6091 -1.0220
 3816TIP3    H211413   2.668   6.800   2.070  0.6606  1.4654 -1.5079
 3817TIP3   OH211414   7.121   3.575   2.984 -0.2729  0.2893  0.2428
 3817TIP3    H111415   7.030   3.593   3.007 -0.0444  1.0811  0.5608
 3817TIP3    H211416   7.159   3.538   3.064 -0.7499 -1.7615 -0.4158
 3818TIP3   OH211417   2.606   1.366   3.900 -0.1173 -0.4642 -0.5941
 3818TIP3    H111418   2.674   1.419   3.940 -0.9547 -0.4633  0.8943
 3818TIP3    H211419   2.556   1.332   3.974 -0.4919 -2.1296 -1.5751
 3819TIP3   OH211420   6.410   1.497   3.881  0.1815 -0.5056  0.2169
 3819TIP3    H111421   6.352   1.496   3.804  0.3950  0.9852  0.0150
 3819TIP3    H211422   6.460   1.416   3.873 -1.3254 -1.4656 -0.0054
 3820TIP3   OH211423   0.794   0.763   1.600  0.1992  0.4335 -0.1349
 3820TIP3    H111424   0.753   0.757   1.513  0.2943 -3.3567 -0.0725
 3820TIP3    H211425   0.870   0.705   1.594  0.4059  0.3468  2.4042
 3821TIP3   OH211426   4.205   1.252   4.819  0.1279 -0.0748 -0.4266
 3821TIP3    H111427   4.196   1.331   4.873  1.0435 -0.6968  0.6861
 3821TIP3    H211428   4.127   1.200   4.840 -0.9185  0.8852 -1.8150
 3822TIP3   OH211429   0.674   2.122   5.385 -0.1097 -0.3482  0.0578
 3822TIP3    H111430   0.627   2.052   5.432  0.2602 -1.1914 -0.7875
 3822TIP3    H211431   0.644   2.114   5.295  1.1209 -0.4625 -0.3611
 3823TIP3   OH211432   5.107   2.880   2.946  0.4133  0.1750 -0.1762
 3823TIP3    H111433   5.083   2.952   3.005  0.8748  0.5125 -0.3863
 3823TIP3    H211434   5.200   2.895   2.928  0.7814 -1.0675  0.5902
 3824TIP3   OH211435   2.810   5.734   1.407  0.3305  0.2155  0.2933
 3824TIP3    H111436   2.745   5.689   1.353 -0.0327  0.6041  0.4031
 3824TIP3    H211437   2.778   5.823   1.415 -0.8112 -0.3190  2.9597
 3825TIP3   OH211438   3.030   6.466   2.739  1.1504 -0.5910 -0.3079
 3825TIP3    H111439   3.037   6.490   2.646  1.1460 -1.5903 -0.5701
 3825TIP3    H211440   2.936   6.472   2.757  1.0416 -1.2854 -0.6158
 3826TIP3   OH211441   2.522   0.010   4.887  0.0134  0.0755 -0.0516
 3826TIP3    H111442   2.592   0.002   4.951  1.0266 -0.9138 -1.2210
 3826TIP3    H211443   2.446   0.039   4.937  0.8625 -0.3074  1.5114
 3827TIP3   OH211444   4.389   2.456   2.270  0.5687  0.2185  0.5448
 3827TIP3    H111445   4.306   2.462   2.223 -1.2957 -5.7704  2.1566
 3827TIP3    H211446   4.370   2.493   2.356 -0.1216 -0.0889  0.5316
 3828TIP3   OH211447   5.018   3.651   3.460 -0.2873  0.2179 -0.4410
 3828TIP3    H111448   5.108   3.617   3.454 -0.4395 -0.3435  0.2783
 3828TIP3    H211449   5.019   3.730   3.406  0.6296  0.1990 -0.4789
 3829TIP3   OH211450   5.452   3.332   3.953 -0.4922 -0.4859 -0.5797
 3829TIP3    H111451   5.465   3.407   4.011 -0.5172 -0.3888 -0.7003
 3829TIP3    H211452   5.362   3.304   3.970 -0.2122 -1.0369  0.1095
 3830TIP3   OH211453   1.039   2.542   0.069 -0.0176 -0.3542  0.1399
 3830TIP3    H111454   0.974   2.471   0.074  1.5708 -2.0063 -1.2642
 3830TIP3    H211455   1.111   2.513   0.125  0.9853 -0.2716 -1.0488
 3831TIP3   OH211456   6.086   3.546   0.142 -0.3916  0.2896  0.4398
 3831TIP3    H111457   6.097   3.641   0.155 -0.3036  0.5048 -1.0157
 3831TIP3    H211458   5.993   3.530   0.159 -0.3035  0.5371  1.1951
 3832TIP3   OH211459   2.328   6.182   2.414 -0.2739  0.4504 -0.0940
 3832TIP3    H111460   2.356   6.115   2.352  2.3410  0.9067  0.4777
 3832TIP3    H211461   2.316   6.135   2.496  0.2704  0.4776  0.0015
 3833TIP3   OH211462   0.240   2.677   2.895  0.1809 -0.1069 -0.3545
 3833TIP3    H111463   0.167   2.617   2.886 -0.0054  0.1633 -0.6990
 3833TIP3    H211464   0.306   2.629   2.945 -0.2360 -0.3453 -0.0321
 3834TIP3   OH211465   3.557   3.902   4.639 -0.3296 -0.4110  0.3588
 3834TIP3    H111466   3.483   3.854   4.601 -0.1287 -0.1283 -0.4076
 3834TIP3    H211467   3.595   3.841   4.703 -1.1800 -0.5785  0.7122
 3835TIP3   OH211468   5.660   6.127   3.849 -0.2016 -0.3364 -0.4040
 3835TIP3    H111469   5.694   6.163   3.931 -0.4146  1.5643 -1.0931
 3835TIP3    H211470   5.694   6.037   3.845  1.1595  0.0857  0.9630
 3836TIP3   OH211471   2.407   1.091   3.059 -0.3633 -0.1532  0.2384
 3836TIP3    H111472   2.399   1.186   3.066  0.1040 -0.0904 -0.0126
 3836TIP3    H211473   2.338   1.057   3.115 -1.9244  0.3297 -1.2824
 3837TIP3   OH211474   7.184  -0.023   0.834 -0.8705  0.3799  0.9521
 3837TIP3    H111475   7.094  -0.022   0.801 -1.0849  0.3960  1.5400
 3837TIP3    H211476   7.201   0.067   0.859  0.2483  0.9954 -1.6422
 3838TIP3   OH211477   6.305   2.374   0.085 -0.1546 -0.2552 -0.2814
 3838TIP3    H111478   6.286   2.462   0.052  1.2546  0.3486  0.4252
 3838TIP3    H211479   6.223   2.343   0.122 -0.6200  0.8546 -0.3560
 3839TIP3   OH211480   1.620   3.079   5.787  0.0451 -0.1101 -0.1609
 3839TIP3    H111481   1.704   3.057   5.827  0.1971  1.6595  0.5977
 3839TIP3    H211482   1.640   3.151   5.726 -0.8488  0.0759 -0.2550
 3840TIP3   OH211483   7.000   2.044   0.999  0.0360 -0.0387 -0.1486
 3840TIP3    H111484   7.008   1.959   1.041 -0.1418  0.2659  0.5098
 3840TIP3    H211485   7.089   2.080   1.001  0.1140 -0.2119 -0.4420
 3841TIP3   OH211486   4.385   3.915   3.875 -0.3445 -0.0751 -0.3736
 3841TIP3    H111487   4.326   3.987   3.895  0.3528  0.2391  0.6097
 3841TIP3    H211488   4.346   3.839   3.918  0.3046  0.2736  0.8822
 3842TIP3   OH211489   6.892   4.880   0.140  0.0571  0.2443 -0.1983
 3842TIP3    H111490   6.846   4.943   0.084 -1.1660 -1.0186 -0.6765
 3842TIP3    H211491   6.825   4.814   0.161  1.3068 -0.9276  0.2068
 3843TIP3   OH211492   3.521   3.586   2.756 -0.3013  0.1629  0.1704
 3843TIP3    H111493   3.552   3.501   2.787 -0.6769  0.0847  0.3393
 3843TIP3    H211494   3.564   3.598   2.671  0.5750  0.2852  0.6207
 3844TIP3   OH211495   7.101   2.928   2.761  0.0143 -0.1583  0.0927
 3844TIP3    H111496   7.028   2.867   2.755 -0.1410  0.0763 -0.4604
 3844TIP3    H211497   7.059   3.015   2.764  0.1412 -0.1163  2.5596
 3845TIP3   OH211498   3.407   5.121   3.866 -0.0452  0.2338  0.1033
 3845TIP3    H111499   3.408   5.076   3.782  0.6239  0.6095 -0.0984
 3845TIP3    H211500   3.434   5.054   3.929  0.9718  0.3380 -0.2005
 3846TIP3   OH211501   6.895   5.612   0.650  0.2889 -0.3088 -0.7168
 3846TIP3    H111502   6.892   5.606   0.745  2.7779 -0.0755 -0.5490
 3846TIP3    H211503   6.965   5.675   0.632 -0.5072  0.0888 -2.7165
 3847TIP3   OH211504   0.134   4.469   0.525  0.0816  0.2913 -0.0331
 3847TIP3    H111505   0.047   4.429   0.532 -0.4774  1.1761 -1.3717
 3847TIP3    H211506   0.153   4.501   0.613 -0.4047 -0.9913  0.5563
 3848TIP3   OH211507   5.138   5.359   4.478  0.3585 -0.3358  0.4397
 3848TIP3    H111508   5.146   5.454   4.467 -0.0038 -0.2760  0.6806
 3848TIP3    H211509   5.049   5.346   4.510  0.7293 -0.6761  1.3528
 3849TIP3   OH211510   2.299   0.307   3.256 -0.3287  0.2288 -0.2680
 3849TIP3    H111511   2.348   0.240   3.209 -0.4869 -0.1495  0.1011
 3849TIP3    H211512   2.365   0.374   3.277 -0.0935  0.0128 -0.3071
 3850TIP3   OH211513   6.619   2.108   0.726  0.5909  0.2690 -0.4321
 3850TIP3    H111514   6.569   2.041   0.679  0.7593  0.4956 -0.9501
 3850TIP3    H211515   6.693   2.060   0.763 -0.4512 -0.2323  1.0954
 3851TIP3   OH211516   1.677   5.780   0.880  0.0473 -0.2701 -0.2910
 3851TIP3    H111517   1.655   5.777   0.787  0.4808 -2.5018 -0.3905
 3851TIP3    H211518   1.763   5.822   0.883  0.7741 -1.5957 -1.1345
 3852TIP3   OH211519   2.358   5.904   1.905  0.1412 -0.3290  0.1396
 3852TIP3    H111520   2.436   5.930   1.953  0.0241 -1.0067  0.7182
 3852TIP3    H211521   2.321   5.833   1.956 -0.2370 -0.7738 -0.7221
 3853TIP3   OH211522   5.347   0.037   3.601 -0.5640  0.6050 -0.6305
 3853TIP3    H111523   5.439   0.058   3.587 -0.7051  0.8887 -1.1698
 3853TIP3    H211524   5.347  -0.056   3.626  0.0581  1.2014  1.7766
 3854TIP3   OH211525   1.226   5.131   3.384  0.0762 -0.2405  0.0064
 3854TIP3    H111526   1.254   5.188   3.455 -0.2764  1.2307 -0.9819
 3854TIP3    H211527   1.193   5.053   3.427  1.9186 -0.3383  1.3516
 3855TIP3   OH211528   1.627   2.908   2.886  0.2814 -0.0198 -0.2656
 3855TIP3    H111529   1.601   2.838   2.946  1.6695 -0.0547  0.3341
 3855TIP3    H211530   1.599   2.878   2.800  0.4414 -1.0888  0.0466
 3856TIP3   OH211531   1.667   4.458   0.825 -0.1006 -0.1560  1.1248
 3856TIP3    H111532   1.579   4.424   0.840 -0.1195 -0.5308  0.2383
 3856TIP3    H211533   1.722   4.408   0.884 -0.1320 -1.7829 -0.1458
 3857TIP3   OH211534   3.708   6.139   4.204 -0.1641 -0.1855  0.2163
 3857TIP3    H111535   3.686   6.170   4.292 -0.3034 -1.0417  0.4850
 3857TIP3    H211536   3.777   6.074   4.216  0.1559  0.0346 -0.3514
 3858TIP3   OH211537   0.343   4.190   3.493 -0.3723 -0.2195 -0.7369
 3858TIP3    H111538   0.342   4.098   3.467  2.6179 -0.8862  1.0736
 3858TIP3    H211539   0.425   4.224   3.458  0.9651  0.3655  2.6436
 3859TIP3   OH211540   1.057   3.079   2.719  0.2277 -0.0202 -0.7218
 3859TIP3    H111541   1.036   2.999   2.767  2.3760 -0.3874 -0.3135
 3859TIP3    H211542   0.975   3.129   2.719 -0.9137 -1.8135 -0.2217
 3860TIP3   OH211543   4.063   3.895   0.759  0.7237  0.2130 -0.2733
 3860TIP3    H111544   4.016   3.974   0.785  0.0291 -0.3014  0.0634
 3860TIP3    H211545   3.994   3.832   0.738  1.2676 -0.1785 -0.9413
 3861TIP3   OH211546   4.642   4.570   1.463 -0.0765 -0.2652  0.1496
 3861TIP3    H111547   4.647   4.484   1.504 -0.4970  0.4368  1.7594
 3861TIP3    H211548   4.655   4.632   1.535 -0.4445  1.0360 -0.8526
 3862TIP3   OH211549   4.933   4.428   0.749  0.3488 -0.5609 -0.6385
 3862TIP3    H111550   4.911   4.472   0.667  1.0741 -1.8101 -1.5525
 3862TIP3    H211551   4.943   4.336   0.724  1.5966 -0.8069  0.6491
 3863TIP3   OH211552   2.898   1.914   0.615  0.0310 -0.6850 -0.3198
 3863TIP3    H111553   2.834   1.912   0.543 -1.4428 -0.0114  0.9016
 3863TIP3    H211554   2.847   1.892   0.693  1.3316 -0.2913  0.6846
 3864TIP3   OH211555   5.430   2.268   2.993  0.0291  0.3092  0.0884
 3864TIP3    H111556   5.468   2.334   3.052 -0.0580  0.3529  0.0961
 3864TIP3    H211557   5.486   2.271   2.915  0.6637 -0.3516  0.5028
 3865TIP3   OH211558   4.778   3.098   2.477  0.6351 -0.2858  0.2428
 3865TIP3    H111559   4.788   3.004   2.463  0.2991 -0.2170 -0.5536
 3865TIP3    H211560   4.687   3.116   2.453  0.7099  0.2503  0.3468
 3866TIP3   OH211561   6.479   4.906   3.852 -0.4184 -0.3305 -0.3636
 3866TIP3    H111562   6.566   4.901   3.812 -0.2029 -1.2100  0.1938
 3866TIP3    H211563   6.441   4.819   3.839 -0.1531 -0.8091  1.7358
 3867TIP3   OH211564   2.941   2.194   5.431  0.1276  0.3293 -0.0091
 3867TIP3    H111565   2.949   2.153   5.517  1.9650  1.9552  0.6627
 3867TIP3    H211566   2.851   2.228   5.430 -0.3304 -0.7984  0.7274
 3868TIP3   OH211567   1.807   5.934   5.810 -0.0358 -0.4525 -0.4325
 3868TIP3    H111568   1.890   5.972   5.840  0.0537 -0.4280 -0.7112
 3868TIP3    H211569   1.808   5.844   5.843  0.1624 -0.4943 -0.5529
 3869TIP3   OH211570   2.475   0.583   4.803  0.2253 -0.5444 -0.3503
 3869TIP3    H111571   2.474   0.621   4.891 -0.2721  2.6776 -1.6165
 3869TIP3    H211572   2.529   0.504   4.812  0.0267 -0.4414  2.8414
 3870TIP3   OH211573   0.657   1.698   1.359 -0.1149  0.0105  0.1519
 3870TIP3    H111574   0.638   1.606   1.378 -0.5103  0.2113  0.7523
 3870TIP3    H211575   0.685   1.735   1.443  2.6673 -0.1794 -0.6127
 3871TIP3   OH211576   2.597   6.526   3.880 -0.6155 -0.4654 -0.3213
 3871TIP3    H111577   2.689   6.505   3.870 -0.6808 -0.5525 -0.7509
 3871TIP3    H211578   2.570   6.481   3.960 -0.5180 -1.2026 -0.7034
 3872TIP3   OH211579   4.736   6.099   2.892  0.0415  0.2674 -0.3905
 3872TIP3    H111580   4.744   6.191   2.917  1.3592 -0.0687  0.5058
 3872TIP3    H211581   4.743   6.100   2.796  0.2657  1.0741 -0.3777
 3873TIP3   OH211582   2.778   3.030   4.976  0.5889 -0.3926  0.0860
 3873TIP3    H111583   2.730   3.026   4.893  1.8300 -0.2615 -0.6579
 3873TIP3    H211584   2.850   2.968   4.966  2.5759  1.7958 -0.1584
 3874TIP3   OH211585   5.930   5.597   0.135  0.4739  1.3166  0.1524
 3874TIP3    H111586   5.908   5.658   0.205 -1.5409  0.2953  0.4855
 3874TIP3    H211587   5.870   5.619   0.063  0.6814  0.6424 -0.2381
 3875TIP3   OH211588   5.855   2.304   2.080 -0.0577 -0.4009  0.0269
 3875TIP3    H111589   5.864   2.360   2.003  0.7545 -2.1485 -1.2063
 3875TIP3    H211590   5.794   2.235   2.054 -1.5566  0.1974  1.7319
 3876TIP3   OH211591   4.837   5.761   4.550  0.3762  0.2626 -0.3239
 3876TIP3    H111592   4.851   5.853   4.571  0.3025 -0.1764  1.7995
 3876TIP3    H211593   4.842   5.758   4.454  3.2057  1.9996 -0.3339
 3877TIP3   OH211594   7.131   1.753   3.411 -0.0163  0.0484  0.3598
 3877TIP3    H111595   7.172   1.816   3.350  0.3545 -0.3314  0.2113
 3877TIP3    H211596   7.189   1.677   3.409  0.2025  0.1798  1.4871
 3878TIP3   OH211597   2.461   5.979   0.664  0.0463  0.1946  0.4843
 3878TIP3    H111598   2.439   6.015   0.578  0.4806  1.4521  0.8699
 3878TIP3    H211599   2.550   6.012   0.681  0.4550 -1.0682  0.8858
 3879TIP3   OH211600   5.549   4.164   1.208  0.1214 -0.3051  0.2177
 3879TIP3    H111601   5.480   4.184   1.271 -0.7137  1.9943 -1.2888
 3879TIP3    H211602   5.526   4.078   1.174 -0.7392 -0.5347  1.3120
 3880TIP3   OH211603   0.181   4.943   4.124 -0.3582  0.7864  0.4943
 3880TIP3    H111604   0.118   4.887   4.080 -1.2862  0.5587  2.0178
 3880TIP3    H211605   0.251   4.956   4.061 -0.6319 -1.1971 -0.2767
 3881TIP3   OH211606   6.557   3.899   1.946  0.2677 -0.4093 -0.1692
 3881TIP3    H111607   6.560   3.804   1.949  1.1182 -0.4178 -0.8855
 3881TIP3    H211608   6.510   3.920   1.865  0.8981 -0.2283 -0.4951
 3882TIP3   OH211609   4.823   5.292   4.604 -0.2817  0.8184 -0.1210
 3882TIP3    H111610   4.838   5.382   4.634 -1.5132  0.7759  0.7024
 3882TIP3    H211611   4.728   5.287   4.591 -0.2364 -0.4051 -0.0218
 3883TIP3   OH211612   2.574   0.556   5.364 -0.2280 -0.1258  0.4990
 3883TIP3    H111613   2.551   0.509   5.284  0.1432 -0.0466  0.3425
 3883TIP3    H211614   2.491   0.566   5.411 -0.5462  0.3429 -0.1509
 3884TIP3   OH211615   2.208   6.334   1.782 -0.0209  0.1362  0.2943
 3884TIP3    H111616   2.160   6.412   1.753  0.9433  0.5176 -0.3049
 3884TIP3    H211617   2.299   6.362   1.785  0.5405 -1.3366 -1.3343
 3885TIP3   OH211618   4.488   4.008   1.107 -0.3714  0.0434 -0.5177
 3885TIP3    H111619   4.402   4.036   1.139 -0.0988  1.8551 -1.2386
 3885TIP3    H211620   4.473   3.986   1.015  0.1237  1.6033 -1.0102
 3886TIP3   OH211621   2.189   0.126   2.648 -0.6088  0.0937 -0.5718
 3886TIP3    H111622   2.136   0.052   2.620 -0.1359  0.3620 -2.3387
 3886TIP3    H211623   2.201   0.179   2.568  0.4367  1.1977  0.2668
 3887TIP3   OH211624   6.997   3.064   5.112  0.3884 -0.0838 -0.0662
 3887TIP3    H111625   6.926   3.000   5.118 -1.6006  2.0179  0.3439
 3887TIP3    H211626   7.001   3.086   5.018  0.1017  0.1976 -0.0141
 3888TIP3   OH211627   4.677   0.693   4.986  0.2332 -0.7156  0.0148
 3888TIP3    H111628   4.681   0.741   4.903 -0.2205  0.2317  0.5253
 3888TIP3    H211629   4.588   0.659   4.990 -0.3919  0.8943  0.9792
 3889TIP3   OH211630   2.837   4.765   3.756 -0.4166 -0.2344  0.0765
 3889TIP3    H111631   2.910   4.710   3.785  0.6614  0.3258 -1.4274
 3889TIP3    H211632   2.812   4.730   3.670 -2.2489 -0.6877  0.7433
 3890TIP3   OH211633   6.983   6.568   0.252  0.0429  0.1421  0.5294
 3890TIP3    H111634   6.970   6.659   0.279 -1.0776 -0.2037  1.2492
 3890TIP3    H211635   6.894   6.534   0.238  0.4451 -0.8037  0.1499
 3891TIP3   OH211636   1.628   0.099   5.486  0.4885 -0.0369 -0.5838
 3891TIP3    H111637   1.707   0.067   5.442  1.1157  0.8276 -0.1227
 3891TIP3    H211638   1.658   0.123   5.574 -0.2247  0.5706 -0.4992
 3892TIP3   OH211639   7.026   3.372   4.235 -0.1450 -0.1088  0.0440
 3892TIP3    H111640   7.085   3.435   4.275 -1.0778  1.0242 -0.3053
 3892TIP3    H211641   7.069   3.287   4.247  0.2044  0.3273  2.3382
 3893TIP3   OH211642   6.290   2.964   3.805  0.1084  0.2605  0.3931
 3893TIP3    H111643   6.210   2.917   3.832  1.7718 -1.6990  2.3270
 3893TIP3    H211644   6.301   2.940   3.713 -0.2336 -1.5366  0.7681
 3894TIP3   OH211645   5.284   2.238   0.754 -0.0375 -0.0721 -0.2155
 3894TIP3    H111646   5.267   2.211   0.845 -0.9539  0.2554 -0.2755
 3894TIP3    H211647   5.370   2.201   0.733  2.0281  2.8906  2.0314
 3895TIP3   OH211648   3.171   3.615   5.774 -0.4594  0.0656 -0.1829
 3895TIP3    H111649   3.122   3.691   5.742  0.1823  0.1694 -0.9342
 3895TIP3    H211650   3.110   3.572   5.834 -0.6768  1.4245  0.6418
 3896TIP3   OH211651   0.552   0.126   0.476  0.3244 -0.0346 -0.5878
 3896TIP3    H111652   0.556   0.056   0.411  3.2025  0.3310 -0.9282
 3896TIP3    H211653   0.493   0.190   0.437 -0.3340 -1.1172 -1.4542
 3897TIP3   OH211654   0.781   1.804   5.797 -0.4445 -0.1855 -0.1352
 3897TIP3    H111655   0.687   1.816   5.811 -0.1296  1.2472  0.9505
 3897TIP3    H211656   0.822   1.860   5.862  1.1698  1.2606 -2.2457
 3898TIP3   OH211657   6.459   1.183   5.132 -0.1010  0.1771  0.1151
 3898TIP3    H111658   6.496   1.095   5.143  1.3251  0.8058  0.5556
 3898TIP3    H211659   6.445   1.214   5.222  0.4321  0.8045 -0.0097
 3899TIP3   OH211660   4.021   4.659   2.030 -0.5187 -0.4913 -0.1586
 3899TIP3    H111661   4.048   4.671   2.121 -0.2680 -1.8567 -0.0219
 3899TIP3    H211662   4.059   4.575   2.005 -0.7623 -0.2349 -1.4642
 3900TIP3   OH211663   3.755   1.809   0.142  0.3537  0.6219 -0.1828
 3900TIP3    H111664   3.703   1.736   0.109  0.4393  0.2406  0.5020
 3900TIP3    H211665   3.830   1.768   0.185  1.1541  1.1598 -1.0164
 3901TIP3   OH211666   1.819   4.792   3.352  0.4705 -0.1098  0.1040
 3901TIP3    H111667   1.784   4.711   3.315  0.6271 -0.7483  1.2983
 3901TIP3    H211668   1.764   4.861   3.316 -0.4248 -0.8618  0.0067
 3902TIP3   OH211669   2.281   5.875   3.614  0.8715 -0.0567 -0.1778
 3902TIP3    H111670   2.325   5.895   3.531  0.3256  0.2859 -0.3873
 3902TIP3    H211671   2.189   5.896   3.598  0.7154 -0.2790  0.4210
 3903TIP3   OH211672   4.028   2.054   5.779 -0.1766 -0.2245 -0.1489
 3903TIP3    H111673   4.028   2.023   5.688 -1.2703 -0.2977 -0.1311
 3903TIP3    H211674   3.942   2.093   5.791  1.2359  3.3068 -0.3005
 3904TIP3   OH211675   0.481   4.900   2.865 -0.0344  0.1060  0.1167
 3904TIP3    H111676   0.418   4.939   2.926 -0.4398 -0.3368 -0.0101
 3904TIP3    H211677   0.565   4.904   2.911 -0.0570  1.1572  0.0864
 3905TIP3   OH211678   0.088   0.880   4.842 -0.7236  0.4917  0.8214
 3905TIP3    H111679   0.127   0.958   4.803 -0.9307  0.3847  0.3959
 3905TIP3    H211680   0.162   0.834   4.883 -0.6691  1.1323  1.4681
 3906TIP3   OH211681   5.503   3.221   4.290 -0.3638  0.0200 -0.1669
 3906TIP3    H111682   5.414   3.253   4.305 -1.3049 -2.4707  0.0779
 3906TIP3    H211683   5.494   3.126   4.289  2.4767 -0.3515  0.8976
 3907TIP3   OH211684   2.346   6.378   2.960 -0.5343  0.7300  0.0859
 3907TIP3    H111685   2.417   6.329   3.002 -1.3074  0.7484  1.4752
 3907TIP3    H211686   2.268   6.323   2.972 -0.6705  0.3715 -2.0380
 3908TIP3   OH211687   1.766   6.542   3.474  0.5598  0.1522 -0.2307
 3908TIP3    H111688   1.712   6.605   3.521  0.8733  1.1043 -1.1204
 3908TIP3    H211689   1.853   6.551   3.513  0.6792  0.5057 -0.5760
 3909TIP3   OH211690   2.466   2.972   5.297 -0.2717 -0.1400  0.6760
 3909TIP3    H111691   2.418   2.996   5.376  0.0596 -0.3176  0.9280
 3909TIP3    H211692   2.399   2.974   5.228 -0.9889 -1.8734  1.2743
 3910TIP3   OH211693   1.456   6.728   2.768  0.1989 -0.1340 -0.1650
 3910TIP3    H111694   1.466   6.822   2.751 -2.0711 -0.1216 -1.8958
 3910TIP3    H211695   1.410   6.724   2.852 -1.4858  0.4610 -0.9975
 3911TIP3   OH211696   2.410   5.910   4.270  0.4637  0.6798 -0.2092
 3911TIP3    H111697   2.390   6.004   4.268 -1.7963  0.2642  0.0166
 3911TIP3    H211698   2.325   5.868   4.279  1.3505 -1.4432 -1.0563
 3912TIP3   OH211699   6.704   2.210   0.285 -0.5269 -0.0266  0.6771
 3912TIP3    H111700   6.665   2.129   0.251 -0.4260 -0.0061  0.5163
 3912TIP3    H211701   6.684   2.276   0.220  0.8619 -0.2724 -0.0339
 3913TIP3   OH211702   3.861   0.242   5.768  0.3117 -0.2656  0.3674
 3913TIP3    H111703   3.821   0.233   5.681 -0.1482 -0.1762  0.5643
 3913TIP3    H211704   3.787   0.236   5.829  0.8476 -2.7027  0.8989
 3914TIP3   OH211705   2.411   0.581   5.110  0.4686 -0.0005  0.3740
 3914TIP3    H111706   2.490   0.618   5.150  0.8712  0.5978 -0.9589
 3914TIP3    H211707   2.341   0.639   5.138  0.8220  0.7103 -0.1951
 3915TIP3   OH211708   6.704   0.484   2.455  0.6487 -0.0651 -0.4760
 3915TIP3    H111709   6.680   0.488   2.548 -1.3021 -1.4578 -0.8574
 3915TIP3    H211710   6.695   0.392   2.432 -0.1679  0.4304 -2.3539
 3916TIP3   OH211711   0.231   1.435   5.864 -0.1237  0.2832  0.1407
 3916TIP3    H111712   0.197   1.514   5.822 -0.2380 -0.0673 -0.4359
 3916TIP3    H211713   0.157   1.374   5.864  0.0418  0.0794  0.3382
 3917TIP3   OH211714   3.247   2.914   4.506 -0.1053 -0.2087 -0.0937
 3917TIP3    H111715   3.338   2.885   4.501 -0.6617 -1.9542 -0.9745
 3917TIP3    H211716   3.252   3.009   4.505  1.6698 -0.2720 -1.2046
 3918TIP3   OH211717   5.291   2.579   4.252 -0.1033 -0.2452 -0.3248
 3918TIP3    H111718   5.308   2.487   4.232  0.8082 -0.1953  0.1550
 3918TIP3    H211719   5.375   2.612   4.285 -0.3083  0.8491 -0.8317
 3919TIP3   OH211720   4.240   3.752   0.024 -0.1078  0.2905 -0.6724
 3919TIP3    H111721   4.257   3.776   0.116 -0.7699 -0.5319 -0.3234
 3919TIP3    H211722   4.264   3.831  -0.025 -0.9874  1.2247  0.3210
 3920TIP3   OH211723   2.478   5.354   1.541  0.2300  0.5418 -0.5276
 3920TIP3    H111724   2.476   5.384   1.450  0.2699 -0.9797 -1.0602
 3920TIP3    H211725   2.572   5.346   1.561  0.3179  3.2375  0.5157
 3921TIP3   OH211726   5.808   5.322   0.786 -0.3056 -0.0446 -0.1842
 3921TIP3    H111727   5.803   5.275   0.869 -0.8323 -2.0874 -1.3022
 3921TIP3    H211728   5.892   5.295   0.748 -0.0300  0.9311 -0.3058
 3922TIP3   OH211729   6.897   2.912   2.124  0.1774 -0.0214  0.4062
 3922TIP3    H111730   6.875   2.994   2.169 -2.2351  0.1533 -0.9118
 3922TIP3    H211731   6.838   2.909   2.049 -0.3575 -3.2903  0.7852
 3923TIP3   OH211732   3.376   1.085   0.423  0.2654 -0.1447 -0.0442
 3923TIP3    H111733   3.320   1.162   0.408  0.0901 -0.4709 -1.2006
 3923TIP3    H211734   3.319   1.010   0.406  0.5323 -0.5253  0.7245
 3924TIP3   OH211735   1.156   1.667   2.865  0.5500 -0.2881  0.1299
 3924TIP3    H111736   1.088   1.734   2.860 -0.3342 -0.9725  2.0826
 3924TIP3    H211737   1.135   1.607   2.793 -0.7702 -0.3479  0.5433
 3925TIP3   OH211738   3.334   0.287   2.025  0.6329 -0.3000 -0.3652
 3925TIP3    H111739   3.415   0.237   2.032 -0.1446 -1.5876 -0.1363
 3925TIP3    H211740   3.292   0.255   1.945  0.5207  0.6255 -0.6875
 3926TIP3   OH211741   6.981   4.057   0.701  0.0815  0.1156  0.1951
 3926TIP3    H111742   6.968   3.979   0.755 -0.9192  1.2426  1.6908
 3926TIP3    H211743   6.893   4.092   0.687  0.2193 -0.4546 -2.7908
 3927TIP3   OH211744   5.425   0.568   4.948  0.3998  0.2814 -0.3064
 3927TIP3    H111745   5.370   0.626   4.895  1.2766 -0.5380 -2.1795
 3927TIP3    H211746   5.436   0.489   4.895  1.2948 -0.5990  1.1149
 3928TIP3   OH211747   3.118   6.516   0.383 -0.0941  0.1814 -0.0212
 3928TIP3    H111748   3.131   6.472   0.299 -0.9736  2.4566 -1.4269
 3928TIP3    H211749   3.038   6.476   0.419 -0.1463 -0.2617 -0.6160
 3929TIP3   OH211750   5.400   4.362   2.928  0.1107  0.3346 -0.3602
 3929TIP3    H111751   5.383   4.456   2.933  1.1355  0.4619  1.0550
 3929TIP3    H211752   5.316   4.321   2.952 -0.0937  0.8778 -0.1471
 3930TIP3   OH211753   0.738   0.606   5.167 -0.1885  0.1270 -0.1502
 3930TIP3    H111754   0.706   0.694   5.189  0.6515  0.5293 -0.4909
 3930TIP3    H211755   0.659   0.556   5.146 -0.8382  0.3158  1.6631
 3931TIP3   OH211756   3.239   0.648   1.859  0.3286 -0.1160  0.4494
 3931TIP3    H111757   3.258   0.739   1.837  0.4754 -0.4628 -0.9007
 3931TIP3    H211758   3.325   0.607   1.869  0.3361 -0.7803 -1.8797
 3932TIP3   OH211759   3.260   4.661   3.090 -0.3108  0.3773 -0.0677
 3932TIP3    H111760   3.302   4.747   3.089 -0.1575  0.4252  2.3762
 3932TIP3    H211761   3.320   4.606   3.141 -1.7307 -0.3878  0.8298
 3933TIP3   OH211762   2.248   4.491   4.612 -0.4076 -0.6764  0.3672
 3933TIP3    H111763   2.176   4.488   4.674 -0.8867 -1.6306 -0.2190
 3933TIP3    H211764   2.213   4.452   4.531  0.1542  0.6647 -0.5645
 3934TIP3   OH211765   0.071   4.938   0.961 -0.0270 -0.4364 -0.3392
 3934TIP3    H111766   0.112   4.874   0.903  2.5968 -0.9273  1.8217
 3934TIP3    H211767   0.103   5.022   0.930 -0.5327 -0.4741 -0.9831
 3935TIP3   OH211768   6.482   3.968   1.698  0.7385 -0.1369 -0.0743
 3935TIP3    H111769   6.461   3.883   1.659 -0.8585  0.7076 -1.1703
 3935TIP3    H211770   6.511   4.022   1.625 -1.3268  1.1721 -0.0038
 3936TIP3   OH211771   3.554   1.724   3.497 -0.2878 -0.0931 -0.3214
 3936TIP3    H111772   3.524   1.722   3.588  1.8481 -1.9232  0.4437
 3936TIP3    H211773   3.498   1.660   3.453 -0.0410 -0.6880  0.2046
 3937TIP3   OH211774   2.275   3.430   4.589 -0.2213 -0.0837 -0.5721
 3937TIP3    H111775   2.185   3.464   4.592 -0.6889 -1.2624 -0.6415
 3937TIP3    H211776   2.270   3.354   4.530  0.7642 -0.3338 -0.3530
 3938TIP3   OH211777   2.748   4.600   1.620 -0.4566  0.0412  0.0799
 3938TIP3    H111778   2.672   4.572   1.671  0.5468  0.0543  1.6667
 3938TIP3    H211779   2.823   4.558   1.663  0.9376  3.5269  1.4164
 3939TIP3   OH211780   4.324   2.825   2.335 -0.0705  0.0882  0.7683
 3939TIP3    H111781   4.242   2.868   2.311 -0.1762 -1.3236 -1.7874
 3939TIP3    H211782   4.300   2.734   2.350  1.2143 -0.8085 -2.0349
 3940TIP3   OH211783   1.917   3.964   5.745 -0.1461 -0.7661 -0.4424
 3940TIP3    H111784   2.000   4.008   5.726  0.3409 -0.7378  1.5705
 3940TIP3    H211785   1.869   3.968   5.662  1.1354  0.7913 -1.1746
 3941TIP3   OH211786   6.918   1.019   3.671 -0.4570  0.3798 -0.1902
 3941TIP3    H111787   6.985   1.066   3.620  2.0903 -0.1820  2.4039
 3941TIP3    H211788   6.871   1.089   3.718 -0.7890  0.6899 -0.9663
 3942TIP3   OH211789   0.702   4.597   2.767  0.1001  0.4171 -0.4560
 3942TIP3    H111790   0.636   4.535   2.736  0.3090  0.7973 -1.7017
 3942TIP3    H211791   0.744   4.551   2.841 -1.5530  0.1989  0.3863
 3943TIP3   OH211792   1.366   3.194   3.496 -0.2780  0.0876 -0.0794
 3943TIP3    H111793   1.314   3.275   3.493  1.3934  1.2163  0.0629
 3943TIP3    H211794   1.363   3.160   3.407 -3.9764 -1.7511  0.5617
 3944TIP3   OH211795   7.096   0.779   2.372 -0.1837  0.3080 -0.2568
 3944TIP3    H111796   7.032   0.817   2.312 -0.7398  1.3101  0.9438
 3944TIP3    H211797   7.096   0.837   2.448  1.1186 -0.4697  0.3708
 3945TIP3   OH211798   6.615   1.181   1.203  0.3763  0.4127  0.3328
 3945TIP3    H111799   6.533   1.229   1.190  0.4303  0.8037  1.2926
 3945TIP3    H211800   6.629   1.133   1.122 -0.7724  0.3966  0.1290
 3946TIP3   OH211801   5.910   1.381   0.990 -0.4264  0.1587 -0.1851
 3946TIP3    H111802   5.837   1.441   0.971 -0.2208  0.3095 -0.5032
 3946TIP3    H211803   5.915   1.324   0.913  0.5938  0.9580 -0.7339
 3947TIP3   OH211804   3.346   0.720   1.454  0.2565  0.8130 -0.6201
 3947TIP3    H111805   3.329   0.769   1.534 -2.7605  0.7973 -1.1496
 3947TIP3    H211806   3.312   0.632   1.471  1.6042  0.1391 -1.1998
 3948TIP3   OH211807   6.653   0.810   0.475 -0.3345 -0.1319  0.6795
 3948TIP3    H111808   6.586   0.834   0.410 -0.8097 -1.7292  0.5353
 3948TIP3    H211809   6.730   0.789   0.422  0.0543  0.9142  0.8012
 3949TIP3   OH211810   1.772   6.339   4.190  0.6674 -0.2858 -0.6948
 3949TIP3    H111811   1.768   6.280   4.266  2.0628  0.0970 -0.2867
 3949TIP3    H211812   1.719   6.297   4.123  1.7441 -2.0843 -0.4642
 3950TIP3   OH211813   5.725   0.254   4.353  0.3901  0.5210  0.7492
 3950TIP3    H111814   5.692   0.176   4.397  0.8777 -0.0264  0.1621
 3950TIP3    H211815   5.649   0.312   4.346 -0.3146 -0.4564 -0.0211
 3951TIP3   OH211816   2.374   0.998   1.928 -0.5077 -0.5615  0.2679
 3951TIP3    H111817   2.408   1.071   1.980 -0.6848  1.7701 -2.6542
 3951TIP3    H211818   2.450   0.963   1.882 -0.7763 -0.8653  0.0476
 3952TIP3   OH211819   0.769   2.417   4.797  0.3926 -0.3394 -0.2830
 3952TIP3    H111820   0.710   2.491   4.809  0.1726 -0.4107 -0.8622
 3952TIP3    H211821   0.840   2.432   4.859 -0.1805 -0.1952  0.3477
 3953TIP3   OH211822   0.477   0.907   0.749  0.1010 -0.0028  0.2919
 3953TIP3    H111823   0.451   0.937   0.837  0.6921  2.2254 -0.2368
 3953TIP3    H211824   0.439   0.971   0.689  0.5336 -0.9330 -1.0221
 3954TIP3   OH211825   1.815   3.395   1.062 -0.1008 -0.2487 -0.1451
 3954TIP3    H111826   1.757   3.447   1.119 -1.8676 -1.6592 -0.5750
 3954TIP3    H211827   1.886   3.366   1.120  0.4240  1.7999  0.3138
 3955TIP3   OH211828   0.644   1.666   3.420  0.8761  0.3645 -0.5600
 3955TIP3    H111829   0.718   1.609   3.396 -0.3798 -0.9165 -1.5117
 3955TIP3    H211830   0.589   1.611   3.475 -0.1925  0.7609 -1.2161
 3956TIP3   OH211831   3.603   2.513   3.839 -0.7317 -0.0735 -0.0339
 3956TIP3    H111832   3.581   2.437   3.784 -0.5027  0.4546 -0.8674
 3956TIP3    H211833   3.684   2.487   3.884 -0.0654  0.0598 -1.1186
 3957TIP3   OH211834   5.807   1.878   0.870 -0.1165 -0.4555 -0.0884
 3957TIP3    H111835   5.769   1.798   0.906 -0.7205  0.6654  1.9369
 3957TIP3    H211836   5.835   1.928   0.947 -0.5447  1.6566 -1.2235
 3958TIP3   OH211837   4.234   6.333   4.085 -0.2937  0.6283  0.5874
 3958TIP3    H111838   4.277   6.419   4.087 -0.4702  0.7562 -0.7829
 3958TIP3    H211839   4.153   6.347   4.038 -0.9014 -0.0592  1.3898
 3959TIP3   OH211840   4.823   5.969   4.852  0.2828 -0.3782 -0.1655
 3959TIP3    H111841   4.835   6.017   4.770 -0.2023  0.7580  0.4039
 3959TIP3    H211842   4.739   6.000   4.886  0.0885 -1.4357  0.3747
 3960TIP3   OH211843   3.027   6.792   3.171 -0.2922 -0.6795  1.0652
 3960TIP3    H111844   2.939   6.822   3.150 -0.5744 -1.8231  0.5372
 3960TIP3    H211845   3.057   6.749   3.090  0.4678 -0.9338  1.4749
 3961TIP3   OH211846   4.721   2.508   1.298  0.2759 -0.3687  0.1394
 3961TIP3    H111847   4.689   2.528   1.387 -0.9420 -0.8210 -0.1666
 3961TIP3    H211848   4.812   2.482   1.311  0.7408  1.4972  1.0092
 3962TIP3   OH211849   5.720   5.900   0.538 -0.0295 -0.0171  0.6343
 3962TIP3    H111850   5.715   5.915   0.632  0.2480 -0.7706  0.7814
 3962TIP3    H211851   5.686   5.980   0.499 -4.0971 -1.1225  1.4217
 3963TIP3   OH211852   5.155   4.294   3.825 -0.2710  0.0225  0.1854
 3963TIP3    H111853   5.181   4.385   3.807  1.4871 -0.1728  1.4546
 3963TIP3    H211854   5.139   4.257   3.738  1.9640  0.7442 -0.6208
 3964TIP3   OH211855   1.910   5.379   1.643 -0.1570  0.3442 -0.3236
 3964TIP3    H111856   1.924   5.456   1.699  2.6681  0.4887 -1.0955
 3964TIP3    H211857   1.947   5.306   1.693  0.8844  0.2021 -1.2578
 3965TIP3   OH211858   0.026   0.869   4.154 -0.1435  0.4396  0.2204
 3965TIP3    H111859   0.077   0.871   4.073 -1.1470 -1.8590 -0.5533
 3965TIP3    H211860  -0.062   0.897   4.128 -0.5657 -0.6577  0.3690
 3966TIP3   OH211861   3.953   5.914   2.630  0.4673 -0.2351 -0.3474
 3966TIP3    H111862   4.041   5.938   2.657  0.9209 -0.2892 -1.7352
 3966TIP3    H211863   3.897   5.943   2.702  1.5339  0.4193  0.2346
 3967TIP3   OH211864   5.029   4.477   0.183  0.0269  0.4082 -0.6704
 3967TIP3    H111865   5.092   4.514   0.244  0.2572 -1.9796  0.6758
 3967TIP3    H211866   4.945   4.516   0.207  0.2162 -0.0504  0.8101
 3968TIP3   OH211867   1.427   3.762   0.171 -0.0547  0.0444 -0.3710
 3968TIP3    H111868   1.343   3.801   0.148 -0.4407 -0.8347 -0.4938
 3968TIP3    H211869   1.489   3.834   0.168 -0.7187  0.6055 -0.7641
 3969TIP3   OH211870   3.710   1.179   0.884 -0.6682 -0.1252  0.3314
 3969TIP3    H111871   3.654   1.227   0.824  0.1845  0.4429 -0.0273
 3969TIP3    H211872   3.678   1.203   0.971 -1.8892 -0.9318  0.1305
 3970TIP3   OH211873   1.620   1.056   0.767 -0.3194 -0.2493 -0.3881
 3970TIP3    H111874   1.707   1.042   0.732 -0.4566  0.2191 -0.9343
 3970TIP3    H211875   1.626   1.139   0.815 -0.5284 -0.0766 -0.6578
 3971TIP3   OH211876   3.134   6.128   3.473 -0.3672  0.3748  0.1729
 3971TIP3    H111877   3.171   6.068   3.408  3.9788  0.4177  2.3211
 3971TIP3    H211878   3.143   6.215   3.433  2.2521  0.3993  0.6347
 3972TIP3   OH211879   2.706   3.164   0.401 -0.6447 -0.0514 -0.2189
 3972TIP3    H111880   2.735   3.255   0.410 -0.6134  0.0660 -1.3353
 3972TIP3    H211881   2.694   3.133   0.491  0.2486  0.7619  0.1953
 3973TIP3   OH211882   0.601   5.256   2.950  0.5358 -0.4198 -0.2675
 3973TIP3    H111883   0.637   5.225   3.033  1.9528  1.0677 -0.2701
 3973TIP3    H211884   0.626   5.349   2.946 -3.0008  0.6639 -0.5113
 3974TIP3   OH211885   6.765   0.541   1.505 -0.1797  0.7017 -0.4568
 3974TIP3    H111886   6.791   0.449   1.495  0.2175  0.8589 -0.9377
 3974TIP3    H211887   6.841   0.583   1.545  0.0540  1.0229 -1.2104
 3975TIP3   OH211888   1.700   2.064   2.713 -0.0605 -0.3921  0.0105
 3975TIP3    H111889   1.687   2.158   2.728 -2.1865 -0.4770 -1.0201
 3975TIP3    H211890   1.760   2.037   2.783 -1.2903  1.2732  1.8010
 3976TIP3   OH211891   0.999   5.686   2.695 -0.4718 -0.4751  0.6577
 3976TIP3    H111892   0.940   5.761   2.705 -0.4358 -0.3448 -0.0776
 3976TIP3    H211893   1.086   5.722   2.712 -0.5627 -0.6060  1.4556
 3977TIP3   OH211894   0.086   1.921   3.261 -0.6573 -0.4173  0.0357
 3977TIP3    H111895   0.120   1.848   3.210  2.0365  0.6097  0.2127
 3977TIP3    H211896   0.037   1.974   3.198  0.5079 -0.4683 -0.9430
 3978TIP3   OH211897   6.867   2.943   4.037 -0.4495  0.5012 -0.0338
 3978TIP3    H111898   6.830   2.856   4.050 -2.6630  1.4975  0.9691
 3978TIP3    H211899   6.826   2.975   3.957  1.3001  0.2363 -1.1052
 3979TIP3   OH211900   4.942   2.325   2.981  0.1512  0.1182  0.1242
 3979TIP3    H111901   4.966   2.283   3.063 -1.4273 -1.7212 -0.3015
 3979TIP3    H211902   5.021   2.323   2.929  0.3227 -1.6809  0.4087
 3980TIP3   OH211903   4.044   1.416   2.172 -0.1692 -0.8234  0.2322
 3980TIP3    H111904   4.048   1.334   2.122 -0.5089 -1.2869  0.9451
 3980TIP3    H211905   4.135   1.441   2.184 -0.0773 -0.7677 -0.5058
 3981TIP3   OH211906   6.594   6.641   0.468  0.1322  0.2462  0.3649
 3981TIP3    H111907   6.550   6.719   0.433 -0.5182 -0.3850 -0.2663
 3981TIP3    H211908   6.559   6.569   0.416  0.0433 -0.5862  1.5421
 3982TIP3   OH211909   5.361   4.640   2.929 -0.0605 -0.0188 -0.5465
 3982TIP3    H111910   5.299   4.652   3.001  0.7387  1.5316 -0.0556
 3982TIP3    H211911   5.307   4.640   2.850 -0.6825  1.6715 -0.1565
 3983TIP3   OH211912   6.128   1.225   3.235  0.0838 -0.1054 -1.0451
 3983TIP3    H111913   6.124   1.139   3.277  0.9572  0.2318 -0.2197
 3983TIP3    H211914   6.195   1.217   3.167  1.7174  0.4458  0.4148
 3984TIP3   OH211915   5.160   3.629   0.207 -0.2401  0.3746  0.0237
 3984TIP3    H111916   5.070   3.652   0.185 -0.6672 -0.7709  0.5096
 3984TIP3    H211917   5.160   3.621   0.303  0.4488  0.6345  0.0508
 3985TIP3   OH211918   2.457   3.336   1.832  0.6073 -0.0333 -0.0213
 3985TIP3    H111919   2.375   3.294   1.807  0.9983 -0.5538 -0.4626
 3985TIP3    H211920   2.431   3.414   1.880 -0.1406 -0.3228  0.0512
 3986TIP3   OH211921   5.046   4.860   2.937  0.6217 -0.6301 -0.1663
 3986TIP3    H111922   5.035   4.765   2.926  1.7314 -0.9932  1.4450
 3986TIP3    H211923   5.127   4.880   2.888  0.3893 -0.5027 -0.5040
 3987TIP3   OH211924   5.813   3.629   1.748  0.3202 -0.2518 -0.2207
 3987TIP3    H111925   5.890   3.684   1.735  0.3048 -0.1956 -0.0854
 3987TIP3    H211926   5.838   3.569   1.818  0.0739  0.0922  0.1698
 3988TIP3   OH211927   0.341   5.910   1.197  0.2506 -0.4877 -0.2221
 3988TIP3    H111928   0.395   5.872   1.266 -0.6771 -0.9206  0.2809
 3988TIP3    H211929   0.375   5.999   1.186  1.0337 -0.7390  0.1052
 3989TIP3   OH211930   4.003   6.480   1.170  0.0576  0.1432  0.4790
 3989TIP3    H111931   3.992   6.453   1.079  1.6103 -1.5031  0.7200
 3989TIP3    H211932   4.028   6.572   1.165  3.1566 -0.6496 -1.0407
 3990TIP3   OH211933   5.898   3.918   2.455  0.3155  0.3927 -0.4825
 3990TIP3    H111934   5.909   3.940   2.548 -2.9059  0.2465  0.0654
 3990TIP3    H211935   5.919   3.999   2.409  1.5700  0.5847  0.3591
 3991TIP3   OH211936   6.177   2.665   5.782  0.3023  0.4153 -0.2300
 3991TIP3    H111937   6.166   2.731   5.850  2.2618  2.4348 -1.7014
 3991TIP3    H211938   6.148   2.709   5.702 -0.8280 -1.4745 -0.9149
 3992TIP3   OH211939   0.250   2.976   4.622  0.3254  0.9411  1.0404
 3992TIP3    H111940   0.182   2.956   4.557  0.0069 -0.0139  1.6359
 3992TIP3    H211941   0.239   3.069   4.641 -0.3033  0.9726  0.5522
 3993TIP3   OH211942   4.274   5.772   5.570  0.4945 -0.1149 -0.5616
 3993TIP3    H111943   4.226   5.760   5.488 -0.0221 -1.9655 -0.0482
 3993TIP3    H211944   4.347   5.710   5.564  1.5882  1.1079 -0.4078
 3994TIP3   OH211945   5.421   3.115   0.471  0.2345  0.1933  0.6112
 3994TIP3    H111946   5.426   3.181   0.541  1.3743  0.0826  0.6446
 3994TIP3    H211947   5.392   3.035   0.515 -0.7198  0.5436  0.6467
 3995TIP3   OH211948   0.969   4.276   0.965  0.3234 -0.1705  0.0218
 3995TIP3    H111949   0.939   4.365   0.986  0.9281 -0.4285  2.2969
 3995TIP3    H211950   0.910   4.219   1.015  0.6973 -0.9900 -0.4467
 3996TIP3   OH211951   3.840   3.348   0.585 -0.1243 -0.8980  0.2324
 3996TIP3    H111952   3.920   3.320   0.540 -0.7821 -1.4948 -0.5785
 3996TIP3    H211953   3.784   3.271   0.585 -0.7049 -0.4898  0.8226
 3997TIP3   OH211954   2.359   0.866   4.844 -0.3748 -0.0478  0.1944
 3997TIP3    H111955   2.445   0.846   4.881 -0.5577 -0.2372  0.5196
 3997TIP3    H211956   2.371   0.949   4.798  0.2526 -0.5834 -0.6612
 3998TIP3   OH211957   1.061   6.819   3.685  0.0894 -0.2909  0.8554
 3998TIP3    H111958   1.094   6.732   3.709  0.8289  0.0879  1.2296
 3998TIP3    H211959   0.968   6.816   3.708  0.2013 -0.8454  1.2493
 3999TIP3   OH211960   2.314   1.202   3.714 -0.1130  0.2432 -0.4020
 3999TIP3    H111961   2.409   1.191   3.716 -0.1301 -0.0048 -0.7917
 3999TIP3    H211962   2.290   1.187   3.622 -0.5744 -0.0810 -0.2344
 4000TIP3   OH211963   3.241   1.870   3.643  0.2988 -0.5127  0.0506
 4000TIP3    H111964   3.220   1.838   3.555 -0.8508 -0.5240  0.3174
 4000TIP3    H211965   3.304   1.806   3.677  1.7697  0.1920 -1.2282
 4001TIP3   OH211966   1.695   1.707   3.773  0.3400  0.1065  0.2539
 4001TIP3    H111967   1.791   1.702   3.775  0.2840 -0.9928  0.6419
 4001TIP3    H211968   1.677   1.790   3.729  1.4396 -0.8536 -2.1720
 4002TIP3   OH211969   6.417   1.046   0.403 -0.0924 -0.3018  0.1025
 4002TIP3    H111970   6.484   1.100   0.362 -1.2376  0.4964 -0.7822
 4002TIP3    H211971   6.418   0.963   0.354 -1.6302  0.7364 -1.8207
 4003TIP3   OH211972   0.058   5.681   4.642  0.1219  0.0174 -0.7555
 4003TIP3    H111973   0.093   5.756   4.690 -2.5178  0.1759  1.1444
 4003TIP3    H211974   0.087   5.694   4.552  0.3941  2.9324 -0.3405
 4004TIP3   OH211975   1.644   5.347   2.772  0.0361 -0.1445  0.1234
 4004TIP3    H111976   1.575   5.323   2.710  0.5826 -1.1914 -0.1036
 4004TIP3    H211977   1.700   5.407   2.723 -0.6440  0.6367  0.2786
 4005TIP3   OH211978   3.927   4.183   4.690 -0.0294 -0.5626 -0.3304
 4005TIP3    H111979   4.009   4.230   4.703 -1.6975  2.2689  0.7816
 4005TIP3    H211980   3.928   4.157   4.598 -0.1585  4.3683 -2.0057
 4006TIP3   OH211981   6.191   4.374   2.900 -0.2318  0.1517 -0.4002
 4006TIP3    H111982   6.244   4.407   2.828 -2.1219  0.0460 -1.9019
 4006TIP3    H211983   6.102   4.398   2.877 -1.0361 -1.1042  1.2439
 4007TIP3   OH211984   0.683   2.833   5.221 -0.2096  0.3933  0.0175
 4007TIP3    H111985   0.615   2.834   5.289  0.5782  0.4480  0.8342
 4007TIP3    H211986   0.748   2.769   5.253 -0.5200 -0.6713 -1.4145
 4008TIP3   OH211987   3.381   6.030   0.886  0.9085  0.1819  0.1866
 4008TIP3    H111988   3.295   5.992   0.905  1.4856 -0.9036  0.7856
 4008TIP3    H211989   3.383   6.037   0.791  0.1398  0.2618  0.1664
 4009TIP3   OH211990   5.268   3.107   1.575  0.0998 -0.3860 -0.0360
 4009TIP3    H111991   5.175   3.098   1.552 -0.1771 -0.4018  1.0190
 4009TIP3    H211992   5.279   3.199   1.596  0.4283 -0.3032 -0.5473
 4010TIP3   OH211993   5.543   4.203   5.856  0.0180 -0.0592 -0.5838
 4010TIP3    H111994   5.463   4.230   5.812 -1.8376 -0.0130  2.5048
 4010TIP3    H211995   5.530   4.110   5.875  0.4906  0.0300  0.2617
 4011TIP3   OH211996   0.445   2.877   3.041  0.2905  0.0374  0.1579
 4011TIP3    H111997   0.535   2.847   3.028 -0.3628 -1.5215 -1.0841
 4011TIP3    H211998   0.394   2.797   3.050 -1.1167  0.8638 -0.1457
 4012TIP3   OH211999   6.883   2.223   2.276 -0.0773  0.1937 -0.7545
 4012TIP3    H112000   6.803   2.276   2.283 -0.7998 -0.7954 -1.2068
 4012TIP3    H212001   6.908   2.231   2.184 -1.5015 -2.0139 -1.4101
 4013TIP3   OH212002   0.571   6.198   0.141 -0.0768  0.2747 -0.1093
 4013TIP3    H112003   0.653   6.244   0.127  0.2309  0.4346  1.9400
 4013TIP3    H212004   0.577   6.164   0.230 -2.3996  0.6282  0.2489
 4014TIP3   OH212005   4.108   0.930   1.032 -0.5315 -0.0620 -0.2537
 4014TIP3    H112006   4.122   0.844   0.991 -0.6929 -0.0655 -0.3030
 4014TIP3    H212007   4.022   0.957   1.001 -0.1474  0.4818 -0.8899
 4015TIP3   OH212008   1.414   3.680   0.709 -0.3465  0.3353 -0.2028
 4015TIP3    H112009   1.491   3.632   0.739 -0.2893  0.7921  0.3897
 4015TIP3    H212010   1.444   3.770   0.701 -0.3336  0.2199 -1.7244
 4016TIP3   OH212011   2.613   2.352   2.560 -0.5748 -0.5914  0.1036
 4016TIP3    H112012   2.580   2.416   2.622 -0.4920  0.1815 -0.6301
 4016TIP3    H212013   2.658   2.404   2.493 -0.3867 -1.4223 -0.4369
 4017TIP3   OH212014   2.722   6.182   2.235 -0.0449  0.4651  0.3974
 4017TIP3    H112015   2.748   6.105   2.286 -2.1782 -0.4527  0.2147
 4017TIP3    H212016   2.786   6.249   2.258  0.6818 -0.7544  2.1448
 4018TIP3   OH212017   4.530   3.021   2.748 -0.6876 -0.0429 -0.2428
 4018TIP3    H112018   4.488   3.023   2.661 -0.9955 -0.1600 -0.0982
 4018TIP3    H212019   4.462   2.988   2.806 -0.6215  0.4820  0.1270
 4019TIP3   OH212020   2.660   2.800   5.152 -0.1368 -0.1710  0.3815
 4019TIP3    H112021   2.593   2.799   5.083  0.3842 -0.5661 -0.1327
 4019TIP3    H212022   2.695   2.889   5.150  3.0966 -1.2365 -3.1085
 4020TIP3   OH212023   6.162   4.421   5.547 -0.1175  0.1366  0.2151
 4020TIP3    H112024   6.085   4.464   5.584 -0.0296  0.8072 -0.3744
 4020TIP3    H212025   6.179   4.467   5.465  0.9497  0.0360  0.3704
 4021TIP3   OH212026   2.481   1.869   0.656 -0.6264  0.0827  0.4512
 4021TIP3    H112027   2.507   1.935   0.719 -0.5080  0.2287  0.2506
 4021TIP3    H212028   2.427   1.916   0.592  0.8192  0.3571 -0.6313
 4022TIP3   OH212029   3.987   5.909   5.486 -0.1168  0.4270  0.6242
 4022TIP3    H112030   4.000   5.865   5.570  0.6474  1.2425  0.9481
 4022TIP3    H212031   3.911   5.966   5.501 -0.5035 -0.0468  0.4975
 4023TIP3   OH212032   2.338   2.826   4.264  0.3626  0.6644  0.0654
 4023TIP3    H112033   2.285   2.805   4.340 -0.0740  0.4505 -0.2906
 4023TIP3    H212034   2.275   2.833   4.192  0.7691  0.8239 -0.2804
 4024TIP3   OH212035   3.441   2.396   1.894  0.7131 -0.0686  0.0388
 4024TIP3    H112036   3.408   2.311   1.862  0.1741  0.3718 -0.6145
 4024TIP3    H212037   3.421   2.457   1.823 -1.4312  1.1575  1.5565
 4025TIP3   OH212038   5.518   1.394   2.956  0.3032  0.0667 -0.6905
 4025TIP3    H112039   5.603   1.378   2.996 -0.5079  0.2960  1.2360
 4025TIP3    H212040   5.489   1.308   2.925  0.4992 -0.3281  0.1984
 4026TIP3   OH212041   3.037   5.110   2.188  0.2762  0.0185  0.2168
 4026TIP3    H112042   3.021   5.016   2.199 -1.1006  0.4347  2.5137
 4026TIP3    H212043   2.974   5.137   2.120  0.6003 -0.6626 -0.3716
 4027TIP3   OH212044   3.315   5.946   3.609 -0.4024 -0.2332  0.5770
 4027TIP3    H112045   3.348   5.919   3.523  0.2137 -0.0041  0.7373
 4027TIP3    H212046   3.247   6.012   3.590  3.0553  3.6521  0.2785
 4028TIP3   OH212047   0.680   2.821   4.218 -0.2502 -0.4409  0.2001
 4028TIP3    H112048   0.740   2.854   4.151 -1.5840  1.0759 -0.3009
 4028TIP3    H212049   0.730   2.828   4.300  0.0799  1.3978 -0.1096
 4029TIP3   OH212050   7.172   4.801   4.390  0.1757 -0.2659 -0.3105
 4029TIP3    H112051   7.258   4.804   4.432  0.5488 -1.4103 -0.9416
 4029TIP3    H212052   7.113   4.768   4.458  0.4340 -0.4256 -0.1615
 4030TIP3   OH212053   2.240   0.074   1.646  0.4550  0.3632  0.3416
 4030TIP3    H112054   2.334   0.059   1.634  0.5405  0.4017  0.9000
 4030TIP3    H212055   2.206  -0.010   1.675  0.1893  0.1683 -0.5154
 4031TIP3   OH212056   3.597   1.927   4.751 -0.5028 -0.4225  0.0892
 4031TIP3    H112057   3.562   1.838   4.754 -2.4601  0.2187 -1.3677
 4031TIP3    H212058   3.589   1.952   4.659 -0.3068  1.3755  0.5298
 4032TIP3   OH212059   5.143   2.655   1.510 -0.0868 -0.5070 -0.5568
 4032TIP3    H112060   5.069   2.702   1.471 -1.3694 -0.8069  1.3613
 4032TIP3    H212061   5.215   2.668   1.448 -1.0602  1.8816 -1.3158
 4033TIP3   OH212062   1.074   4.210   2.588 -0.4581  0.0950 -0.1526
 4033TIP3    H112063   1.054   4.190   2.497 -3.1184 -0.9121  0.5710
 4033TIP3    H212064   1.043   4.134   2.637  1.5489  0.2948  1.5760
 4034TIP3   OH212065   0.887   0.261   0.175 -0.4702 -0.0300 -0.3482
 4034TIP3    H112066   0.975   0.258   0.136  1.0304 -0.9424  2.8069
 4034TIP3    H212067   0.850   0.174   0.159  0.5340 -0.7370  0.9801
 4035TIP3   OH212068   7.175   6.668   1.352 -0.1728 -0.2904  0.3048
 4035TIP3    H112069   7.261   6.649   1.315 -1.2744 -0.2613 -2.5441
 4035TIP3    H212070   7.117   6.603   1.312 -1.7679  0.8493  0.6621
 4036TIP3   OH212071   2.288   4.716   0.995  0.3401 -0.4464 -0.0073
 4036TIP3    H112072   2.201   4.714   1.035  0.4522  3.1115  0.7305
 4036TIP3    H212073   2.345   4.672   1.058 -0.8217 -2.9206 -0.5510
 4037TIP3   OH212074   4.125   4.892   3.494 -0.6883  0.2502 -0.1460
 4037TIP3    H112075   4.107   4.808   3.536 -0.4856  0.8091  1.1093
 4037TIP3    H212076   4.204   4.924   3.537  0.8439 -0.1296 -2.4888
 4038TIP3   OH212077   3.509   4.678   0.701 -0.2740 -0.0097  0.9554
 4038TIP3    H112078   3.521   4.757   0.648 -3.2459 -0.9436 -1.4135
 4038TIP3    H212079   3.570   4.614   0.662 -0.1813  0.1997  0.7490
 4039TIP3   OH212080   0.904   4.378   3.762  0.3877 -0.0658 -0.3474
 4039TIP3    H112081   0.889   4.428   3.682 -0.1141  0.2863 -0.0357
 4039TIP3    H212082   0.999   4.382   3.775  0.5556 -0.6651 -1.2652
 4040TIP3   OH212083   0.237   3.870   5.213 -0.3642  0.1187  0.2474
 4040TIP3    H112084   0.211   3.961   5.197 -2.0668 -0.4796 -0.5688
 4040TIP3    H212085   0.277   3.842   5.131 -1.4875 -0.3936 -0.1457
 4041TIP3   OH212086   6.418   0.569   2.491  0.0238  0.5267 -0.5588
 4041TIP3    H112087   6.494   0.530   2.534 -0.1725  0.1541 -0.5482
 4041TIP3    H212088   6.456   0.626   2.424  0.3020 -1.1636 -1.8960
 4042TIP3   OH212089   6.570   5.211   4.499  0.2706 -0.2905 -0.2916
 4042TIP3    H112090   6.503   5.143   4.501  0.3920 -0.3980  2.2867
 4042TIP3    H212091   6.630   5.183   4.430 -2.0174 -0.4215 -2.3915
 4043TIP3   OH212092   5.514   0.981   0.195 -0.0752  0.5018 -0.2559
 4043TIP3    H112093   5.482   0.988   0.285 -0.7375  0.7797 -0.5083
 4043TIP3    H212094   5.541   1.070   0.172 -0.6822  0.6044 -0.6071
 4044TIP3   OH212095   5.334   2.765   5.540  0.0244  0.8988 -0.5169
 4044TIP3    H112096   5.292   2.690   5.499 -2.0799  1.0561  1.1422
 4044TIP3    H212097   5.302   2.841   5.490 -0.6415  0.9066 -0.1034
 4045TIP3   OH212098   5.638   2.381   5.563  0.7002 -0.1021  0.4174
 4045TIP3    H112099   5.577   2.385   5.637 -0.0915  0.6851 -0.2473
 4045TIP3    H212100   5.717   2.341   5.598  0.3007  0.1687  1.6610
 4046TIP3   OH212101   1.160   4.967   0.613 -0.3326  0.4473 -0.0217
 4046TIP3    H112102   1.236   4.936   0.563 -0.7882 -0.4103 -0.1918
 4046TIP3    H212103   1.111   4.888   0.635 -0.1121  0.7842  1.8748
 4047TIP3   OH212104   6.871   2.099   1.581 -0.0234  0.2024  0.3772
 4047TIP3    H112105   6.896   2.016   1.541  0.6961  0.5915 -0.0003
 4047TIP3    H212106   6.880   2.083   1.675 -2.4140 -0.9327  0.4884
 4048TIP3   OH212107   2.956   6.177   2.409 -0.3256 -0.1747 -0.4682
 4048TIP3    H112108   3.024   6.178   2.475 -0.4751 -1.1639 -0.2828
 4048TIP3    H212109   2.965   6.260   2.363  0.1281  0.2817  0.4376
 4049TIP3   OH212110   4.182   2.644   1.476 -0.2632  0.4123  0.3564
 4049TIP3    H112111   4.183   2.719   1.417  1.1406  1.6967  1.9189
 4049TIP3    H212112   4.238   2.579   1.433 -0.4444  0.7544 -0.4140
 4050TIP3   OH212113   5.683   6.559   4.948 -0.3526  0.5950 -0.4416
 4050TIP3    H112114   5.698   6.653   4.961  2.3868 -0.0044  1.6084
 4050TIP3    H212115   5.680   6.523   5.036  1.0235 -1.5447 -1.2031
 4051TIP3   OH212116   3.068   5.561   1.052  0.2892 -0.4512 -1.0681
 4051TIP3    H112117   3.068   5.516   1.136  0.2763 -0.5578 -1.1251
 4051TIP3    H212118   3.007   5.633   1.063 -0.6787 -1.2094 -1.3854
 4052TIP3   OH212119   6.144   2.526   0.942  0.2494  0.2313 -0.2432
 4052TIP3    H112120   6.125   2.572   0.860  0.3589  0.6578 -0.0282
 4052TIP3    H212121   6.115   2.586   1.010 -1.4649 -0.8253  0.0218
 4053TIP3   OH212122   4.160   1.149   1.220 -0.7628 -0.1038  0.2121
 4053TIP3    H112123   4.255   1.159   1.225 -0.1125 -4.1320 -0.6662
 4053TIP3    H212124   4.146   1.095   1.142 -3.8131  0.4554  0.2664
 4054TIP3   OH212125   4.283   2.081   3.504  0.0381  0.3019 -0.4919
 4054TIP3    H112126   4.236   2.018   3.559 -1.6152  2.5599  0.8132
 4054TIP3    H212127   4.215   2.123   3.452  1.1703  0.7440 -1.6692
 4055TIP3   OH212128   5.030   5.459   5.319 -0.1049  0.1558  0.1710
 4055TIP3    H112129   5.023   5.398   5.246 -0.9061  0.8031 -0.3183
 4055TIP3    H212130   5.110   5.509   5.302  0.3287 -0.4773  0.3545
 4056TIP3   OH212131   2.686   2.422   3.880 -0.1586  0.1411  0.0606
 4056TIP3    H112132   2.690   2.400   3.973 -0.5205 -1.2711 -0.2244
 4056TIP3    H212133   2.754   2.488   3.867  0.4560 -0.2564  1.1696
 4057TIP3   OH212134   4.650   6.308   1.521 -0.0896  0.2317 -0.0550
 4057TIP3    H112135   4.742   6.319   1.501  0.2351 -0.0873  1.1895
 4057TIP3    H212136   4.636   6.362   1.599 -1.3876  1.7307 -1.2376
 4058TIP3   OH212137   5.527   4.040   1.496  0.3103 -0.5821  0.3211
 4058TIP3    H112138   5.574   4.021   1.414  1.9920  2.0389  0.5755
 4058TIP3    H212139   5.577   3.993   1.563 -0.5863 -2.0555  0.0015
 4059TIP3   OH212140   0.173   3.282   4.883 -0.2617 -0.4896  0.0926
 4059TIP3    H112141   0.248   3.233   4.848 -1.1471 -2.2986  0.5879
 4059TIP3    H212142   0.121   3.303   4.806  0.1803 -0.2090 -0.1387
 4060TIP3   OH212143   0.602   6.634   1.294 -0.1475  0.3443  0.2361
 4060TIP3    H112144   0.645   6.656   1.211 -0.9303 -1.0434 -0.5641
 4060TIP3    H212145   0.607   6.715   1.345  0.5173  1.1696 -1.0847
 4061TIP3   OH212146   0.829   3.008   5.042 -0.6943 -0.5047  0.6260
 4061TIP3    H112147   0.797   2.941   5.103  0.5688 -0.4704  1.3815
 4061TIP3    H212148   0.925   2.998   5.045 -0.5060  1.0372  0.4177
 4062TIP3   OH212149   2.343   4.196   0.885  0.2000 -0.4016 -0.6332
 4062TIP3    H112150   2.248   4.196   0.879  0.2637  0.6855 -2.1424
 4062TIP3    H212151   2.361   4.166   0.974 -1.6794  2.6137  0.9553
 4063TIP3   OH212152   2.330   5.646   0.756  1.1056  0.2583 -0.6722
 4063TIP3    H112153   2.313   5.563   0.801 -0.8856  1.1255  0.3254
 4063TIP3    H212154   2.244   5.675   0.725  1.6786  2.1018 -0.6929
 4064TIP3   OH212155   7.021   4.210   2.094 -0.1035 -0.1921  0.2086
 4064TIP3    H112156   7.028   4.291   2.146 -2.0219  0.9186 -1.1126
 4064TIP3    H212157   6.970   4.151   2.149  1.4364 -0.6319  1.2470
 4065TIP3   OH212158   1.074   5.862   3.261  0.1114  0.0263  0.1094
 4065TIP3    H112159   1.065   5.943   3.211  3.2470  0.7575  0.4698
 4065TIP3    H212160   1.109   5.799   3.197 -2.3962 -1.1635 -0.1938
 4066TIP3   OH212161   1.124   3.345   0.263  0.1715 -0.3785 -0.1136
 4066TIP3    H112162   1.102   3.335   0.170 -0.6836 -0.1250  0.0588
 4066TIP3    H212163   1.217   3.321   0.267 -0.4182 -3.0948 -0.6037
 4067TIP3   OH212164   3.378   0.293   1.235 -0.2180 -0.1220 -0.4366
 4067TIP3    H112165   3.353   0.382   1.207  0.1555  0.3558  0.7147
 4067TIP3    H212166   3.420   0.305   1.320  1.6743 -1.1844 -1.1729
 4068TIP3   OH212167   2.591   4.644   2.391  0.3869  0.3437 -0.5061
 4068TIP3    H112168   2.546   4.561   2.373  1.6295 -0.5416  0.3076
 4068TIP3    H212169   2.684   4.622   2.386  0.7345  1.6001  0.1745
 4069TIP3   OH212170   6.921   2.687   3.152  0.0089 -0.3062  0.3218
 4069TIP3    H112171   6.849   2.749   3.142  0.1383 -0.2606 -0.3572
 4069TIP3    H212172   6.979   2.728   3.216  1.6648  1.8107 -2.2960
 4070TIP3   OH212173   5.412   3.840   3.039 -0.1068 -0.1731 -0.0518
 4070TIP3    H112174   5.377   3.753   3.061  0.0966 -0.8719 -2.2562
 4070TIP3    H212175   5.365   3.900   3.097 -2.6578 -1.4196 -0.6945
 4071TIP3   OH212176   5.595   3.738   2.855  0.0736  0.2973  0.7395
 4071TIP3    H112177   5.590   3.643   2.860 -0.6344  0.3775  2.1066
 4071TIP3    H212178   5.558   3.769   2.938 -1.3755  1.7997 -0.3871
 4072TIP3   OH212179   6.317   3.793   3.947 -0.1528  0.4369  0.1596
 4072TIP3    H112180   6.399   3.769   3.906 -0.0022  0.2932  0.5354
 4072TIP3    H212181   6.293   3.716   3.999 -2.2488 -0.8781 -2.5265
 4073TIP3   OH212182   2.950   1.051   4.398 -0.0099  0.7757  0.4637
 4073TIP3    H112183   3.001   1.123   4.434  0.2307  0.9345 -0.1711
 4073TIP3    H212184   2.863   1.088   4.382 -0.2633  0.5657  1.3390
 4074TIP3   OH212185   0.423   4.495   3.476  0.0189 -0.2293 -0.6128
 4074TIP3    H112186   0.328   4.502   3.487  0.0303  0.5636 -0.9188
 4074TIP3    H212187   0.446   4.411   3.515 -1.0030 -1.1203 -1.8591
 4075TIP3   OH212188   2.866   0.196   4.847  0.9634  0.1309  0.4028
 4075TIP3    H112189   2.955   0.170   4.826  0.2105 -1.3467 -1.1858
 4075TIP3    H212190   2.845   0.264   4.783  0.2786 -0.9604 -0.5435
 4076TIP3   OH212191   6.910   3.786   1.639 -0.5385  0.2825 -0.0046
 4076TIP3    H112192   7.005   3.787   1.649 -0.6758  1.7859  1.4569
 4076TIP3    H212193   6.876   3.754   1.723 -1.3377 -0.7425 -0.6803
 4077TIP3   OH212194   2.047   0.428   4.611 -0.1144 -0.0958  0.1626
 4077TIP3    H112195   2.129   0.434   4.660 -0.2491 -0.2019  0.4052
 4077TIP3    H212196   1.979   0.424   4.679 -0.1460 -3.6236  0.1292
 4078TIP3   OH212197   2.723   1.721   5.151  0.5081  0.1993 -0.1344
 4078TIP3    H112198   2.759   1.669   5.222  2.4158  2.7471  0.9349
 4078TIP3    H212199   2.703   1.806   5.190  0.4546  1.3047 -2.3637
 4079TIP3   OH212200   3.046   1.254   2.249  0.1006  0.5327 -0.0135
 4079TIP3    H112201   3.052   1.210   2.334 -1.0718  1.1149  0.3976
 4079TIP3    H212202   3.111   1.323   2.253 -0.3085  0.8932  0.6341
 4080TIP3   OH212203   1.415   4.306   1.116 -0.0482 -0.1813 -0.3281
 4080TIP3    H112204   1.480   4.374   1.136  0.5171 -0.4464 -1.1992
 4080TIP3    H212205   1.374   4.336   1.035 -0.6336 -0.2941 -0.0733
 4081TIP3   OH212206   3.478   5.416   3.988  0.0575  0.1926  0.0618
 4081TIP3    H112207   3.437   5.487   4.038 -0.9127  0.8581 -1.5789
 4081TIP3    H212208   3.544   5.460   3.935 -0.8293 -0.0239 -1.2708
 4082TIP3   OH212209   2.814   0.641   0.570  0.1678  0.1117 -0.0423
 4082TIP3    H112210   2.802   0.593   0.652  1.0140  0.6878  0.4411
 4082TIP3    H212211   2.880   0.590   0.522 -0.4282 -0.3001 -0.4336
 4083TIP3   OH212212   1.348   2.522   4.355  0.0353  0.3551 -0.2104
 4083TIP3    H112213   1.284   2.511   4.285 -0.5480  0.0427  0.3664
 4083TIP3    H212214   1.296   2.548   4.431  0.5863  0.0234  0.2810
 4084TIP3   OH212215   2.271   0.779   3.385  0.0079  0.6672  0.3982
 4084TIP3    H112216   2.260   0.764   3.478  0.2365 -1.0649  0.1867
 4084TIP3    H212217   2.334   0.851   3.379  2.4458 -1.1970  1.6293
 4085TIP3   OH212218   4.996   5.590   2.974  0.3678 -0.0954  0.1244
 4085TIP3    H112219   5.029   5.502   2.960  1.4480 -0.0462  1.9536
 4085TIP3    H212220   4.927   5.580   3.040 -0.7214  0.2511 -0.9311
 4086TIP3   OH212221   5.890   1.033   3.427 -0.1679  0.1248 -0.3241
 4086TIP3    H112222   5.947   1.002   3.498  1.0177  0.7714 -0.9659
 4086TIP3    H212223   5.940   1.015   3.347 -0.4442  1.5499 -0.8446
 4087TIP3   OH212224   3.519   5.639   3.341 -0.5714 -0.0004  0.5302
 4087TIP3    H112225   3.571   5.698   3.396 -0.5256 -0.1276  0.6248
 4087TIP3    H212226   3.557   5.553   3.357 -1.1123 -0.1638  0.9532
 4088TIP3   OH212227   5.883   6.547   2.616 -0.2093 -0.1776  0.4538
 4088TIP3    H112228   5.798   6.530   2.575 -0.4723  0.5235  0.6838
 4088TIP3    H212229   5.933   6.468   2.601 -1.1627 -0.8955  0.9497
 4089TIP3   OH212230   1.636   2.513   2.707 -0.8291  0.0565 -0.1744
 4089TIP3    H112231   1.667   2.511   2.617  0.3200 -2.3391  0.1829
 4089TIP3    H212232   1.689   2.582   2.749  0.0314 -0.1414 -0.8947
 4090TIP3   OH212233   1.694   1.352   3.444  0.0988 -0.0640  0.6501
 4090TIP3    H112234   1.637   1.385   3.513  0.8849 -0.4997  1.5304
 4090TIP3    H212235   1.782   1.364   3.478  0.5047 -0.2281 -0.3148
 4091TIP3   OH212236   2.561   5.397   3.526  0.4667  0.4574 -0.2710
 4091TIP3    H112237   2.518   5.465   3.474  0.5338 -0.4756 -1.5957
 4091TIP3    H212238   2.617   5.445   3.588  0.1938  1.6005 -0.8842
 4092TIP3   OH212239   2.887   3.620   3.011 -0.8496  0.4131 -0.5451
 4092TIP3    H112240   2.832   3.543   2.995  0.4999 -0.6639 -0.2457
 4092TIP3    H212241   2.967   3.584   3.049 -0.0229  1.9424 -0.7622
 4093TIP3   OH212242   0.911   6.691   4.969  0.0630  0.2159 -0.4117
 4093TIP3    H112243   0.886   6.600   4.952  2.5547 -1.3760  3.0207
 4093TIP3    H212244   0.839   6.727   5.021 -0.5361 -0.0981 -1.0207
 4094TIP3   OH212245   6.623   1.609   4.360  0.4778 -0.6983 -0.2196
 4094TIP3    H112246   6.562   1.588   4.289 -2.7833  2.5687  1.2807
 4094TIP3    H212247   6.587   1.564   4.437  0.2907  0.7078  0.5472
 4095TIP3   OH212248   0.770   4.866   2.850  0.5180 -0.9418 -0.5745
 4095TIP3    H112249   0.860   4.870   2.882  0.1373  1.3870  0.3835
 4095TIP3    H212250   0.753   4.772   2.838  2.8925 -1.4599 -0.3545
 4096TIP3   OH212251   5.334   6.608   2.659  0.2772  0.1942  0.0086
 4096TIP3    H112252   5.290   6.596   2.575  0.6391  1.0485 -0.3133
 4096TIP3    H212253   5.271   6.656   2.713 -0.5997 -1.7465  0.8050
 4097TIP3   OH212254   2.448   3.088  -0.010  0.7664  0.1144 -0.0456
 4097TIP3    H112255   2.434   3.126   0.077  1.1436  1.0738 -0.3885
 4097TIP3    H212256   2.488   3.159  -0.061 -0.5943 -0.0030 -1.3637
 4098TIP3   OH212257   2.855   1.502   0.535 -0.0335  0.0869  0.2206
 4098TIP3    H112258   2.805   1.575   0.571  0.4563  0.8687 -0.6406
 4098TIP3    H212259   2.908   1.471   0.609 -1.1833 -0.2443  0.9252
 4099TIP3   OH212260   2.571   3.860   2.001 -0.2144  0.4284 -0.2570
 4099TIP3    H112261   2.598   3.929   2.061 -3.0603  2.1353 -0.7377
 4099TIP3    H212262   2.526   3.796   2.056 -0.5161  0.6660 -0.2245
 4100TIP3   OH212263   1.189   3.283   2.003 -0.4562 -0.3084  0.0294
 4100TIP3    H112264   1.231   3.283   2.089  0.0122 -1.8145 -0.1694
 4100TIP3    H212265   1.218   3.365   1.962 -0.7916  0.4929  1.3310
 4101TIP3   OH212266   4.025   0.304   5.285 -0.1614 -0.4574 -0.1154
 4101TIP3    H112267   4.059   0.393   5.296  1.2813 -0.8486 -1.1991
 4101TIP3    H212268   3.987   0.303   5.197  0.1578 -1.0090 -0.2537
 4102TIP3   OH212269   1.856   2.140   3.348 -0.5925  0.0123 -0.1336
 4102TIP3    H112270   1.877   2.048   3.329 -0.9522 -0.3318  1.0607
 4102TIP3    H212271   1.931   2.172   3.398 -1.2818 -0.1854  1.0586
 4103TIP3   OH212272   5.125   0.049   4.127 -0.0516  0.8045 -0.0789
 4103TIP3    H112273   5.179   0.015   4.198 -0.4710  0.5143  0.1086
 4103TIP3    H212274   5.186   0.091   4.068  0.5292 -0.5245 -0.4623
 4104TIP3   OH212275   6.659  -0.018   0.557 -0.0097  0.0760 -0.7482
 4104TIP3    H112276   6.739   0.034   0.545 -0.7437  1.3500 -0.2865
 4104TIP3    H212277   6.588   0.047   0.554 -1.0308 -1.0318 -1.1202
 4105TIP3   OH212278   5.086   1.045   2.746  0.8723 -0.1559  0.1576
 4105TIP3    H112279   5.003   1.017   2.709  0.6871  1.2154 -0.5191
 4105TIP3    H212280   5.063   1.116   2.806  1.4504 -0.5641  0.8893
 4106TIP3   OH212281   3.833   2.220   5.641 -0.0488  0.0937  0.2247
 4106TIP3    H112282   3.912   2.274   5.641  0.2190 -0.2782  1.0003
 4106TIP3    H212283   3.769   2.271   5.690  0.8049 -1.0766  2.7351
 4107TIP3   OH212284   2.915   5.578   3.918 -0.2360  0.1960 -0.1792
 4107TIP3    H112285   2.822   5.572   3.938 -0.2304 -0.3599 -0.2974
 4107TIP3    H212286   2.945   5.487   3.917  0.4108  0.3992  0.3393
 4108TIP3   OH212287   3.500   6.233   3.320 -0.0031 -0.5857  0.3405
 4108TIP3    H112288   3.513   6.309   3.262 -0.4882 -2.3860 -2.2804
 4108TIP3    H212289   3.584   6.222   3.364  0.3242  0.9666  0.1634
 4109TIP3   OH212290   1.492   5.785   2.305  0.3391 -0.2990 -0.3595
 4109TIP3    H112291   1.442   5.704   2.317  0.2523 -0.2767 -0.5792
 4109TIP3    H212292   1.584   5.757   2.311  0.3108 -0.4284 -0.5349
 4110TIP3   OH212293   0.800   6.173   4.792  0.7094  0.3561 -0.1317
 4110TIP3    H112294   0.719   6.154   4.746  0.0998 -0.4221  1.2250
 4110TIP3    H212295   0.834   6.087   4.818 -0.0037  0.7850  2.5699
 4111TIP3   OH212296   5.132   5.839   2.154 -0.4729  0.4053  0.5029
 4111TIP3    H112297   5.089   5.912   2.109 -1.4129 -0.3019  0.2103
 4111TIP3    H212298   5.065   5.770   2.156  0.4009 -0.4505  0.7588
 4112TIP3   OH212299   1.968   1.300   3.082  0.1109  0.2359  0.1104
 4112TIP3    H112300   1.921   1.361   3.139  0.2465  0.0309  0.4386
 4112TIP3    H212301   1.900   1.238   3.053 -0.3620  1.4259 -1.4501
 4113TIP3   OH212302   3.537   2.421   0.686  0.4053  0.2543  0.5054
 4113TIP3    H112303   3.526   2.346   0.629  0.1228  1.4386 -1.0610
 4113TIP3    H212304   3.621   2.459   0.660 -0.1917  1.3854  0.1248
 4114TIP3   OH212305   6.622   5.941   4.700 -0.0784 -0.1928 -0.0790
 4114TIP3    H112306   6.611   5.882   4.774  3.2082 -0.0398  0.6732
 4114TIP3    H212307   6.582   5.895   4.626 -2.2368 -0.9309  1.4643
 4115TIP3   OH212308   6.045   0.751   3.421 -0.1272  0.1702  0.1527
 4115TIP3    H112309   5.988   0.733   3.496  0.5843  0.5395  0.8049
 4115TIP3    H212310   6.093   0.831   3.447 -1.5762  1.7309 -1.6979
 4116TIP3   OH212311   0.055   0.291   5.596 -0.1536  0.5386 -0.0484
 4116TIP3    H112312   0.087   0.343   5.670  1.1387  0.0790 -0.2578
 4116TIP3    H212313   0.127   0.292   5.533 -1.1762  0.7875 -1.2512
 4117TIP3   OH212314   3.642   1.597   5.404 -0.1114  0.4978 -0.3477
 4117TIP3    H112315   3.660   1.634   5.318  0.1003  0.8642 -0.1511
 4117TIP3    H212316   3.547   1.585   5.406 -0.1759  0.9720 -0.4402
 4118TIP3   OH212317   1.997   2.636   5.742 -0.0200 -0.2306  0.2918
 4118TIP3    H112318   2.016   2.626   5.648 -0.4057 -0.6115  0.2504
 4118TIP3    H212319   2.079   2.616   5.786 -0.0415 -0.8020  0.0726
 4119TIP3   OH212320   3.565   0.288   3.249  0.1008 -0.0080 -0.1969
 4119TIP3    H112321   3.560   0.208   3.300 -0.2436 -1.1888 -1.9872
 4119TIP3    H212322   3.547   0.260   3.159  2.6400  1.6178 -1.3152
 4120TIP3   OH212323   3.017   3.394   2.306  0.1677 -0.1161  0.3097
 4120TIP3    H112324   2.992   3.432   2.390  1.2548 -0.2383  0.6980
 4120TIP3    H212325   3.101   3.351   2.322  0.7788  0.5164 -1.0116
 4121TIP3   OH212326   5.440   4.166   0.240  0.0115  0.0001  0.9506
 4121TIP3    H112327   5.436   4.074   0.213  0.4647  0.6144 -1.4371
 4121TIP3    H212328   5.351   4.199   0.228  0.2587  0.3274 -0.0983
 4122TIP3   OH212329   5.265   6.516   1.209 -0.3656 -0.3711 -0.1913
 4122TIP3    H112330   5.300   6.530   1.297  1.2865  0.9850 -1.0045
 4122TIP3    H212331   5.260   6.604   1.171 -2.4283 -0.7726 -0.9924
 4123TIP3   OH212332   7.132   0.396   5.282  0.1086 -0.1798 -0.3186
 4123TIP3    H112333   7.199   0.366   5.343 -0.4434 -2.7277 -0.8666
 4123TIP3    H212334   7.165   0.480   5.250  2.0751 -0.4440  0.8485
 4124TIP3   OH212335   0.817   1.862   0.235 -0.3809  0.2905 -0.2415
 4124TIP3    H112336   0.815   1.770   0.208 -0.4477 -0.3028  1.6499
 4124TIP3    H212337   0.900   1.873   0.280 -0.8244  0.8754  0.4672
 4125TIP3   OH212338   6.161   5.577   5.144 -0.8316 -0.6563 -0.2857
 4125TIP3    H112339   6.106   5.652   5.166 -0.8038 -0.8274  0.3773
 4125TIP3    H212340   6.141   5.511   5.211 -0.4189 -1.0193 -0.5129
 4126TIP3   OH212341   5.270   1.672   5.361  0.5017  0.0625  0.0147
 4126TIP3    H112342   5.280   1.757   5.319  0.0964  0.8717  1.4621
 4126TIP3    H212343   5.206   1.688   5.431  0.6443 -1.3632  0.5028
 4127TIP3   OH212344   1.514   1.491   5.819  0.6895 -0.2546 -0.4550
 4127TIP3    H112345   1.564   1.412   5.797  0.2268 -0.7936  0.3863
 4127TIP3    H212346   1.522   1.498   5.914 -0.1711  0.1114 -0.4079
 4128TIP3   OH212347   0.134   0.471   0.419  0.2861  0.0838 -0.5466
 4128TIP3    H112348   0.179   0.537   0.471  0.1684 -0.8041  0.7235
 4128TIP3    H212349   0.108   0.404   0.482 -1.4895 -0.1589 -1.4754
 4129TIP3   OH212350   2.342   3.649   3.494  0.4322 -0.5792 -0.4386
 4129TIP3    H112351   2.297   3.657   3.410 -1.7248 -0.1629  0.6826
 4129TIP3    H212352   2.434   3.664   3.473 -0.2403  1.3363 -2.4730
 4130TIP3   OH212353   3.943   0.304   3.046  0.2317 -0.1603  0.1719
 4130TIP3    H112354   4.035   0.299   3.075  0.3200 -0.0109 -0.0799
 4130TIP3    H212355   3.893   0.280   3.124  0.4752  0.1268  0.4219
 4131TIP3   OH212356   3.895   4.438   4.454  0.2504 -0.2016 -0.5584
 4131TIP3    H112357   3.941   4.521   4.456 -1.2392  0.6736 -0.9255
 4131TIP3    H212358   3.959   4.376   4.418  0.6112  1.3335 -2.8167
 4132TIP3   OH212359   5.357   1.387   3.695 -0.0966 -0.0246  0.5814
 4132TIP3    H112360   5.391   1.449   3.630  0.7761 -0.1557  0.8962
 4132TIP3    H212361   5.367   1.301   3.653 -1.8265  0.0537 -0.0831
 4133TIP3   OH212362   3.250   1.693   1.971 -0.3141 -0.4935 -0.2696
 4133TIP3    H112363   3.325   1.662   1.922 -0.3757 -0.1851 -0.5668
 4133TIP3    H212364   3.174   1.666   1.919 -0.3394  1.1033 -1.1282
 4134TIP3   OH212365   6.504   6.483   2.098 -0.0644  0.1405  0.0352
 4134TIP3    H112366   6.519   6.391   2.120 -1.1571 -0.4347 -1.4460
 4134TIP3    H212367   6.425   6.506   2.146 -1.4791 -0.6162 -1.7943
 4135TIP3   OH212368   3.049   0.508   5.104  0.1112  0.0312 -0.7387
 4135TIP3    H112369   3.060   0.519   5.198  1.9794  0.8962 -1.0063
 4135TIP3    H212370   2.999   0.585   5.076  2.4353  1.5877 -0.8624
 4136TIP3   OH212371   4.613   6.299   5.660  0.0517  0.4616  0.4660
 4136TIP3    H112372   4.554   6.301   5.584  0.2831  0.4832  0.2866
 4136TIP3    H212373   4.587   6.374   5.713 -1.5358 -0.7371  1.4841
 4137TIP3   OH212374   4.977   3.190   5.476 -0.0901 -0.4244  0.2541
 4137TIP3    H112375   5.044   3.176   5.409  0.3114 -0.3821  0.6366
 4137TIP3    H212376   5.015   3.151   5.555  0.2783  1.1851  0.9168
 4138TIP3   OH212377   3.694   1.249   2.559 -0.6151 -0.3684  0.3674
 4138TIP3    H112378   3.744   1.303   2.621  0.2078 -0.4564 -0.1970
 4138TIP3    H212379   3.625   1.208   2.611 -0.4319  0.1981  1.0579
 4139TIP3   OH212380   2.520   0.411   0.620 -0.2258  0.3440  0.2890
 4139TIP3    H112381   2.587   0.393   0.685 -0.3188  0.8046  0.5118
 4139TIP3    H212382   2.513   0.329   0.569  1.4214  0.7107 -0.5800
 4140TIP3   OH212383   4.404   3.347   4.559  0.0080  0.0741  0.6730
 4140TIP3    H112384   4.488   3.393   4.568 -0.6663  1.1577  1.8242
 4140TIP3    H212385   4.402   3.286   4.633  0.0617 -0.4329  0.2609
 4141TIP3   OH212386   2.208   1.411   1.377  0.7128 -0.1865 -0.0066
 4141TIP3    H112387   2.220   1.372   1.290  1.0298  0.0615 -0.0768
 4141TIP3    H212388   2.212   1.336   1.437  1.0191 -0.2981 -0.1641
 4142TIP3   OH212389   4.560   6.589   0.474 -0.3678 -0.2807  0.1562
 4142TIP3    H112390   4.555   6.631   0.388 -0.6020  0.3178  0.4570
 4142TIP3    H212391   4.475   6.545   0.483 -0.4603 -0.0936  0.2057
 4143TIP3   OH212392   6.659   5.422   4.968  0.5198  0.2498  0.8556
 4143TIP3    H112393   6.572   5.458   4.986 -0.1609  1.1695 -3.1790
 4143TIP3    H212394   6.713   5.499   4.951  0.6710 -0.3292 -1.7552
 4144TIP3   OH212395   6.788   2.890   5.185 -0.1555  0.0743  0.2014
 4144TIP3    H112396   6.772   2.798   5.163  2.0491 -0.4156  0.4541
 4144TIP3    H212397   6.700   2.928   5.194 -1.1157 -1.7652 -0.8113
 4145TIP3   OH212398   3.301   5.994   0.556  0.6803  0.0329 -0.0723
 4145TIP3    H112399   3.261   5.913   0.525 -0.6549  1.0401 -1.0825
 4145TIP3    H212400   3.248   6.063   0.517  1.0766  1.4026  1.7180
 4146TIP3   OH212401   5.553   4.482   4.841 -0.0746 -0.2196 -0.0176
 4146TIP3    H112402   5.555   4.535   4.921 -0.2821 -0.2879  0.0337
 4146TIP3    H212403   5.503   4.404   4.865  1.8914 -1.3934  0.4857
 4147TIP3   OH212404   0.313   0.272   5.141  0.0400  0.0662 -0.3058
 4147TIP3    H112405   0.270   0.303   5.062 -0.0257  1.7698  0.3571
 4147TIP3    H212406   0.358   0.192   5.114 -0.5489  0.2269 -1.8787
 4148TIP3   OH212407   1.561   6.278   2.808  0.1308  0.0255 -0.0125
 4148TIP3    H112408   1.506   6.347   2.770 -0.1410 -0.1951 -0.0178
 4148TIP3    H212409   1.583   6.310   2.895  0.3823  0.3278 -0.1834
 4149TIP3   OH212410   1.567   6.549   4.709 -0.3110 -0.2769 -0.3595
 4149TIP3    H112411   1.552   6.461   4.742 -2.1404  0.5786  1.3299
 4149TIP3    H212412   1.521   6.606   4.771 -0.7597  1.7366 -2.3955
 4150TIP3   OH212413   4.847   5.646   5.122  0.1811 -0.2642  0.3772
 4150TIP3    H112414   4.900   5.648   5.202  2.3101 -2.4083 -0.8455
 4150TIP3    H212415   4.823   5.554   5.111 -1.7892  0.2916 -0.4364
 4151TIP3   OH212416   0.085   4.534   1.622 -0.0321  0.0354 -0.9380
 4151TIP3    H112417   0.027   4.488   1.683  0.3626  0.0175 -0.5733
 4151TIP3    H212418   0.034   4.609   1.592 -0.0109  0.3752 -0.1302
 4152TIP3   OH212419   0.005   3.482   1.361 -1.5493  0.1667 -0.4593
 4152TIP3    H112420  -0.048   3.519   1.432  1.5844  1.9507  1.2238
 4152TIP3    H212421   0.072   3.430   1.406 -1.8445 -2.0876 -2.4442
 4153TIP3   OH212422   4.321   5.115   1.284 -0.0493 -0.0144  0.3566
 4153TIP3    H112423   4.229   5.130   1.262 -0.6186  0.1948  2.6667
 4153TIP3    H212424   4.364   5.200   1.271 -0.5031  0.2741  0.7364
 4154TIP3   OH212425   5.931   2.026   5.234 -0.2649  0.6599 -0.1761
 4154TIP3    H112426   5.891   1.983   5.310 -0.5819  0.0651 -0.6675
 4154TIP3    H212427   5.870   2.009   5.163  1.5277 -1.5289 -1.3033
 4155TIP3   OH212428   2.810   3.427   3.729  0.5229  0.3893  0.5565
 4155TIP3    H112429   2.869   3.501   3.728  3.9783 -2.1307  0.7852
 4155TIP3    H212430   2.828   3.382   3.812  0.4992 -2.0597 -0.6761
 4156TIP3   OH212431   3.354   5.391   0.002 -0.3463 -0.1665  0.4325
 4156TIP3    H112432   3.359   5.486   0.017  2.3093 -0.3259  1.1034
 4156TIP3    H212433   3.386   5.353   0.084 -0.6415 -1.6222 -0.1099
 4157TIP3   OH212434   1.228   0.259   3.852 -0.0105 -0.0628 -0.2904
 4157TIP3    H112435   1.240   0.353   3.868  1.1727 -0.0723 -1.0584
 4157TIP3    H212436   1.261   0.245   3.764 -1.7758 -0.9186 -0.8524
 4158TIP3   OH212437   4.157   0.271   0.579  0.1552 -0.4127 -0.5221
 4158TIP3    H112438   4.232   0.234   0.626  0.4170  1.4765  0.6649
 4158TIP3    H212439   4.093   0.289   0.647  0.7242  2.8532 -0.6998
 4159TIP3   OH212440   3.872   5.136   5.383 -0.0202 -0.5652 -0.4441
 4159TIP3    H112441   3.822   5.193   5.441 -0.9262 -1.0923 -0.6999
 4159TIP3    H212442   3.869   5.050   5.425  0.5398 -0.6395 -0.5439
 4160TIP3   OH212443   3.254   4.042   3.093  0.2206  0.3296  0.1301
 4160TIP3    H112444   3.168   4.076   3.116  0.1211 -0.4927  1.1013
 4160TIP3    H212445   3.241   3.994   3.011 -0.1875  0.4624  0.1206
 4161TIP3   OH212446   4.184   3.852   4.641  0.4000  0.2208 -0.2677
 4161TIP3    H112447   4.129   3.922   4.605  0.3521 -0.4105 -1.4838
 4161TIP3    H212448   4.272   3.890   4.643  0.3272  0.4136 -0.6327
 4162TIP3   OH212449   1.289   5.038   4.309  0.3835  0.0399  0.1418
 4162TIP3    H112450   1.281   5.129   4.280  1.3747 -0.0384 -0.4101
 4162TIP3    H212451   1.239   4.988   4.245  0.0245  0.1668  0.3191
 4163TIP3   OH212452   0.572   0.380   1.660 -0.3171 -0.3357 -0.2185
 4163TIP3    H112453   0.656   0.343   1.688 -0.2070 -0.1299 -0.2753
 4163TIP3    H212454   0.567   0.466   1.702  0.9619  1.0502 -2.6502
 4164TIP3   OH212455   7.052   2.354   2.710 -0.9749  0.1982 -0.3301
 4164TIP3    H112456   7.051   2.370   2.804  0.9574  0.5946 -0.3456
 4164TIP3    H212457   7.052   2.441   2.671  0.7003  0.0981 -0.6172
 4165TIP3   OH212458   2.172   2.815   4.047  0.0773 -0.2110  0.4022
 4165TIP3    H112459   2.176   2.897   3.998  0.1596 -0.0353  0.6985
 4165TIP3    H212460   2.236   2.758   4.004  0.7193  0.2059  0.7803
 4166TIP3   OH212461   3.241   3.668   0.289 -0.4072 -0.3608  0.7098
 4166TIP3    H112462   3.311   3.733   0.287  0.6980 -1.5506  0.3583
 4166TIP3    H212463   3.284   3.584   0.276 -1.9524 -1.0840 -0.0068
 4167TIP3   OH212464   7.182   5.879   4.963 -0.3548  0.0606 -0.4009
 4167TIP3    H112465   7.087   5.873   4.965 -0.5155  1.1162 -2.3023
 4167TIP3    H212466   7.200   5.945   4.896  1.7229 -0.1231 -0.0863
 4168TIP3   OH212467   1.731   5.272   5.192  0.4023  0.3751 -0.2383
 4168TIP3    H112468   1.728   5.332   5.266 -0.3714  0.0756 -0.0209
 4168TIP3    H212469   1.819   5.235   5.195  0.3110  0.2057  0.6611
 4169TIP3   OH212470   1.778   1.800   2.544 -0.2100  0.8147 -0.0803
 4169TIP3    H112471   1.776   1.829   2.636  0.5792 -3.1055  1.3633
 4169TIP3    H212472   1.691   1.820   2.511 -1.0763  0.8841  2.0462
 4170TIP3   OH212473   3.312   5.489   3.177  0.0625 -0.0341 -0.0083
 4170TIP3    H112474   3.330   5.582   3.167  1.9507 -0.1138  1.9485
 4170TIP3    H212475   3.368   5.447   3.111 -1.4147  0.1828 -1.4737
 4171TIP3   OH212476   6.332   5.414   3.532 -0.1719  0.1042  0.4981
 4171TIP3    H112477   6.389   5.340   3.513 -1.5079 -0.9227  0.3359
 4171TIP3    H212478   6.283   5.428   3.451 -0.0368  1.0770  0.5759
 4172TIP3   OH212479   6.604   1.548   5.529  1.0744  0.4377 -0.2750
 4172TIP3    H112480   6.586   1.611   5.459 -2.3035 -0.8801 -0.7821
 4172TIP3    H212481   6.533   1.560   5.591  0.7274 -2.3399 -0.0241
 4173TIP3   OH212482   4.805   5.164   3.563  0.0253  0.5196 -0.2213
 4173TIP3    H112483   4.749   5.229   3.522 -2.4212 -0.8243  0.7734
 4173TIP3    H212484   4.773   5.157   3.653  1.2522 -0.9331  0.1601
 4174TIP3   OH212485   6.723   4.898   3.704 -0.3027 -0.0370 -0.9465
 4174TIP3    H112486   6.806   4.888   3.752 -1.0655 -2.1827  0.0318
 4174TIP3    H212487   6.748   4.892   3.612  0.6110 -0.8597 -0.6583
 4175TIP3   OH212488   6.131   1.320   2.902 -0.7803 -0.5395 -0.2724
 4175TIP3    H112489   6.157   1.368   2.823  1.0710  0.4813  0.8935
 4175TIP3    H212490   6.162   1.231   2.886  2.3486  0.2893  0.4100
 4176TIP3   OH212491   3.253   4.827   0.990  0.1803 -0.4585  0.1259
 4176TIP3    H112492   3.292   4.862   0.910  1.2386 -0.1852  0.7401
 4176TIP3    H212493   3.257   4.899   1.052 -0.4921 -0.7172  0.4768
 4177TIP3   OH212494   2.587   0.057   1.840 -0.1283 -0.8396 -0.7068
 4177TIP3    H112495   2.561  -0.011   1.778  0.3082  0.2667 -2.1802
 4177TIP3    H212496   2.637   0.119   1.787  0.8029 -0.1537  0.9081
 4178TIP3   OH212497   5.032   2.769   5.670 -0.0024  0.3948  0.1919
 4178TIP3    H112498   5.057   2.753   5.579  2.9773  2.1124  0.5621
 4178TIP3    H212499   4.970   2.699   5.690 -0.3235 -0.3862 -2.9480
 4179TIP3   OH212500   0.426   3.690   1.314  0.1890 -0.1794  0.9763
 4179TIP3    H112501   0.518   3.699   1.339  1.3484 -0.6197 -2.6205
 4179TIP3    H212502   0.402   3.601   1.340  0.8302 -0.1441  1.7164
 4180TIP3   OH212503   2.450   0.200   3.960  0.4288  0.3715  0.4639
 4180TIP3    H112504   2.394   0.273   3.984  0.7420  0.3259  1.3478
 4180TIP3    H212505   2.517   0.239   3.903 -1.1411  0.2266 -1.6359
 4181TIP3   OH212506   1.158   2.014   4.669  0.0977  0.2850  0.1761
 4181TIP3    H112507   1.129   2.055   4.750 -1.0619 -0.1322 -0.0080
 4181TIP3    H212508   1.205   2.083   4.622 -0.4921  0.9541  0.5531
 4182TIP3   OH212509   1.201   6.069   5.603  0.4969 -0.0308  0.4614
 4182TIP3    H112510   1.120   6.071   5.553  1.2536  0.6355 -0.7929
 4182TIP3    H212511   1.232   6.159   5.603  2.5282 -0.6329 -1.3450
 4183TIP3   OH212512   3.678   1.499   3.176 -0.1525  1.1094  0.1187
 4183TIP3    H112513   3.667   1.457   3.262 -0.2590 -1.1080 -0.9254
 4183TIP3    H212514   3.598   1.550   3.165 -1.9025 -1.4920 -0.1540
 4184TIP3   OH212515   4.710   2.953   2.159  0.4447 -0.3804 -0.0890
 4184TIP3    H112516   4.703   2.913   2.246  1.3585  0.5233  0.4294
 4184TIP3    H212517   4.797   2.929   2.128  0.3369 -0.2348 -0.5143
 4185TIP3   OH212518   6.264   4.703   3.873 -0.5067 -0.2948  0.4083
 4185TIP3    H112519   6.211   4.640   3.822  1.2167 -1.6126  0.1492
 4185TIP3    H212520   6.214   4.716   3.953 -2.3231  0.2980 -0.7376
 4186TIP3   OH212521   3.033   4.560   3.388 -0.1402  0.2148 -0.3107
 4186TIP3    H112522   3.034   4.650   3.356  0.8985  0.1672 -0.4592
 4186TIP3    H212523   2.962   4.558   3.452 -0.4150  1.0408 -0.5777
 4187TIP3   OH212524   4.425   1.073   5.770 -0.2964  0.4113 -0.1751
 4187TIP3    H112525   4.467   1.160   5.770 -0.4052  0.4690 -0.7762
 4187TIP3    H212526   4.479   1.021   5.829  0.0821  0.7413 -0.2211
 4188TIP3   OH212527   0.133   3.742   2.526  0.1579  0.1687 -0.3076
 4188TIP3    H112528   0.226   3.745   2.551 -0.2574 -0.1347  1.4029
 4188TIP3    H212529   0.121   3.655   2.488  0.1465 -0.6349  1.4366
 4189TIP3   OH212530   5.817   5.000   2.846  0.5023  0.4866  0.0644
 4189TIP3    H112531   5.826   4.949   2.766  1.6179 -0.6227  0.8604
 4189TIP3    H212532   5.745   5.061   2.828  0.7730  0.2999 -1.7723
 4190TIP3   OH212533   5.314   5.731   4.182 -0.1953 -0.2977 -0.0054
 4190TIP3    H112534   5.378   5.802   4.184 -1.6884  1.1210 -0.6691
 4190TIP3    H212535   5.325   5.687   4.266  1.2657  0.2538  0.1204
 4191TIP3   OH212536   6.147   4.569   3.445 -0.1501  0.4636  0.3652
 4191TIP3    H112537   6.066   4.596   3.489 -0.5915  0.2227 -0.2839
 4191TIP3    H212538   6.212   4.632   3.475 -0.9016  1.5481 -0.2029
 4192TIP3   OH212539   2.658   3.150   2.233 -0.4959  0.0954  0.4734
 4192TIP3    H112540   2.705   3.181   2.310  0.8703 -1.7384  0.4717
 4192TIP3    H212541   2.682   3.211   2.163  1.0198 -0.1199  0.7627
 4193TIP3   OH212542   6.077   0.062   0.822 -0.5818  0.3770  0.1998
 4193TIP3    H112543   6.157   0.097   0.860 -0.2332 -1.0876  0.8908
 4193TIP3    H212544   6.104  -0.020   0.780 -1.8764 -0.7907  1.5156
 4194TIP3   OH212545   4.351   3.597   2.163 -0.2127 -0.7098 -0.0921
 4194TIP3    H112546   4.331   3.504   2.166 -1.9397 -0.3581  3.2987
 4194TIP3    H212547   4.415   3.610   2.233  1.3567  0.4724 -1.6468
 4195TIP3   OH212548   0.383   3.246   0.845  0.7350 -0.5118 -0.2637
 4195TIP3    H112549   0.383   3.156   0.811  1.5579  0.4488 -3.0121
 4195TIP3    H212550   0.350   3.299   0.773  2.2538  1.6575  0.5496
 4196TIP3   OH212551   6.781   3.503   2.102 -0.2182  0.1503  0.6368
 4196TIP3    H112552   6.724   3.427   2.089  1.3920 -1.0489  0.1673
 4196TIP3    H212553   6.753   3.566   2.036 -1.9278  0.2209  1.3718
 4197TIP3   OH212554   2.912   1.884   1.251  0.1413  0.2902 -0.8816
 4197TIP3    H112555   2.959   1.891   1.167 -0.6105  0.3664 -1.3072
 4197TIP3    H212556   2.830   1.841   1.228  0.4677 -0.8858  0.0457
 4198TIP3   OH212557   3.365   1.381   3.014 -0.6722  0.3766 -0.0337
 4198TIP3    H112558   3.401   1.298   3.044 -1.6243 -0.2937 -0.6547
 4198TIP3    H212559   3.299   1.404   3.079 -0.3493  0.7016  0.1839
 4199TIP3   OH212560   3.538   5.340   4.712 -0.1133  0.2479  0.0319
 4199TIP3    H112561   3.608   5.384   4.665 -0.4911  2.0909  1.1250
 4199TIP3    H212562   3.545   5.370   4.802 -2.5720  0.9071  0.0969
 4200TIP3   OH212563   0.531   4.085   0.531  0.3029  0.0708 -0.1024
 4200TIP3    H112564   0.494   4.042   0.454 -1.3400 -0.7169  1.0665
 4200TIP3    H212565   0.467   4.151   0.554  0.8962  0.4602  0.4603
 4201TIP3   OH212566   4.972   1.917   2.965  0.1446  0.0215 -0.4965
 4201TIP3    H112567   4.917   1.939   2.889 -0.9826  0.7528  0.4910
 4201TIP3    H212568   4.984   2.000   3.011  4.1575  0.4099 -1.8852
 4202TIP3   OH212569   2.413   0.890   0.368 -0.1040 -0.5158  0.6902
 4202TIP3    H112570   2.478   0.834   0.410  0.7554 -0.1029 -0.0459
 4202TIP3    H212571   2.458   0.974   0.357 -0.9028 -0.1012  0.5141
 4203TIP3   OH212572   4.327   3.167   1.300 -0.1838  0.2926 -0.0305
 4203TIP3    H112573   4.232   3.176   1.310 -0.3641  0.6696 -1.7761
 4203TIP3    H212574   4.358   3.256   1.286  0.3588  0.1115 -0.0081
 4204TIP3   OH212575   1.026   2.134   0.743 -1.0857  0.3013 -0.0539
 4204TIP3    H112576   1.084   2.209   0.733  1.2661 -1.0446  2.3209
 4204TIP3    H212577   0.962   2.144   0.673 -0.2634  3.9109 -0.4899
 4205TIP3   OH212578   1.629   5.209   1.779 -0.3235  0.3786 -0.1775
 4205TIP3    H112579   1.681   5.143   1.734 -0.3691 -0.5691  1.1021
 4205TIP3    H212580   1.676   5.225   1.861 -0.9931  0.9731  0.1061
 4206TIP3   OH212581   3.597   5.993   1.129 -0.3016 -0.0789 -0.1705
 4206TIP3    H112582   3.675   5.949   1.163 -0.9349  0.9646  2.9453
 4206TIP3    H212583   3.628   6.043   1.054  1.3200 -2.1567 -1.0099
 4207TIP3   OH212584   5.067   0.757   1.866  0.4553 -0.1997 -0.5295
 4207TIP3    H112585   5.073   0.757   1.961 -0.0800 -1.8714 -0.4634
 4207TIP3    H212586   5.158   0.763   1.836  0.7906 -1.4894  0.1370
 4208TIP3   OH212587   2.934   5.759   1.165  0.1738  0.1506 -0.1735
 4208TIP3    H112588   2.918   5.746   1.259 -1.4749 -1.8109 -0.6555
 4208TIP3    H212589   2.847   5.753   1.125  0.5740  2.7940 -1.7152
 4209TIP3   OH212590   5.099   3.963   5.691  0.0903  0.3067 -0.1471
 4209TIP3    H112591   5.061   4.025   5.753 -1.1333 -0.4490 -0.1106
 4209TIP3    H212592   5.188   3.995   5.678  0.3553  0.5515  1.8983
 4210TIP3   OH212593   5.807   4.585   3.817 -0.2217 -0.0214  0.2181
 4210TIP3    H112594   5.786   4.492   3.830  0.9779 -0.2748  0.4571
 4210TIP3    H212595   5.821   4.593   3.722 -0.7764  0.0274  0.1341
 4211TIP3   OH212596   2.679   4.266   3.596  0.3447 -0.5777 -0.1866
 4211TIP3    H112597   2.642   4.346   3.558 -0.3212  0.1842  1.9391
 4211TIP3    H212598   2.604   4.222   3.635  1.3872  0.4565  3.2853
 4212TIP3   OH212599   0.818   4.245   2.152  0.6304  0.1203 -0.1815
 4212TIP3    H112600   0.734   4.273   2.188  1.2845  0.4619  1.1052
 4212TIP3    H212601   0.808   4.257   2.057 -0.7988  0.0491 -0.0600
 4213TIP3   OH212602   6.445   1.724   4.858 -0.9227 -0.0874 -0.0929
 4213TIP3    H112603   6.535   1.742   4.832 -1.7388  1.4122 -2.1399
 4213TIP3    H212604   6.452   1.651   4.920  1.9241  1.9222  2.2321
 4214TIP3   OH212605   4.597   5.910   3.048  0.1232 -0.3160 -0.0882
 4214TIP3    H112606   4.571   5.869   2.966  0.0804  0.4693 -0.4693
 4214TIP3    H212607   4.654   5.982   3.022 -0.5321  0.4379  0.5224
 4215TIP3   OH212608   6.786   3.264   4.423  0.6899  0.5365 -0.8099
 4215TIP3    H112609   6.817   3.181   4.387  1.2487 -0.2155  1.2540
 4215TIP3    H212610   6.811   3.329   4.358 -1.8910 -1.0682 -3.6820
 4216TIP3   OH212611   6.459   5.712   0.966  0.1293  0.1956 -0.1384
 4216TIP3    H112612   6.517   5.715   0.889  1.3116 -1.3760  0.6351
 4216TIP3    H212613   6.474   5.795   1.011  0.1576  0.7098 -1.0572
 4217TIP3   OH212614   4.198   5.630   2.910 -0.1680  0.3277 -0.1352
 4217TIP3    H112615   4.188   5.561   2.845 -0.9786 -0.6626  1.0041
 4217TIP3    H212616   4.272   5.602   2.964  0.5817  1.2066 -0.6648
 4218TIP3   OH212617   2.991   1.046   2.887  0.8944 -0.4641 -0.4258
 4218TIP3    H112618   3.068   1.103   2.896  1.0086 -0.9019  2.4283
 4218TIP3    H212619   3.019   0.978   2.826  2.3223  0.0823 -0.4300
 4219TIP3   OH212620   2.102   4.395   2.216 -0.0554 -0.1656  0.0466
 4219TIP3    H112621   2.014   4.435   2.212  0.5164  1.1690  0.2780
 4219TIP3    H212622   2.086   4.301   2.208 -1.4807  0.0848 -0.3119
 4220TIP3   OH212623   1.945   4.252   1.864  0.1450  0.2264  0.4983
 4220TIP3    H112624   1.966   4.344   1.847 -1.4675  0.3745 -1.0411
 4220TIP3    H212625   1.863   4.255   1.912 -0.6129 -0.3890 -0.7005
 4221TIP3   OH212626   7.199   0.272   2.067  0.2127  0.0890  0.0870
 4221TIP3    H112627   7.118   0.294   2.113 -0.3922 -1.1612 -0.3244
 4221TIP3    H212628   7.243   0.210   2.125  0.3234 -0.1068 -0.2040
 4222TIP3   OH212629   6.920   6.696   0.972  0.4462  0.0624 -0.2455
 4222TIP3    H112630   7.005   6.657   0.995  0.7222  0.0008 -1.3064
 4222TIP3    H212631   6.857   6.626   0.987  0.1841  0.8217  2.9449
 4223TIP3   OH212632   3.183   2.586   2.198  0.7733  0.7531 -0.1776
 4223TIP3    H112633   3.131   2.657   2.160 -1.3351 -1.6227 -2.0653
 4223TIP3    H212634   3.122   2.513   2.205  2.4123 -0.4834  3.2735
 4224TIP3   OH212635   2.637   2.670   1.182  0.2981  0.0504  0.3791
 4224TIP3    H112636   2.569   2.625   1.132  0.3162  0.8647 -0.4193
 4224TIP3    H212637   2.705   2.605   1.194  0.5237 -0.0427 -1.1524
 4225TIP3   OH212638   3.283   2.151   0.661  0.2482  0.6906 -0.7689
 4225TIP3    H112639   3.200   2.149   0.613 -0.6017 -0.6572  0.6793
 4225TIP3    H212640   3.263   2.200   0.741  0.6121 -0.3357 -0.0383
 4226TIP3   OH212641   3.160   3.438   0.004  0.1158 -0.0936  0.2946
 4226TIP3    H112642   3.176   3.391   0.086  0.5134  0.5235  0.5737
 4226TIP3    H212643   3.077   3.402  -0.027 -1.2863  1.2934  2.1805
 4227TIP3   OH212644   6.859   4.754   1.025 -0.0051 -0.6594  0.2614
 4227TIP3    H112645   6.917   4.736   1.099 -0.4798 -0.0435  0.7919
 4227TIP3    H212646   6.853   4.849   1.022  1.2479 -0.5852 -1.5430
 4228TIP3   OH212647   5.863   2.155   0.157  0.2115  0.0407  0.4641
 4228TIP3    H112648   5.776   2.194   0.145  0.0198 -0.1546  1.1542
 4228TIP3    H212649   5.913   2.184   0.081 -0.7817 -0.7651 -0.5434
 4229TIP3   OH212650   6.371   3.839   5.873  0.2015  0.2228  0.8216
 4229TIP3    H112651   6.452   3.866   5.916  0.2480  0.3266  0.6691
 4229TIP3    H212652   6.394   3.833   5.780  0.5101 -1.4939  0.9690
 4230TIP3   OH212653   0.871   6.373   0.541  0.1120 -0.2051  0.1765
 4230TIP3    H112654   0.902   6.439   0.478  1.2023 -0.2450  0.6379
 4230TIP3    H212655   0.897   6.408   0.626 -1.8471  0.1204  0.6841
 4231TIP3   OH212656   6.865   3.317   0.552  0.0183 -0.4755  0.2354
 4231TIP3    H112657   6.813   3.280   0.481  0.3435  0.2323 -0.3848
 4231TIP3    H212658   6.927   3.248   0.576 -1.3634 -1.4331  1.1731
 4232TIP3   OH212659   4.551   1.375   5.269  0.3860  0.9367 -0.5191
 4232TIP3    H112660   4.603   1.318   5.213 -0.2032  0.4908 -0.6243
 4232TIP3    H212661   4.546   1.330   5.353  2.1381  2.0892  0.2495
 4233TIP3   OH212662   6.109   2.142   2.558 -0.6099  0.9287  0.3712
 4233TIP3    H112663   6.167   2.216   2.576  0.2614  0.3704 -0.0930
 4233TIP3    H212664   6.082   2.154   2.467  2.9278 -1.5057 -1.2148
 4234TIP3   OH212665   3.636   4.045   2.463 -0.0415  0.3449 -0.4169
 4234TIP3    H112666   3.624   4.000   2.547 -1.0375 -0.9660 -1.2106
 4234TIP3    H212667   3.731   4.057   2.455 -0.0201  2.2883  1.7555
 4235TIP3   OH212668   1.808   0.044   0.104 -0.1814  0.2640  0.2140
 4235TIP3    H112669   1.721   0.010   0.083  0.0372  0.3168 -0.8099
 4235TIP3    H212670   1.857   0.038   0.022  0.8957 -0.0819  0.8581
 4236TIP3   OH212671   5.454   2.928   4.518 -0.1567 -0.2460 -0.3780
 4236TIP3    H112672   5.473   2.910   4.610  0.5956 -0.5545 -0.5820
 4236TIP3    H212673   5.500   2.859   4.470  0.5320  0.6465 -1.0525
 4237TIP3   OH212674   1.680   4.848   0.352 -0.2724 -0.0437  0.1096
 4237TIP3    H112675   1.713   4.878   0.437  1.6898  1.7723 -1.1818
 4237TIP3    H212676   1.663   4.929   0.303  0.6496 -1.0108 -1.9302
 4238TIP3   OH212677   5.752   5.228   0.070 -0.2141  0.0846  0.3237
 4238TIP3    H112678   5.811   5.154   0.060  0.6638  0.6782  0.9120
 4238TIP3    H212679   5.756   5.274  -0.014  0.9928  0.6895  0.6796
 4239TIP3   OH212680   0.961   0.467   0.372  0.6061  0.1849 -0.1397
 4239TIP3    H112681   0.953   0.413   0.294  3.3303 -0.7237  0.0930
 4239TIP3    H212682   0.902   0.426   0.436 -0.0141 -0.3452 -1.0297
 4240TIP3   OH212683   3.737   1.462   0.474  0.8384  0.3295  0.0396
 4240TIP3    H112684   3.662   1.474   0.532 -0.7443 -1.3553 -1.5100
 4240TIP3    H212685   3.728   1.532   0.408  1.1448  0.6521  0.3347
 4241TIP3   OH212686   5.588   2.792   3.853  0.1562 -0.6237 -0.4807
 4241TIP3    H112687   5.669   2.818   3.810  0.7568  1.4901  1.6500
 4241TIP3    H212688   5.617   2.740   3.928 -0.4682 -0.2870  0.0006
 4242TIP3   OH212689   6.154   1.419   3.976 -0.3199 -0.1707 -0.8098
 4242TIP3    H112690   6.230   1.465   4.011  0.1827 -0.6502 -1.2514
 4242TIP3    H212691   6.099   1.401   4.052 -0.6490  1.3575 -0.6528
 4243TIP3   OH212692   2.570   3.736   0.010  0.2429  0.3095 -0.0586
 4243TIP3    H112693   2.552   3.820   0.051 -1.6657  0.3766 -0.9381
 4243TIP3    H212694   2.635   3.695   0.067 -0.8083  1.2335  1.8951
 4244TIP3   OH212695   5.664   5.002   5.616  0.3178 -0.3716  0.0685
 4244TIP3    H112696   5.728   5.040   5.677 -0.2989  1.4041 -0.3158
 4244TIP3    H212697   5.679   5.049   5.534 -1.4819  0.1177 -0.0188
 4245TIP3   OH212698   5.976   0.265   2.015  0.5813 -0.0200 -0.3797
 4245TIP3    H112699   6.023   0.245   2.096 -1.2585 -0.7239  0.5639
 4245TIP3    H212700   5.926   0.344   2.036  0.6474  0.2136 -1.0771
 4246TIP3   OH212701   3.018   6.126   0.170  0.2046 -0.2774  0.7885
 4246TIP3    H112702   3.057   6.061   0.112 -0.0640 -1.1813  1.5860
 4246TIP3    H212703   2.924   6.122   0.151  0.0980 -0.6836  1.3694
 4247TIP3   OH212704   3.964   3.221   5.497  0.2938 -0.1907  1.0560
 4247TIP3    H112705   3.901   3.263   5.439  1.6620 -2.5097 -2.4150
 4247TIP3    H212706   4.034   3.286   5.507 -1.3709  1.4327  2.8693
 4248TIP3   OH212707   6.266   4.714   0.944  0.0041  0.1705  0.5172
 4248TIP3    H112708   6.356   4.685   0.926 -0.7526 -2.1260  0.0979
 4248TIP3    H212709   6.241   4.764   0.866 -0.0711 -1.7875 -0.7750
 4249TIP3   OH212710   2.180   0.746   1.288 -0.5931  0.2915 -0.3229
 4249TIP3    H112711   2.276   0.738   1.289 -0.6112 -0.0037 -0.4791
 4249TIP3    H212712   2.154   0.697   1.210 -0.8687  0.4129 -0.3071
 4250TIP3   OH212713   2.170   5.976   0.689 -0.5697 -0.7478  0.2550
 4250TIP3    H112714   2.247   6.028   0.714 -0.6671  0.5933 -1.9800
 4250TIP3    H212715   2.200   5.922   0.617 -1.4533 -1.0282  0.0896
 4251TIP3   OH212716   6.291   2.677   0.431  0.1439  0.3708 -0.4433
 4251TIP3    H112717   6.359   2.691   0.365  0.1415 -2.1483 -1.0597
 4251TIP3    H212718   6.340   2.670   0.513  0.6623 -1.1764 -0.8487
 4252TIP3   OH212719   1.140   0.293   1.185  0.1040  0.0840  0.3823
 4252TIP3    H112720   1.057   0.333   1.210  1.2073  1.7815  1.5214
 4252TIP3    H212721   1.199   0.311   1.258  1.3760 -1.4889 -0.1809
 4253TIP3   OH212722   6.978   3.305   4.601  0.1633 -0.4796 -0.0736
 4253TIP3    H112723   6.897   3.280   4.559  0.1465 -0.9247  0.2205
 4253TIP3    H212724   6.992   3.396   4.574 -0.1698 -0.5600 -0.5232
 4254TIP3   OH212725   3.421   2.507   1.644  0.5215  0.0728  0.3594
 4254TIP3    H112726   3.428   2.571   1.573  0.1677  0.9914  1.1393
 4254TIP3    H212727   3.462   2.428   1.608 -0.2112  0.3174 -1.0968
 4255TIP3   OH212728   1.512  -0.017   4.310 -0.2348 -0.3058 -0.4111
 4255TIP3    H112729   1.585   0.044   4.320 -1.4116  1.0939  0.1328
 4255TIP3    H212730   1.434   0.038   4.322 -1.3638 -1.8331 -0.4962
 4256TIP3   OH212731   0.058   4.171   3.276  0.5241 -0.0671 -0.0847
 4256TIP3    H112732   0.071   4.077   3.294  0.7764 -0.2576 -1.1625
 4256TIP3    H212733  -0.035   4.185   3.289  0.3944 -0.5904 -0.3968
 4257TIP3   OH212734   6.810   2.476   4.674 -0.0091  0.7694 -0.1624
 4257TIP3    H112735   6.788   2.472   4.767 -0.0197 -0.1294 -0.1979
 4257TIP3    H212736   6.904   2.464   4.671  0.0554  1.2648 -0.2441
 4258TIP3   OH212737   2.462   1.710   1.877  0.6080 -0.0135 -0.8467
 4258TIP3    H112738   2.369   1.730   1.865  0.9318  1.5205 -1.0010
 4258TIP3    H212739   2.463   1.631   1.931 -0.8026 -1.8832 -3.3569
 4259TIP3   OH212740   7.209   3.408   0.524  0.0244  0.1410  0.1978
 4259TIP3    H112741   7.180   3.408   0.433  0.5050 -2.8705 -0.0553
 4259TIP3    H212742   7.215   3.501   0.547 -0.7866  0.9890 -2.5839
 4260TIP3   OH212743   6.420   2.634   4.848 -0.5585 -0.2267 -0.1263
 4260TIP3    H112744   6.487   2.703   4.857 -1.9001  1.2886 -1.0855
 4260TIP3    H212745   6.342   2.672   4.888 -0.9025 -1.9341  0.8845
 4261TIP3   OH212746   6.841   1.590   1.384 -0.2720  0.5656 -0.2184
 4261TIP3    H112747   6.750   1.617   1.379 -0.7414 -0.9575 -0.3219
 4261TIP3    H212748   6.889   1.660   1.338 -1.5192  0.7484 -1.3077
 4262TIP3   OH212749   0.834   3.260   4.563 -0.4036 -1.0527 -0.5556
 4262TIP3    H112750   0.900   3.234   4.500 -0.2727 -0.9732 -0.4506
 4262TIP3    H212751   0.883   3.280   4.643 -0.2106  1.8594 -1.2855
 4263TIP3   OH212752   5.246   3.264   3.332 -0.1750 -0.0222  0.1391
 4263TIP3    H112753   5.300   3.185   3.331 -1.1653 -0.7258  0.0830
 4263TIP3    H212754   5.254   3.298   3.421  1.0928  0.4190 -0.1326
 4264TIP3   OH212755   2.541   0.180   4.216  0.1671  0.0049 -0.2225
 4264TIP3    H112756   2.482   0.201   4.289 -0.6923  0.3665 -1.0075
 4264TIP3    H212757   2.484   0.174   4.140  1.1102  0.0368 -0.9493
 4265TIP3   OH212758   5.423   6.163   2.881  0.5372 -0.5590 -0.2492
 4265TIP3    H112759   5.500   6.115   2.911  0.2874 -1.4496 -0.9775
 4265TIP3    H212760   5.357   6.147   2.948  1.1501  0.7820  0.7444
 4266TIP3   OH212761   0.005   2.930   4.043  0.0138 -1.3182 -0.3416
 4266TIP3    H112762   0.100   2.925   4.040  0.1871  0.4574  0.6900
 4266TIP3    H212763  -0.022   2.943   3.951  0.8511 -0.8517 -0.5304
 4267TIP3   OH212764   0.640   1.146   5.768 -0.2796  0.1218  0.0328
 4267TIP3    H112765   0.687   1.087   5.826 -0.5999 -0.8346 -0.6598
 4267TIP3    H212766   0.584   1.198   5.826 -0.8420 -1.0381  0.5605
 4268TIP3   OH212767   5.797   5.123   5.820 -0.5272 -0.2298 -0.0563
 4268TIP3    H112768   5.752   5.183   5.880  1.1697  1.0766 -0.0178
 4268TIP3    H212769   5.823   5.050   5.875  0.0595  0.4508  0.5991
 4269TIP3   OH212770   7.113   2.916   3.261 -0.0277 -0.6522 -0.4808
 4269TIP3    H112771   7.174   2.852   3.297  0.0149  0.1888  0.9665
 4269TIP3    H212772   7.133   2.998   3.305 -1.6648 -0.1715 -0.5485
 4270TIP3   OH212773   4.771   3.382   5.453 -0.1312  0.2036  0.1400
 4270TIP3    H112774   4.800   3.463   5.494 -0.0740  1.5050 -2.3266
 4270TIP3    H212775   4.849   3.326   5.454  0.4521  0.9900 -0.0389
 4271TIP3   OH212776   5.751   3.694   4.310 -0.3378  0.5599 -0.0079
 4271TIP3    H112777   5.663   3.729   4.324 -0.2794  1.4421 -1.6435
 4271TIP3    H212778   5.774   3.721   4.221  0.6309 -1.7197 -0.5311
 4272TIP3   OH212779   5.659   1.689   3.018  0.4653 -0.0761 -0.2274
 4272TIP3    H112780   5.666   1.763   2.958  0.8245  1.3103  1.4336
 4272TIP3    H212781   5.648   1.730   3.104  2.6670 -1.8826  1.0326
 4273TIP3   OH212782   5.366   2.602   3.797 -0.0019 -0.8545  0.5106
 4273TIP3    H112783   5.430   2.588   3.728 -1.1470  1.9232 -1.2827
 4273TIP3    H212784   5.378   2.529   3.857  1.2325 -3.2617 -2.4606
 4274TIP3   OH212785   4.514   1.728   4.259  0.2059 -0.3396  0.0111
 4274TIP3    H112786   4.439   1.779   4.231 -0.2377 -0.4949  0.8744
 4274TIP3    H212787   4.480   1.672   4.330  0.9715 -0.8989 -0.0506
 4275TIP3   OH212788   6.953   6.114   1.874 -0.8010 -0.2802 -0.4004
 4275TIP3    H112789   6.900   6.037   1.857 -2.8409  0.8055  0.6782
 4275TIP3    H212790   6.892   6.188   1.868  0.7256  1.1055  0.2061
 4276TIP3   OH212791   2.939   5.481   2.711 -0.5982 -0.2023  0.8619
 4276TIP3    H112792   2.856   5.508   2.750 -1.1806 -0.7235  0.0230
 4276TIP3    H212793   2.926   5.388   2.690 -0.1288 -0.0632 -0.0877
 4277TIP3   OH212794   4.403   5.097   2.171 -0.1749 -0.7690 -0.0273
 4277TIP3    H112795   4.432   5.186   2.154 -0.0628 -0.6185  0.8754
 4277TIP3    H212796   4.353   5.103   2.252 -1.7263 -1.2260 -0.9115
 4278TIP3   OH212797   7.005   5.531   5.160  0.2331 -0.2820  0.0944
 4278TIP3    H112798   6.935   5.595   5.145  1.0397  0.7460  0.6340
 4278TIP3    H212799   7.047   5.521   5.075  0.9835  0.9855  0.2889
 4279TIP3   OH212800   4.619   5.518   4.522 -0.8061 -0.0224  0.2426
 4279TIP3    H112801   4.569   5.444   4.554  0.3078 -1.4772 -1.1963
 4279TIP3    H212802   4.678   5.541   4.594 -1.3991 -0.2883  0.8209
 4280TIP3   OH212803   1.745   5.447   0.352 -0.8315  0.6002  0.2720
 4280TIP3    H112804   1.750   5.530   0.305 -0.4924  0.2711 -0.2788
 4280TIP3    H212805   1.766   5.380   0.286 -2.7648 -0.0757  0.2770
 4281TIP3   OH212806   4.390   3.423   1.295  0.1289 -0.3025 -0.5781
 4281TIP3    H112807   4.459   3.446   1.357 -0.2799 -0.3049 -0.1218
 4281TIP3    H212808   4.339   3.503   1.285 -1.3879 -1.0026  1.1278
 4282TIP3   OH212809   3.234   3.786   2.916 -0.0809 -0.3198  0.5638
 4282TIP3    H112810   3.225   3.713   2.978 -1.6944 -0.6980 -0.0446
 4282TIP3    H212811   3.198   3.751   2.834 -0.5035  1.0399  0.1533
 4283TIP3   OH212812   4.419   4.190   2.231  0.1166 -0.0960  0.4321
 4283TIP3    H112813   4.401   4.140   2.152 -1.6179 -0.5774  1.0749
 4283TIP3    H212814   4.384   4.135   2.302  1.2279  0.5213  1.4881
 4284TIP3   OH212815   2.986   4.092   4.485 -0.0198 -0.2758 -0.3214
 4284TIP3    H112816   2.957   4.141   4.562  0.5411 -0.3525 -0.0600
 4284TIP3    H212817   2.967   4.150   4.411 -0.2832 -0.0815 -0.1042
 4285TIP3   OH212818   3.927   6.604   3.142 -0.0902 -0.5008 -0.1926
 4285TIP3    H112819   3.954   6.559   3.222  0.0204  0.3692  0.2642
 4285TIP3    H212820   3.835   6.625   3.157 -0.3401 -1.1758 -0.6966
 4286TIP3   OH212821   5.499   6.783   1.070  0.1463 -0.1587  0.1798
 4286TIP3    H112822   5.529   6.752   1.156  0.1495 -1.3937 -0.2441
 4286TIP3    H212823   5.404   6.782   1.077 -0.0161 -3.3025 -0.7598
 4287TIP3   OH212824   2.096   6.201   2.787  0.7508 -0.1950 -0.4442
 4287TIP3    H112825   2.038   6.270   2.755 -1.0633 -1.3793  0.0972
 4287TIP3    H212826   2.087   6.205   2.882  0.1295 -1.5027 -0.4149
 4288TIP3   OH212827   4.021   1.530   0.344  0.0568  0.0964 -0.3264
 4288TIP3    H112828   4.078   1.494   0.412  0.6921  0.8617 -0.4347
 4288TIP3    H212829   3.963   1.458   0.321  1.0287 -0.7402 -0.2698
 4289TIP3   OH212830   6.591   1.882   1.377 -0.2546  0.9523 -0.0897
 4289TIP3    H112831   6.516   1.868   1.318 -0.2691  0.1204  0.1081
 4289TIP3    H212832   6.582   1.813   1.444 -0.0115  1.6316  0.6549
 4290TIP3   OH212833   1.851   2.964   5.515 -0.3600  0.3404  0.0606
 4290TIP3    H112834   1.905   2.978   5.592 -0.8737  0.2929  0.4362
 4290TIP3    H212835   1.803   2.883   5.533  0.8910 -0.7052 -1.1141
 4291TIP3   OH212836   6.929   6.648   3.844  0.2381  0.1968  0.4815
 4291TIP3    H112837   6.992   6.700   3.893 -1.6363  0.4393  2.8356
 4291TIP3    H212838   6.876   6.604   3.911 -0.7951 -1.6098 -1.3916
 4292TIP3   OH212839   4.840   5.693   5.714  0.6107  0.3539  0.5291
 4292TIP3    H112840   4.836   5.631   5.641 -1.7488 -0.9101  1.6108
 4292TIP3    H212841   4.903   5.654   5.774 -0.3716 -0.7249  0.9024
 4293TIP3   OH212842   5.909   3.472   1.966  0.7948  0.3841  0.7410
 4293TIP3    H112843   5.903   3.377   1.955  0.8125  0.3853  0.7219
 4293TIP3    H212844   5.901   3.486   2.060  0.4680  0.3857  0.7157
 4294TIP3   OH212845   0.717   2.638   1.790  0.1389 -0.3977 -0.4199
 4294TIP3    H112846   0.674   2.678   1.715  1.3295  0.3454 -0.7384
 4294TIP3    H212847   0.792   2.591   1.752  2.1135  1.8476  0.4301
 4295TIP3   OH212848   3.268   6.421   1.920 -0.4622  0.0036  0.0041
 4295TIP3    H112849   3.297   6.420   2.011  1.2639  0.8005 -0.4867
 4295TIP3    H212850   3.342   6.384   1.871 -1.3029 -0.2831 -1.0878
 4296TIP3   OH212851   0.277   0.592   1.681 -0.5557  0.2607  0.0226
 4296TIP3    H112852   0.222   0.637   1.745 -1.8951  0.1235 -0.9929
 4296TIP3    H212853   0.289   0.504   1.717 -1.1238  0.2470  0.1823
 4297TIP3   OH212854   4.180   4.600   5.513 -0.5344  0.0694  0.1878
 4297TIP3    H112855   4.250   4.653   5.550 -0.9666  0.1208  0.9445
 4297TIP3    H212856   4.223   4.546   5.447  0.2271  0.0335  0.7044
 4298TIP3   OH212857   0.494   1.940   5.725  0.1578  0.2066  0.0339
 4298TIP3    H112858   0.401   1.942   5.700  0.0785 -1.0465  0.1399
 4298TIP3    H212859   0.541   1.931   5.642 -0.0345 -2.5882  0.1253
 4299TIP3   OH212860   5.056   2.817   3.635  0.0579 -0.9039 -0.1722
 4299TIP3    H112861   5.093   2.836   3.721 -1.2892  1.5806 -0.0478
 4299TIP3    H212862   5.073   2.896   3.583 -1.1609 -1.4252 -1.4430
 4300TIP3   OH212863   5.763   1.143   1.124 -0.2708  0.6629 -0.4983
 4300TIP3    H112864   5.825   1.205   1.086  0.3028 -0.3418 -1.2434
 4300TIP3    H212865   5.797   1.125   1.212 -1.3995  2.7079  0.4279
 4301TIP3   OH212866   0.851   5.379   4.106 -0.4883  0.6163 -0.6225
 4301TIP3    H112867   0.772   5.326   4.107  1.3730 -2.3639  0.7786
 4301TIP3    H212868   0.846   5.428   4.024 -2.8519 -0.8850 -1.4812
 4302TIP3   OH212869   3.120   2.961   1.883 -0.8632 -0.8707 -0.1150
 4302TIP3    H112870   3.084   3.036   1.836 -0.8315 -0.1183  1.0287
 4302TIP3    H212871   3.214   2.963   1.862 -1.2264 -2.2092 -2.2357
 4303TIP3   OH212872   0.903   6.644   0.945  0.2997 -0.1118 -0.5763
 4303TIP3    H112873   0.958   6.716   0.976  1.4740 -2.2534  2.8475
 4303TIP3    H212874   0.815   6.665   0.977  0.7916 -0.4903  1.1306
 4304TIP3   OH212875   2.917   6.786   0.373 -0.6624  0.2072 -0.4037
 4304TIP3    H112876   2.980   6.785   0.302 -1.8814  0.1587 -1.5208
 4304TIP3    H212877   2.943   6.714   0.430 -1.3448 -1.6756 -2.3483
 4305TIP3   OH212878   1.273   2.911   3.605 -0.3616 -0.4348 -0.2257
 4305TIP3    H112879   1.265   2.864   3.521  0.5488 -1.1024  0.0465
 4305TIP3    H212880   1.317   2.993   3.583 -0.0505 -0.6448 -0.3910
 4306TIP3   OH212881   4.114   4.511   5.895 -0.0936  0.3115  0.1620
 4306TIP3    H112882   4.188   4.538   5.841 -0.2567  1.1485  0.3373
 4306TIP3    H212883   4.061   4.456   5.837  0.0630  0.6765 -0.3412
 4307TIP3   OH212884   3.320   2.516   5.019 -0.2642 -0.2215  0.5477
 4307TIP3    H112885   3.359   2.564   4.946 -1.5238  0.2052  0.1325
 4307TIP3    H212886   3.299   2.430   4.983  1.6056 -0.9971  1.1789
 4308TIP3   OH212887   0.536   1.741   0.166  0.6410  0.2987 -0.1188
 4308TIP3    H112888   0.508   1.828   0.138  0.9425  0.5204  0.2500
 4308TIP3    H212889   0.631   1.742   0.154  1.0732  1.1105  2.7232
 4309TIP3   OH212890   6.400   0.397   5.221 -0.5044 -0.5014  0.0023
 4309TIP3    H112891   6.360   0.452   5.289  0.8085 -1.3766  1.5664
 4309TIP3    H212892   6.478   0.359   5.263  1.3733  0.2570 -2.5349
 4310TIP3   OH212893   4.718   4.712   4.747  0.3754  0.4649 -0.3151
 4310TIP3    H112894   4.628   4.738   4.767  0.8902  2.0049  0.1411
 4310TIP3    H212895   4.714   4.680   4.657 -0.4024  1.8377 -0.8036
 4311TIP3   OH212896   4.522   6.793   5.460  0.3659  0.2446  0.3016
 4311TIP3    H112897   4.601   6.777   5.409 -0.0900 -0.5793 -0.1696
 4311TIP3    H212898   4.502   6.709   5.501 -0.9813  0.0739 -0.6275
 4312TIP3   OH212899   6.973   5.291   0.924 -0.1672 -0.5953  0.1825
 4312TIP3    H112900   7.069   5.297   0.917 -0.0485 -0.7150  1.5631
 4312TIP3    H212901   6.944   5.381   0.940 -0.2603 -0.6061  0.0763
 4313TIP3   OH212902   3.743   3.318   1.391  0.3054  0.1234  0.1582
 4313TIP3    H112903   3.829   3.316   1.431 -0.6560  1.3779  2.4597
 4313TIP3    H212904   3.684   3.348   1.460 -1.9837 -0.5825 -1.3543
 4314TIP3   OH212905   5.371   6.177   0.570  0.3447  0.8931  0.0933
 4314TIP3    H112906   5.376   6.081   0.578  0.6047  1.0149  1.8058
 4314TIP3    H212907   5.312   6.191   0.497  1.1415 -0.5756 -0.8975
 4315TIP3   OH212908   4.499   3.817   3.106  0.2061 -0.4403  0.1201
 4315TIP3    H112909   4.568   3.850   3.049 -1.3987  0.5285 -1.3944
 4315TIP3    H212910   4.544   3.764   3.172  2.3832  0.4763 -0.5552
 4316TIP3   OH212911   1.376   6.465   2.720 -0.0869  0.3791  0.5482
 4316TIP3    H112912   1.282   6.480   2.707  0.1717  0.1056 -2.0698
 4316TIP3    H212913   1.413   6.552   2.733 -0.5031  0.6390  0.0108
 4317TIP3   OH212914   7.051   5.436   1.212  0.2154  0.3122 -0.2806
 4317TIP3    H112915   6.970   5.393   1.185 -1.0270  0.4622  2.8273
 4317TIP3    H212916   7.048   5.522   1.171 -1.1684  0.2689 -0.3064
 4318TIP3   OH212917   6.381   3.639   5.382 -0.0541  0.3721 -0.0818
 4318TIP3    H112918   6.300   3.589   5.381 -0.9803  1.7652  1.2570
 4318TIP3    H212919   6.429   3.604   5.458 -1.0801  1.9980  1.3789
 4319TIP3   OH212920   6.986   4.097   2.698  0.1649 -0.7043  0.4852
 4319TIP3    H112921   6.982   4.146   2.780  0.3133 -0.6383  0.4522
 4319TIP3    H212922   7.074   4.111   2.665 -0.3169  0.4468 -0.4005
 4320TIP3   OH212923   5.088   6.603   5.429  0.0459 -1.1755  0.0606
 4320TIP3    H112924   5.057   6.603   5.339  1.4556  0.1284 -0.4703
 4320TIP3    H212925   5.043   6.677   5.470  0.2930 -1.0395  0.0884
 4321TIP3   OH212926   6.761   2.010   3.989 -0.2317 -0.6412 -0.0610
 4321TIP3    H112927   6.735   2.102   3.984 -1.5787 -0.8726  1.5450
 4321TIP3    H212928   6.710   1.975   4.062  1.3004 -2.3345  0.2712
 4322TIP3   OH212929   2.859   1.242   5.341 -0.0828 -0.4664  0.2510
 4322TIP3    H112930   2.883   1.212   5.428 -2.0416  1.5679  1.5897
 4322TIP3    H212931   2.925   1.203   5.283  1.6284 -1.3947  2.6683
 4323TIP3   OH212932   3.224   1.766   4.112  0.0018  0.1545 -0.0063
 4323TIP3    H112933   3.220   1.862   4.110 -1.1810  0.2049  2.0416
 4323TIP3    H212934   3.315   1.747   4.133  0.2217  0.8277 -0.3152
 4324TIP3   OH212935   1.720   5.444   1.019 -0.2680  0.4352  0.8222
 4324TIP3    H112936   1.640   5.479   1.059 -1.9491 -1.8061 -0.4128
 4324TIP3    H212937   1.772   5.522   0.999 -1.9386  1.9426  1.9864
 4325TIP3   OH212938   1.042   1.066   3.514 -0.0355 -0.2738  0.1796
 4325TIP3    H112939   1.011   1.069   3.605  1.1207 -0.7282  0.6130
 4325TIP3    H212940   0.994   0.992   3.475 -0.1560 -0.4095  0.5736
 4326TIP3   OH212941   4.341   4.834   3.288  0.2645  0.4713 -0.0249
 4326TIP3    H112942   4.392   4.911   3.264  0.3997  0.3506 -0.1253
 4326TIP3    H212943   4.250   4.861   3.277  0.3256  0.4110 -0.6912
 4327TIP3   OH212944   5.926   5.714   4.798  0.4171 -0.0435 -0.1132
 4327TIP3    H112945   5.908   5.660   4.720 -0.2641  0.1539 -0.1054
 4327TIP3    H212946   5.839   5.735   4.831  0.6798  1.0368 -0.1006
 4328TIP3   OH212947   5.783   3.999   0.595 -0.3692  0.4316 -0.1452
 4328TIP3    H112948   5.709   3.945   0.568 -0.4192  0.8600 -0.8942
 4328TIP3    H212949   5.779   4.000   0.691 -0.6589 -0.4740 -0.1368
 4329TIP3   OH212950   2.832   2.425   1.431 -0.2043  0.0016  0.1140
 4329TIP3    H112951   2.831   2.470   1.515 -2.2156  0.4803 -0.1145
 4329TIP3    H212952   2.827   2.332   1.453  1.2419 -0.0004  0.5291
 4330TIP3   OH212953   2.807   0.851   4.844 -0.0205  0.2206  0.1255
 4330TIP3    H112954   2.880   0.855   4.782 -0.5192 -1.4938 -0.6483
 4330TIP3    H212955   2.767   0.937   4.840  0.7649  0.5635 -0.9580
 4331TIP3   OH212956   3.425   3.983   1.393 -0.4435  0.1013 -0.5067
 4331TIP3    H112957   3.408   4.056   1.334 -0.3711  0.0553 -0.5846
 4331TIP3    H212958   3.344   3.932   1.392 -0.8349  0.6826  0.2738
 4332TIP3   OH212959   5.046   5.342   0.755 -0.5629 -0.0541 -0.1814
 4332TIP3    H112960   5.039   5.274   0.821  0.2467  0.2505  0.2326
 4332TIP3    H212961   5.136   5.375   0.763 -0.5613  0.2357 -1.1895
 4333TIP3   OH212962   5.139   1.723   2.754  0.2645  0.4957  0.2664
 4333TIP3    H112963   5.200   1.797   2.764 -0.5246  1.1594  0.2873
 4333TIP3    H212964   5.196   1.646   2.748  1.1776  1.2579 -1.4843
 4334TIP3   OH212965   6.500   4.141   5.244  0.0491 -0.1132  0.2543
 4334TIP3    H112966   6.515   4.184   5.328 -2.0590  0.1476  0.5318
 4334TIP3    H212967   6.555   4.062   5.248 -1.6643 -1.3162  2.8714
 4335TIP3   OH212968   1.258   5.854   0.033  0.3540 -0.1872 -0.4913
 4335TIP3    H112969   1.177   5.895   0.065  1.2335 -0.3015  2.1544
 4335TIP3    H212970   1.290   5.915  -0.034 -0.9767  0.7894 -0.2939
 4336TIP3   OH212971   0.899   2.208   3.920 -0.4197  0.5492 -0.0363
 4336TIP3    H112972   0.808   2.228   3.903 -0.0430  1.5434 -0.9499
 4336TIP3    H212973   0.923   2.265   3.993 -1.0711 -1.2100  1.6293
 4337TIP3   OH212974   7.054   2.410   5.851  0.0173 -0.0592  0.1577
 4337TIP3    H112975   6.966   2.393   5.886 -0.3690  1.1788 -0.1438
 4337TIP3    H212976   7.079   2.329   5.808 -1.3379 -0.1601 -0.4914
 4338TIP3   OH212977   4.226   0.705   4.671  0.1977  0.3757 -0.1820
 4338TIP3    H112978   4.158   0.689   4.606 -0.6387 -1.9945  1.1242
 4338TIP3    H212979   4.181   0.698   4.755  1.9533 -1.0817  0.7270
 4339TIP3   OH212980   4.530   1.854   2.842 -0.3140 -0.8131  0.3032
 4339TIP3    H112981   4.502   1.909   2.769 -1.2622 -2.0250 -0.2730
 4339TIP3    H212982   4.510   1.906   2.920 -0.5373 -0.0676 -0.2415
 4340TIP3   OH212983   5.588   5.260   1.783 -0.2358  0.5097 -0.4215
 4340TIP3    H112984   5.601   5.318   1.858 -0.1073 -0.7417  0.5572
 4340TIP3    H212985   5.494   5.266   1.763 -0.9009 -1.3620  1.7689
 4341TIP3   OH212986   0.287   3.624   0.320 -0.2720  0.5289  0.3233
 4341TIP3    H112987   0.306   3.685   0.391  0.2319 -0.7627  1.3400
 4341TIP3    H212988   0.192   3.615   0.319 -0.4617  2.2343 -0.6574
 4342TIP3   OH212989   4.831   5.510   3.522 -0.0033 -0.0321  0.4027
 4342TIP3    H112990   4.816   5.589   3.470  0.6716 -0.9348 -1.2628
 4342TIP3    H212991   4.791   5.439   3.471  0.4549 -0.9302  1.2466
 4343TIP3   OH212992   3.128   3.760   1.154 -0.7602  0.1819 -0.8609
 4343TIP3    H112993   3.179   3.680   1.143 -0.2179  0.5457 -1.0404
 4343TIP3    H212994   3.123   3.798   1.066 -1.4494  0.0876 -0.8667
 4344TIP3   OH212995   0.526   2.194   0.403 -0.1571 -0.3424  0.4402
 4344TIP3    H112996   0.499   2.283   0.382  1.1060  0.3293  1.5045
 4344TIP3    H212997   0.581   2.167   0.330 -0.3778 -0.1659  0.2114
 4345TIP3   OH212998   0.803   5.449   1.833 -1.2302  0.8121 -0.1284
 4345TIP3    H112999   0.771   5.425   1.920 -0.9455  0.5931 -0.0819
 4345TIP3    H213000   0.863   5.378   1.809  1.6628  2.6576  1.1043
 4346TIP3   OH213001   5.452   2.183   2.670  0.3935  0.0366  0.1426
 4346TIP3    H113002   5.538   2.226   2.670  0.3175  0.2241  1.1360
 4346TIP3    H213003   5.390   2.253   2.648  0.4411  0.0319 -0.0061
 4347TIP3   OH213004   5.448   5.731   4.725  0.5048  0.2597  0.3341
 4347TIP3    H113005   5.528   5.723   4.778 -0.5483 -0.9606  1.8671
 4347TIP3    H213006   5.386   5.673   4.769 -1.5449  1.9221 -0.2192
 4348TIP3   OH213007   2.157   1.895   0.514 -0.5465  0.2844  0.2070
 4348TIP3    H113008   2.146   1.810   0.471 -1.6934 -0.9876  2.7728
 4348TIP3    H213009   2.071   1.937   0.508 -0.7340  0.0750  1.2058
 4349TIP3   OH213010   5.977   3.476   1.551  0.1560  0.0215  0.1424
 4349TIP3    H113011   5.931   3.518   1.479  1.1813  1.4795  0.2964
 4349TIP3    H213012   5.914   3.412   1.585 -1.1810  0.8838 -0.5971
 4350TIP3   OH213013   0.135   0.499   3.379  0.4733 -0.2453 -0.4411
 4350TIP3    H113014   0.208   0.441   3.401  2.0442  1.3620 -1.1732
 4350TIP3    H213015   0.093   0.457   3.304  0.0853 -1.6189  0.5086
 4351TIP3   OH213016   6.862   1.830   5.690 -0.0803 -0.5627 -0.0884
 4351TIP3    H113017   6.810   1.782   5.755 -1.2630  1.2149  0.3402
 4351TIP3    H213018   6.905   1.900   5.739  0.0674  0.0075 -1.0028
 4352TIP3   OH213019   0.670   6.190   0.467  0.3482  0.0232  0.0258
 4352TIP3    H113020   0.596   6.204   0.527  0.9903  2.8849  0.2916
 4352TIP3    H213021   0.742   6.239   0.506  1.1471  0.9524 -2.4176
 4353TIP3   OH213022   3.051   5.987   2.791 -0.6874 -0.1919  0.7790
 4353TIP3    H113023   3.056   5.916   2.855  1.0043  0.2538  1.1980
 4353TIP3    H213024   2.989   6.049   2.828 -0.3075 -0.3060  1.6223
 4354TIP3   OH213025   5.451   5.948   0.306 -0.1356 -0.0374 -0.1510
 4354TIP3    H113026   5.359   5.921   0.297 -0.4772  0.6108  1.1477
 4354TIP3    H213027   5.447   6.038   0.336  0.9731  0.5536 -1.6721
 4355TIP3   OH213028   5.277   1.015   4.081 -0.4574 -0.3050 -0.3711
 4355TIP3    H113029   5.245   0.931   4.115  0.0147 -0.6937 -0.8536
 4355TIP3    H213030   5.199   1.071   4.077 -1.0822 -1.1978 -1.4304
 4356TIP3   OH213031   2.964   2.400   2.073 -0.0419  0.1851  0.8470
 4356TIP3    H113032   2.896   2.359   2.127  0.1590 -0.8461  0.3302
 4356TIP3    H213033   2.916   2.444   2.003 -0.1760 -2.9799 -1.2615
 4357TIP3   OH213034   0.834   5.573   0.326 -0.5731 -0.5449  0.1862
 4357TIP3    H113035   0.832   5.545   0.417 -1.7436 -0.8795  0.0683
 4357TIP3    H213036   0.919   5.616   0.317 -0.9750  0.7059  1.8038
 4358TIP3   OH213037   5.308   4.525   5.707  0.6084 -0.0658  0.7200
 4358TIP3    H113038   5.392   4.566   5.729  0.1166  0.1359  2.2825
 4358TIP3    H213039   5.258   4.526   5.788 -0.8003 -0.4854 -0.1092
 4359TIP3   OH213040   4.807   4.776   4.030 -0.3474  0.6469 -0.5036
 4359TIP3    H113041   4.774   4.808   4.114  0.8461 -0.2152  0.3355
 4359TIP3    H213042   4.794   4.848   3.969  0.0291  1.8104  0.7568
 4360TIP3   OH213043   2.640   2.990   4.438  0.5359 -0.3409 -0.0495
 4360TIP3    H113044   2.723   3.025   4.405  0.1664  0.4253 -0.1999
 4360TIP3    H213045   2.665   2.912   4.488  1.6521  1.3393  2.2122
 4361TIP3   OH213046   1.681   6.629   0.031 -0.6006 -0.3551 -0.0571
 4361TIP3    H113047   1.682   6.534   0.037  0.8756 -0.5291 -2.1170
 4361TIP3    H213048   1.665   6.648  -0.062 -1.0331  1.4159  0.3345
 4362TIP3   OH213049   4.074   1.973   5.531  0.1087 -0.3606  0.4651
 4362TIP3    H113050   4.121   1.894   5.502 -0.5446 -0.5239 -0.1824
 4362TIP3    H213051   4.071   2.029   5.453 -0.4262 -0.1892  0.6036
 4363TIP3   OH213052   1.609   6.128   3.772 -0.5500  0.0668  0.2553
 4363TIP3    H113053   1.671   6.138   3.700  0.1651 -0.2178  0.8223
 4363TIP3    H213054   1.527   6.105   3.729  0.1971 -1.5259 -0.4069
 4364TIP3   OH213055   3.286   3.201   1.108  0.1459  0.6347 -0.2522
 4364TIP3    H113056   3.243   3.156   1.181  3.0517  0.8103  1.7574
 4364TIP3    H213057   3.373   3.162   1.104  0.4356  1.3523 -3.0492
 4365TIP3   OH213058   0.751   3.437   5.631  0.1305 -0.0488 -0.1741
 4365TIP3    H113059   0.671   3.390   5.608  0.7607 -1.7978  0.9861
 4365TIP3    H213060   0.820   3.394   5.580  0.8886 -1.2394  1.7015
 4366TIP3   OH213061   7.035   4.551   4.117 -0.2992 -0.5200  0.0326
 4366TIP3    H113062   6.949   4.586   4.138  0.0236  0.1499  0.2882
 4366TIP3    H213063   7.073   4.528   4.201  0.4796  0.9183  0.1022
 4367TIP3   OH213064   0.335   0.712   1.970  0.5010 -0.6624  0.3650
 4367TIP3    H113065   0.261   0.700   2.030 -0.8474  0.2225 -1.0223
 4367TIP3    H213066   0.366   0.624   1.952  0.3250 -1.0024  1.6161
 4368TIP3   OH213067   6.420   5.485   1.960 -0.3538 -0.1482 -0.1893
 4368TIP3    H113068   6.385   5.433   2.033  1.3311 -2.0004 -0.5852
 4368TIP3    H213069   6.400   5.433   1.882 -1.3010  1.3446 -0.9851
 4369TIP3   OH213070   5.102   4.140   5.006 -0.1833 -0.6118  0.3352
 4369TIP3    H113071   5.009   4.136   5.027 -0.3162 -0.1111 -0.1358
 4369TIP3    H213072   5.105   4.164   4.913  0.4205 -0.0297  0.4963
 4370TIP3   OH213073   3.533   1.467   2.802 -0.0963 -0.0335 -0.0845
 4370TIP3    H113074   3.528   1.410   2.878  1.7232 -1.5271 -0.9931
 4370TIP3    H213075   3.445   1.468   2.766 -0.4140 -1.3666  0.6057
 4371TIP3   OH213076   5.177   3.265   3.948 -0.3976  0.1419  0.4023
 4371TIP3    H113077   5.104   3.242   3.889 -2.8722 -0.9144  3.5929
 4371TIP3    H213078   5.179   3.195   4.012  1.9942  1.3443  1.7710
 4372TIP3   OH213079   2.601   6.207   3.729 -0.5374 -0.4786  0.0297
 4372TIP3    H113080   2.591   6.115   3.702 -2.3572 -0.2167 -0.3589
 4372TIP3    H213081   2.649   6.248   3.658 -0.9270 -0.8554 -0.4608
 4373TIP3   OH213082   1.638   0.520   3.875 -0.4263  0.2541 -0.1919
 4373TIP3    H113083   1.579   0.446   3.886 -1.8468  1.1326 -1.4678
 4373TIP3    H213084   1.717   0.496   3.925 -1.3661 -1.4871  0.5412
 4374TIP3   OH213085   4.244   1.823   3.938 -0.1680 -0.1054  0.2683
 4374TIP3    H113086   4.322   1.866   3.971  0.1492  0.9403 -1.7097
 4374TIP3    H213087   4.203   1.785   4.015  1.4524  0.6724  1.5625
 4375TIP3   OH213088   4.969   5.303   0.223 -0.1847 -0.1234  0.5519
 4375TIP3    H113089   4.881   5.312   0.260 -0.7987 -1.8803 -0.3809
 4375TIP3    H213090   5.011   5.236   0.277  0.8499  1.1397  1.3879
 4376TIP3   OH213091   6.797   1.011   4.645 -0.4887  0.1636 -0.5651
 4376TIP3    H113092   6.845   0.946   4.697 -0.4899  0.4537 -0.1933
 4376TIP3    H213093   6.784   1.085   4.705  0.0278  0.7499 -1.1649
 4377TIP3   OH213094   5.534   0.264   1.317  0.1405 -0.2770  0.2511
 4377TIP3    H113095   5.602   0.323   1.284 -0.0796 -0.7038 -1.0259
 4377TIP3    H213096   5.509   0.301   1.402 -0.3834  1.8140 -0.7578
 4378TIP3   OH213097   6.527   6.599   4.041 -0.1194  0.1884  0.3485
 4378TIP3    H113098   6.581   6.527   4.073 -0.6146 -0.0207  0.7244
 4378TIP3    H213099   6.439   6.579   4.072 -0.3586  0.6870  0.0083
 4379TIP3   OH213100   0.236   5.490   0.207 -0.2838 -0.0637 -0.0707
 4379TIP3    H113101   0.302   5.553   0.178 -1.0867 -0.0024 -1.8959
 4379TIP3    H213102   0.280   5.405   0.201  0.0773  0.1078  0.1194
 4380TIP3   OH213103   4.703   1.045   3.018 -0.9114 -0.2176  0.1014
 4380TIP3    H113104   4.779   1.099   3.041 -1.8026  0.3544  1.8232
 4380TIP3    H213105   4.629   1.105   3.021 -1.3809 -0.5362 -2.5623
 4381TIP3   OH213106   4.348   6.606   3.158  0.3151  0.3238  0.2845
 4381TIP3    H113107   4.362   6.548   3.084  3.3801  2.1558 -0.7881
 4381TIP3    H213108   4.360   6.551   3.235  3.0055 -0.6014 -0.6815
 4382TIP3   OH213109   5.374   5.360   3.071 -0.0098  0.2802 -0.1201
 4382TIP3    H113110   5.403   5.432   3.126  1.5579  0.5003 -1.1742
 4382TIP3    H213111   5.286   5.339   3.103 -0.1825  2.1216  0.7132
 4383TIP3   OH213112   4.404   0.458   4.542 -0.3962 -0.3520  0.3065
 4383TIP3    H113113   4.331   0.511   4.575  0.1731 -0.7889  2.4100
 4383TIP3    H213114   4.421   0.493   4.454 -1.1977  1.7573  0.9251
 4384TIP3   OH213115   5.678   3.691   5.408 -0.2467 -0.0218  0.2690
 4384TIP3    H113116   5.637   3.733   5.332  1.6666  1.6654  0.0896
 4384TIP3    H213117   5.608   3.637   5.446 -1.7460  0.4299 -1.6771
 4385TIP3   OH213118   6.770   5.475   5.731  0.3069  0.0601  0.4722
 4385TIP3    H113119   6.737   5.389   5.704 -0.0069  0.1390  0.6049
 4385TIP3    H213120   6.744   5.533   5.660  1.1827 -0.0923  0.0161
 4386TIP3   OH213121   2.050   0.060   0.279  0.3319  0.2305  0.0969
 4386TIP3    H113122   2.100   0.080   0.200 -0.2320 -1.2830 -0.6827
 4386TIP3    H213123   1.964   0.033   0.246 -0.6872  1.7183  1.3508
 4387TIP3   OH213124   4.274   0.228   2.119 -0.2200 -0.0786  0.1380
 4387TIP3    H113125   4.219   0.242   2.196 -1.6173  0.3773 -0.9010
 4387TIP3    H213126   4.312   0.314   2.102 -0.2878 -0.0684  0.0398
 4388TIP3   OH213127   1.836   4.064   1.532  0.3205 -0.2860 -0.6528
 4388TIP3    H113128   1.866   4.111   1.454 -0.2998 -0.4544 -1.0025
 4388TIP3    H213129   1.743   4.051   1.517  0.7353 -3.1480 -1.4022
 4389TIP3   OH213130   3.275   0.491   1.564 -0.0323 -0.2242 -0.0924
 4389TIP3    H113131   3.210   0.452   1.623  0.1708  0.4252  0.5649
 4389TIP3    H213132   3.347   0.515   1.621  0.8845 -1.1046 -0.8443
 4390TIP3   OH213133   2.486   6.007   2.283 -0.1465 -0.6245  0.3977
 4390TIP3    H113134   2.519   5.952   2.354 -0.7260 -1.2124  0.2173
 4390TIP3    H213135   2.562   6.058   2.255  0.4729 -1.5421  0.3713
 4391TIP3   OH213136   5.297   2.196   1.050  0.2248 -0.0132 -0.0268
 4391TIP3    H113137   5.351   2.119   1.033  0.1573  0.0196 -0.4152
 4391TIP3    H213138   5.228   2.165   1.108  0.2084 -0.2435 -0.1683
 4392TIP3   OH213139   3.731   5.365   2.720  0.4242  0.3257  0.0199
 4392TIP3    H113140   3.777   5.445   2.743  1.0637  0.4929 -1.6679
 4392TIP3    H213141   3.793   5.316   2.667 -0.7988 -0.1255 -1.0662
 4393TIP3   OH213142   1.706   4.980   5.202  0.4604 -0.5708 -0.0694
 4393TIP3    H113143   1.720   5.063   5.157  0.6278 -0.8804 -0.5923
 4393TIP3    H213144   1.769   4.981   5.275  0.3113 -0.1503  0.0545
 4394TIP3   OH213145   5.266   0.679   3.895 -0.2267  0.0670  0.0117
 4394TIP3    H113146   5.185   0.660   3.847  0.3460 -1.7447 -0.3020
 4394TIP3    H213147   5.333   0.627   3.851  1.2829  1.9999 -0.1372
 4395TIP3   OH213148   4.379   6.013   4.306 -0.3434 -0.3676  0.4537
 4395TIP3    H113149   4.358   5.924   4.335 -0.2898 -0.2862  0.7408
 4395TIP3    H213150   4.450   6.041   4.363 -0.7783  0.0972  0.7798
 4396TIP3   OH213151   1.184   2.069   1.736  0.0008  0.3553 -0.3445
 4396TIP3    H113152   1.260   2.012   1.748 -0.1223  0.3587  0.4618
 4396TIP3    H213153   1.185   2.089   1.642  1.8302  1.5236 -0.1464
 4397TIP3   OH213154   1.964   0.132   4.884 -0.1997 -0.1230 -0.2619
 4397TIP3    H113155   1.936   0.223   4.869 -0.9797 -0.4065 -0.5461
 4397TIP3    H213156   1.946   0.087   4.801  2.7856  0.0628 -1.1217
 4398TIP3   OH213157   6.750   1.829   4.452 -0.2796 -0.3426  0.3362
 4398TIP3    H113158   6.696   1.749   4.453  0.5681 -0.9260  0.9304
 4398TIP3    H213159   6.728   1.872   4.535 -0.8558  0.1402 -0.0569
 4399TIP3   OH213160   1.411   0.877   5.617  0.0704 -0.5521 -0.1570
 4399TIP3    H113161   1.366   0.853   5.536  0.5887  0.5795 -0.7994
 4399TIP3    H213162   1.488   0.926   5.589 -1.3190  2.5982  1.0061
 4400TIP3   OH213163   1.931   3.415   4.055 -0.2594  0.3930 -0.3368
 4400TIP3    H113164   1.945   3.365   3.974  1.5959  1.5751 -0.7987
 4400TIP3    H213165   2.016   3.455   4.074 -0.5127 -0.2704  2.5308
 4401TIP3   OH213166   4.317   5.821   0.637  0.4934 -0.4591 -0.8007
 4401TIP3    H113167   4.407   5.849   0.623  0.7806 -2.0087 -2.3822
 4401TIP3    H213168   4.275   5.896   0.679  1.9746  1.0862 -1.9301
 4402TIP3   OH213169   6.925   2.176   3.296 -0.3153  0.4141  0.1057
 4402TIP3    H113170   6.991   2.228   3.343  1.9668 -0.5596 -1.7780
 4402TIP3    H213171   6.940   2.198   3.203 -1.0589 -1.5837 -0.5260
 4403TIP3   OH213172   1.346   3.525   4.986 -0.0027  1.0537  0.1286
 4403TIP3    H113173   1.387   3.604   5.021 -0.1023  1.1618  0.0032
 4403TIP3    H213174   1.295   3.490   5.060 -0.5855  1.5377 -0.0327
 4404TIP3   OH213175   3.391   6.444   2.718  0.0136  0.2115  0.7968
 4404TIP3    H113176   3.360   6.484   2.799  0.0026 -0.2462  1.0221
 4404TIP3    H213177   3.433   6.363   2.746 -1.6256 -0.9081  0.2146
 4405TIP3   OH213178   1.045   4.048   3.003 -0.1706  0.5019  0.2576
 4405TIP3    H113179   1.086   3.983   3.060 -0.2389  0.4413  0.2369
 4405TIP3    H213180   0.965   4.007   2.973 -0.0299  0.4528 -0.0536
 4406TIP3   OH213181   6.632   4.761   5.517 -0.8006  0.0460  0.4771
 4406TIP3    H113182   6.699   4.711   5.563  0.0392  2.0011  1.5035
 4406TIP3    H213183   6.679   4.806   5.447 -0.9518  1.6004  1.3325
 4407TIP3   OH213184   0.928   5.022   3.011  0.5240 -0.1408 -0.5006
 4407TIP3    H113185   0.887   5.059   2.932  0.1816 -0.5108 -0.4988
 4407TIP3    H213186   0.925   5.093   3.075  0.3914  0.0143 -0.6782
 4408TIP3   OH213187   4.437   0.289   0.709  0.7729  0.3376 -0.2252
 4408TIP3    H113188   4.410   0.286   0.800  0.2806  1.3031 -0.3186
 4408TIP3    H213189   4.475   0.203   0.691 -2.3799 -1.1942 -0.1322
 4409TIP3   OH213190   3.657   6.145   5.806  0.0163  0.0771  0.4092
 4409TIP3    H113191   3.662   6.240   5.813  1.7827 -0.0674  2.0984
 4409TIP3    H213192   3.590   6.129   5.739 -1.9089  2.4623  1.5895
 4410TIP3   OH213193   2.003   2.053   2.323 -1.1190 -0.7655  0.1622
 4410TIP3    H113194   2.093   2.083   2.311 -1.7111  0.3838 -1.9683
 4410TIP3    H213195   2.009   1.958   2.318 -0.2576 -0.6583 -2.6369
 4411TIP3   OH213196   3.874   3.048   2.415  0.3212 -0.0469  0.2318
 4411TIP3    H113197   3.841   3.109   2.480 -1.2964  0.0451 -0.6246
 4411TIP3    H213198   3.850   2.961   2.448 -0.8173  0.0186 -0.3788
 4412TIP3   OH213199   1.807   0.740   2.762 -0.0988  0.2146 -0.3626
 4412TIP3    H113200   1.872   0.778   2.703 -0.2114 -1.4650 -1.6401
 4412TIP3    H213201   1.850   0.664   2.800 -0.4872  0.5210  0.7396
 4413TIP3   OH213202   1.517   3.315   2.664  0.0656  0.6333 -0.1538
 4413TIP3    H113203   1.554   3.270   2.740 -2.0890 -0.2487  0.4447
 4413TIP3    H213204   1.476   3.393   2.701 -1.0453  0.1678 -0.3794
 4414TIP3   OH213205   1.490   3.381   5.781  0.1720 -0.5087 -0.4205
 4414TIP3    H113206   1.549   3.424   5.843 -0.5818 -0.8102  0.5429
 4414TIP3    H213207   1.548   3.329   5.724  0.8801 -0.2815  0.0776
 4415TIP3   OH213208   7.135   2.185   4.338  0.2339 -0.4824  0.0948
 4415TIP3    H113209   7.113   2.276   4.353  0.0097 -0.5247  0.0220
 4415TIP3    H213210   7.071   2.136   4.389  0.1207 -0.6070 -0.1654
 4416TIP3   OH213211   3.177   1.684   3.072  0.4055  0.1196  0.0419
 4416TIP3    H113212   3.104   1.674   3.011 -1.8552 -0.0203  2.5709
 4416TIP3    H213213   3.188   1.778   3.081  2.2246  0.2130 -2.0351
 4417TIP3   OH213214   3.931   4.267   5.049 -0.0894  0.3403 -0.5127
 4417TIP3    H113215   3.921   4.181   5.007  0.7462  0.4148 -0.8921
 4417TIP3    H213216   3.921   4.329   4.977 -0.8297  0.5754 -0.2141
 4418TIP3   OH213217   4.216   3.254   0.911  0.5408 -0.4400  0.6699
 4418TIP3    H113218   4.146   3.300   0.957 -2.4002 -2.5900 -1.2229
 4418TIP3    H213219   4.277   3.322   0.885 -2.1995  2.0560  0.2251
 4419TIP3   OH213220   2.085   2.197   2.810 -0.0641  0.1753  0.5604
 4419TIP3    H113221   2.012   2.259   2.800 -1.6278 -1.7721 -0.7773
 4419TIP3    H213222   2.160   2.252   2.834 -1.6525  2.4169  0.6781
 4420TIP3   OH213223   0.323   2.077   1.632  0.2648  0.1108  0.6789
 4420TIP3    H113224   0.382   2.071   1.557  0.6348 -2.0474  1.0934
 4420TIP3    H213225   0.367   2.028   1.701 -1.4640 -0.5181  1.3813
 4421TIP3   OH213226   6.350   0.736   2.717 -0.0252 -0.0141  0.0917
 4421TIP3    H113227   6.396   0.715   2.636 -2.0310 -0.1610 -1.0822
 4421TIP3    H213228   6.301   0.657   2.738 -0.1620  0.3016  1.0082
 4422TIP3   OH213229   2.363   3.420   1.413  0.2480 -0.3706 -0.8795
 4422TIP3    H113230   2.410   3.356   1.361  0.9574 -0.0777 -0.6033
 4422TIP3    H213231   2.429   3.484   1.439 -0.3544  0.2175 -0.7509
 4423TIP3   OH213232   4.397   3.197   1.692 -0.3018  0.1413 -0.3971
 4423TIP3    H113233   4.412   3.159   1.778  1.1955 -2.1612 -1.5937
 4423TIP3    H213234   4.467   3.261   1.681  1.0083 -1.3155 -0.8206
 4424TIP3   OH213235   3.880   4.813   2.307  0.0265 -0.1902 -0.0573
 4424TIP3    H113236   3.960   4.770   2.336 -0.1538 -1.2735 -1.1004
 4424TIP3    H213237   3.827   4.742   2.269 -1.5277  0.4489  0.8026
 4425TIP3   OH213238   1.969   4.574   5.704  0.0261 -0.2338 -0.2438
 4425TIP3    H113239   1.905   4.611   5.764  0.2247  1.2698 -0.9135
 4425TIP3    H213240   2.018   4.510   5.756  0.9198  1.8013  1.5274
 4426TIP3   OH213241   4.321   2.951   4.049  0.0038  0.1135 -0.2248
 4426TIP3    H113242   4.309   2.866   4.093  0.8991 -0.0689 -0.3073
 4426TIP3    H213243   4.400   2.939   3.996 -1.3446  0.1419 -2.3580
 4427TIP3   OH213244   4.536   0.116   3.633  0.6735 -0.5954  0.2578
 4427TIP3    H113245   4.630   0.111   3.616  0.5616  1.1034 -1.1067
 4427TIP3    H213246   4.525   0.194   3.687 -0.0692 -0.0871 -0.6096
 4428TIP3   OH213247   6.825   6.475   4.019 -0.3600  0.1687 -0.2069
 4428TIP3    H113248   6.773   6.398   3.996 -0.2333  0.1737 -0.5096
 4428TIP3    H213249   6.825   6.476   4.115 -1.2302  0.3863 -0.2015
 4429TIP3   OH213250   6.085   4.335   1.717  0.2478  0.1042 -0.3297
 4429TIP3    H113251   5.998   4.304   1.739  0.6459 -0.8316 -0.0426
 4429TIP3    H213252   6.128   4.348   1.801  0.4197  0.4781 -0.4711
 4430TIP3   OH213253   0.767   1.054   0.959 -0.1147 -0.0781  0.2029
 4430TIP3    H113254   0.742   1.105   0.882  1.0184  0.8023  0.3728
 4430TIP3    H213255   0.863   1.064   0.963 -0.1326 -0.2737  1.5952
 4431TIP3   OH213256   0.211   0.089   3.138  0.6157 -0.4264 -0.5261
 4431TIP3    H113257   0.185   0.011   3.089  2.1246 -1.6383  0.5007
 4431TIP3    H213258   0.307   0.088   3.136  0.6967  0.4009  1.0129
 4432TIP3   OH213259   5.409   3.895   0.198 -0.5440  0.2227  0.0817
 4432TIP3    H113260   5.494   3.850   0.199 -1.0787 -0.8031  1.1171
 4432TIP3    H213261   5.345   3.825   0.184 -1.2539  0.9293 -0.2522
 4433TIP3   OH213262   3.271   4.670   0.529  0.1811  0.1664  0.0603
 4433TIP3    H113263   3.238   4.756   0.503 -0.2467 -0.2815 -0.9224
 4433TIP3    H213264   3.327   4.688   0.605  0.9172  1.4417 -0.7461
 4434TIP3   OH213265   1.764   6.465   5.644 -0.1916  0.1838  0.7066
 4434TIP3    H113266   1.831   6.458   5.712  1.9443  0.4603 -1.2331
 4434TIP3    H213267   1.709   6.538   5.673  1.4687  1.1836  1.4929
 4435TIP3   OH213268   5.172   5.430   3.874 -0.3093 -0.0303 -0.2000
 4435TIP3    H113269   5.169   5.359   3.811  0.6931 -0.1563 -0.1087
 4435TIP3    H213270   5.255   5.419   3.920 -1.2458 -0.2857  1.5489
 4436TIP3   OH213271   2.353   0.366   4.319  0.0587 -0.5285  0.4467
 4436TIP3    H113272   2.268   0.327   4.340 -0.3117 -1.0006 -1.6709
 4436TIP3    H213273   2.370   0.426   4.391 -2.0479 -0.4833  0.9817
 4437TIP3   OH213274   4.953   6.495   3.775 -0.0184 -0.1183  0.0812
 4437TIP3    H113275   4.912   6.468   3.858  0.3829 -0.2698  0.2322
 4437TIP3    H213276   4.879   6.522   3.720 -0.1894  1.1949  0.9198
 4438TIP3   OH213277   2.427   4.849   1.845 -0.2312  0.4211 -0.2453
 4438TIP3    H113278   2.431   4.823   1.753  2.0574  0.0550 -0.1023
 4438TIP3    H213279   2.427   4.767   1.893 -0.1323  0.6228  0.1000
 4439TIP3   OH213280   1.437   3.008   1.851  0.0505 -0.3919  0.1142
 4439TIP3    H113281   1.527   2.989   1.878  0.1458 -0.1660 -0.0372
 4439TIP3    H213282   1.382   2.964   1.916  0.2700 -0.5879  0.1688
 4440TIP3   OH213283   4.690   0.422   1.909  0.1515  0.2302  0.0067
 4440TIP3    H113284   4.763   0.463   1.863 -0.5239  0.6273 -0.7470
 4440TIP3    H213285   4.650   0.494   1.958 -0.4926  0.2909 -0.5967
 4441TIP3   OH213286   2.471   4.402   2.356  0.1934  1.1276 -0.5163
 4441TIP3    H113287   2.381   4.371   2.369  0.4472  0.5243 -0.1814
 4441TIP3    H213288   2.504   4.350   2.283  0.4480  0.9669 -0.2891
 4442TIP3   OH213289   3.846   3.159   0.051 -0.1088  0.0643  0.1466
 4442TIP3    H113290   3.870   3.074   0.087 -0.4808  0.7139  2.0590
 4442TIP3    H213291   3.752   3.168   0.070 -1.0498 -0.6039 -3.3528
 4443TIP3   OH213292   3.341   6.471   1.667 -0.7110  0.2157 -0.0451
 4443TIP3    H113293   3.315   6.515   1.748 -0.6914 -2.1214  1.3450
 4443TIP3    H213294   3.358   6.541   1.605  0.4347  2.1690  2.3245
 4444TIP3   OH213295   5.341   1.637   3.037 -0.2921 -0.0046  0.1643
 4444TIP3    H113296   5.432   1.613   3.057  0.6930  3.3924  0.3465
 4444TIP3    H213297   5.318   1.581   2.962  2.2986 -0.3355 -0.4865
 4445TIP3   OH213298   6.513   0.729   3.019 -0.1707  0.4826  0.0331
 4445TIP3    H113299   6.566   0.682   2.955  0.7485  0.0943  1.0537
 4445TIP3    H213300   6.571   0.798   3.053  0.3781 -1.0054  2.4157
 4446TIP3   OH213301   5.445   0.283   4.838  0.3112 -0.1321  0.5331
 4446TIP3    H113302   5.509   0.245   4.898  0.4180 -0.4326  0.2348
 4446TIP3    H213303   5.360   0.261   4.876  0.3588  1.8480  1.9113
 4447TIP3   OH213304   1.423   2.496   3.208 -0.1083 -0.5519  0.0205
 4447TIP3    H113305   1.392   2.546   3.284 -0.0197  1.3832 -1.1485
 4447TIP3    H213306   1.366   2.419   3.205 -0.5192 -0.3507  1.6709
 4448TIP3   OH213307   2.574   3.273   4.096 -0.0474  0.0942  0.0459
 4448TIP3    H113308   2.546   3.206   4.159  1.0493 -0.7739 -0.3655
 4448TIP3    H213309   2.651   3.235   4.054 -0.0413  1.1866 -0.9501
 4449TIP3   OH213310   5.185   4.098   1.157 -0.4366 -0.0610  0.7900
 4449TIP3    H113311   5.194   4.158   1.231 -0.7072  0.7617  0.1712
 4449TIP3    H213312   5.187   4.155   1.080 -0.3887 -0.8815  0.1739
 4450TIP3   OH213313   3.084   6.588   2.458  0.5191  0.5349 -0.2555
 4450TIP3    H113314   3.030   6.666   2.468  1.0223  1.0477 -1.4614
 4450TIP3    H213315   3.171   6.614   2.488  0.6257  0.3471 -0.3982
 4451TIP3   OH213316   7.086   3.637   3.900 -0.8012 -0.2376  0.2613
 4451TIP3    H113317   7.102   3.712   3.957  2.5376  0.5076 -1.3736
 4451TIP3    H213318   7.026   3.670   3.834  1.4589  1.5508 -1.0790
 4452TIP3   OH213319   4.616   6.542   4.357 -0.1835 -0.5309 -0.5666
 4452TIP3    H113320   4.641   6.450   4.364  0.4949 -0.2271  2.4021
 4452TIP3    H213321   4.691   6.590   4.393 -1.0474  1.0800 -0.8293
 4453TIP3   OH213322   4.299   2.908   2.875 -0.4318  0.0633 -0.7345
 4453TIP3    H113323   4.215   2.938   2.840 -0.7035  0.9920  0.6364
 4453TIP3    H213324   4.279   2.823   2.914 -0.5831 -0.0179 -0.9829
 4454TIP3   OH213325   0.375   6.608   1.584 -0.0823  0.1051  0.2640
 4454TIP3    H113326   0.340   6.546   1.521 -0.0929 -1.3092  1.5981
 4454TIP3    H213327   0.396   6.686   1.532 -0.8810 -0.6776 -1.3121
 4455TIP3   OH213328   3.667   1.455   4.554 -0.0228  0.1548  0.4205
 4455TIP3    H113329   3.683   1.369   4.515 -2.4279 -0.6151  1.0019
 4455TIP3    H213330   3.575   1.473   4.537  0.4298  2.6720  0.2733
 4456TIP3   OH213331   6.621   4.375   1.908  0.2644  0.3327  0.2771
 4456TIP3    H113332   6.707   4.341   1.883 -0.1528 -0.2018 -0.4663
 4456TIP3    H213333   6.584   4.411   1.827  0.9202  3.1686  1.1179
 4457TIP3   OH213334   3.108   4.654   5.304  0.2220 -0.3490  0.4547
 4457TIP3    H113335   3.177   4.654   5.370  1.0527 -0.6309 -0.3870
 4457TIP3    H213336   3.035   4.607   5.345 -0.2545  1.7272  2.1175
 4458TIP3   OH213337   3.798   5.212   1.782 -0.5329  0.5928 -0.3053
 4458TIP3    H113338   3.817   5.302   1.808  1.8649 -0.0075  0.2740
 4458TIP3    H213339   3.863   5.192   1.715  0.4148 -1.3544  1.1021
 4459TIP3   OH213340   0.137   0.546   0.125 -1.0908  0.4837 -0.4297
 4459TIP3    H113341   0.069   0.496   0.080 -0.1380 -1.3511  0.0398
 4459TIP3    H213342   0.146   0.503   0.210 -0.5362  1.7795  0.1878
 4460TIP3   OH213343   0.929   6.545   1.661 -0.3670 -0.4139  0.1157
 4460TIP3    H113344   0.999   6.501   1.612 -0.0974 -0.7781  0.8265
 4460TIP3    H213345   0.880   6.474   1.702  0.8512 -0.0677  2.3523
 4461TIP3   OH213346   4.211   4.916   2.589  0.0428 -0.2340  0.5877
 4461TIP3    H113347   4.238   5.000   2.551  0.3755 -0.5382  0.1465
 4461TIP3    H213348   4.238   4.921   2.680  2.7925 -1.0275 -0.0989
 4462TIP3   OH213349   2.084   2.056   5.303 -0.2416  0.1284 -0.3810
 4462TIP3    H113350   2.053   1.989   5.242 -0.2361  0.2894 -0.5596
 4462TIP3    H213351   2.074   2.138   5.255 -0.4808  0.2807 -0.0733
 4463TIP3   OH213352   4.493   1.707   1.237 -0.0877  0.1228  0.1056
 4463TIP3    H113353   4.405   1.741   1.219 -0.3595  0.1148  1.3153
 4463TIP3    H213354   4.486   1.613   1.222 -0.7498 -0.1241  1.7437
 4464TIP3   OH213355   6.061   3.756   5.656  0.3320 -0.2666  0.8809
 4464TIP3    H113356   6.049   3.686   5.592  0.0994  1.8803 -1.6164
 4464TIP3    H213357   6.151   3.786   5.643  0.7023 -0.5685  2.4963
 4465TIP3   OH213358   1.627   1.448   1.180  0.3072 -0.1544 -0.2979
 4465TIP3    H113359   1.675   1.398   1.246 -0.4227  0.9939  1.1610
 4465TIP3    H213360   1.652   1.407   1.097  0.9462 -1.9080  0.6883
 4466TIP3   OH213361   0.721   4.666   0.424  0.1349  0.7738 -0.1468
 4466TIP3    H113362   0.793   4.623   0.470  0.3063 -0.2818 -1.3248
 4466TIP3    H213363   0.757   4.688   0.338 -0.6975  0.9809 -0.4551
 4467TIP3   OH213364   6.245   4.869   5.127 -1.0254  0.0981 -0.2445
 4467TIP3    H113365   6.332   4.891   5.160 -1.2845  0.3397  0.2985
 4467TIP3    H213366   6.257   4.854   5.033 -0.6359  1.4344 -0.4246
 4468TIP3   OH213367   5.338   6.160   2.579 -0.0539 -0.3298  0.3037
 4468TIP3    H113368   5.423   6.118   2.591  1.0137  1.8630  0.8713
 4468TIP3    H213369   5.301   6.167   2.667  0.6684  1.5768  0.5045
 4469TIP3   OH213370   0.423   2.687   0.855  0.0536  0.3811  0.0814
 4469TIP3    H113371   0.506   2.729   0.877  0.2593  0.2470 -0.4190
 4469TIP3    H213372   0.449   2.602   0.818 -0.2767  0.6166 -0.7034
 4470TIP3   OH213373   0.192   0.829   2.838 -0.0303 -0.4687 -0.3496
 4470TIP3    H113374   0.253   0.799   2.905 -0.8980 -0.0034  0.6751
 4470TIP3    H213375   0.243   0.888   2.782  0.2783  0.5764  0.9864
 4471TIP3   OH213376   3.453   1.512   0.602  0.1616  0.2078 -0.1531
 4471TIP3    H113377   3.416   1.573   0.539  0.5352  0.6771  0.0735
 4471TIP3    H213378   3.447   1.558   0.686  1.7125  0.5196 -0.1826
 4472TIP3   OH213379   0.368   5.620   0.989  0.0620 -0.4412 -0.4426
 4472TIP3    H113380   0.430   5.647   1.057  0.5242  0.2036 -1.1081
 4472TIP3    H213381   0.419   5.622   0.908 -0.3020 -1.8522 -0.7354
 4473TIP3   OH213382   6.181   0.707   2.474 -0.0864  0.5021 -0.2913
 4473TIP3    H113383   6.250   0.640   2.472 -0.5439 -0.0084 -2.8443
 4473TIP3    H213384   6.205   0.763   2.548  1.5074 -1.2257  0.6119
 4474TIP3   OH213385   4.860   0.773   0.047  0.0336  0.2643 -0.4136
 4474TIP3    H113386   4.883   0.865   0.056  0.6798  0.1370 -0.7301
 4474TIP3    H213387   4.844   0.743   0.137 -2.1182  1.1612 -0.4499
 4475TIP3   OH213388   3.613   3.214   5.302  0.5573  0.3753 -0.1172
 4475TIP3    H113389   3.555   3.199   5.377 -1.1036  0.0337 -1.4094
 4475TIP3    H213390   3.626   3.127   5.264 -0.5893  0.8049 -1.5843
 4476TIP3   OH213391   6.007   5.212   4.139  0.1336 -0.2511 -0.1178
 4476TIP3    H113392   5.923   5.256   4.145  0.5332  0.3320  1.9331
 4476TIP3    H213393   5.991   5.125   4.174  0.1009 -0.6095 -1.0012
 4477TIP3   OH213394   6.451   4.672   3.166  0.2894  0.2698  0.4028
 4477TIP3    H113395   6.460   4.744   3.229  0.4789 -0.3632  1.1044
 4477TIP3    H213396   6.465   4.593   3.217  1.2945 -0.2275 -0.5914
 4478TIP3   OH213397   6.925   1.345   5.800 -0.1226  0.5671  0.3002
 4478TIP3    H113398   6.845   1.340   5.852  0.1142 -1.2281  0.5574
 4478TIP3    H213399   6.897   1.320   5.712  0.1157  0.0073  0.3759
 4479TIP3   OH213400   4.393   4.901   0.387 -0.3336  0.4195 -0.0349
 4479TIP3    H113401   4.453   4.957   0.339  0.6332  0.4741  1.2066
 4479TIP3    H213402   4.449   4.844   0.439 -1.3181  1.7453  2.6245
 4480TIP3   OH213403   2.156   6.294   0.682  0.3979 -0.1376 -0.1358
 4480TIP3    H113404   2.143   6.268   0.591 -0.9757 -0.1911  0.0569
 4480TIP3    H213405   2.107   6.375   0.691 -1.0874 -1.1066  1.0200
 4481TIP3   OH213406   5.161   3.299   2.054 -0.1044 -0.4466  0.1386
 4481TIP3    H113407   5.216   3.357   2.105 -0.6004 -0.1172  0.3028
 4481TIP3    H213408   5.077   3.345   2.046 -0.3325 -0.9031 -0.1731
 4482TIP3   OH213409   5.615   3.957   3.180 -0.2647 -0.4153  0.1355
 4482TIP3    H113410   5.531   3.916   3.157 -1.4988  0.9679  1.9188
 4482TIP3    H213411   5.620   4.034   3.123  0.3745 -1.0790 -0.7451
 4483TIP3   OH213412   2.213   5.054   2.730  0.1071  0.1577 -0.0567
 4483TIP3    H113413   2.246   5.003   2.804 -1.1828  1.9124  1.8496
 4483TIP3    H213414   2.292   5.077   2.680  1.0241 -1.0192  0.7910
 4484TIP3   OH213415   3.924   4.679   2.959  0.1846  0.1085 -0.0831
 4484TIP3    H113416   4.010   4.717   2.977 -0.0564  0.4580  0.3507
 4484TIP3    H213417   3.928   4.651   2.868  1.3165 -1.3613  0.3787
 4485TIP3   OH213418   3.863   5.054   4.868 -0.0866 -0.1894 -0.1332
 4485TIP3    H113419   3.955   5.064   4.843 -0.0718 -1.6115 -0.7643
 4485TIP3    H213420   3.857   5.093   4.955  0.8107  1.1215 -0.6223
 4486TIP3   OH213421   0.959   3.643   4.503  0.0878  0.3095  0.1879
 4486TIP3    H113422   0.982   3.682   4.419  0.4175 -3.4638 -1.6695
 4486TIP3    H213423   1.039   3.600   4.533 -1.2885 -2.9888 -0.4346
 4487TIP3   OH213424   6.695   1.125   1.865 -0.0764  0.5422 -0.1284
 4487TIP3    H113425   6.710   1.047   1.812 -1.4308  1.1065 -1.3955
 4487TIP3    H213426   6.778   1.174   1.859  0.6576 -0.5817  0.3943
 4488TIP3   OH213427   3.050   2.064   5.658 -0.0706 -0.2777 -0.0747
 4488TIP3    H113428   3.018   2.121   5.727  0.1129  0.4435 -0.5649
 4488TIP3    H213429   3.122   2.114   5.617 -0.4415 -0.5038 -1.0393
 4489TIP3   OH213430   0.922   5.944   4.903  0.4510  0.4278 -0.3782
 4489TIP3    H113431   0.932   5.926   4.996  0.8796  0.2764 -0.4554
 4489TIP3    H213432   0.906   5.858   4.863  0.5651  0.4574 -0.4868
 4490TIP3   OH213433   0.387   3.787   2.587 -0.2150 -0.1000 -0.2050
 4490TIP3    H113434   0.453   3.808   2.521 -0.6759  1.0876 -0.3126
 4490TIP3    H213435   0.431   3.726   2.646  0.3175 -0.9121 -1.3986
 4491TIP3   OH213436   5.890   4.567   3.526  0.7304  0.0003  0.4566
 4491TIP3    H113437   5.857   4.632   3.463 -1.3673 -0.9766  0.4624
 4491TIP3    H213438   5.870   4.483   3.485 -0.4907 -0.6628  2.2905
 4492TIP3   OH213439   3.410   5.686   5.542  0.1895  0.2700  0.9549
 4492TIP3    H113440   3.493   5.637   5.544  0.1822  0.0665 -1.4778
 4492TIP3    H213441   3.388   5.693   5.449 -0.7354  3.3765  1.2908
 4493TIP3   OH213442   5.515   1.269   0.125 -0.0918  0.3453 -0.4211
 4493TIP3    H113443   5.519   1.357   0.162 -1.8993  0.3004 -0.0184
 4493TIP3    H213444   5.591   1.263   0.067  0.3905  1.9399  0.0094
 4494TIP3   OH213445   3.091   1.637   1.154 -0.1682  0.0944  0.8259
 4494TIP3    H113446   3.035   1.712   1.176  1.5895  1.2178  1.6666
 4494TIP3    H213447   3.069   1.571   1.220 -0.7291  0.3832  0.9389
 4495TIP3   OH213448   5.124   4.634   5.010  0.2344  0.4214 -0.1357
 4495TIP3    H113449   5.034   4.667   5.019  0.6482  1.4362  0.5216
 4495TIP3    H213450   5.128   4.601   4.920 -0.5677  1.1123 -0.4513
 4496TIP3   OH213451   6.808   1.337   1.515  0.2060  0.3936  0.3045
 4496TIP3    H113452   6.789   1.417   1.465 -0.4428 -0.5617 -1.0247
 4496TIP3    H213453   6.723   1.309   1.549  0.1208 -0.7363 -0.7963
 4497TIP3   OH213454   5.631   4.206   0.799  0.1161 -0.7828  0.1866
 4497TIP3    H113455   5.614   4.245   0.885  0.8580 -0.8916  0.3902
 4497TIP3    H213456   5.638   4.112   0.817  1.5220 -0.6965  0.2307
 4498TIP3   OH213457   4.001   3.327   1.839  0.0894  0.2944 -0.3749
 4498TIP3    H113458   4.040   3.375   1.912  0.4389 -0.2709 -0.1783
 4498TIP3    H213459   4.018   3.235   1.860 -1.7054 -0.0067 -0.0777
 4499TIP3   OH213460   6.890   3.607   5.237 -0.7596  0.0256 -0.3142
 4499TIP3    H113461   6.855   3.630   5.151  0.2754 -0.1556 -0.8018
 4499TIP3    H213462   6.942   3.684   5.263 -0.2913 -0.2960 -0.2888
 4500TIP3   OH213463   0.989   2.258   1.782  0.1178  0.4296 -0.1665
 4500TIP3    H113464   1.058   2.314   1.816  0.0947 -0.0232  0.6678
 4500TIP3    H213465   1.033   2.198   1.722  0.6617 -0.5336  1.1367
 4501TIP3   OH213466   1.636   3.278   4.674  0.4941  0.0654  0.3975
 4501TIP3    H113467   1.583   3.206   4.640  0.6651  0.4609 -0.7561
 4501TIP3    H213468   1.577   3.353   4.675 -0.3918 -0.4942  3.7794
 4502TIP3   OH213469   6.384   3.908   2.209  0.0299  0.3170  0.6206
 4502TIP3    H113470   6.430   3.885   2.129  0.6009 -0.7675  1.2247
 4502TIP3    H213471   6.445   3.886   2.279 -1.0297 -0.2616  1.4082
 4503TIP3   OH213472   1.511   2.230   3.019  0.0022  0.2920 -0.0282
 4503TIP3    H113473   1.443   2.181   3.065 -1.0823  1.1335 -0.6472
 4503TIP3    H213474   1.591   2.181   3.033 -0.3928  0.1832  2.1994
 4504TIP3   OH213475   0.048   4.276   2.397 -0.7338 -0.2260  0.4095
 4504TIP3    H113476  -0.042   4.307   2.385 -0.9723 -0.9980  0.1758
 4504TIP3    H213477   0.097   4.355   2.422 -1.8241 -0.0992  2.3711
 4505TIP3   OH213478   3.889   1.668   0.668  0.2078 -0.1229 -1.0712
 4505TIP3    H113479   3.832   1.613   0.615 -1.8846  0.9749 -0.1083
 4505TIP3    H213480   3.952   1.608   0.707 -2.4117 -2.0392  0.5095
 4506TIP3   OH213481   4.744   6.702   3.850 -0.0748  0.2092 -0.0063
 4506TIP3    H113482   4.661   6.676   3.808 -0.3043  0.9746 -0.0567
 4506TIP3    H213483   4.761   6.634   3.915 -0.4775 -0.2266 -0.3499
 4507TIP3   OH213484   0.914   3.172   1.604  0.2851  0.3042 -0.2069
 4507TIP3    H113485   0.935   3.086   1.641  0.0452  0.7497  1.0150
 4507TIP3    H213486   0.984   3.188   1.540  1.0518 -0.2460  0.4726
 4508TIP3   OH213487   1.586   1.726   5.154 -0.1122 -0.4853  0.0010
 4508TIP3    H113488   1.629   1.653   5.199  1.2768 -0.8926 -1.8851
 4508TIP3    H213489   1.608   1.803   5.207 -1.1002 -1.3129  1.6859
 4509TIP3   OH213490   3.525   3.772   5.552  0.2334  0.3268 -0.3337
 4509TIP3    H113491   3.443   3.723   5.546 -0.2864  1.2759 -1.3662
 4509TIP3    H213492   3.591   3.712   5.517 -0.5608  0.6794 -2.6276
 4510TIP3   OH213493   3.654   1.799   2.924  0.2372  1.0000 -0.1983
 4510TIP3    H113494   3.562   1.772   2.928  0.8031 -1.0077  0.4338
 4510TIP3    H213495   3.679   1.811   3.015  0.7731  0.9224 -0.3348
 4511TIP3   OH213496   4.903   4.582   2.736  0.1611 -0.0409  0.6492
 4511TIP3    H113497   4.856   4.553   2.814  0.6564 -2.0111  0.2734
 4511TIP3    H213498   4.979   4.525   2.731  1.6948  1.9092  0.2537
 4512TIP3   OH213499   1.110   1.449   0.181  0.0161 -0.8088 -0.1153
 4512TIP3    H113500   1.077   1.391   0.250 -0.6575  0.3059  0.5390
 4512TIP3    H213501   1.073   1.413   0.100 -1.2802 -0.7052  0.3941
 4513TIP3   OH213502   2.614   6.257   0.815  0.1380  0.8185 -0.5583
 4513TIP3    H113503   2.563   6.290   0.742 -0.1131 -1.0979 -1.3226
 4513TIP3    H213504   2.684   6.206   0.774  0.5559  0.4844  0.5282
 4514TIP3   OH213505   6.749   5.668   1.811 -0.2163 -0.6482 -0.5573
 4514TIP3    H113506   6.738   5.582   1.851 -0.4641 -0.6525 -0.6346
 4514TIP3    H213507   6.802   5.652   1.733  2.0498 -0.3751  0.8217
 4515TIP3   OH213508   4.719   2.117   2.975 -0.0329 -0.3731  0.3401
 4515TIP3    H113509   4.634   2.161   2.977 -0.7913 -1.7516  0.2285
 4515TIP3    H213510   4.760   2.138   3.059 -0.2046  0.8145  0.1355
 4516TIP3   OH213511   2.424   1.617   5.415 -0.6738  0.3471  0.1818
 4516TIP3    H113512   2.463   1.585   5.333  0.4257  0.4283  0.6528
 4516TIP3    H213513   2.455   1.555   5.481 -0.3416  1.1210  0.7638
 4517TIP3   OH213514   4.914   6.184   0.073  0.2490 -0.9128 -0.0979
 4517TIP3    H113515   4.831   6.139   0.087 -0.9812  1.0212 -0.7346
 4517TIP3    H213516   4.935   6.169  -0.019  0.2468 -0.8481 -0.1094
 4518TIP3   OH213517   5.803   0.826   1.162 -0.1566 -0.2981  0.4376
 4518TIP3    H113518   5.871   0.760   1.146 -0.7633 -0.9007  0.3015
 4518TIP3    H213519   5.722   0.785   1.131 -0.6203  0.3229  0.8071
 4519TIP3   OH213520   3.977   6.777   2.895  0.1117  0.7214  0.3656
 4519TIP3    H113521   4.024   6.812   2.970  1.0847 -0.0465  0.1361
 4519TIP3    H213522   4.003   6.685   2.891  0.1795  0.7757 -0.9789
 4520TIP3   OH213523   1.235   5.189   2.513  0.0336 -0.1848  0.3737
 4520TIP3    H113524   1.215   5.226   2.599 -1.6244 -2.3181  0.9852
 4520TIP3    H213525   1.238   5.095   2.527 -1.7883 -0.7219 -2.1241
 4521TIP3   OH213526   2.965   4.839   2.529 -0.1446 -0.5033 -0.4309
 4521TIP3    H113527   2.935   4.760   2.482 -2.1955 -0.4473  0.6645
 4521TIP3    H213528   3.055   4.851   2.500 -0.5294 -1.8937 -2.4350
 4522TIP3   OH213529   1.408   0.235   5.671 -0.2826 -0.1103  0.3516
 4522TIP3    H113530   1.465   0.192   5.607  1.9729  0.1800  2.0420
 4522TIP3    H213531   1.421   0.328   5.656  1.3444 -0.0177  2.0437
 4523TIP3   OH213532   6.575   0.399   3.050 -0.1059  0.4533  0.1296
 4523TIP3    H113533   6.619   0.447   3.120  0.1769 -1.1204  1.0734
 4523TIP3    H213534   6.629   0.322   3.036 -0.4529  0.4653 -1.4790
 4524TIP3   OH213535   6.493   1.910   0.574  0.2509  0.3300 -0.3405
 4524TIP3    H113536   6.448   1.945   0.497 -1.0448  0.4877  0.4591
 4524TIP3    H213537   6.570   1.866   0.539 -1.0878 -0.9254 -1.8711
 4525TIP3   OH213538   3.132   5.106   4.797  0.3302 -0.0539 -0.0194
 4525TIP3    H113539   3.178   5.187   4.778  0.8680 -0.2429  0.4435
 4525TIP3    H213540   3.129   5.059   4.713 -0.2875  0.5813 -0.3650
 4526TIP3   OH213541   2.806   5.363   0.973 -0.3811 -0.2276 -0.1774
 4526TIP3    H113542   2.771   5.305   1.041  0.2856  0.5641  0.8684
 4526TIP3    H213543   2.796   5.313   0.892  0.6304 -2.0263  0.7436
 4527TIP3   OH213544   7.004   3.392   3.402 -0.0841 -0.4996  0.2148
 4527TIP3    H113545   6.916   3.352   3.401 -1.2403  1.8772 -0.5755
 4527TIP3    H213546   7.064   3.317   3.395 -1.9733 -2.2938  1.7568
 4528TIP3   OH213547   2.676   2.911   2.396  0.1756 -0.1227 -0.5096
 4528TIP3    H113548   2.731   2.903   2.475 -1.9327  1.4917  1.2569
 4528TIP3    H213549   2.700   2.997   2.360 -0.6060  0.2546 -0.1574
 4529TIP3   OH213550   1.389   4.449   3.050  0.1863  0.1438  0.2218
 4529TIP3    H113551   1.308   4.407   3.024 -0.1361  0.9702 -0.1453
 4529TIP3    H213552   1.406   4.417   3.139 -1.4088  1.2059  0.9549
 4530TIP3   OH213553   5.814   4.019   3.364 -0.2626 -0.2097 -0.4767
 4530TIP3    H113554   5.771   4.074   3.429  1.2278 -0.1224  0.4897
 4530TIP3    H213555   5.751   4.012   3.292 -2.2081 -0.7846  1.1952
 4531TIP3   OH213556   0.482   2.010   0.062  0.6604  0.7591 -0.0260
 4531TIP3    H113557   0.483   1.983  -0.030  0.5736  1.2345 -0.1692
 4531TIP3    H213558   0.478   2.105   0.059  2.7432  0.9116  0.4621
 4532TIP3   OH213559   3.299   6.707   2.139  0.4428  0.4381  0.3465
 4532TIP3    H113560   3.207   6.709   2.111  0.8898  2.5848 -1.2836
 4532TIP3    H213561   3.297   6.742   2.228 -0.3316  0.5136  0.3111
 4533TIP3   OH213562   0.891   1.510   5.814  0.2545  0.5002 -0.1301
 4533TIP3    H113563   0.917   1.576   5.750  1.8163  0.0088 -0.0313
 4533TIP3    H213564   0.798   1.527   5.828  0.0581  1.1553 -1.8960
 4534TIP3   OH213565   6.787   0.567   3.173 -0.0855 -0.3151  0.0742
 4534TIP3    H113566   6.871   0.545   3.133  0.0764  2.4771 -1.3267
 4534TIP3    H213567   6.800   0.654   3.211 -2.6882  0.8193 -1.4008
 4535TIP3   OH213568   6.636   0.880   5.531  0.3960 -0.0836  0.1654
 4535TIP3    H113569   6.666   0.897   5.442  0.4374 -2.6163 -0.3623
 4535TIP3    H213570   6.605   0.790   5.530  0.0337 -0.0657  2.6366
 4536TIP3   OH213571   7.023   1.457   1.022  0.4482  0.1599  0.1279
 4536TIP3    H113572   7.048   1.542   0.985 -0.5752 -0.0614 -1.1392
 4536TIP3    H213573   6.970   1.416   0.953  0.1938 -1.1333  1.0725
 4537TIP3   OH213574   0.384   0.710   3.019 -0.1069  0.1742 -0.1024
 4537TIP3    H113575   0.477   0.688   3.025 -0.3999 -0.9322  0.6520
 4537TIP3    H213576   0.359   0.737   3.107 -1.0393 -1.8746  0.3042
 4538TIP3   OH213577   7.003   0.692   3.710  0.4205  0.6114 -0.1839
 4538TIP3    H113578   6.995   0.784   3.736  3.0126  0.5617  1.0176
 4538TIP3    H213579   7.097   0.676   3.708  0.0438 -1.7470 -1.4439
 4539TIP3   OH213580   3.274   2.723   0.444 -0.0173 -0.6600 -0.2953
 4539TIP3    H113581   3.215   2.672   0.499 -0.1504  0.4320  0.6069
 4539TIP3    H213582   3.234   2.722   0.357 -0.2176 -1.7299 -0.2067
 4540TIP3   OH213583   4.835   4.825   5.501 -0.3869  0.2199 -0.5407
 4540TIP3    H113584   4.889   4.885   5.553 -1.0609 -0.4637  1.0258
 4540TIP3    H213585   4.890   4.803   5.425  2.0194 -1.2101  1.4392
 4541TIP3   OH213586   0.567   5.933   3.014 -0.5104  0.2411  0.2100
 4541TIP3    H113587   0.540   5.877   3.088 -0.8787  1.4536  1.0286
 4541TIP3    H213588   0.660   5.949   3.029 -0.6456  0.7056  0.5701
 4542TIP3   OH213589   2.763   5.082   0.539  0.2202 -0.6931  0.0227
 4542TIP3    H113590   2.669   5.062   0.529  0.0478  0.2208 -0.2678
 4542TIP3    H213591   2.768   5.129   0.622  0.2822  0.0462 -0.3909
 4543TIP3   OH213592   2.797   4.216   5.473  0.2810 -0.7405 -0.0412
 4543TIP3    H113593   2.761   4.304   5.481 -0.0001 -1.0123  2.3913
 4543TIP3    H213594   2.723   4.163   5.445 -0.1081 -0.5378  0.5713
 4544TIP3   OH213595   2.624   2.630   2.451 -0.1084  0.4946 -0.2467
 4544TIP3    H113596   2.658   2.712   2.414 -0.0963  0.5850 -0.0361
 4544TIP3    H213597   2.624   2.645   2.545  0.0002  0.2101 -0.2007
 4545TIP3   OH213598   5.258   1.449   3.276  0.2694  0.4430  0.6922
 4545TIP3    H113599   5.290   1.525   3.228 -1.7334  0.2225 -1.1567
 4545TIP3    H213600   5.297   1.374   3.232  0.2743  0.3075  0.9218
 4546TIP3   OH213601   6.182   3.286   5.730  0.2532  0.4636 -0.2964
 4546TIP3    H113602   6.227   3.367   5.705  0.6827 -0.1442 -1.5543
 4546TIP3    H213603   6.249   3.234   5.775  0.5324  0.0094 -1.2145
 4547TIP3   OH213604   0.348   0.965   4.993  0.0966  0.1308 -0.2477
 4547TIP3    H113605   0.415   1.000   4.933 -1.3517 -0.9706 -2.6886
 4547TIP3    H213606   0.370   0.872   5.000 -1.1864 -0.2640 -1.1705
 4548TIP3   OH213607   0.051   1.504   3.378 -0.3195  0.2532 -0.5829
 4548TIP3    H113608   0.130   1.492   3.430  0.1980 -0.3424 -1.4860
 4548TIP3    H213609  -0.020   1.476   3.436  0.3140 -1.1221 -0.4328
 4549TIP3   OH213610   4.298   1.497   4.946 -0.3515 -0.1722 -0.0391
 4549TIP3    H113611   4.349   1.574   4.920  0.1550 -0.7886 -0.9346
 4549TIP3    H213612   4.362   1.426   4.946 -0.8003 -0.5945  0.8417
 4550TIP3   OH213613   4.695   6.661   5.080 -0.0996 -0.0623 -0.2820
 4550TIP3    H113614   4.620   6.715   5.057  0.7637  1.3675  0.1449
 4550TIP3    H213615   4.769   6.702   5.035  0.9559  0.4798  1.8328
 4551TIP3   OH213616   0.255   3.669   4.170 -0.5218  0.6232 -0.1204
 4551TIP3    H113617   0.318   3.611   4.213 -3.1056 -1.4334  1.2220
 4551TIP3    H213618   0.249   3.637   4.080  0.2747  0.7889 -0.2342
 4552TIP3   OH213619   6.917   5.118   1.517  0.1902  0.4407  0.5144
 4552TIP3    H113620   6.839   5.170   1.535  0.4129  1.2150 -0.6364
 4552TIP3    H213621   6.990   5.176   1.539  0.4404  0.5018 -0.4359
 4553TIP3   OH213622   1.994   5.691   1.284  0.0239  0.3238 -0.3679
 4553TIP3    H113623   1.993   5.733   1.370  0.6841 -1.5713  0.6021
 4553TIP3    H213624   2.064   5.736   1.236  1.4470 -0.3310  1.0132
 4554TIP3   OH213625   5.043   0.357   2.109 -0.0616  0.4672 -0.5934
 4554TIP3    H113626   5.101   0.395   2.043 -2.0636  1.8880 -1.6414
 4554TIP3    H213627   4.960   0.403   2.098 -1.6659 -1.9884  0.3097
 4555TIP3   OH213628   3.915   1.307   4.119  0.0979 -0.1442 -0.3379
 4555TIP3    H113629   3.856   1.253   4.171 -0.1439  0.8803  0.4913
 4555TIP3    H213630   3.989   1.325   4.177 -1.0389  2.5753  0.4348
 4556TIP3   OH213631   6.461   5.829   2.971 -0.2931 -0.3353  0.1117
 4556TIP3    H113632   6.494   5.779   2.896 -2.3945  0.1815 -1.2375
 4556TIP3    H213633   6.540   5.850   3.022  1.1534 -1.1311 -1.6775
 4557TIP3   OH213634   6.576   5.495   4.621 -0.2288 -0.3354 -0.4341
 4557TIP3    H113635   6.502   5.529   4.671  1.2294 -1.4820  2.7488
 4557TIP3    H213636   6.555   5.403   4.606  0.5655 -0.7001  0.5982
 4558TIP3   OH213637   3.985   3.560   3.752 -0.5966  0.4228 -0.3200
 4558TIP3    H113638   3.909   3.507   3.727  0.2162 -1.2857  0.6195
 4558TIP3    H213639   4.054   3.496   3.770  1.1783  1.9277 -1.3797
 4559TIP3   OH213640   3.705   2.544   0.087  0.4626  0.0789 -0.0440
 4559TIP3    H113641   3.738   2.505   0.006  0.5838  1.7315 -0.8159
 4559TIP3    H213642   3.611   2.556   0.071  0.4696  0.3221  0.1020
 4560TIP3   OH213643   3.708   3.547   4.569  0.0009 -0.7118 -0.1486
 4560TIP3    H113644   3.622   3.553   4.610 -0.2947 -1.3649 -0.6704
 4560TIP3    H213645   3.757   3.620   4.608 -1.1380  0.3987 -0.6934
 4561TIP3   OH213646   6.755   6.706   1.404  0.0340 -0.2995 -0.2151
 4561TIP3    H113647   6.670   6.700   1.362 -0.6732  0.3657  1.0721
 4561TIP3    H213648   6.801   6.775   1.357  0.1684 -1.1779 -1.4044
 4562TIP3   OH213649   1.427   1.061   4.379 -0.1036 -0.1986  0.5961
 4562TIP3    H113650   1.467   1.148   4.371 -1.1146  0.2334 -0.0039
 4562TIP3    H213651   1.460   1.026   4.461  1.3715  0.1971  0.1867
 4563TIP3   OH213652   3.101   0.391   0.995 -0.0447 -0.4174  0.4854
 4563TIP3    H113653   3.140   0.329   0.933 -1.7403 -1.3601  0.3262
 4563TIP3    H213654   3.034   0.341   1.041 -2.7140  1.6939 -0.8670
 4564TIP3   OH213655   3.275   4.187   4.482  0.0011 -0.0716 -0.0790
 4564TIP3    H113656   3.320   4.183   4.567  1.4906  2.7947 -0.5938
 4564TIP3    H213657   3.185   4.211   4.503  0.3630  0.6218  0.7468
 4565TIP3   OH213658   6.695   2.010   4.660 -0.1483  0.6102  0.1174
 4565TIP3    H113659   6.735   1.947   4.719 -0.9395 -0.4066 -0.4003
 4565TIP3    H213660   6.716   2.096   4.698  1.9399  0.1149  0.1906
 4566TIP3   OH213661   2.278   2.293   5.766  0.0966 -0.4308 -0.2508
 4566TIP3    H113662   2.188   2.270   5.744 -0.1853  0.4587 -0.0701
 4566TIP3    H213663   2.270   2.371   5.822  1.0506  1.4409 -2.5315
 4567TIP3   OH213664   1.847   3.649   0.682  0.2516  0.6262 -0.1159
 4567TIP3    H113665   1.835   3.562   0.646 -0.5036  1.6845 -2.6429
 4567TIP3    H213666   1.788   3.653   0.757 -0.7779 -0.5677 -0.8410
 4568TIP3   OH213667   0.862   5.908   4.259  0.3470  0.5900  0.1393
 4568TIP3    H113668   0.872   5.899   4.354  0.5026  0.2092  0.0908
 4568TIP3    H213669   0.778   5.867   4.240  1.5975 -2.0163 -0.2346
 4569TIP3   OH213670   3.009   0.367   1.927 -0.2336 -0.8249 -0.1216
 4569TIP3    H113671   3.056   0.370   1.844  1.4249 -0.6585  0.7871
 4569TIP3    H213672   3.034   0.448   1.972 -0.9481 -1.0038  0.6279
 4570TIP3   OH213673   6.890   1.953   3.455 -0.0947  0.2207 -0.4005
 4570TIP3    H113674   6.928   2.032   3.417  2.1202 -0.0244  1.0701
 4570TIP3    H213675   6.819   1.985   3.510  1.3963  1.3875  0.9561
 4571TIP3   OH213676   1.079   5.389   0.545 -0.3886  0.4426  0.0168
 4571TIP3    H113677   1.138   5.337   0.600 -0.6625 -0.2597 -0.3412
 4571TIP3    H213678   0.995   5.388   0.591 -0.6639 -0.2877 -0.4780
 4572TIP3   OH213679   0.783   4.779   3.448 -0.3578 -0.2088  0.6595
 4572TIP3    H113680   0.853   4.769   3.384 -0.3584  1.2038  0.4038
 4572TIP3    H213681   0.797   4.709   3.511 -0.4585 -1.7344 -0.9510
 4573TIP3   OH213682   5.205   6.769   1.120  0.5501  0.1702 -0.7160
 4573TIP3    H113683   5.143   6.720   1.066  0.2819 -1.7287  1.1859
 4573TIP3    H213684   5.163   6.854   1.135 -1.5429 -1.0023  0.3778
 4574TIP3   OH213685   3.213   4.590   1.582 -0.4654 -0.0946 -0.4027
 4574TIP3    H113686   3.151   4.520   1.600 -0.3225 -0.0970  0.0853
 4574TIP3    H213687   3.210   4.601   1.487 -1.8664  0.5110 -0.3186
 4575TIP3   OH213688   6.092   0.821   4.862  0.6634 -0.5642 -0.1522
 4575TIP3    H113689   6.059   0.790   4.778 -0.7824  0.2294  0.1051
 4575TIP3    H213690   6.129   0.907   4.844 -0.0030 -0.2208  0.0776
 4576TIP3   OH213691   3.434   6.371   2.444  0.3585  0.3903 -0.1588
 4576TIP3    H113692   3.397   6.399   2.528  0.8157 -0.3396  0.2957
 4576TIP3    H213693   3.528   6.364   2.460  1.0910  3.9228 -1.7558
 4577TIP3   OH213694   5.847   0.919   4.989 -0.0828  0.0438 -0.3081
 4577TIP3    H113695   5.926   0.881   4.951 -0.2206 -1.4325  0.8228
 4577TIP3    H213696   5.801   0.957   4.914  0.3147 -1.5997 -1.4300
 4578TIP3   OH213697   3.391   3.168   3.606  0.1005 -0.0265 -0.1575
 4578TIP3    H113698   3.399   3.083   3.564  1.8943  0.7634 -1.5635
 4578TIP3    H213699   3.332   3.153   3.679  1.6155 -2.8507  0.6405
 4579TIP3   OH213700   2.716   1.927   0.383 -0.2949  0.1159  0.4479
 4579TIP3    H113701   2.636   1.911   0.334 -1.5267 -0.0793  2.4124
 4579TIP3    H213702   2.771   1.851   0.366 -1.7763 -1.2313  1.4077
 4580TIP3   OH213703   3.655   5.188   3.996 -0.0186 -0.2175 -0.0358
 4580TIP3    H113704   3.574   5.238   3.984  0.0105 -0.6283 -2.4711
 4580TIP3    H213705   3.724   5.254   3.993 -0.1511 -0.0786 -0.0595
 4581TIP3   OH213706   3.259   3.068   5.447 -0.5187 -0.1076  0.3603
 4581TIP3    H113707   3.352   3.056   5.468 -0.6724  0.7143  1.6089
 4581TIP3    H213708   3.221   2.981   5.455  0.0993 -0.4073  0.0867
 4582TIP3   OH213709   4.007   5.846   0.167  0.3420 -0.5618 -0.1520
 4582TIP3    H113710   4.008   5.833   0.072 -0.7229 -3.2973  0.1146
 4582TIP3    H213711   4.097   5.826   0.194  0.3047 -1.2308 -0.4802
 4583TIP3   OH213712   2.159   1.015   0.299  0.0165  0.5472 -0.1017
 4583TIP3    H113713   2.138   0.964   0.221 -2.6770  1.3303  0.0112
 4583TIP3    H213714   2.251   0.997   0.315 -0.2375 -2.5088 -1.3482
 4584TIP3   OH213715   4.611   5.290   0.762  0.0536 -0.3312 -0.1668
 4584TIP3    H113716   4.675   5.279   0.832  0.4431  0.4441 -0.3963
 4584TIP3    H213717   4.534   5.327   0.804 -0.3640 -1.5171  0.1600
 4585TIP3   OH213718   4.315   2.117   1.785 -0.4725  0.5099  0.4783
 4585TIP3    H113719   4.290   2.126   1.877  1.5184  0.3722  1.0770
 4585TIP3    H213720   4.350   2.028   1.779  0.4200  0.8966 -0.1467
 4586TIP3   OH213721   3.957   2.478   4.431  0.1049 -0.3050  0.1563
 4586TIP3    H113722   3.881   2.419   4.429  0.7795 -1.1850 -1.1367
 4586TIP3    H213723   3.942   2.539   4.359 -0.6938  1.3066  1.6213
 4587TIP3   OH213724   4.708   3.284   1.700  0.1780 -0.1482 -0.2496
 4587TIP3    H113725   4.803   3.287   1.714 -0.0238  1.6025  0.9997
 4587TIP3    H213726   4.673   3.245   1.780 -0.3350  1.9218  0.5991
 4588TIP3   OH213727   4.731   4.754   3.544  0.2782 -0.5916 -0.0096
 4588TIP3    H113728   4.775   4.838   3.559  1.1517 -1.3854  2.3058
 4588TIP3    H213729   4.781   4.691   3.595 -1.4601 -2.1990 -0.1801
 4589TIP3   OH213730   0.064   0.579   3.659  0.4518 -0.0427  0.1824
 4589TIP3    H113731   0.102   0.551   3.742  0.6399 -0.8514 -0.1695
 4589TIP3    H213732   0.088   0.511   3.597 -0.6735 -0.0488 -0.2811
 4590TIP3   OH213733   2.516   5.410   5.323  0.3226 -0.3352 -0.0667
 4590TIP3    H113734   2.483   5.355   5.252 -0.5519  1.4616 -1.1058
 4590TIP3    H213735   2.443   5.417   5.384 -1.2879  3.1513 -2.0791
 4591TIP3   OH213736   3.665   1.594   1.626  0.3807  0.1385 -0.1748
 4591TIP3    H113737   3.673   1.509   1.669  0.5325 -0.0751 -0.6139
 4591TIP3    H213738   3.647   1.573   1.534  0.6352  0.5783 -0.3298
 4592TIP3   OH213739   7.048   1.516   3.844 -0.5011  0.3118 -0.4145
 4592TIP3    H113740   7.120   1.579   3.851 -0.8686  0.5745  1.2955
 4592TIP3    H213741   7.045   1.473   3.929 -1.6040 -0.5439 -0.8625
 4593TIP3   OH213742   2.500   2.151   4.838 -0.2256 -0.0612  0.1377
 4593TIP3    H113743   2.596   2.152   4.838 -0.1078  2.0590 -2.5280
 4593TIP3    H213744   2.476   2.084   4.774 -0.3644  1.1565 -1.1413
 4594TIP3   OH213745   0.422   0.440   1.929  0.4758  0.1627 -0.4365
 4594TIP3    H113746   0.498   0.410   1.978 -0.7813 -1.4598  0.6190
 4594TIP3    H213747   0.393   0.363   1.880 -1.9147 -0.0338  1.1132
 4595TIP3   OH213748   0.090   0.501   1.951  0.1612  0.3674  0.9616
 4595TIP3    H113749   0.158   0.464   1.894  1.1647  1.7484  1.2208
 4595TIP3    H213750   0.043   0.424   1.984  1.5455 -0.6299  0.7221
 4596TIP3   OH213751   4.601   2.969   0.338  0.2529 -0.2198  0.3417
 4596TIP3    H113752   4.587   2.875   0.336  1.2326 -0.3773  0.4967
 4596TIP3    H213753   4.674   2.984   0.279 -2.0040  0.8665 -2.4466
 4597TIP3   OH213754   6.133   3.703   1.430  0.0132 -0.2401 -0.1717
 4597TIP3    H113755   6.093   3.644   1.366  2.0524 -1.0406 -0.8090
 4597TIP3    H213756   6.223   3.715   1.398  0.7408  0.3081  1.9121
 4598TIP3   OH213757   2.739   0.756   1.753 -0.2420 -0.3401 -0.0828
 4598TIP3    H113758   2.695   0.827   1.800  0.8560 -0.8557  1.8154
 4598TIP3    H213759   2.821   0.794   1.722 -0.7007 -0.1671 -1.1493
 4599TIP3   OH213760   0.645   1.061   3.623 -0.2654 -0.1169  0.4670
 4599TIP3    H113761   0.689   1.065   3.708  0.5088 -2.0356  0.2099
 4599TIP3    H213762   0.687   1.129   3.571 -0.2300  0.5762  1.3721
 4600TIP3   OH213763   0.521   5.683   5.673 -0.1223 -0.1205 -0.1191
 4600TIP3    H113764   0.442   5.699   5.724  0.1688 -0.5401  0.4669
 4600TIP3    H213765   0.490   5.635   5.595 -1.0618  3.3021 -2.0656
 4601TIP3   OH213766   4.885   0.953   5.447  0.5160  0.2945  0.0920
 4601TIP3    H113767   4.930   1.031   5.414  1.7795 -0.0592  0.9217
 4601TIP3    H213768   4.868   0.973   5.539  1.2044 -0.5621  0.4125
 4602TIP3   OH213769   7.027   6.623   3.011  0.5592  0.2324  0.1030
 4602TIP3    H113770   7.100   6.674   2.977  1.5524 -1.3030 -0.1684
 4602TIP3    H213771   7.037   6.627   3.106  0.5334  0.6465  0.0913
 4603TIP3   OH213772   1.268   5.296   4.551  0.2328  0.4938 -0.1651
 4603TIP3    H113773   1.342   5.326   4.604  0.0770  0.0825  0.2962
 4603TIP3    H213774   1.263   5.202   4.569 -0.1257  0.4399 -0.5380
 4604TIP3   OH213775   6.229   0.631   1.323 -0.2367  0.1990  0.2510
 4604TIP3    H113776   6.138   0.637   1.354 -0.5722  0.9161 -0.8058
 4604TIP3    H213777   6.221   0.609   1.230  0.6444  1.2997 -0.1020
 4605TIP3   OH213778   5.988   6.304   4.532 -0.1955  0.1166 -0.2514
 4605TIP3    H113779   6.051   6.293   4.461  0.1064 -0.3216  0.0821
 4605TIP3    H213780   5.921   6.239   4.515 -1.6084  1.8197 -1.6913
 4606TIP3   OH213781   2.916   5.419   0.651  0.2937 -0.4072  0.2093
 4606TIP3    H113782   2.991   5.359   0.654  0.3270 -0.3139  2.3058
 4606TIP3    H213783   2.842   5.366   0.683 -0.2508 -0.0882 -0.4988
 4607TIP3   OH213784   3.714   0.577   0.798  0.2193  0.1367 -0.1396
 4607TIP3    H113785   3.785   0.588   0.862 -1.3754 -1.5488  2.0885
 4607TIP3    H213786   3.700   0.665   0.763  2.3038  0.8111  0.5370
 4608TIP3   OH213787   1.092   6.097   3.118 -0.6892 -0.1358 -0.3239
 4608TIP3    H113788   1.177   6.105   3.075 -0.1783 -0.9150  0.5075
 4608TIP3    H213789   1.046   6.179   3.097  0.3907  0.4376 -0.4932
 4609TIP3   OH213790   4.935   6.016   2.134  0.2135  0.3380 -0.0180
 4609TIP3    H113791   4.886   6.066   2.069 -0.3295 -0.7983 -0.5140
 4609TIP3    H213792   4.868   5.964   2.179  1.0943 -2.6646 -1.9662
 4610TIP3   OH213793   5.289   0.710   2.089 -0.3222  0.0046  0.1596
 4610TIP3    H113794   5.267   0.803   2.087  1.3605  0.4293 -0.0051
 4610TIP3    H213795   5.294   0.689   2.183 -2.2952 -0.3638  0.2254
 4611TIP3   OH213796   0.493   0.458   5.227 -0.0037 -0.3454 -0.1639
 4611TIP3    H113797   0.418   0.403   5.204 -1.1345  0.7288  0.7799
 4611TIP3    H213798   0.510   0.437   5.319 -1.1642  1.5688  0.5612
 4612TIP3   OH213799   1.420   1.407   0.610 -0.0067  0.1087 -0.3367
 4612TIP3    H113800   1.503   1.448   0.586  0.4703 -0.1796  0.7304
 4612TIP3    H213801   1.401   1.347   0.538  0.5157  0.4629 -0.7792
 4613TIP3   OH213802   6.648   1.148   0.256  0.4024  0.2913  0.2350
 4613TIP3    H113803   6.703   1.072   0.274  1.0797  0.4500 -1.0701
 4613TIP3    H213804   6.674   1.213   0.321  0.5538 -0.2206  0.6953
 4614TIP3   OH213805   4.239   2.126   4.581 -0.2125  0.7491  0.5149
 4614TIP3    H113806   4.311   2.062   4.580 -0.5280  0.3565  1.7108
 4614TIP3    H213807   4.283   2.211   4.590  0.1678  0.6693 -0.3853
 4615TIP3   OH213808   2.803   2.755   0.474 -0.4715  0.3323  0.2047
 4615TIP3    H113809   2.786   2.807   0.396  0.6392  0.8703  0.3049
 4615TIP3    H213810   2.875   2.800   0.518  0.2400 -1.0472  0.5126
 4616TIP3   OH213811   1.475   3.649   4.459 -0.1832  0.0871  0.1686
 4616TIP3    H113812   1.526   3.638   4.378  2.0694 -0.3268  1.5376
 4616TIP3    H213813   1.444   3.561   4.480 -1.1922  0.2757 -0.4639
 4617TIP3   OH213814   4.751   3.050   3.129 -0.0327 -0.1417 -0.3531
 4617TIP3    H113815   4.758   2.984   3.061 -0.6658  0.1806 -0.7397
 4617TIP3    H213816   4.675   3.103   3.104 -0.9631 -0.6782  1.1698
 4618TIP3   OH213817   3.782   3.021   2.168  0.2120 -0.5324  0.0152
 4618TIP3    H113818   3.740   2.936   2.174  1.1395 -1.0300 -0.2927
 4618TIP3    H213819   3.806   3.043   2.258 -1.7588  0.3424  0.3857
 4619TIP3   OH213820   4.322   0.244   3.871  0.0563 -0.4420 -0.0160
 4619TIP3    H113821   4.230   0.239   3.897  0.1230 -2.1620  0.0386
 4619TIP3    H213822   4.359   0.160   3.899  0.8143 -1.2367 -3.0861
 4620TIP3   OH213823   5.823   1.536   4.387  0.1051  0.3516  0.6918
 4620TIP3    H113824   5.897   1.546   4.448  1.8165 -0.7722 -1.1016
 4620TIP3    H213825   5.803   1.442   4.388 -1.6059  0.6717  1.3998
 4621TIP3   OH213826   0.782   0.473   5.620  0.2921  0.3301  0.3730
 4621TIP3    H113827   0.839   0.487   5.544 -0.4334 -0.0813 -0.2628
 4621TIP3    H213828   0.784   0.378   5.634 -0.5623  0.2626  0.0780
 4622TIP3   OH213829   4.092   0.166   2.708 -0.2746  0.3832  0.2999
 4622TIP3    H113830   4.126   0.255   2.696 -0.2696  0.5248  1.3283
 4622TIP3    H213831   4.105   0.147   2.800 -1.7853 -0.0568  0.4550
 4623TIP3   OH213832   1.998   3.831   1.521 -0.1549 -0.0021  0.4944
 4623TIP3    H113833   1.931   3.896   1.501 -0.5783 -0.0651  1.6574
 4623TIP3    H213834   1.953   3.747   1.515  0.0518 -0.1044  0.3535
 4624TIP3   OH213835   3.836   6.473   5.857 -0.6928 -0.6295  0.0444
 4624TIP3    H113836   3.854   6.540   5.790  0.7683 -0.2565  0.7717
 4624TIP3    H213837   3.741   6.477   5.869 -0.6657  1.2670 -0.0022
 4625TIP3   OH213838   6.716   6.457   4.470 -0.1011  0.1489  0.7204
 4625TIP3    H113839   6.776   6.457   4.544  1.3517  0.1114 -0.3917
 4625TIP3    H213840   6.633   6.487   4.505  0.4074 -0.3811  2.4559
 4626TIP3   OH213841   2.879   3.787   0.905  0.0139 -0.2671 -0.2451
 4626TIP3    H113842   2.946   3.852   0.885 -0.3382  0.7784  1.6897
 4626TIP3    H213843   2.922   3.703   0.892  1.1579  0.3733 -0.7261
 4627TIP3   OH213844   1.366   2.222   3.337  0.0818 -0.1192  0.0306
 4627TIP3    H113845   1.315   2.223   3.418 -0.3236  0.3954 -0.2273
 4627TIP3    H213846   1.457   2.221   3.366 -0.0600 -1.3783  0.4995
 4628TIP3   OH213847   0.825   4.862   5.018 -0.5057 -0.5791 -0.3733
 4628TIP3    H113848   0.738   4.902   5.016 -0.7443 -1.0188  0.5775
 4628TIP3    H213849   0.825   4.801   4.943 -0.7600 -0.0788 -0.7868
 4629TIP3   OH213850   4.102   4.129   1.964  0.2772  0.2495  0.2454
 4629TIP3    H113851   4.197   4.132   1.960  0.3052  0.2203  0.9070
 4629TIP3    H213852   4.079   4.039   1.940  0.4545  0.0511  0.8078
 4630TIP3   OH213853   2.516   4.596   5.022  0.2090  0.1555 -0.0609
 4630TIP3    H113854   2.515   4.680   5.069 -0.1703  0.6459 -0.9297
 4630TIP3    H213855   2.603   4.559   5.040  1.0806  1.5781 -1.1268
 4631TIP3   OH213856   6.519   0.417   1.059 -0.1521 -0.3477 -0.1585
 4631TIP3    H113857   6.448   0.374   1.107 -0.4739 -0.3184 -0.5985
 4631TIP3    H213858   6.592   0.420   1.121 -0.9413  0.8043  0.7648
 4632TIP3   OH213859   4.518   3.682   2.370 -0.1252 -0.6951 -0.3413
 4632TIP3    H113860   4.533   3.599   2.416  0.0123  0.1402  1.1631
 4632TIP3    H213861   4.592   3.737   2.394 -0.2944 -0.0637 -1.2031
 4633TIP3   OH213862   6.924   4.039   1.056  0.3382 -0.0431  0.5414
 4633TIP3    H113863   6.921   3.956   1.010  1.0594 -0.0817  0.5455
 4633TIP3    H213864   7.011   4.040   1.098  0.8445  1.2210 -0.4641
 4634TIP3   OH213865   4.224   3.348   0.128 -0.0336  0.2154 -0.1052
 4634TIP3    H113866   4.295   3.307   0.177  1.2639 -0.4408 -2.3842
 4634TIP3    H213867   4.260   3.432   0.099 -0.8042  0.6413  0.1568
 4635TIP3   OH213868   6.410   5.367   2.707  0.2676 -0.0420  0.3438
 4635TIP3    H113869   6.359   5.317   2.771  1.5916 -1.3418  0.4172
 4635TIP3    H213870   6.478   5.410   2.758 -0.3785  1.2232  0.1699
 4636TIP3   OH213871   3.966   4.139   0.875 -0.3372 -0.4463 -0.1797
 4636TIP3    H113872   3.951   4.232   0.892 -0.3245 -0.5501  0.4274
 4636TIP3    H213873   3.917   4.094   0.943 -0.1958 -0.8809 -0.3631
 4637TIP3   OH213874   2.245   3.743   0.425  0.3838  0.4443 -0.1470
 4637TIP3    H113875   2.152   3.731   0.446  0.8762 -1.4676  1.1879
 4637TIP3    H213876   2.247   3.744   0.329 -1.2133  2.7050 -0.2258
 4638TIP3   OH213877   1.401   2.051   0.269 -0.6747  0.0548  0.3658
 4638TIP3    H113878   1.394   1.985   0.200 -0.1622 -0.0581  0.4169
 4638TIP3    H213879   1.311   2.078   0.285 -1.1408 -2.0718  1.7602
 4639TIP3   OH213880   2.878   3.310   3.962 -0.3401 -0.5671  0.3214
 4639TIP3    H113881   2.832   3.227   3.959 -0.6913 -0.4412  1.5959
 4639TIP3    H213882   2.892   3.326   4.055  0.7802  0.2254  0.0386
 4640TIP3   OH213883   0.559   5.764   1.944 -0.3990 -0.4080 -0.1195
 4640TIP3    H113884   0.525   5.731   2.027 -0.9090 -0.2688 -0.2722
 4640TIP3    H213885   0.579   5.685   1.893 -1.7777 -0.5022 -0.5481
 4641TIP3   OH213886   5.041   1.267   2.880  0.0190  0.1209 -0.3376
 4641TIP3    H113887   5.047   1.271   2.976  2.3110 -0.1266 -0.4170
 4641TIP3    H213888   4.972   1.329   2.858 -0.2919  0.4699  1.4492
 4642TIP3   OH213889   0.257   3.719   2.825  0.5544  0.1055 -0.7562
 4642TIP3    H113890   0.227   3.751   2.910 -0.0450  0.6696 -1.1754
 4642TIP3    H213891   0.348   3.750   2.818  0.8838 -0.6483  0.0232
 4643TIP3   OH213892   5.950   2.272   2.779  0.9168  0.3402  0.2626
 4643TIP3    H113893   6.028   2.282   2.835  2.5859 -0.9669 -1.6504
 4643TIP3    H213894   5.980   2.213   2.709 -1.7975 -0.0847 -0.6271
 4644TIP3   OH213895   1.770   0.119   3.698  0.0101  0.4412 -0.2314
 4644TIP3    H113896   1.808   0.104   3.785 -1.6678  1.4490  0.7371
 4644TIP3    H213897   1.807   0.203   3.670 -1.0777  1.2150  0.5296
 4645TIP3   OH213898   4.664   6.391   4.844 -0.3408 -0.4352 -0.3463
 4645TIP3    H113899   4.729   6.352   4.786  0.5299  0.4569  0.0113
 4645TIP3    H213900   4.670   6.486   4.827  0.1102 -0.1357  1.3738
 4646TIP3   OH213901   1.772   2.731   3.338  0.1477  0.0338  0.7731
 4646TIP3    H113902   1.812   2.760   3.257  0.6761 -2.2379  0.1818
 4646TIP3    H213903   1.842   2.736   3.403 -0.6722  3.5026  1.6474
 4647TIP3   OH213904   4.671   4.018   4.066  0.0137  0.4291 -0.0109
 4647TIP3    H113905   4.617   3.976   3.999  0.9082 -0.7013 -0.0532
 4647TIP3    H213906   4.738   4.065   4.015  0.9450 -0.7723  0.0639
 4648TIP3   OH213907   4.823   3.914   0.323  0.0584 -0.2792 -0.2313
 4648TIP3    H113908   4.748   3.872   0.280 -0.2311 -0.0951  0.0947
 4648TIP3    H213909   4.862   3.969   0.254 -0.7452  0.4605 -0.1062
 4649TIP3   OH213910   2.225   6.605   5.109  0.2368 -0.4592  0.5575
 4649TIP3    H113911   2.145   6.556   5.131  1.7551 -2.0088  3.2461
 4649TIP3    H213912   2.282   6.541   5.067  1.1422 -0.2430  1.4013
 4650TIP3   OH213913   3.679   5.838   3.698  0.3901 -0.4774 -0.3546
 4650TIP3    H113914   3.689   5.764   3.639 -0.8669 -2.0271  1.2533
 4650TIP3    H213915   3.647   5.800   3.780 -1.6676  1.9794  0.1239
 4651TIP3   OH213916   6.443   4.251   2.094  0.1401 -0.6389  0.1890
 4651TIP3    H113917   6.515   4.291   2.044  0.4504 -1.0724  0.2814
 4651TIP3    H213918   6.408   4.183   2.036  0.9649 -1.6303  0.8176
 4652TIP3   OH213919   6.138   3.759   2.547 -0.3416  0.2706  0.0173
 4652TIP3    H113920   6.127   3.684   2.604  0.4072 -1.4453 -1.9615
 4652TIP3    H213921   6.049   3.783   2.521 -0.5261 -0.9584 -0.5535
 4653TIP3   OH213922   0.609   2.520   5.290 -0.3312 -0.2494  0.3990
 4653TIP3    H113923   0.701   2.495   5.302  0.3485  2.0575  0.6989
 4653TIP3    H213924   0.596   2.590   5.354 -0.8841  2.6288 -2.5493
 4654TIP3   OH213925   1.516   1.003   2.831 -0.2526  0.2363  0.2376
 4654TIP3    H113926   1.518   1.080   2.773 -1.4448 -0.4064 -0.7055
 4654TIP3    H213927   1.595   1.012   2.884  0.7518  1.0172 -1.2919
 4655TIP3   OH213928   7.122   2.891   4.797  0.1168  0.2660  0.0033
 4655TIP3    H113929   7.173   2.851   4.726  1.1421 -0.7005  1.2399
 4655TIP3    H213930   7.158   2.854   4.877  0.2549  2.7199  1.1820
 4656TIP3   OH213931   3.336   4.574   2.454  0.1053  0.1999 -0.0127
 4656TIP3    H113932   3.381   4.508   2.401  0.2244  1.1291 -1.0968
 4656TIP3    H213933   3.404   4.639   2.475 -0.3095  0.6648 -0.0950
 4657TIP3   OH213934   5.877   2.082   4.447 -0.0255  0.0904 -0.3260
 4657TIP3    H113935   5.827   2.015   4.401  0.4060 -1.0763  0.8575
 4657TIP3    H213936   5.814   2.123   4.507  0.2973 -1.0695  0.8373
 4658TIP3   OH213937   3.838   0.898   3.365  0.2016  0.5857 -0.2536
 4658TIP3    H113938   3.817   0.958   3.437  1.1247  0.3389  0.2460
 4658TIP3    H213939   3.914   0.849   3.397  0.7903  0.6487 -1.5087
 4659TIP3   OH213940   3.960   3.471   4.751  0.1807 -0.1416  0.1578
 4659TIP3    H113941   3.949   3.409   4.679 -2.0559  1.7562 -1.2630
 4659TIP3    H213942   3.923   3.427   4.827 -1.3193 -0.6312 -0.8121
 4660TIP3   OH213943   5.178   4.026   2.910 -0.2585 -0.0075  0.2905
 4660TIP3    H113944   5.248   3.963   2.893  1.1743  1.0348  1.9660
 4660TIP3    H213945   5.098   3.973   2.914  0.1014 -1.0375 -3.1496
 4661TIP3   OH213946   4.490   2.262   2.914  0.2292  0.3508 -0.5771
 4661TIP3    H113947   4.451   2.339   2.954  0.3174  0.1949 -0.1909
 4661TIP3    H213948   4.463   2.266   2.822 -3.4875 -1.4846  0.2564
 4662TIP3   OH213949   2.256   6.132   3.258 -0.2461  0.1220 -0.0984
 4662TIP3    H113950   2.349   6.153   3.248 -0.0003 -0.2371  1.1695
 4662TIP3    H213951   2.256   6.052   3.312 -1.3100  0.9029  1.1212
 4663TIP3   OH213952   1.886   3.537   4.321 -0.4156 -0.2325 -0.4718
 4663TIP3    H113953   1.871   3.463   4.263 -0.5050 -1.0136  0.5091
 4663TIP3    H213954   1.866   3.614   4.268 -0.7496 -0.9245 -1.3824
 4664TIP3   OH213955   3.834   5.915   4.349 -0.4018 -0.0073 -0.5207
 4664TIP3    H113956   3.922   5.894   4.318  0.2021  1.3883  0.1799
 4664TIP3    H213957   3.834   5.888   4.441  0.0551  1.9886  0.1110
 4665TIP3   OH213958   1.898   2.556   4.925 -0.3450 -0.1462 -0.1774
 4665TIP3    H113959   1.820   2.570   4.979 -0.3893  0.0669 -0.2931
 4665TIP3    H213960   1.865   2.561   4.835  0.1095  1.9950 -0.2884
 4666TIP3   OH213961   1.605   1.132   0.311 -0.3780 -0.0563  0.4066
 4666TIP3    H113962   1.662   1.106   0.238  0.8466 -1.4375  1.7945
 4666TIP3    H213963   1.660   1.185   0.367 -0.9118 -0.1349  1.0116
 4667TIP3   OH213964   4.671   6.718   1.151  0.2261 -0.4476  0.2604
 4667TIP3    H113965   4.640   6.637   1.191  0.2712 -0.4292  0.3317
 4667TIP3    H213966   4.762   6.726   1.178  0.0183  0.0007  0.8541
 4668TIP3   OH213967   0.723   3.708   4.089 -0.1755 -0.4606  0.1423
 4668TIP3    H113968   0.764   3.737   4.008  1.5848 -2.4870  0.2197
 4668TIP3    H213969   0.634   3.742   4.084  0.6784  1.7636 -1.3395
 4669TIP3   OH213970   1.618   0.617   4.351  0.2495 -0.5736  0.9041
 4669TIP3    H113971   1.597   0.702   4.313 -1.7283 -1.0876  0.7297
 4669TIP3    H213972   1.579   0.554   4.291  1.5218 -1.6064  1.1323
 4670TIP3   OH213973   4.345   4.873   3.937  0.1678 -0.2154 -0.3817
 4670TIP3    H113974   4.385   4.896   3.854  1.1006 -1.2192 -0.2352
 4670TIP3    H213975   4.418   4.865   3.999 -0.4552  0.0076  0.4071
 4671TIP3   OH213976   1.976   4.542   1.853  0.1698 -0.0245  0.5424
 4671TIP3    H113977   1.976   4.590   1.935  0.5215  0.9250 -0.0024
 4671TIP3    H213978   2.030   4.594   1.794 -0.0241 -0.7223 -0.2825
 4672TIP3   OH213979   1.304   2.700   3.341 -0.7910  0.5591  0.4626
 4672TIP3    H113980   1.216   2.714   3.376 -0.3916  2.8577  0.6687
 4672TIP3    H213981   1.299   2.731   3.251 -0.3355  0.0545  0.2554
 4673TIP3   OH213982   2.289   2.162   0.849  0.3103 -0.0833 -0.5687
 4673TIP3    H113983   2.369   2.125   0.813 -0.0902 -0.2227 -1.3324
 4673TIP3    H213984   2.218   2.113   0.807 -0.1783 -0.4482  0.6181
 4674TIP3   OH213985   6.640   2.799   2.950 -0.0564  0.5053  0.2414
 4674TIP3    H113986   6.570   2.740   2.979  1.0633 -0.2383  1.5708
 4674TIP3    H213987   6.666   2.847   3.029  1.6074  0.0213  0.0332
 4675TIP3   OH213988   2.787   5.968   2.410  0.5385 -1.4811  0.4050
 4675TIP3    H113989   2.775   5.947   2.502  0.2113 -1.0420  0.4669
 4675TIP3    H213990   2.855   6.036   2.409 -1.9249  1.1531  0.6502
 4676TIP3   OH213991   6.679   1.017   4.027 -0.0298 -0.0347 -0.3840
 4676TIP3    H113992   6.664   1.004   4.121  0.3267 -1.4008 -0.4961
 4676TIP3    H213993   6.677   0.928   3.990  0.1361  0.4627 -1.6219
 4677TIP3   OH213994   1.487   2.269   3.732  0.1146 -0.3590 -0.4681
 4677TIP3    H113995   1.512   2.244   3.821  0.5132 -0.2539 -0.5490
 4677TIP3    H213996   1.566   2.257   3.681 -0.3034 -1.1217 -0.9587
 4678TIP3   OH213997   0.864   2.028   1.680  0.0270  0.0706  0.3326
 4678TIP3    H113998   0.797   2.021   1.612 -2.2902  2.0405  2.1845
 4678TIP3    H213999   0.869   2.122   1.699  0.6174 -0.3632  2.7452
 4679TIP3   OH214000   4.047   5.017   2.082 -0.5165 -0.4944  0.0521
 4679TIP3    H114001   3.998   4.936   2.100 -0.2932 -0.0475  3.0538
 4679TIP3    H214002   4.130   4.986   2.045 -1.0123 -1.5444 -0.2417
 4680TIP3   OH214003   3.792   2.015   4.183  0.4475  0.2729  0.3043
 4680TIP3    H114004   3.734   1.940   4.173  0.0979  0.5225  0.4199
 4680TIP3    H214005   3.850   2.012   4.107 -0.3859  0.5942 -0.3584
 4681TIP3   OH214006   6.437   0.030   1.451  0.1765  0.2900 -0.3398
 4681TIP3    H114007   6.513  -0.026   1.457 -0.4425 -0.4436  1.4296
 4681TIP3    H214008   6.456   0.103   1.510  0.3023  1.1147 -1.3785
 4682TIP3   OH214009   4.242   3.693   5.678 -0.0190  0.1396  0.6168
 4682TIP3    H114010   4.283   3.606   5.678 -0.4264 -0.0510  0.1890
 4682TIP3    H214011   4.227   3.712   5.771 -0.6575 -0.5963  0.6698
 4683TIP3   OH214012   6.171   2.450   3.329 -0.0229 -0.5396  0.3449
 4683TIP3    H114013   6.253   2.489   3.359  0.5697 -0.7566 -0.9159
 4683TIP3    H214014   6.157   2.488   3.242 -0.6137 -1.4474  0.0307
 4684TIP3   OH214015   6.109   6.021   1.542 -0.4425 -0.2491  0.5375
 4684TIP3    H114016   6.091   6.107   1.504 -1.1344 -0.1020  1.1700
 4684TIP3    H214017   6.054   5.961   1.492 -0.0920 -0.2992  0.2112
 4685TIP3   OH214018   2.112   6.047   4.389 -0.3809  0.0235  0.3356
 4685TIP3    H114019   2.151   6.046   4.477  0.5488  1.1768 -0.0344
 4685TIP3    H214020   2.130   6.135   4.356 -0.2651 -0.5440 -1.2103
 4686TIP3   OH214021   2.192   6.300   0.958  0.0956 -0.4358  0.2935
 4686TIP3    H114022   2.188   6.291   0.863 -0.7039 -0.3647  0.3176
 4686TIP3    H214023   2.233   6.219   0.988  0.8099 -0.2474 -0.1381
 4687TIP3   OH214024   6.240   2.527   5.072 -0.2108  0.5967 -0.7855
 4687TIP3    H114025   6.250   2.549   4.979 -0.0429  1.3908 -0.5861
 4687TIP3    H214026   6.168   2.582   5.102  0.2766  0.9469 -0.2479
 4688TIP3   OH214027   6.940   3.606   0.427  0.3852 -0.2542  0.2480
 4688TIP3    H114028   6.935   3.681   0.367 -1.5446 -0.2260  0.3800
 4688TIP3    H214029   6.911   3.531   0.374  1.1679 -0.7035  0.4459
 4689TIP3   OH214030   4.120   0.805   5.489  0.6914 -0.9539 -0.2403
 4689TIP3    H114031   4.183   0.801   5.560  0.9161 -0.9322 -0.4387
 4689TIP3    H214032   4.157   0.867   5.427 -1.0259  1.5775  1.1002
 4690TIP3   OH214033   1.888   5.098   5.386 -0.2195 -0.0293 -0.5856
 4690TIP3    H114034   1.969   5.052   5.409 -1.2612 -1.1103  1.1595
 4690TIP3    H214035   1.873   5.159   5.458 -0.4349  0.9348 -1.4165
 4691TIP3   OH214036   2.690   6.659   1.571 -0.0212  0.1302  0.1328
 4691TIP3    H114037   2.780   6.636   1.548 -0.3243  0.3058 -1.3119
 4691TIP3    H214038   2.637   6.592   1.529 -0.5306 -0.5856  1.8576
 4692TIP3   OH214039   5.650   0.831   2.559 -0.2485  0.2870  0.8789
 4692TIP3    H114040   5.659   0.779   2.638 -2.8091  0.0509  1.0770
 4692TIP3    H214041   5.731   0.814   2.510  0.9272 -0.3594  2.9224
 4693TIP3   OH214042   0.584   5.626   3.740  0.1883 -0.2261  0.2540
 4693TIP3    H114043   0.501   5.593   3.776 -0.4423  0.9076 -0.1229
 4693TIP3    H214044   0.650   5.564   3.772 -0.8536 -1.4252  0.1797
 4694TIP3   OH214045   5.117   3.674   1.764 -0.5190 -0.2645  0.1514
 4694TIP3    H114046   5.200   3.693   1.720 -1.3628  1.1557 -0.9353
 4694TIP3    H214047   5.128   3.711   1.852  0.0982 -0.3285  0.1071
 4695TIP3   OH214048   3.030   2.909   4.902  0.2981  0.2124  0.1909
 4695TIP3    H114049   3.076   2.991   4.920  0.2779  0.7642 -1.9828
 4695TIP3    H214050   3.091   2.860   4.846 -0.9168  0.1023 -1.0890
 4696TIP3   OH214051   3.289   3.165   5.837  0.4477  0.9190 -0.1555
 4696TIP3    H114052   3.362   3.105   5.822  0.8327  0.9282  1.4476
 4696TIP3    H214053   3.229   3.148   5.764  2.2000  1.1906 -1.7403
 4697TIP3   OH214054   6.891   0.282   3.629 -0.1660 -0.1243  0.2648
 4697TIP3    H114055   6.963   0.346   3.626  0.1820 -0.5393 -1.0132
 4697TIP3    H214056   6.926   0.204   3.587 -1.1899 -0.5273  0.1243
 4698TIP3   OH214057   0.390   6.536   4.144 -0.3281 -0.0750  0.0174
 4698TIP3    H114058   0.329   6.545   4.218  0.6068  0.4000  0.7491
 4698TIP3    H214059   0.334   6.511   4.071 -1.3044 -0.4259  0.8444
 4699TIP3   OH214060   0.594   3.400   2.075 -0.3361 -0.0310 -0.2656
 4699TIP3    H114061   0.615   3.321   2.026  2.4531  0.0627  0.6210
 4699TIP3    H214062   0.664   3.461   2.053  0.1401  0.5580  2.5649
 4700TIP3   OH214063   0.570   2.671   4.777 -0.1356  0.1141  0.1131
 4700TIP3    H114064   0.588   2.713   4.693 -1.7401  0.5295 -0.0446
 4700TIP3    H214065   0.544   2.743   4.835 -3.0954 -0.5998 -0.2034
 4701TIP3   OH214066   3.897   3.056   0.764  0.1555 -0.5669 -0.2237
 4701TIP3    H114067   3.893   3.019   0.852 -0.4956  3.0985  1.4931
 4701TIP3    H214068   3.990   3.061   0.745  0.5265  1.3179  1.6780
 4702TIP3   OH214069   0.216   4.705   4.653  0.0505 -0.3163  0.0197
 4702TIP3    H114070   0.265   4.780   4.617  0.1289 -0.0100  0.7476
 4702TIP3    H214071   0.268   4.629   4.627  0.3203 -0.0736 -0.1719
 4703TIP3   OH214072   0.378   1.899   1.914 -0.1884 -0.4569 -0.3365
 4703TIP3    H114073   0.295   1.897   1.962 -1.4135  0.1428 -2.2943
 4703TIP3    H214074   0.396   1.807   1.894  0.1884 -0.6864  0.9399
 4704TIP3   OH214075   4.953   5.696   1.707  0.3019  0.4475 -0.5690
 4704TIP3    H114076   4.981   5.708   1.616 -0.0021 -1.2269 -0.9226
 4704TIP3    H214077   4.964   5.782   1.747  1.5659  0.9363 -1.8726
 4705TIP3   OH214078   3.861   1.807   4.740  0.0584  0.4630 -0.3783
 4705TIP3    H114079   3.792   1.846   4.793 -0.0287 -0.1922  0.0021
 4705TIP3    H214080   3.868   1.864   4.664  0.4713  1.6553  0.5230
 4706TIP3   OH214081   7.106   1.707   0.361  0.1893  0.1412  0.0006
 4706TIP3    H114082   7.090   1.788   0.408 -1.1014 -0.5871  0.8718
 4706TIP3    H214083   7.153   1.733   0.282 -0.4758  1.7599  0.1140
 4707TIP3   OH214084   3.349   1.666   0.371  0.1072 -0.3553  0.1686
 4707TIP3    H114085   3.334   1.603   0.301 -0.5925  0.1917 -0.1856
 4707TIP3    H214086   3.263   1.706   0.386  0.4594  0.2278  0.6666
 4708TIP3   OH214087   3.036   4.699   2.873  0.2153  0.2941  0.6011
 4708TIP3    H114088   3.104   4.692   2.805 -1.5497  3.2158 -1.7068
 4708TIP3    H214089   3.085   4.713   2.954  2.3974 -2.5340 -0.0518
 4709TIP3   OH214090   3.948   4.623   2.674 -0.3245 -0.0934  0.1450
 4709TIP3    H114091   3.910   4.577   2.600  0.8113  0.6606 -0.9359
 4709TIP3    H214092   4.042   4.620   2.659 -0.2038  3.4570 -0.5673
 4710TIP3   OH214093   2.197   5.442   4.876  0.1897  0.1966  0.1509
 4710TIP3    H114094   2.105   5.471   4.879 -0.5222 -1.9333  0.3827
 4710TIP3    H214095   2.247   5.524   4.871 -1.7257  1.4069 -0.5973
 4711TIP3   OH214096   1.256   1.639   0.307 -0.5473  0.3856  0.2171
 4711TIP3    H114097   1.346   1.615   0.285 -0.3526  1.7718 -0.5807
 4711TIP3    H214098   1.203   1.572   0.263  0.0359  0.3786 -0.4905
 4712TIP3   OH214099   4.487   6.103   5.210 -0.1745  0.0436  0.2074
 4712TIP3    H114100   4.530   6.076   5.292  0.0211  0.4833  0.2532
 4712TIP3    H214101   4.444   6.024   5.178  1.5254 -0.6972 -0.3841
 4713TIP3   OH214102   6.674   1.322   0.472 -0.2928  0.3238  0.2255
 4713TIP3    H114103   6.600   1.363   0.518  0.2492 -0.2339  1.6395
 4713TIP3    H214104   6.721   1.275   0.540  0.8290 -0.1310 -0.8394
 4714TIP3   OH214105   2.381   3.755   4.413  0.1717 -0.1889  0.2420
 4714TIP3    H114106   2.353   3.805   4.489 -2.4464 -0.7757 -0.2673
 4714TIP3    H214107   2.301   3.716   4.378  1.2620 -0.0262 -2.7706
 4715TIP3   OH214108   2.423   4.373   3.057 -0.0003  0.0113  0.4212
 4715TIP3    H114109   2.432   4.439   2.989 -0.0315 -0.0930  0.3157
 4715TIP3    H214110   2.346   4.400   3.106 -1.5837 -1.3491 -1.1998
 4716TIP3   OH214111   1.967   5.008   0.029 -0.6131 -0.3337 -0.4287
 4716TIP3    H114112   1.936   4.933  -0.022 -2.1638 -2.0655  2.7751
 4716TIP3    H214113   2.063   5.003   0.024 -0.7086 -1.0769 -2.1646
 4717TIP3   OH214114   3.228   4.964   5.131  0.3414  0.2219  0.2373
 4717TIP3    H114115   3.239   5.043   5.078  2.5814 -1.7002 -2.4425
 4717TIP3    H214116   3.277   4.983   5.211 -1.2929  2.3907  0.8274
 4718TIP3   OH214117   0.191   4.118   5.169  0.0246  0.2361  0.0911
 4718TIP3    H114118   0.279   4.128   5.132  0.5831 -0.5735  1.1306
 4718TIP3    H214119   0.144   4.197   5.142  1.3461  1.1191  0.2657
 4719TIP3   OH214120   2.125   5.241   1.476 -0.4352  0.0394 -0.2490
 4719TIP3    H114121   2.084   5.244   1.563  0.2012  0.7560  0.0336
 4719TIP3    H214122   2.200   5.182   1.488 -0.7929 -0.4814 -0.5183
 4720TIP3   OH214123   6.635   0.548   5.548  0.2858  0.0229 -0.3751
 4720TIP3    H114124   6.701   0.524   5.613 -2.0146 -0.7873  1.8609
 4720TIP3    H214125   6.559   0.573   5.601 -1.9429 -1.2556 -2.7677
 4721TIP3   OH214126   2.911   1.000   2.175  0.1026 -0.0426 -0.3382
 4721TIP3    H114127   2.904   0.983   2.269  0.0860  0.0027 -0.3315
 4721TIP3    H214128   2.942   1.090   2.169 -4.3397  1.7169 -0.4010
 4722TIP3   OH214129   3.105   4.794   3.267  0.0725 -0.0627 -0.1534
 4722TIP3    H114130   3.065   4.865   3.216  0.0060 -0.8321 -1.2115
 4722TIP3    H214131   3.155   4.744   3.203  0.2224 -0.8923  0.5960
 4723TIP3   OH214132   2.690   4.159   1.534  0.0577 -0.1777 -0.4014
 4723TIP3    H114133   2.710   4.181   1.625  2.4515 -1.1828 -0.6136
 4723TIP3    H214134   2.600   4.127   1.536 -0.3774  0.9874  1.3694
 4724TIP3   OH214135   5.176   5.046   1.466  0.3072 -0.7363 -0.0622
 4724TIP3    H114136   5.110   5.112   1.489  2.8717  1.6037  1.2452
 4724TIP3    H214137   5.172   5.040   1.371 -2.1269 -1.1345  0.0035
 4725TIP3   OH214138   4.675   5.860   2.255 -0.0749  0.4935  0.3315
 4725TIP3    H114139   4.724   5.843   2.335 -2.0171  1.0751  1.7211
 4725TIP3    H214140   4.605   5.795   2.255  1.1511 -0.9792 -2.1271
 4726TIP3   OH214141   5.829   6.410   0.856 -0.0114 -0.0551 -0.4369
 4726TIP3    H114142   5.866   6.497   0.873  1.3791 -0.9358  1.3359
 4726TIP3    H214143   5.735   6.423   0.859  0.1716  1.3736 -0.0326
 4727TIP3   OH214144   4.935   3.941   1.101 -0.4695  0.6287  0.8356
 4727TIP3    H114145   4.989   3.935   1.180 -0.2182  0.2027  0.6380
 4727TIP3    H214146   4.998   3.929   1.029 -0.5035  2.1755  0.5217
 4728TIP3   OH214147   4.956   4.238   1.297 -0.1091  0.1932  0.1835
 4728TIP3    H114148   5.023   4.216   1.362 -0.9968  0.0049  1.0656
 4728TIP3    H214149   4.997   4.307   1.244 -0.0245  1.8237  2.2026
 4729TIP3   OH214150   4.130   5.958   3.961 -0.8186 -0.3490  0.8519
 4729TIP3    H114151   4.205   5.952   3.901 -2.1895 -1.0188 -0.8802
 4729TIP3    H214152   4.124   6.051   3.982  1.0412 -0.3917  1.8073
 4730TIP3   OH214153   0.518   3.769   2.302  0.6221 -0.1901  0.1694
 4730TIP3    H114154   0.579   3.697   2.316  2.1108  1.0793  0.4913
 4730TIP3    H214155   0.461   3.739   2.231  1.5898 -1.4440 -0.1113
 4731TIP3   OH214156   5.167   1.015   4.729  0.3928  0.0443  0.1018
 4731TIP3    H114157   5.198   0.972   4.649  1.4948  0.9061  0.0486
 4731TIP3    H214158   5.222   1.093   4.737 -1.0084  1.0225  0.6361
 4732TIP3   OH214159   5.371   4.104   3.515  0.0504  0.2968 -0.0642
 4732TIP3    H114160   5.362   4.023   3.566  0.9343 -0.6199 -1.2841
 4732TIP3    H214161   5.430   4.159   3.566  1.4751 -0.8803 -0.3623
 4733TIP3   OH214162   0.509   4.214   3.838 -0.5120 -0.1037  0.4203
 4733TIP3    H114163   0.592   4.176   3.808  0.0217  1.1935  0.1942
 4733TIP3    H214164   0.526   4.308   3.844 -2.1889  0.2972 -0.3854
 4734TIP3   OH214165   0.621   5.917   5.572  0.0155  0.0355  0.2112
 4734TIP3    H114166   0.579   5.834   5.592  0.0197 -0.5085 -1.7834
 4734TIP3    H214167   0.660   5.945   5.655  1.0387 -2.5422  0.7081
 4735TIP3   OH214168   3.824   6.734   5.706 -0.2293 -0.3468  0.5630
 4735TIP3    H114169   3.904   6.785   5.711 -0.9156  0.8193 -0.0256
 4735TIP3    H214170   3.785   6.757   5.622 -0.4701 -2.0093  0.1755
 4736TIP3   OH214171   0.749   2.350   1.912  0.2913  0.7225  0.2910
 4736TIP3    H114172   0.811   2.293   1.868 -0.3378 -0.2227  0.5879
 4736TIP3    H214173   0.712   2.404   1.842  1.8369  1.7165  0.1885
 4737TIP3   OH214174   4.401   0.548   4.092  0.6120 -0.1260  0.3624
 4737TIP3    H114175   4.459   0.558   4.168  0.3114 -2.3899  0.9469
 4737TIP3    H214176   4.334   0.486   4.120 -0.9808  0.8865 -0.9752
 4738TIP3   OH214177   3.661   5.639   2.977  0.4865  0.0346 -0.0094
 4738TIP3    H114178   3.714   5.605   2.905  0.7129  1.0938 -0.3564
 4738TIP3    H214179   3.594   5.692   2.935  0.5319  0.5441  0.5523
 4739TIP3   OH214180   6.962   5.009   1.817 -0.1861 -0.0082 -0.8174
 4739TIP3    H114181   6.933   4.933   1.867  0.5859 -0.5933 -1.2289
 4739TIP3    H214182   6.919   4.999   1.732 -2.4650  1.6197  0.0375
 4740TIP3   OH214183   1.582   4.658   1.830 -0.4506 -0.0282  0.7407
 4740TIP3    H114184   1.552   4.676   1.741 -0.1348 -0.6583  0.4999
 4740TIP3    H214185   1.600   4.564   1.831  0.1623  0.0848  1.2822
 4741TIP3   OH214186   4.263   1.070   1.489  0.4686  0.0995 -0.0865
 4741TIP3    H114187   4.212   1.027   1.420 -0.7791  1.0975  0.1923
 4741TIP3    H214188   4.268   1.006   1.559  2.1382 -1.1129 -1.2282
 4742TIP3   OH214189   6.453   1.667   0.074 -0.3913  0.0476  0.1215
 4742TIP3    H114190   6.421   1.578   0.063 -0.8241  0.0008  1.5394
 4742TIP3    H214191   6.527   1.659   0.134 -0.0870  0.5979 -0.1650
 4743TIP3   OH214192   3.164   2.992   1.236 -0.4408  0.4895 -0.9672
 4743TIP3    H114193   3.169   2.910   1.186  0.2015  0.9699 -1.7147
 4743TIP3    H214194   3.234   2.983   1.301 -0.9775  0.0573 -0.4412
 4744TIP3   OH214195   6.141   6.184   3.180 -0.4950 -0.0799 -0.6355
 4744TIP3    H114196   6.159   6.118   3.247  0.1718  1.3492  0.6673
 4744TIP3    H214197   6.209   6.172   3.115  0.4661  0.2120  0.2951
 4745TIP3   OH214198   4.275   4.298   5.076 -0.6023 -0.0341  0.0449
 4745TIP3    H114199   4.234   4.367   5.129  0.6962 -1.2758  2.8795
 4745TIP3    H214200   4.353   4.339   5.038 -1.8803  1.0450 -1.5316
 4746TIP3   OH214201   3.677   6.595   1.983 -0.8424 -0.3590  0.2424
 4746TIP3    H114202   3.608   6.644   1.937 -0.4843  0.6712  0.7753
 4746TIP3    H214203   3.705   6.654   2.053  0.3809 -0.8791  0.2095
 4747TIP3   OH214204   6.485   0.236   5.661 -0.3745  0.2701  0.1483
 4747TIP3    H114205   6.554   0.277   5.609 -0.2471  1.8045  1.4444
 4747TIP3    H214206   6.523   0.226   5.748 -0.4299 -2.6413 -0.0733
 4748TIP3   OH214207   4.874   1.924   5.365  0.3327  0.0181  0.0912
 4748TIP3    H114208   4.826   2.007   5.353 -0.3769 -0.3605  0.2312
 4748TIP3    H214209   4.965   1.950   5.376  0.2423  0.7322 -0.7229
 4749TIP3   OH214210   5.338   0.107   1.538 -0.4178  0.3402 -0.2981
 4749TIP3    H114211   5.370   0.196   1.518  0.1494  0.0450 -0.7312
 4749TIP3    H214212   5.306   0.074   1.454  0.6873 -0.3860 -0.4538
 4750TIP3   OH214213   1.177   5.033   4.806 -0.0209 -0.3237 -0.3664
 4750TIP3    H114214   1.247   5.031   4.872 -0.7916  0.8456  0.5189
 4750TIP3    H214215   1.224   5.033   4.723  1.1314  1.8192  0.2099
 4751TIP3   OH214216   7.222   5.289   1.361 -0.5028 -0.2565 -0.0066
 4751TIP3    H114217   7.227   5.203   1.321 -1.6327 -0.6970  0.7667
 4751TIP3    H214218   7.159   5.337   1.307 -1.2976 -0.5390  0.6544
 4752TIP3   OH214219   6.139   1.054   2.810  0.4638  0.2366  0.0145
 4752TIP3    H114220   6.174   1.065   2.722  1.3787  1.1722  0.4704
 4752TIP3    H214221   6.046   1.037   2.797  0.9603 -1.8504 -1.2129
 4753TIP3   OH214222   2.641   3.679   2.705 -0.6130  0.4678 -0.3650
 4753TIP3    H114223   2.560   3.719   2.674 -0.9654  0.6591  0.7515
 4753TIP3    H214224   2.710   3.719   2.651 -1.1561  1.0942 -0.6065
 4754TIP3   OH214225   6.933   0.130   2.032 -0.4137 -0.2392 -0.0830
 4754TIP3    H114226   7.006   0.131   1.969 -0.1883  1.2635  0.1577
 4754TIP3    H214227   6.968   0.084   2.108  1.1115  2.2652  0.8711
 4755TIP3   OH214228   0.895   0.625   5.406 -0.1045 -0.3504 -0.7930
 4755TIP3    H114229   0.826   0.618   5.340 -1.1369  1.9281 -0.0497
 4755TIP3    H214230   0.949   0.698   5.376  0.0244  0.0362  0.3466
 4756TIP3   OH214231   4.075   0.703   3.366 -0.1533  0.0695 -0.0376
 4756TIP3    H114232   4.145   0.674   3.307 -0.2869 -0.1104 -0.1068
 4756TIP3    H214233   4.015   0.629   3.371 -1.0491  0.6875 -1.0468
 4757TIP3   OH214234   5.913   2.335   3.746 -0.1852 -0.1080 -0.5418
 4757TIP3    H114235   5.959   2.333   3.829 -0.4146 -3.7675 -0.3446
 4757TIP3    H214236   5.979   2.309   3.681 -0.1214  2.2500 -1.5186
 4758TIP3   OH214237   4.211   1.893   2.938 -0.2835  0.0653  0.0606
 4758TIP3    H114238   4.212   1.947   2.859  3.5722 -0.4760 -0.4582
 4758TIP3    H214239   4.284   1.926   2.991 -1.5533 -0.8376  2.5350
 4759TIP3   OH214240   0.532   0.889   2.055 -0.6750 -0.2083  0.1078
 4759TIP3    H114241   0.514   0.896   2.149 -4.2956  0.3437 -0.4837
 4759TIP3    H214242   0.469   0.825   2.023  0.2297 -0.1135 -2.0329
 4760TIP3   OH214243   7.114   2.755   0.432 -0.0656 -0.2777  0.1822
 4760TIP3    H114244   7.144   2.777   0.520 -0.1951 -1.6879  0.5989
 4760TIP3    H214245   7.158   2.818   0.376  1.0170 -0.1577  1.1285
 4761TIP3   OH214246   0.014   3.549   4.302  0.5203  0.0378 -0.3664
 4761TIP3    H114247   0.066   3.627   4.283 -0.1042  0.3017 -1.0451
 4761TIP3    H214248   0.046   3.484   4.239  1.2858 -0.3756  0.4328
 4762TIP3   OH214249   6.734   6.076   5.856  0.1705 -0.1273  0.0572
 4762TIP3    H114250   6.686   6.053   5.936 -2.0511 -1.1425 -1.4685
 4762TIP3    H214251   6.677   6.138   5.811  1.7977  1.1110 -0.3797
 4763TIP3   OH214252   4.465   1.714   1.931 -0.2998 -0.6561 -0.2049
 4763TIP3    H114253   4.432   1.736   2.018 -1.4960  1.3830 -1.0928
 4763TIP3    H214254   4.493   1.798   1.894 -0.7255 -1.3106 -2.1318
 4764TIP3   OH214255   1.133   5.720   3.967 -0.5426 -0.3015  0.1218
 4764TIP3    H114256   1.185   5.779   3.912 -3.5617  1.4549 -1.0574
 4764TIP3    H214257   1.164   5.738   4.056 -0.2439  1.9131 -0.3620
 4765TIP3   OH214258   2.767   6.187   3.222  0.2169 -0.3089 -0.0184
 4765TIP3    H114259   2.704   6.258   3.217 -1.1754 -1.5699 -1.0417
 4765TIP3    H214260   2.784   6.177   3.316  0.1146  1.0574  0.1676
 4766TIP3   OH214261   1.518   0.720   1.162 -0.3836 -0.1026  0.0365
 4766TIP3    H114262   1.567   0.802   1.165  0.3276 -0.5419  0.8306
 4766TIP3    H214263   1.580   0.657   1.125 -0.5928 -0.5066  0.3815
 4767TIP3   OH214264   1.990   1.839   1.820  0.7459  0.5281 -0.6482
 4767TIP3    H114265   2.022   1.917   1.864  0.9313  0.6649 -1.0163
 4767TIP3    H214266   2.067   1.805   1.773  1.0204 -0.6524  0.6055
 4768TIP3   OH214267   0.742   1.741   4.280  0.6000  0.6341  0.0421
 4768TIP3    H114268   0.786   1.773   4.201  0.3043  0.7491 -0.0809
 4768TIP3    H214269   0.788   1.661   4.303  0.8022  0.6958 -0.1470
 4769TIP3   OH214270   5.031   4.980   2.300  0.7286 -0.1764 -0.2403
 4769TIP3    H114271   5.077   5.058   2.270 -0.1126  0.1842 -0.6331
 4769TIP3    H214272   5.040   4.981   2.395 -0.6956  1.3347 -0.0837
 4770TIP3   OH214273   1.019   4.649   4.120  0.2063  0.0778 -0.1845
 4770TIP3    H114274   1.071   4.713   4.071  0.2282 -0.8751 -1.4645
 4770TIP3    H214275   0.979   4.699   4.191  0.1374  1.5277 -1.2076
 4771TIP3   OH214276   6.363   0.868   1.270 -0.1926 -0.3124 -0.0440
 4771TIP3    H114277   6.451   0.838   1.290 -0.2184 -0.4434 -0.1204
 4771TIP3    H214278   6.307   0.793   1.291 -0.4410  0.2225  1.3455
 4772TIP3   OH214279   2.785   2.660   1.572 -0.3051  0.2452  0.5446
 4772TIP3    H114280   2.826   2.737   1.613 -0.1070  0.1581  0.5088
 4772TIP3    H214281   2.826   2.586   1.616  1.3456  0.0902 -1.1499
 4773TIP3   OH214282   6.098   3.639   2.994  0.0665  0.1705 -0.3508
 4773TIP3    H114283   6.020   3.693   2.979  0.4323  1.0976  0.9162
 4773TIP3    H214284   6.127   3.664   3.082  0.2088 -2.1548  0.3179
 4774TIP3   OH214285   4.745   0.960   2.393  0.7669  0.2862  0.4287
 4774TIP3    H114286   4.654   0.991   2.398  0.6094 -0.2559  1.0925
 4774TIP3    H214287   4.776   0.990   2.307 -0.7108 -1.2907 -0.7397
 4775TIP3   OH214288   5.665   6.532   1.624  0.1440  0.0516  0.2723
 4775TIP3    H114289   5.602   6.508   1.692 -1.0170 -0.1828 -0.8408
 4775TIP3    H214290   5.731   6.462   1.627 -0.4165 -0.4767  0.5078
 4776TIP3   OH214291   6.583   4.408   0.088 -0.0248  0.1225 -0.5167
 4776TIP3    H114292   6.654   4.413   0.023 -1.4447  1.0849 -2.0660
 4776TIP3    H214293   6.510   4.369   0.040 -0.4496 -1.3286  1.1987
 4777TIP3   OH214294   2.725   4.698   5.771 -0.3852  0.7217  0.1968
 4777TIP3    H114295   2.782   4.628   5.740 -2.1672 -2.3185  3.1099
 4777TIP3    H214296   2.638   4.672   5.743 -0.9381  2.7382 -0.0833
 4778TIP3   OH214297   2.187   5.062   2.215 -0.0994  0.3932  0.2139
 4778TIP3    H114298   2.221   4.981   2.252  0.7226  1.2224  1.3725
 4778TIP3    H214299   2.211   5.058   2.123 -0.1889 -0.7324  0.2314
 4779TIP3   OH214300   3.641   1.166   4.737 -0.2125  0.1825  0.1912
 4779TIP3    H114301   3.597   1.084   4.757 -0.3102  0.0059 -0.7468
 4779TIP3    H214302   3.571   1.226   4.710 -0.1164  0.5262  0.6700
 4780TIP3   OH214303   5.926   4.033   0.380  0.7676  0.1311  0.0295
 4780TIP3    H114304   5.952   4.125   0.381  2.5498 -0.2062 -2.9971
 4780TIP3    H214305   5.873   4.022   0.459  1.0972  3.5434  0.8745
 4781TIP3   OH214306   6.379   3.464   5.682 -0.3483 -0.4520  0.4423
 4781TIP3    H114307   6.375   3.385   5.628  1.0947 -0.0617 -0.2750
 4781TIP3    H214308   6.468   3.466   5.716  1.4197  3.2127 -3.4132
 4782TIP3   OH214309   5.038   5.061   4.176  0.1824 -0.4365  0.0754
 4782TIP3    H114310   5.051   5.054   4.082 -0.7473 -0.0882 -0.0917
 4782TIP3    H214311   5.123   5.039   4.214 -0.0746 -3.2403 -0.7252
 4783TIP3   OH214312   0.954   4.139   5.190 -0.0064 -0.2392 -0.1519
 4783TIP3    H114313   0.914   4.157   5.276  1.9239 -1.1037  0.9919
 4783TIP3    H214314   1.045   4.120   5.210 -0.0723 -3.1757 -2.1063
 4784TIP3   OH214315   6.854   2.938   2.477 -0.3271 -0.2052  0.2705
 4784TIP3    H114316   6.939   2.897   2.462 -0.9228 -1.3557 -0.0416
 4784TIP3    H214317   6.842   2.996   2.401 -0.1331 -0.5746 -0.0468
 4785TIP3   OH214318   3.595   0.492   4.718 -0.6920  0.4917  0.4172
 4785TIP3    H114319   3.640   0.547   4.782 -0.0361  2.0333 -1.2922
 4785TIP3    H214320   3.664   0.440   4.677 -1.0888 -0.3842  0.8340
 4786TIP3   OH214321   1.150   1.234   1.183  0.1756 -0.2618 -0.0805
 4786TIP3    H114322   1.103   1.310   1.150 -0.1102 -0.4236 -0.0522
 4786TIP3    H214323   1.140   1.168   1.115 -1.9883 -1.2141  1.0801
 4787TIP3   OH214324   2.016   3.667   2.799 -0.0635 -0.2498  0.4389
 4787TIP3    H114325   2.078   3.621   2.855 -0.0699  0.1142  0.7509
 4787TIP3    H214326   1.958   3.598   2.766  1.5161 -0.8634 -1.2283
 4788TIP3   OH214327   2.039   4.814   1.012  0.1823 -0.0281  0.3880
 4788TIP3    H114328   2.038   4.781   0.922 -0.5429 -1.5386  0.9165
 4788TIP3    H214329   2.034   4.909   1.002  1.4361 -0.0702 -1.1864
 4789TIP3   OH214330   1.097   1.782   5.451  0.1623 -0.5470 -0.0685
 4789TIP3    H114331   1.023   1.822   5.496 -0.2470  0.2760 -1.4408
 4789TIP3    H214332   1.098   1.822   5.364  0.9766 -2.0328 -0.7909
 4790TIP3   OH214333   4.253   3.743   2.499  0.0921 -0.0736  0.4202
 4790TIP3    H114334   4.172   3.735   2.449 -0.7346  1.2923  1.4726
 4790TIP3    H214335   4.322   3.743   2.433 -0.6606 -2.0411 -0.4563
 4791TIP3   OH214336   5.469   5.302   3.791 -0.2335 -0.1517 -0.0649
 4791TIP3    H114337   5.523   5.223   3.783  0.8029  0.5262  0.1090
 4791TIP3    H214338   5.417   5.288   3.870  1.6470  0.3295  1.2999
 4792TIP3   OH214339   1.779   0.463   1.868  0.0587 -0.0148  0.5329
 4792TIP3    H114340   1.836   0.407   1.814 -0.4110  0.7274 -0.7894
 4792TIP3    H214341   1.820   0.550   1.864 -0.4625  0.2423  0.6400
 4793TIP3   OH214342   6.168   4.584   2.560 -0.5668  0.2854 -0.0696
 4793TIP3    H114343   6.258   4.581   2.591 -0.4637  1.3266 -0.2316
 4793TIP3    H214344   6.175   4.582   2.464 -0.8234 -1.6348 -0.0799
 4794TIP3   OH214345   5.142   4.649   1.928 -0.0199 -0.4755  0.1408
 4794TIP3    H114346   5.065   4.704   1.940 -0.3453 -0.5170 -1.5197
 4794TIP3    H214347   5.216   4.709   1.935 -0.3159 -0.0246 -0.5198
 4795TIP3   OH214348   2.311   6.548   2.022  0.1076  0.1942 -0.1155
 4795TIP3    H114349   2.232   6.567   1.971 -0.0957  1.0115  0.4939
 4795TIP3    H214350   2.284   6.481   2.084 -0.2814  0.8987  0.4938
 4796TIP3   OH214351   3.405   3.045   0.799  0.0981  0.5496 -0.0770
 4796TIP3    H114352   3.397   2.995   0.881  0.6706  1.2784  0.4324
 4796TIP3    H214353   3.427   2.979   0.734 -1.3488 -0.1955  0.1462
 4797TIP3   OH214354   6.193   5.967   3.348  0.0255  0.0161 -0.4081
 4797TIP3    H114355   6.116   5.918   3.380  1.2555 -1.3858  0.5344
 4797TIP3    H214356   6.231   6.006   3.426  1.2395 -0.7468 -0.5984
 4798TIP3   OH214357   1.215   2.324   0.689  0.0454  0.1759 -0.0372
 4798TIP3    H114358   1.186   2.389   0.753 -0.7556 -0.4148  0.2190
 4798TIP3    H214359   1.264   2.374   0.623 -1.8100  1.2786 -0.6374
 4799TIP3   OH214360   5.677   2.422   2.575  0.2523  0.0437 -0.1272
 4799TIP3    H114361   5.678   2.386   2.486  1.3577  0.2994 -0.2359
 4799TIP3    H214362   5.645   2.511   2.565 -0.3995 -0.1885 -0.1534
 4800TIP3   OH214363   1.803   3.399   4.857 -0.3208  0.0193  0.5635
 4800TIP3    H114364   1.894   3.375   4.876 -0.3449 -1.0859 -0.5711
 4800TIP3    H214365   1.788   3.366   4.769 -1.4011  1.4534  0.1884
 4801TIP3   OH214366   3.913   2.293   2.992 -0.3174  0.5177 -0.4218
 4801TIP3    H114367   3.948   2.209   3.022 -1.5566  0.4818  1.0485
 4801TIP3    H214368   3.991   2.347   2.977  0.5450 -1.0837 -2.1197
 4802TIP3   OH214369   6.425   6.211   2.194 -0.1161 -0.4806 -0.2781
 4802TIP3    H114370   6.462   6.189   2.280  0.7033 -1.1066 -0.7755
 4802TIP3    H214371   6.345   6.260   2.214  2.1332  3.0690  0.8463
 4803TIP3   OH214372   2.571   1.056   0.120 -1.1170 -0.3391  0.3205
 4803TIP3    H114373   2.579   1.109   0.199  1.0945  0.7561 -0.5540
 4803TIP3    H214374   2.547   1.118   0.052 -0.2454 -0.7572 -0.3846
 4804TIP3   OH214375   0.673   5.429   0.804 -0.6030  0.1000  0.0349
 4804TIP3    H114376   0.726   5.456   0.879  0.2656  2.2702 -1.2699
 4804TIP3    H214377   0.609   5.368   0.841  0.6407  0.0268  2.2684
 4805TIP3   OH214378   4.256   3.478   3.391  0.4759  0.2868  0.5594
 4805TIP3    H114379   4.298   3.458   3.307 -2.4956 -0.8688 -0.7755
 4805TIP3    H214380   4.245   3.574   3.389 -1.4753  0.1057 -1.4703
 4806TIP3   OH214381   0.120   1.535   5.527 -0.0228  0.2358 -0.1545
 4806TIP3    H114382   0.076   1.559   5.609  0.7081  0.7131  0.1100
 4806TIP3    H214383   0.052   1.491   5.476 -0.3701 -0.4989  0.8938
 4807TIP3   OH214384   1.384   5.975   4.037 -0.6662  0.1749  0.0041
 4807TIP3    H114385   1.358   5.908   4.100 -0.2049  0.0354  0.0565
 4807TIP3    H214386   1.413   5.925   3.960 -0.6512  0.3242 -0.0867
 4808TIP3   OH214387   1.128   5.226   3.819  0.2160  0.1592 -0.2166
 4808TIP3    H114388   1.135   5.261   3.730  0.4102 -0.9970 -0.6798
 4808TIP3    H214389   1.187   5.150   3.819 -0.9892 -0.8064  0.4083
 4809TIP3   OH214390   1.144   5.859   4.240  0.2453 -0.4373  0.0692
 4809TIP3    H114391   1.143   5.764   4.230 -0.8207 -0.4492  0.1445
 4809TIP3    H214392   1.053   5.882   4.259  0.2259  0.7208 -1.2082
 4810TIP3   OH214393   3.527   0.590   5.404  0.7923 -0.2973 -0.0487
 4810TIP3    H114394   3.611   0.633   5.391  0.2545  1.0138  0.5809
 4810TIP3    H214395   3.487   0.637   5.478 -0.4096 -1.0046 -0.2146
 4811TIP3   OH214396   1.772   5.873   4.925 -0.4190  0.5146 -0.5589
 4811TIP3    H114397   1.763   5.960   4.964 -1.5286 -0.3524  1.2432
 4811TIP3    H214398   1.688   5.857   4.883 -0.9625 -0.4502  0.8378
 4812TIP3   OH214399   0.177   1.334   3.174 -0.3426  0.1722  0.0377
 4812TIP3    H114400   0.251   1.310   3.230 -1.9610 -0.2793  2.0872
 4812TIP3    H214401   0.140   1.412   3.216 -0.8597  0.5657 -1.1226
 4813TIP3   OH214402   0.715   4.507   4.609 -0.2366  0.5517  0.0374
 4813TIP3    H114403   0.727   4.486   4.516  0.2586 -1.2006  0.4617
 4813TIP3    H214404   0.786   4.461   4.653  1.0346  3.3014  1.1133
 4814TIP3   OH214405   7.109   3.961   0.480  0.1548 -0.2232  1.1357
 4814TIP3    H114406   7.046   3.995   0.543 -0.7638  0.6315 -0.1831
 4814TIP3    H214407   7.056   3.927   0.408  1.1714  0.0093  0.2414
 4815TIP3   OH214408   0.159   6.302   2.920 -0.1293  0.6778  0.4183
 4815TIP3    H114409   0.232   6.302   2.859  0.9340 -0.8039  1.6140
 4815TIP3    H214410   0.109   6.223   2.899 -0.6306  0.9684  0.4874
 4816TIP3   OH214411   0.181   2.733   3.233 -0.0244 -0.7561  0.4371
 4816TIP3    H114412   0.154   2.792   3.163 -0.5420 -0.8801  0.5333
 4816TIP3    H214413   0.250   2.679   3.194 -0.0644 -0.5904  0.1330
 4817TIP3   OH214414   5.388   5.493   0.604 -0.7583 -0.3419  0.3569
 4817TIP3    H114415   5.358   5.410   0.566 -0.6322  0.3148 -1.2305
 4817TIP3    H214416   5.406   5.549   0.529  0.4578  0.6866  1.3651
 4818TIP3   OH214417   6.997   6.298   4.232 -0.1889 -0.4266  0.1344
 4818TIP3    H114418   6.993   6.247   4.313 -0.8426  2.1781  1.9053
 4818TIP3    H214419   6.918   6.273   4.184 -1.2950 -0.0918  1.6694
 4819TIP3   OH214420   6.395   2.490   3.471 -0.2056  0.0278 -0.4996
 4819TIP3    H114421   6.437   2.552   3.412 -2.7150 -0.8859 -3.5502
 4819TIP3    H214422   6.451   2.412   3.467  0.2494  0.3668 -0.8087
 4820TIP3   OH214423   7.003   0.942   1.969 -0.2971  0.4395 -0.3018
 4820TIP3    H114424   7.066   1.006   2.002 -0.5248  0.8623 -0.6772
 4820TIP3    H214425   7.000   0.958   1.875  0.5856 -0.9720 -0.5937
 4821TIP3   OH214426   0.093   6.744   1.599 -0.2639  0.7397  0.7349
 4821TIP3    H114427   0.185   6.722   1.583 -0.0981  2.4761 -1.1279
 4821TIP3    H214428   0.044   6.679   1.547 -0.2155 -0.8203  2.5106
 4822TIP3   OH214429   5.239   5.155   4.615 -0.5942  0.3503 -0.0893
 4822TIP3    H114430   5.227   5.194   4.528  2.5274 -2.6124 -2.0798
 4822TIP3    H214431   5.183   5.078   4.615 -0.3688  0.1824  0.4533
 4823TIP3   OH214432   1.431   4.324   3.294  0.3861  0.0516 -1.1747
 4823TIP3    H114433   1.523   4.303   3.309  0.4222 -0.2621 -1.7716
 4823TIP3    H214434   1.387   4.239   3.290  0.5963 -0.0259 -3.9927
 4824TIP3   OH214435   6.484   3.049   5.379 -0.1477 -0.2386  0.3255
 4824TIP3    H114436   6.472   3.006   5.295 -0.5480  0.5845 -0.0547
 4824TIP3    H214437   6.528   3.131   5.358 -0.0786 -0.1130  0.9409
 4825TIP3   OH214438   4.885   1.138   3.507  0.3005 -0.3985  0.3593
 4825TIP3    H114439   4.956   1.187   3.465 -0.5254  1.0080  0.5447
 4825TIP3    H214440   4.928   1.062   3.546  1.1658 -1.7384 -2.8638
 4826TIP3   OH214441   6.554   4.820   4.744 -0.0396 -0.4681  0.0419
 4826TIP3    H114442   6.626   4.758   4.745  0.3365 -0.0313  0.5427
 4826TIP3    H214443   6.593   4.904   4.770 -0.4841  0.0408 -0.8693
 4827TIP3   OH214444   1.246   0.508   2.416 -0.1037 -0.2475 -0.4278
 4827TIP3    H114445   1.303   0.470   2.482 -1.1619  0.2544  0.8192
 4827TIP3    H214446   1.305   0.555   2.357  1.0609 -2.4174 -1.0948
 4828TIP3   OH214447   3.558   4.711   5.418  0.1064  0.1969  0.2383
 4828TIP3    H114448   3.541   4.758   5.336  1.3594  0.3939  0.0704
 4828TIP3    H214449   3.578   4.621   5.391  2.7898  0.7695  0.0715
 4829TIP3   OH214450   2.457   5.600   2.934 -0.1014 -0.3876  0.2250
 4829TIP3    H114451   2.364   5.621   2.920 -0.3130  0.0622  2.0389
 4829TIP3    H214452   2.456   5.520   2.986  0.4543  0.3800  1.4682
 4830TIP3   OH214453   0.691   0.880   2.626  0.0996 -0.3572  0.2106
 4830TIP3    H114454   0.603   0.844   2.634  0.0749 -0.2217  0.5509
 4830TIP3    H214455   0.703   0.932   2.705 -0.1902  1.0776 -0.6535
 4831TIP3   OH214456   6.138   1.985   1.793  0.3188 -0.6491  0.1392
 4831TIP3    H114457   6.158   2.071   1.829  0.4215 -1.3429  1.8444
 4831TIP3    H214458   6.213   1.965   1.736 -0.4886  1.0432 -1.6560
 4832TIP3   OH214459   4.271   3.220   2.915 -0.2407  0.1363  0.6358
 4832TIP3    H114460   4.213   3.245   2.987 -1.6018 -1.1502  0.0359
 4832TIP3    H214461   4.241   3.133   2.890  0.5624  0.3339 -1.1319
 4833TIP3   OH214462   3.999   4.256   4.075 -0.2328  0.6373  0.0971
 4833TIP3    H114463   3.921   4.209   4.106 -1.3500  0.8655 -2.1539
 4833TIP3    H214464   3.965   4.328   4.023  1.4798  3.1588  2.1800
 4834TIP3   OH214465   5.266   6.455   5.139 -0.4022  0.6220 -0.3476
 4834TIP3    H114466   5.265   6.424   5.049 -1.9017 -0.3989 -0.0147
 4834TIP3    H214467   5.196   6.520   5.142 -1.0723 -0.1086  0.3113
 4835TIP3   OH214468   3.827   0.868   1.290 -0.2994 -0.0868  0.5336
 4835TIP3    H114469   3.855   0.908   1.372 -0.4503 -1.9195  1.5404
 4835TIP3    H214470   3.893   0.802   1.271 -1.0501 -0.7176  0.0054
 4836TIP3   OH214471   5.375   3.673   1.695  0.3694 -0.2686 -0.5829
 4836TIP3    H114472   5.412   3.654   1.781 -1.2665 -0.3514  0.1361
 4836TIP3    H214473   5.432   3.628   1.633  1.6548 -0.0885  0.4294
 4837TIP3   OH214474   3.228   6.635   4.543 -0.0327 -0.3423  0.5738
 4837TIP3    H114475   3.180   6.710   4.579  0.8868  0.5057  0.0754
 4837TIP3    H214476   3.168   6.561   4.554 -3.0261  1.1920 -3.1958
 4838TIP3   OH214477   0.394   5.285   0.335 -0.5649  0.5946 -0.7920
 4838TIP3    H114478   0.456   5.273   0.263 -1.0735  0.6702 -1.2438
 4838TIP3    H214479   0.439   5.343   0.396  0.0570  0.1477 -0.8149
 4839TIP3   OH214480   4.459   0.526   5.074 -0.2812 -0.0807 -0.1308
 4839TIP3    H114481   4.491   0.500   5.160 -0.7741 -0.8896 -0.1875
 4839TIP3    H214482   4.500   0.464   5.013 -0.4436  0.0830 -0.4090
 4840TIP3   OH214483   3.932   3.474   3.333 -0.0179  0.2638  0.0212
 4840TIP3    H114484   4.027   3.471   3.345 -0.0555 -0.0585  0.2440
 4840TIP3    H214485   3.913   3.567   3.318  0.0111  0.7731  2.7165
 4841TIP3   OH214486   7.166   4.655   2.912 -0.7738  0.5900 -0.2517
 4841TIP3    H114487   7.071   4.666   2.903 -0.5719  1.3852 -1.8914
 4841TIP3    H214488   7.199   4.744   2.920  0.0012  0.5167 -2.1592
 4842TIP3   OH214489   3.688   4.518   3.891  0.1498 -0.8140  0.3101
 4842TIP3    H114490   3.782   4.517   3.907  0.3829 -0.1130 -0.8537
 4842TIP3    H214491   3.663   4.610   3.901 -0.7965 -1.2426  2.4721
 4843TIP3   OH214492   1.857   4.371   2.919  0.3655  0.0717 -0.6044
 4843TIP3    H114493   1.772   4.409   2.896  1.4911  1.4934 -2.6837
 4843TIP3    H214494   1.836   4.307   2.988 -2.0800  1.9242  0.5551
 4844TIP3   OH214495   0.461   6.432   0.040 -0.2319  0.0074 -0.0436
 4844TIP3    H114496   0.484   6.463   0.128 -1.9579  0.5213  0.2673
 4844TIP3    H214497   0.444   6.338   0.051 -1.3620  0.2408  0.4114
 4845TIP3   OH214498   6.245   4.817   3.570  0.2438 -0.3282  0.0647
 4845TIP3    H114499   6.156   4.852   3.579 -0.1085 -1.3442  0.8550
 4845TIP3    H214500   6.288   4.838   3.652  0.6949  0.0409 -0.2631
 4846TIP3   OH214501   6.800   2.737   1.436  0.0863 -0.5258  0.3510
 4846TIP3    H114502   6.713   2.721   1.399  0.4796  0.7833 -1.2436
 4846TIP3    H214503   6.788   2.811   1.495  0.2274  0.2099 -0.5087
 4847TIP3   OH214504   0.872   3.278   3.812 -0.0016  0.3354 -0.1037
 4847TIP3    H114505   0.816   3.237   3.747  0.8877  0.7073 -1.1258
 4847TIP3    H214506   0.827   3.359   3.836  0.3242  0.9053 -1.3208
 4848TIP3   OH214507   4.054   2.360   5.654  0.1238 -0.5797 -0.4607
 4848TIP3    H114508   4.119   2.351   5.584 -0.6199 -0.1144 -1.2289
 4848TIP3    H214509   4.088   2.432   5.708 -0.3326  0.4940 -1.5524
 4849TIP3   OH214510   3.669   5.509   5.344 -0.1511  0.2058 -0.1969
 4849TIP3    H114511   3.743   5.489   5.402 -0.3090  2.3379  0.8122
 4849TIP3    H214512   3.710   5.533   5.261  0.2494  0.6452  0.1255
 4850TIP3   OH214513   2.488   1.870   4.905 -0.0298  0.2001 -0.1540
 4850TIP3    H114514   2.519   1.904   4.989 -1.4211 -0.4074  0.6323
 4850TIP3    H214515   2.393   1.876   4.910 -0.1633 -0.5657 -1.3846
 4851TIP3   OH214516   3.539   4.538   5.891 -0.1661  0.0398 -0.3706
 4851TIP3    H114517   3.627   4.502   5.901  0.2508  1.2425  0.5054
 4851TIP3    H214518   3.545   4.595   5.815  0.1291  1.0036  0.3611
 4852TIP3   OH214519   5.517   0.432   3.148 -0.4119  0.1722  0.5020
 4852TIP3    H114520   5.537   0.479   3.228 -2.6466 -1.0033  1.8429
 4852TIP3    H214521   5.585   0.365   3.142 -1.3987 -1.1279  2.6812
 4853TIP3   OH214522   5.357   1.481   4.778 -0.0659 -0.1878  0.1444
 4853TIP3    H114523   5.425   1.516   4.720  0.5097  0.3555  1.1239
 4853TIP3    H214524   5.332   1.555   4.833 -0.1465 -0.8527  1.0189
 4854TIP3   OH214525   0.092   5.315   2.016  0.0671 -0.2698  0.4127
 4854TIP3    H114526   0.006   5.312   1.974  0.0960  0.2928  0.3000
 4854TIP3    H214527   0.147   5.365   1.955  0.2710  0.0360  0.8407
 4855TIP3   OH214528   3.091   5.236   5.345  0.4745  0.7308  0.4851
 4855TIP3    H114529   3.157   5.210   5.281  0.6688 -1.2445  1.4399
 4855TIP3    H214530   3.008   5.228   5.298  0.6559 -0.2053  0.3072
 4856TIP3   OH214531   4.428   2.230   3.724  0.1913 -0.3709 -0.3117
 4856TIP3    H114532   4.503   2.175   3.745  1.6540  1.2070 -1.1110
 4856TIP3    H214533   4.387   2.187   3.649  1.5963 -0.1697 -1.2354
 4857TIP3   OH214534   5.509   6.241   2.048  0.1934 -0.0526  0.6580
 4857TIP3    H114535   5.491   6.328   2.085 -1.2631  0.2170 -0.5648
 4857TIP3    H214536   5.439   6.186   2.082 -0.5928 -0.0280 -0.8559
 4858TIP3   OH214537   2.132   3.625   4.320  0.1283  0.0100  0.3623
 4858TIP3    H114538   2.160   3.627   4.229 -0.5345 -0.2630  0.1440
 4858TIP3    H214539   2.042   3.593   4.317 -0.9046  2.5527  0.8325
 4859TIP3   OH214540   1.943   1.834   0.079  0.2016 -0.5801 -0.6527
 4859TIP3    H114541   2.004   1.779   0.030  1.5623 -0.3973  0.7655
 4859TIP3    H214542   1.995   1.909   0.107 -1.1540  0.5174 -0.9533
 4860TIP3   OH214543   3.197   0.870   0.602  0.1084  0.2036  0.6136
 4860TIP3    H114544   3.224   0.866   0.510  1.1656 -1.6104  0.9616
 4860TIP3    H214545   3.215   0.783   0.636 -2.0621  0.2503  2.0734
 4861TIP3   OH214546   2.280   5.209   5.239  0.5236 -0.5178 -0.3574
 4861TIP3    H114547   2.277   5.158   5.158  1.4420 -0.5069 -0.4143
 4861TIP3    H214548   2.356   5.174   5.286 -0.7317 -1.3928  1.0964
 4862TIP3   OH214549   6.018   2.040   4.688  0.4380 -0.8713 -0.0190
 4862TIP3    H114550   5.972   2.000   4.614 -0.6341 -2.6037  1.4893
 4862TIP3    H214551   6.043   2.127   4.657 -2.6474 -0.3646 -1.4226
 4863TIP3   OH214552   1.727   3.021   2.443 -0.3005 -0.5733 -0.0161
 4863TIP3    H114553   1.750   2.982   2.528  0.5271  0.8154  0.4261
 4863TIP3    H214554   1.811   3.042   2.403 -0.6507  2.5582  0.6422
 4864TIP3   OH214555   4.527   6.433   5.186  0.7516  0.5065 -0.2082
 4864TIP3    H114556   4.591   6.487   5.140  0.2849  0.6173 -0.7371
 4864TIP3    H214557   4.443   6.477   5.172  0.4247 -0.1276 -0.2955
 4865TIP3   OH214558   3.403   4.435   4.379  0.4277  0.1490 -0.3689
 4865TIP3    H114559   3.373   4.352   4.416 -1.5715  1.1031  0.3106
 4865TIP3    H214560   3.368   4.436   4.290 -0.3523  0.6076 -0.0763
 4866TIP3   OH214561   5.135   3.492   1.298  0.4361 -0.1026  0.5548
 4866TIP3    H114562   5.113   3.399   1.288 -0.1659 -0.0054  0.9986
 4866TIP3    H214563   5.223   3.491   1.337  0.2902 -0.4840  0.8832
 4867TIP3   OH214564   5.868   3.429   5.187  0.4396  0.3310 -0.0205
 4867TIP3    H114565   5.790   3.423   5.242 -0.4117 -1.9118 -1.3490
 4867TIP3    H214566   5.863   3.516   5.148 -1.7028  0.0629 -0.4714
 4868TIP3   OH214567   4.104   2.232   0.850  0.2577 -0.3272  0.0927
 4868TIP3    H114568   4.095   2.327   0.839  1.0139 -0.3368 -0.7519
 4868TIP3    H214569   4.123   2.221   0.943 -0.0751  0.3320  0.2461
 4869TIP3   OH214570   1.025   0.358   4.537 -0.3854 -0.2552  0.7907
 4869TIP3    H114571   1.038   0.450   4.513 -1.3103  0.1336  1.7181
 4869TIP3    H214572   0.930   0.347   4.541 -0.2808 -1.2123  0.8561
 4870TIP3   OH214573   3.128   5.883   0.974 -0.3763 -0.2299  0.3094
 4870TIP3    H114574   3.045   5.898   0.928  0.3218  1.4611 -0.4735
 4870TIP3    H214575   3.102   5.854   1.061 -1.7988  0.1961  0.0536
 4871TIP3   OH214576   5.278   2.663   5.802  0.4545 -0.4160 -0.0323
 4871TIP3    H114577   5.292   2.731   5.735 -1.2531 -1.6335 -1.7349
 4871TIP3    H214578   5.257   2.713   5.881  3.1454  1.0925 -0.1327
 4872TIP3   OH214579   3.879   2.457   3.938 -0.1396  0.0941  0.5072
 4872TIP3    H114580   3.922   2.416   3.862 -0.4170  1.0942 -0.2098
 4872TIP3    H214581   3.934   2.531   3.960  0.1899 -0.4593  1.6028
 4873TIP3   OH214582   0.815   2.094   3.339 -0.3044 -0.3020 -0.0353
 4873TIP3    H114583   0.891   2.041   3.313 -0.3498 -1.2839  1.7107
 4873TIP3    H214584   0.744   2.031   3.347 -0.7292  0.2509  0.6498
 4874TIP3   OH214585   5.202   6.346   3.186 -0.3805  0.1493  0.2408
 4874TIP3    H114586   5.114   6.310   3.197  0.4869 -2.1537  0.1310
 4874TIP3    H214587   5.218   6.344   3.091  0.5700 -1.5670  0.3986
 4875TIP3   OH214588   1.586   3.706   3.697 -0.0529 -0.7319  0.0892
 4875TIP3    H114589   1.593   3.799   3.716  0.1330 -0.7009 -0.1277
 4875TIP3    H214590   1.665   3.685   3.647 -0.3143 -0.9081 -0.2565
 4876TIP3   OH214591   2.629   5.047   4.476 -0.4953 -0.1876  0.3484
 4876TIP3    H114592   2.577   5.030   4.396 -2.1342  0.9181  1.1138
 4876TIP3    H214593   2.579   5.004   4.546  1.1641 -1.5347  0.7724
 4877TIP3   OH214594   1.851   0.242   0.402 -0.1172  0.1629 -0.5419
 4877TIP3    H114595   1.857   0.317   0.462  2.2297  1.6874 -2.4729
 4877TIP3    H214596   1.942   0.225   0.377 -0.8769 -1.2893 -2.5837
 4878TIP3   OH214597   2.843   4.181   4.708 -0.1095 -0.6156  0.0891
 4878TIP3    H114598   2.748   4.168   4.706 -0.1132 -0.6832  0.5450
 4878TIP3    H214599   2.863   4.191   4.801  0.5594 -2.3675  0.1724
 4879TIP3   OH214600   0.325   3.420   4.417  0.3220 -0.7988  0.5188
 4879TIP3    H114601   0.389   3.463   4.359  0.4641 -1.5874  0.0756
 4879TIP3    H214602   0.304   3.338   4.372 -2.6211  0.3694 -0.4335
 4880TIP3   OH214603   5.203   1.018   0.824 -0.0645 -0.4712  0.1728
 4880TIP3    H114604   5.288   1.059   0.812  1.4212 -2.9373  1.4431
 4880TIP3    H214605   5.155   1.077   0.882  0.9684  0.7121 -0.1477
 4881TIP3   OH214606   1.611   1.535   0.449 -0.1957  0.0896  0.2064
 4881TIP3    H114607   1.569   1.495   0.373  2.5694 -1.4892 -0.5947
 4881TIP3    H214608   1.646   1.618   0.416  1.3816 -0.7933 -0.4159
 4882TIP3   OH214609   5.134   1.238   0.224 -0.2895  0.6867  0.1404
 4882TIP3    H114610   5.151   1.191   0.305  3.2334  0.1727 -0.7325
 4882TIP3    H214611   5.125   1.329   0.250  2.1829  0.7297  1.0467
 4883TIP3   OH214612   0.379   4.053   0.808 -0.0294  0.3520 -0.3561
 4883TIP3    H114613   0.467   4.090   0.807 -0.2725  0.9737 -1.4336
 4883TIP3    H214614   0.393   3.959   0.805  0.6022  0.4311 -0.1445
 4884TIP3   OH214615   1.671   0.058   2.557 -0.1939  0.0018 -0.7991
 4884TIP3    H114616   1.628   0.113   2.621 -0.2700 -0.9613 -0.0006
 4884TIP3    H214617   1.609   0.051   2.484  0.2108  1.7282 -1.3447
 4885TIP3   OH214618   7.014   2.077   1.323 -0.4421 -0.1210 -0.8863
 4885TIP3    H114619   7.065   2.138   1.377 -0.5707 -0.2676 -0.5981
 4885TIP3    H214620   6.958   2.133   1.270 -2.8453  0.0002  1.5737
 4886TIP3   OH214621   6.833   2.792   2.761  0.4421 -0.0621  0.2613
 4886TIP3    H114622   6.776   2.796   2.838  0.6768  0.7152  0.4093
 4886TIP3    H214623   6.791   2.851   2.698  0.0437 -0.9881 -0.3611
 4887TIP3   OH214624   5.502   3.414   0.540  0.5168  0.3658  0.1763
 4887TIP3    H114625   5.583   3.374   0.571 -0.2905 -1.8170 -0.3718
 4887TIP3    H214626   5.466   3.458   0.618  0.8082 -1.0932  1.1792
 4888TIP3   OH214627   5.683   2.372   4.045 -0.4334 -0.6428  0.4363
 4888TIP3    H114628   5.643   2.404   3.965  0.1975 -1.0491 -0.0502
 4888TIP3    H214629   5.775   2.356   4.022 -0.2504 -0.7943  1.2263
 4889TIP3   OH214630   5.074   4.209   4.497  0.6659 -0.2519 -0.1609
 4889TIP3    H114631   5.114   4.139   4.446  0.7322 -1.2605  1.2201
 4889TIP3    H214632   5.042   4.271   4.432 -0.2588 -2.0305 -1.4794
 4890TIP3   OH214633   0.662   2.776   1.132  0.2540  0.0755  0.3530
 4890TIP3    H114634   0.717   2.786   1.210  0.5075 -0.7385  0.2972
 4890TIP3    H214635   0.578   2.743   1.166 -0.5167  2.0586  0.5236
 4891TIP3   OH214636   2.799   2.781   2.613 -0.3314 -0.0869  0.4968
 4891TIP3    H114637   2.860   2.721   2.570  1.7826  2.1262  0.1847
 4891TIP3    H214638   2.842   2.805   2.695 -1.4108  0.5834  0.8933
 4892TIP3   OH214639   0.371   3.443   1.366  0.1423 -0.0188 -0.0434
 4892TIP3    H114640   0.282   3.409   1.362 -1.6690  4.2178 -0.8058
 4892TIP3    H214641   0.409   3.402   1.444 -2.1792 -2.4121 -0.0245
 4893TIP3   OH214642   0.923   1.914   4.957 -0.4083  0.2308  0.2865
 4893TIP3    H114643   0.937   2.003   4.923 -0.8763 -0.0146 -0.5976
 4893TIP3    H214644   0.927   1.858   4.879 -0.2904 -0.5069  0.8128
 4894TIP3   OH214645   2.172   5.103   4.313 -0.8129 -0.0406 -0.5967
 4894TIP3    H114646   2.144   5.180   4.264 -1.7083  0.6090  0.8639
 4894TIP3    H214647   2.148   5.122   4.404 -0.7628 -1.9064 -0.1492
 4895TIP3   OH214648   6.189   3.813   0.929 -0.4945 -0.0525 -0.3857
 4895TIP3    H114649   6.207   3.820   1.023  0.4243  0.6994 -0.5945
 4895TIP3    H214650   6.122   3.879   0.912 -1.2120 -0.7066 -0.1388
 4896TIP3   OH214651   4.700   3.860   2.918  0.1715 -0.0463  0.5323
 4896TIP3    H114652   4.711   3.856   2.823  2.3150 -0.9153  0.7516
 4896TIP3    H214653   4.786   3.837   2.953 -0.5183  0.4011  2.7007
 4897TIP3   OH214654   0.324   5.011   4.677  0.2346 -0.7418  0.4179
 4897TIP3    H114655   0.385   4.965   4.619 -0.7799  0.0893 -1.3675
 4897TIP3    H214656   0.375   5.084   4.712  0.9956 -1.5268  1.0267
 4898TIP3   OH214657   5.270   2.963   2.129  0.6437 -0.3658  0.2015
 4898TIP3    H114658   5.337   2.904   2.163 -0.2377 -1.0571  0.7836
 4898TIP3    H214659   5.250   3.021   2.202  1.6449  0.8318 -0.4245
 4899TIP3   OH214660   4.157   4.930   1.511 -0.2278 -0.2393 -0.1873
 4899TIP3    H114661   4.202   4.893   1.587 -0.1659  0.4778  0.1314
 4899TIP3    H214662   4.185   4.874   1.438  0.3723 -0.4252  0.1736
 4900TIP3   OH214663   4.236   6.642   1.487 -0.2755  0.9966 -1.1679
 4900TIP3    H114664   4.272   6.614   1.403  2.7246 -3.6057  1.2851
 4900TIP3    H214665   4.311   6.668   1.539 -1.2667 -1.2616  1.6539
 4901TIP3   OH214666   6.185   0.994   3.482  0.1554  0.5349 -0.1803
 4901TIP3    H114667   6.188   1.074   3.533  1.1672 -0.3280  1.1789
 4901TIP3    H214668   6.260   1.001   3.422  0.7719  0.2305  0.5455
 4902TIP3   OH214669   5.289   0.232   2.639 -0.2307  0.3566  0.2418
 4902TIP3    H114670   5.305   0.233   2.734 -1.1144  0.9288  0.3951
 4902TIP3    H214671   5.201   0.195   2.631  0.3571 -0.9670 -0.4553
 4903TIP3   OH214672   4.906   3.503   1.741  0.7252 -0.3460  0.1582
 4903TIP3    H114673   4.987   3.553   1.749  1.0618 -0.7782 -0.4963
 4903TIP3    H214674   4.894   3.491   1.646 -0.1721 -0.1744  0.2372
 4904TIP3   OH214675   1.536   3.296   4.980 -0.7287 -0.2224 -0.6405
 4904TIP3    H114676   1.491   3.381   4.979  0.1050  0.2275 -0.8052
 4904TIP3    H214677   1.616   3.310   4.929 -0.7694 -1.2212 -1.0091
 4905TIP3   OH214678   5.729   6.195   0.180 -0.3997  0.2494  1.0353
 4905TIP3    H114679   5.789   6.157   0.117 -0.4753 -0.2593  1.2666
 4905TIP3    H214680   5.642   6.184   0.142 -0.2306  3.4075 -0.5978
 4906TIP3   OH214681   6.036   1.355   1.815 -0.2142 -0.1122  0.6624
 4906TIP3    H114682   6.075   1.442   1.816 -0.8555  0.1764  1.0615
 4906TIP3    H214683   6.098   1.301   1.766 -0.8243  1.0332 -1.4807
 4907TIP3   OH214684   4.125   6.235   2.321 -0.1927  0.4373 -0.0364
 4907TIP3    H114685   4.221   6.235   2.310 -0.1537  0.4846  0.2819
 4907TIP3    H214686   4.101   6.327   2.329 -0.2578  0.4231 -0.0726
 4908TIP3   OH214687   3.681   4.261   3.475  0.1709  0.5398 -0.3395
 4908TIP3    H114688   3.757   4.208   3.497  0.4067  0.1998 -1.8568
 4908TIP3    H214689   3.606   4.211   3.508  0.6134  1.8203  3.0159
 4909TIP3   OH214690   4.037   1.273   0.972 -0.8082 -0.2361  0.4208
 4909TIP3    H114691   4.124   1.243   0.944 -0.8629 -0.6055  0.6347
 4909TIP3    H214692   3.999   1.197   1.016 -1.0507  0.0764  0.7542
 4910TIP3   OH214693   0.616   0.981   0.279 -0.1917  0.3463  0.2966
 4910TIP3    H114694   0.683   0.926   0.238 -0.9516 -1.1850  0.9878
 4910TIP3    H214695   0.658   1.017   0.357  0.8044  2.0918 -0.9803
 4911TIP3   OH214696   5.066   5.009   3.879  0.2244  0.4553 -0.1875
 4911TIP3    H114697   5.052   5.080   3.817  0.7734 -1.2190 -2.3709
 4911TIP3    H214698   5.021   4.934   3.840  0.4001 -0.6223  1.5815
 4912TIP3   OH214699   7.103   2.459   4.323 -0.2717 -0.5986  0.3627
 4912TIP3    H114700   7.029   2.506   4.361 -0.5083  0.4790 -1.3567
 4912TIP3    H214701   7.165   2.527   4.300 -0.8280 -0.9861 -2.6355
 4913TIP3   OH214702   0.929   4.402   0.209  0.4557 -0.1729  0.3942
 4913TIP3    H114703   0.873   4.463   0.160  1.8331  0.4408 -0.4574
 4913TIP3    H214704   0.981   4.458   0.266  1.0774 -0.6325  0.2805
 4914TIP3   OH214705   4.269   0.115   0.345 -0.2927  0.5572  0.1088
 4914TIP3    H114706   4.231   0.198   0.373  1.9824  1.8832 -0.5184
 4914TIP3    H214707   4.293   0.070   0.426  1.2946  1.9470  0.4642
 4915TIP3   OH214708   6.341   2.264   3.852  0.0565 -0.2049 -0.1675
 4915TIP3    H114709   6.348   2.345   3.802  0.6217 -1.4194 -2.1344
 4915TIP3    H214710   6.427   2.253   3.892 -0.2161  0.4649  0.6297
 4916TIP3   OH214711   0.149   6.134   4.789  0.0439 -0.0513 -0.0966
 4916TIP3    H114712   0.059   6.131   4.820 -0.3631  0.4542 -1.1808
 4916TIP3    H214713   0.187   6.209   4.835 -0.0893 -0.2552  0.3493
 4917TIP3   OH214714   0.807   1.281   5.586 -0.2713  0.2770  0.0902
 4917TIP3    H114715   0.765   1.229   5.654  1.7879 -1.1376  0.3644
 4917TIP3    H214716   0.797   1.372   5.616 -0.2930 -0.2448  1.7539
 4918TIP3   OH214717   0.941   3.813   1.185 -0.1471 -0.3499 -0.5640
 4918TIP3    H114718   0.917   3.728   1.148 -0.7347 -1.0798  1.3584
 4918TIP3    H214719   1.031   3.803   1.215  0.5537  0.4405 -2.2442
 4919TIP3   OH214720   6.363   5.159   0.218  0.0570  0.0449 -0.6121
 4919TIP3    H114721   6.293   5.213   0.255  1.0024  1.2274 -0.4803
 4919TIP3    H214722   6.320   5.077   0.193 -0.7955 -0.4563  2.2219
 4920TIP3   OH214723   5.475   4.248   2.676 -0.3095  0.0903 -0.2592
 4920TIP3    H114724   5.467   4.156   2.700 -0.0837 -0.2579 -1.4475
 4920TIP3    H214725   5.470   4.295   2.759  1.2391 -1.0872  0.5640
 4921TIP3   OH214726   2.230   0.790   2.686  0.2471  0.0161 -0.0932
 4921TIP3    H114727   2.294   0.761   2.620 -0.7985 -0.9161 -0.7387
 4921TIP3    H214728   2.253   0.740   2.765  1.0320  0.5682  0.0405
 4922TIP3   OH214729   1.683   1.886   2.163 -0.2591 -0.2014  0.3881
 4922TIP3    H114730   1.688   1.917   2.072  0.6399 -0.6093  0.2924
 4922TIP3    H214731   1.697   1.965   2.215  2.5071 -0.4397  0.1396
 4923TIP3   OH214732   4.269   3.947   0.589 -0.8625 -0.0317  0.1438
 4923TIP3    H114733   4.199   3.932   0.653 -0.5494  0.9108  0.7387
 4923TIP3    H214734   4.240   4.025   0.540 -0.4160  0.1375  0.1400
 4924TIP3   OH214735   3.253   2.434   3.804  0.4359 -0.2990 -0.3992
 4924TIP3    H114736   3.195   2.359   3.817  2.9787 -2.1154  1.2697
 4924TIP3    H214737   3.338   2.406   3.837  1.4884  3.4487  0.6612
 4925TIP3   OH214738   3.680   3.037   1.382  0.2236 -0.0468 -0.3317
 4925TIP3    H114739   3.652   3.028   1.473 -0.3677 -0.6803 -0.5679
 4925TIP3    H214740   3.676   3.132   1.366 -0.6649 -0.0151  0.0022
 4926TIP3   OH214741   6.068   3.714   5.271 -0.6845  0.4374  0.0584
 4926TIP3    H114742   6.133   3.730   5.202 -0.4853 -0.0533  0.1292
 4926TIP3    H214743   6.022   3.797   5.280 -0.4335  0.6279 -0.3795
 4927TIP3   OH214744   4.239   1.899   4.363  0.3324  0.1667 -0.1504
 4927TIP3    H114745   4.328   1.932   4.372  0.6189 -0.0470 -1.7801
 4927TIP3    H214746   4.184   1.978   4.359  0.0768  0.3018  3.2953
 4928TIP3   OH214747   7.138   4.315   1.744 -0.2227 -0.3827  0.4475
 4928TIP3    H114748   7.066   4.364   1.783 -2.0185 -0.0359 -2.8797
 4928TIP3    H214749   7.119   4.224   1.766 -0.3327 -0.1184  1.5155
 4929TIP3   OH214750   2.736   0.481   4.960  0.2441 -0.0104 -0.5144
 4929TIP3    H114751   2.746   0.561   5.011  0.1713  0.3428 -1.0476
 4929TIP3    H214752   2.781   0.499   4.878 -3.1038  0.9861 -2.3057
 4930TIP3   OH214753   5.863   0.967   2.842 -0.1394 -0.1098  0.0789
 4930TIP3    H114754   5.932   0.900   2.841 -0.2833 -0.2550 -0.1098
 4930TIP3    H214755   5.784   0.921   2.813  0.2552  0.6876 -2.5247
 4931TIP3   OH214756   5.961   1.302   4.132  0.4177  0.4724  0.1519
 4931TIP3    H114757   5.893   1.321   4.068  0.4358  0.3564  0.0980
 4931TIP3    H214758   5.917   1.308   4.217 -0.6012 -3.1754  0.0571
 4932TIP3   OH214759   2.108   5.491   2.303 -0.3750 -0.0616  0.0708
 4932TIP3    H114760   2.199   5.504   2.330 -0.2314  0.8994 -0.8128
 4932TIP3    H214761   2.069   5.443   2.375  0.2792  1.4218  1.4959
 4933TIP3   OH214762   3.654   4.003   5.709  0.1413 -0.0534 -0.1087
 4933TIP3    H114763   3.586   4.069   5.719  0.2734  0.0528  0.0867
 4933TIP3    H214764   3.619   3.943   5.642  0.1795  0.4076 -0.5432
 4934TIP3   OH214765   6.209   3.026   5.470 -0.3838  0.3594 -0.4114
 4934TIP3    H114766   6.161   3.106   5.450  1.1478  1.0138 -1.6576
 4934TIP3    H214767   6.297   3.042   5.437 -0.4229 -2.4206 -2.1850
 4935TIP3   OH214768   6.458   2.983   2.683  0.0639  0.0733 -0.3919
 4935TIP3    H114769   6.367   3.006   2.666  0.1061 -0.1620 -0.9710
 4935TIP3    H214770   6.509   3.047   2.634  0.2376  0.9216  0.8676
 4936TIP3   OH214771   0.420   4.278   4.413 -0.1640 -0.7506  0.2056
 4936TIP3    H114772   0.383   4.274   4.325 -1.0163 -1.2556  0.5708
 4936TIP3    H214773   0.482   4.206   4.418  1.2405  0.3615 -0.5564
 4937TIP3   OH214774   4.283   1.834   2.424  0.0842 -0.0111  0.6801
 4937TIP3    H114775   4.353   1.900   2.426  0.8688 -0.7165 -1.3871
 4937TIP3    H214776   4.319   1.760   2.472 -0.0475  0.3331  1.3300
 4938TIP3   OH214777   3.560   6.079   5.567  0.2924 -0.0470 -0.1923
 4938TIP3    H114778   3.531   6.145   5.504  1.1842  2.6103  1.9937
 4938TIP3    H214779   3.483   6.026   5.584 -1.2426  2.0812 -0.1337
 4939TIP3   OH214780   6.883   3.790   5.572 -0.9910 -0.3872 -0.0708
 4939TIP3    H114781   6.903   3.846   5.497 -0.9529 -0.6895 -0.2874
 4939TIP3    H214782   6.885   3.849   5.647 -1.9096  0.0919 -0.4143
 4940TIP3   OH214783   2.887   2.421   5.035  0.1429  0.5104 -0.1804
 4940TIP3    H114784   2.838   2.341   5.051  0.7947 -0.6218 -3.1939
 4940TIP3    H214785   2.968   2.411   5.086 -0.2838 -0.1976  0.3629
 4941TIP3   OH214786   3.853   5.401   5.551 -0.0880 -0.1946 -1.5591
 4941TIP3    H114787   3.852   5.327   5.611 -2.3896  0.0882 -1.1620
 4941TIP3    H214788   3.930   5.451   5.575  0.1390 -1.1697 -0.1937
 4942TIP3   OH214789   5.228   0.418   2.314 -0.4165 -0.2168  0.0615
 4942TIP3    H114790   5.145   0.416   2.266 -0.0035  0.0277 -0.6667
 4942TIP3    H214791   5.266   0.331   2.300 -0.0439  0.0352 -0.5049
 4943TIP3   OH214792   5.759   2.684   4.119 -0.1478  0.0136 -0.3397
 4943TIP3    H114793   5.823   2.707   4.187 -1.0404 -1.3393  1.0266
 4943TIP3    H214794   5.769   2.590   4.107 -0.9530  0.0129 -1.1027
 4944TIP3   OH214795   1.300   1.629   5.131  0.3370  0.0360 -0.2558
 4944TIP3    H114796   1.341   1.616   5.217  1.3598  2.3389 -0.3002
 4944TIP3    H214797   1.341   1.563   5.074  1.7431  0.2965  0.4153
 4945TIP3   OH214798   4.175   2.756   1.806  0.0796 -0.3849  0.6290
 4945TIP3    H114799   4.177   2.780   1.713  1.9967  0.9259  0.9508
 4945TIP3    H214800   4.206   2.835   1.852  0.7334 -1.5274  2.2532
 4946TIP3   OH214801   0.034   4.045   1.211 -0.8079 -0.1522 -0.3918
 4946TIP3    H114802   0.113   4.068   1.163  0.0775 -1.3912  0.4227
 4946TIP3    H214803   0.011   4.125   1.259  1.8119 -0.5852  1.8557
 4947TIP3   OH214804   3.094   2.294   4.354 -0.0409 -0.0325 -0.0469
 4947TIP3    H114805   3.083   2.317   4.261 -0.7602 -0.7919 -0.1688
 4947TIP3    H214806   3.042   2.359   4.401  1.4734  1.2227 -0.0598
 4948TIP3   OH214807   2.420   0.818   3.793  0.4943 -0.5225  0.0793
 4948TIP3    H114808   2.388   0.903   3.823 -1.1818 -1.0929  0.0271
 4948TIP3    H214809   2.511   0.815   3.822  0.4729  1.1234  0.4166
 4949TIP3   OH214810   1.417   4.998   5.271 -0.0018 -0.3841  0.2766
 4949TIP3    H114811   1.490   4.940   5.252  0.6484  0.6928 -0.6606
 4949TIP3    H214812   1.365   4.998   5.190 -1.3760 -1.5646  1.1073
 4950TIP3   OH214813   0.712   6.695   2.825  0.7205  0.0330 -0.0682
 4950TIP3    H114814   0.698   6.630   2.893 -1.7519  0.0512 -0.4803
 4950TIP3    H214815   0.767   6.762   2.867 -0.4834 -0.1056  1.8430
 4951TIP3   OH214816   6.102   6.298   1.466 -0.0471  0.6723 -0.3890
 4951TIP3    H114817   6.190   6.307   1.430 -0.0886  1.8207 -0.2184
 4951TIP3    H214818   6.054   6.374   1.433 -1.3318 -0.5192 -1.4415
 4952TIP3   OH214819   2.709   5.000   4.780 -0.0711  0.1102  0.4545
 4952TIP3    H114820   2.615   4.992   4.794 -0.0750  1.1631  1.1419
 4952TIP3    H214821   2.741   4.910   4.776 -1.3214 -0.2864 -1.4245
 4953TIP3   OH214822   5.590   2.846   0.049 -0.1117  0.7350 -0.2308
 4953TIP3    H114823   5.677   2.844   0.090 -0.1490 -0.5019 -0.1738
 4953TIP3    H214824   5.585   2.764  -0.001 -1.5213  0.4372  0.3569
 4954TIP3   OH214825   3.245   4.419   4.133 -0.3196 -0.4918 -0.5436
 4954TIP3    H114826   3.276   4.452   4.048 -2.4408  2.0485 -0.4856
 4954TIP3    H214827   3.162   4.376   4.113  0.1963 -1.7981  0.0215
 4955TIP3   OH214828   3.408   2.873   5.199 -0.2997 -0.3153  0.0053
 4955TIP3    H114829   3.346   2.839   5.134 -1.6860 -0.5413  1.4064
 4955TIP3    H214830   3.446   2.795   5.240 -1.7818 -0.2449  1.6210
 4956TIP3   OH214831   7.050   3.155   3.621 -0.3181 -0.1855 -0.4986
 4956TIP3    H114832   7.075   3.156   3.528 -1.9129  0.9762 -0.9719
 4956TIP3    H214833   7.090   3.234   3.657 -0.6857  0.0089 -0.5082
 4957TIP3   OH214834   4.382   5.432   3.023  0.3334  0.3775  0.1704
 4957TIP3    H114835   4.455   5.429   2.961  0.4635  4.7064 -0.2071
 4957TIP3    H214836   4.418   5.476   3.100 -0.9395 -1.0025  1.5993
 4958TIP3   OH214837   3.404   2.265   4.185  0.2360 -0.0171 -0.3620
 4958TIP3    H114838   3.356   2.346   4.205 -1.5713 -0.5873 -2.0914
 4958TIP3    H214839   3.490   2.295   4.154  1.0472  1.0389  2.5562
 4959TIP3   OH214840   7.106   2.798   5.504 -0.6087 -0.1938 -0.2493
 4959TIP3    H114841   7.154   2.727   5.546  0.7101  0.5313 -0.4718
 4959TIP3    H214842   7.172   2.843   5.451 -1.6336  0.5922 -0.8900
 4960TIP3   OH214843   0.569   3.295   1.212 -0.2235 -0.4442  0.1761
 4960TIP3    H114844   0.494   3.344   1.247 -0.0809  1.0445 -1.4838
 4960TIP3    H214845   0.637   3.361   1.200  0.4428 -1.3017 -0.8807
 4961TIP3   OH214846   6.499   6.487   3.026  0.0209  0.1338  0.7977
 4961TIP3    H114847   6.519   6.469   2.934  0.6653 -1.6054  1.2269
 4961TIP3    H214848   6.539   6.572   3.044  1.9465 -0.5523  0.0391
 4962TIP3   OH214849   4.315   6.076   2.866 -0.3443 -0.1109 -0.0647
 4962TIP3    H114850   4.318   5.997   2.920  2.1252 -1.1991 -1.6236
 4962TIP3    H214851   4.329   6.044   2.777  1.7334  2.1382 -0.6508
 4963TIP3   OH214852   3.264   5.786   2.144 -0.1950 -0.1307  0.0969
 4963TIP3    H114853   3.356   5.761   2.157 -0.3886 -0.8663  0.0579
 4963TIP3    H214854   3.253   5.789   2.049 -0.0933  0.4269  0.0963
 4964TIP3   OH214855   3.458   1.674   4.781  0.4777 -0.2117  0.2063
 4964TIP3    H114856   3.541   1.629   4.799  1.9891  2.0184 -0.7251
 4964TIP3    H214857   3.412   1.616   4.721  1.6623 -1.1949  0.2002
 4965TIP3   OH214858   6.694   3.829   0.333 -0.3451 -0.1348  0.2108
 4965TIP3    H114859   6.610   3.857   0.370 -0.3903 -0.6744  0.5194
 4965TIP3    H214860   6.678   3.741   0.300 -0.2661  0.2918 -0.9988
 4966TIP3   OH214861   0.641   4.143   0.847 -0.5301 -0.2116 -0.4362
 4966TIP3    H114862   0.696   4.101   0.912 -1.4686 -0.1988  0.3887
 4966TIP3    H214863   0.635   4.234   0.877 -1.1618 -0.2630 -0.3935
 4967TIP3   OH214864   0.444   3.465   5.023  0.1218  0.2290  0.0047
 4967TIP3    H114865   0.533   3.501   5.035  0.0756  0.0563  0.8928
 4967TIP3    H214866   0.399   3.531   4.970 -0.0393  1.6507  1.8314
 4968TIP3   OH214867   5.649   0.181   5.282 -0.0271  0.0458  0.4936
 4968TIP3    H114868   5.704   0.104   5.299  0.3605  0.2638  0.2270
 4968TIP3    H214869   5.622   0.211   5.369  1.4330  0.7805  0.7215
 4969TIP3   OH214870   0.797   2.615   3.484 -0.1365 -0.1141  0.5206
 4969TIP3    H114871   0.767   2.672   3.413  0.1215 -2.1040 -1.3079
 4969TIP3    H214872   0.734   2.542   3.484  2.3350 -2.4334 -0.8322
 4970TIP3   OH214873   3.630   4.993   4.731 -0.6151  0.8010 -0.5915
 4970TIP3    H114874   3.634   4.897   4.737 -0.4188  0.8443  0.1447
 4970TIP3    H214875   3.699   5.023   4.790 -1.1611  1.4000 -0.2434
 4971TIP3   OH214876   5.249   4.592   0.328  0.4738  0.7242 -0.4426
 4971TIP3    H114877   5.332   4.635   0.348  1.0134 -0.6554  0.4626
 4971TIP3    H214878   5.203   4.589   0.412  0.2630 -0.0422 -0.5735
 4972TIP3   OH214879   7.096   1.180   5.193 -0.4385  0.6539 -0.6344
 4972TIP3    H114880   7.076   1.149   5.105  2.0499  3.3931 -2.3162
 4972TIP3    H214881   7.174   1.130   5.219 -1.2934 -0.3092  0.1912
 4973TIP3   OH214882   6.850   6.632   4.793  0.1328 -0.0024 -0.1234
 4973TIP3    H114883   6.827   6.569   4.862 -0.5615  1.4892  1.0798
 4973TIP3    H214884   6.934   6.668   4.820 -0.5237  1.1830  0.4363
 4974TIP3   OH214885   2.300   5.355   2.839 -0.1299  0.2330  0.3021
 4974TIP3    H114886   2.256   5.397   2.764  0.4973 -1.8962 -1.3589
 4974TIP3    H214887   2.391   5.349   2.812  0.0116 -1.0697  1.0294
 4975TIP3   OH214888   2.088   3.362   1.453  0.2275  0.0896 -0.2050
 4975TIP3    H114889   2.180   3.349   1.474  0.6281  2.1093 -0.4981
 4975TIP3    H214890   2.061   3.437   1.505 -0.9203  0.2784 -1.0192
 4976TIP3   OH214891   4.273   2.929   3.634  0.1536  0.3703 -0.3558
 4976TIP3    H114892   4.231   2.909   3.550 -0.8292 -0.6554  0.3442
 4976TIP3    H214893   4.226   3.006   3.666  0.8686  1.0753 -0.9575
 4977TIP3   OH214894   2.877   2.288   2.743 -0.7974  0.0424 -0.6864
 4977TIP3    H114895   2.830   2.223   2.691 -0.6691 -0.1490 -0.5656
 4977TIP3    H214896   2.962   2.297   2.698 -0.7957  0.0904 -0.6742
 4978TIP3   OH214897   1.796   6.590   0.398  0.1377 -0.0204  0.3108
 4978TIP3    H114898   1.800   6.651   0.471 -1.7135  0.7184 -0.1485
 4978TIP3    H214899   1.780   6.504   0.438 -1.0886  0.4143  0.7977
 4979TIP3   OH214900   5.771   1.535   5.879 -0.6946 -0.2131 -0.7085
 4979TIP3    H114901   5.769   1.460   5.819 -0.8524 -0.8036  0.0312
 4979TIP3    H214902   5.819   1.603   5.830 -1.4824 -0.4110 -1.8108
 4980TIP3   OH214903   5.543   6.102   4.437  0.3081 -0.3762  0.1544
 4980TIP3    H114904   5.575   6.054   4.360  1.4355  2.0938 -1.0361
 4980TIP3    H214905   5.618   6.104   4.497  0.1123 -0.4862  0.4060
 4981TIP3   OH214906   3.655   2.339   4.119 -0.3669  0.1230 -0.0325
 4981TIP3    H114907   3.726   2.395   4.088  0.5657 -0.5573  0.8029
 4981TIP3    H214908   3.657   2.264   4.059  1.5281 -1.2601  1.5833
 4982TIP3   OH214909   0.079   6.251   3.806 -0.2056 -0.1517 -0.1068
 4982TIP3    H114910   0.024   6.198   3.748 -0.6748 -0.6436  0.7481
 4982TIP3    H214911   0.098   6.192   3.880  1.2756  0.0980 -0.2712
 4983TIP3   OH214912   6.710   0.786   0.862  0.3232  0.3467  0.5684
 4983TIP3    H114913   6.637   0.759   0.806  1.4300 -0.7496 -0.3957
 4983TIP3    H214914   6.671   0.847   0.924 -1.5156 -0.5828  0.3857
 4984TIP3   OH214915   5.012   2.320   3.392 -0.0145  0.3354 -0.2332
 4984TIP3    H114916   4.956   2.317   3.470  1.2708  1.6738  0.7885
 4984TIP3    H214917   5.088   2.266   3.415 -0.3778 -0.6427 -1.2260
 4985TIP3   OH214918   0.871   4.665   4.822 -0.1544 -0.3303  0.9141
 4985TIP3    H114919   0.846   4.583   4.780 -0.3645  0.4078 -0.4463
 4985TIP3    H214920   0.956   4.647   4.862  1.8264 -0.1239 -2.8509
 4986TIP3   OH214921   0.760   5.061   0.572  0.0335 -0.1655  0.0851
 4986TIP3    H114922   0.699   5.040   0.501 -0.2410  0.4814  0.1179
 4986TIP3    H214923   0.781   4.977   0.611  0.1303 -0.5267 -0.7157
 4987TIP3   OH214924   0.390   0.439   0.160 -0.2279  0.3663  0.0375
 4987TIP3    H114925   0.325   0.505   0.136 -1.1077  0.1997  1.7697
 4987TIP3    H214926   0.362   0.359   0.116  0.5018  0.9529 -1.5805
 4988TIP3   OH214927   2.527   5.797   2.692 -0.3317 -0.1422 -0.0438
 4988TIP3    H114928   2.517   5.736   2.765 -1.2602 -0.8178 -0.7159
 4988TIP3    H214929   2.611   5.841   2.709 -0.9444  0.3825  1.9087
 4989TIP3   OH214930   4.651   5.142   5.197 -0.0099 -0.3182 -0.5034
 4989TIP3    H114931   4.571   5.194   5.194 -0.0729 -0.4515 -1.6617
 4989TIP3    H214932   4.629   5.068   5.253  0.3902  1.3571  2.0180
 4990TIP3   OH214933   3.774   1.526   3.696  0.4136 -0.1552 -0.0735
 4990TIP3    H114934   3.697   1.549   3.748  0.8612 -1.1961  1.0924
 4990TIP3    H214935   3.842   1.508   3.761  2.2142  2.4444 -1.0815
 4991TIP3   OH214936   1.412   1.458   3.387  0.4642  0.5910 -0.2736
 4991TIP3    H114937   1.492   1.486   3.344  0.2393 -1.0146 -1.8239
 4991TIP3    H214938   1.343   1.476   3.324 -0.4602  1.9381  1.0316
 4992TIP3   OH214939   0.663   0.158   0.826 -0.2829  0.7387 -0.0780
 4992TIP3    H114940   0.695   0.109   0.902 -0.0871  1.7269  0.4885
 4992TIP3    H214941   0.742   0.194   0.786 -0.3508 -0.0727 -0.9786
 4993TIP3   OH214942   3.170   3.170   0.690 -0.4855  0.3178 -0.1725
 4993TIP3    H114943   3.253   3.123   0.693 -0.0567  1.1248  1.7910
 4993TIP3    H214944   3.186   3.251   0.738 -2.3083  0.6622 -0.0748
 4994TIP3   OH214945   0.796   4.978   5.485 -0.0534  1.0749  0.1435
 4994TIP3    H114946   0.818   5.059   5.439 -0.7352  0.2364 -1.7356
 4994TIP3    H214947   0.866   4.917   5.462 -0.1634  0.7751  0.5858
 4995TIP3   OH214948   1.142   6.340   5.322  0.1296 -0.1327 -0.0437
 4995TIP3    H114949   1.162   6.384   5.239 -1.3889  0.6309 -0.0407
 4995TIP3    H214950   1.133   6.248   5.299  2.5571 -0.4030 -0.1932
 4996TIP3   OH214951   6.543   5.498   2.392 -0.0712  0.2341  0.3338
 4996TIP3    H114952   6.619   5.551   2.366  0.6664 -1.0509 -0.2393
 4996TIP3    H214953   6.475   5.562   2.414  0.9906  1.4133  0.3017
 4997TIP3   OH214954   1.142   5.209   0.783 -0.9269 -0.1146  0.5327
 4997TIP3    H114955   1.048   5.225   0.770 -0.4468  3.1983  0.2848
 4997TIP3    H214956   1.157   5.124   0.742 -3.6949 -0.4432 -0.0471
 4998TIP3   OH214957   5.808   1.652   2.322  0.3808 -0.2147  0.2834
 4998TIP3    H114958   5.782   1.689   2.406 -0.3327  0.0760 -0.0654
 4998TIP3    H214959   5.832   1.727   2.269  0.0305 -0.3329 -0.0463
 4999TIP3   OH214960   4.565   2.921   0.862 -0.1443 -0.3113 -0.3425
 4999TIP3    H114961   4.627   2.861   0.821 -0.2440 -0.6574  0.0050
 4999TIP3    H214962   4.485   2.913   0.810  0.1144  0.1771 -0.8253
 5000TIP3   OH214963   3.227   5.097   1.069 -0.1268  0.3305 -0.8262
 5000TIP3    H114964   3.152   5.148   1.037 -0.9054 -0.4428 -0.2928
 5000TIP3    H214965   3.289   5.163   1.101 -1.1970  0.9545  0.0319
 5001TIP3   OH214966   1.123   3.413   2.753 -0.2630  0.9901 -0.1587
 5001TIP3    H114967   1.057   3.362   2.801  1.5153 -2.1293 -0.7271
 5001TIP3    H214968   1.111   3.386   2.661  1.7940  0.2635 -0.2537
 5002TIP3   OH214969   0.085   3.787   3.072  0.3973  0.1328  0.4534
 5002TIP3    H114970   0.053   3.699   3.054 -0.1218  0.5687 -0.8084
 5002TIP3    H214971   0.032   3.844   3.017  0.7049  1.2503  1.2820
 5003TIP3   OH214972   1.673   1.573   3.988  0.1465 -0.3009  0.1127
 5003TIP3    H114973   1.675   1.625   3.908 -0.0094 -2.4217 -1.3607
 5003TIP3    H214974   1.761   1.583   4.026  1.3061 -1.6839 -2.0345
 5004TIP3   OH214975   2.083   1.746   0.770  0.0268  0.0828  0.2972
 5004TIP3    H114976   2.024   1.698   0.713  1.3074  0.7716 -1.7097
 5004TIP3    H214977   2.163   1.693   0.774  0.9866  1.3511 -0.9219
 5005TIP3   OH214978   1.292   4.397   1.405  0.2267 -0.4861 -0.0049
 5005TIP3    H114979   1.220   4.460   1.392 -1.1660 -1.8029  0.9523
 5005TIP3    H214980   1.294   4.347   1.324 -0.1176 -0.6107  0.0611
 5006TIP3   OH214981   1.234   3.859   4.943  0.8343  0.2575  0.3893
 5006TIP3    H114982   1.263   3.794   5.007 -0.8345  0.1367  1.0879
 5006TIP3    H214983   1.172   3.913   4.992  0.3260  0.8315 -0.8568
 5007TIP3   OH214984   5.743   1.148   4.830 -0.1488  0.3234 -0.2061
 5007TIP3    H114985   5.798   1.209   4.879 -0.3103 -0.2505  0.7200
 5007TIP3    H214986   5.662   1.144   4.881  0.0414 -1.0289  0.0186
 5008TIP3   OH214987   4.141   5.897   2.983 -0.0907 -0.0806 -0.0086
 5008TIP3    H114988   4.168   5.805   2.978 -2.3273 -0.7342 -1.1608
 5008TIP3    H214989   4.046   5.895   2.981 -0.2754  2.3814 -3.6923
 5009TIP3   OH214990   0.815   6.018   3.067 -0.7620  0.2401  0.3589
 5009TIP3    H114991   0.868   6.095   3.090 -0.2883 -0.2975  1.1451
 5009TIP3    H214992   0.879   5.954   3.035 -0.9729 -0.2880  0.9704
 5010TIP3   OH214993   2.241   6.605   5.589  0.4145 -0.0766  0.1643
 5010TIP3    H114994   2.191   6.677   5.628  1.7498  1.1048 -0.2258
 5010TIP3    H214995   2.274   6.641   5.507  0.0141 -1.5991 -0.7011
 5011TIP3   OH214996   2.583   2.849   5.679  0.0284  0.2322 -0.5727
 5011TIP3    H114997   2.589   2.943   5.692 -1.2334  0.2708 -0.0455
 5011TIP3    H214998   2.671   2.821   5.657  0.6437  1.3853  0.3258
 5012TIP3   OH214999   1.239   2.106   3.113  0.4874  0.4874 -0.0412
 5012TIP3    H115000   1.282   2.131   3.195 -0.3514  0.0367  0.5603
 5012TIP3    H215001   1.151   2.141   3.121 -0.3261 -1.4641  0.2788
 5013TIP3   OH215002   6.928   3.034   0.220  0.1303 -0.4925  0.0658
 5013TIP3    H115003   7.020   3.036   0.248 -0.0244 -0.8656  0.6130
 5013TIP3    H215004   6.920   3.109   0.161  0.7863 -0.4541  0.0093
 5014TIP3   OH215005   3.950   0.991   1.801  0.3273 -0.0298  0.6594
 5014TIP3    H115006   4.002   1.063   1.766 -2.4115  2.4785  1.3259
 5014TIP3    H215007   4.014   0.926   1.829  2.8305  0.6913 -2.8369
 5015TIP3   OH215008   1.815   3.825   2.900 -0.3610 -0.0090 -0.3455
 5015TIP3    H115009   1.891   3.769   2.885 -0.8142 -0.4083 -1.2251
 5015TIP3    H215010   1.743   3.764   2.916 -0.6730  0.3456 -0.3782
 5016TIP3   OH215011   5.196   6.310   3.844 -0.0673 -0.0939 -0.3619
 5016TIP3    H115012   5.170   6.224   3.812 -1.8399  1.1453 -2.5570
 5016TIP3    H215013   5.211   6.362   3.765 -0.7383  2.0785  0.8315
 5017TIP3   OH215014   2.688   4.171   4.191 -0.7924  0.1278  0.5372
 5017TIP3    H115015   2.682   4.145   4.099  1.0456  1.0864  0.1106
 5017TIP3    H215016   2.662   4.092   4.239 -0.9554 -0.6597 -0.7730
 5018TIP3   OH215017   4.551   2.691   0.388  0.4751 -0.2365 -0.1425
 5018TIP3    H115018   4.587   2.610   0.425 -0.4367 -0.2927  0.6668
 5018TIP3    H215019   4.459   2.670   0.369  0.3992  0.4158 -0.5217
 5019TIP3   OH215020   5.937   3.589   5.465 -0.6340  0.2003 -0.3171
 5019TIP3    H115021   5.986   3.595   5.384 -1.5003 -1.4839 -1.0292
 5019TIP3    H215022   5.854   3.634   5.447 -0.0478  1.6270  0.3536
 5020TIP3   OH215023   2.374   5.114   0.256 -0.1043 -0.3409 -0.5924
 5020TIP3    H115024   2.390   5.065   0.336  0.6056 -1.7987 -1.5757
 5020TIP3    H215025   2.451   5.170   0.247 -1.4305  1.9441  1.1352
 5021TIP3   OH215026   6.326   3.031   4.070 -0.4715 -0.1078 -0.4156
 5021TIP3    H115027   6.337   3.005   3.979  0.3754 -1.9784  0.1690
 5021TIP3    H215028   6.258   2.972   4.104  1.3685 -1.6040  0.9054
 5022TIP3   OH215029   5.538   2.412   5.138 -0.5561 -0.2358  0.2575
 5022TIP3    H115030   5.600   2.485   5.136 -0.7865  0.0193  1.4611
 5022TIP3    H215031   5.498   2.411   5.051  0.8492 -0.1589 -0.4079
 5023TIP3   OH215032   0.744   4.917   1.199 -0.1751 -0.7864 -0.4029
 5023TIP3    H115033   0.796   4.994   1.222 -0.8121 -0.6496  0.6439
 5023TIP3    H215034   0.759   4.906   1.105 -0.9527  1.2949 -0.8395
 5024TIP3   OH215035   0.232   3.209   4.271 -0.0338  0.0639 -0.2969
 5024TIP3    H115036   0.180   3.242   4.198  0.1805 -1.8288 -1.3855
 5024TIP3    H215037   0.170   3.159   4.324  0.4262 -1.3191 -1.0232
 5025TIP3   OH215038   6.775   1.233   5.284  0.1495 -0.1252  0.4236
 5025TIP3    H115039   6.814   1.160   5.237  2.0609 -0.5532  2.4618
 5025TIP3    H215040   6.686   1.205   5.303 -1.1142  0.5351 -3.7052
 5026TIP3   OH215041   6.011   6.766   4.049 -0.6219  0.4050 -0.0374
 5026TIP3    H115042   6.001   6.766   3.954  1.7217 -0.8157 -0.3600
 5026TIP3    H215043   5.980   6.680   4.077  0.3737  0.0636  0.0530
 5027TIP3   OH215044   1.183   6.235   2.655 -0.0486 -0.2417  0.0207
 5027TIP3    H115045   1.119   6.285   2.604 -0.4368 -0.6314  0.1284
 5027TIP3    H215046   1.196   6.286   2.735 -0.4262 -0.3013  0.1194
 5028TIP3   OH215047   5.038   1.319   4.533 -0.0463  0.4534  0.0578
 5028TIP3    H115048   5.000   1.299   4.618 -0.5268 -1.6150 -0.5808
 5028TIP3    H215049   5.120   1.269   4.530  0.4387  1.2439 -0.3454
 5029TIP3   OH215050   6.914   3.794   3.172 -0.0064  0.3339  0.2961
 5029TIP3    H115051   6.954   3.846   3.102 -0.2077  0.8502  0.5610
 5029TIP3    H215052   6.954   3.826   3.252  1.5434 -1.4740  0.3000
 5030TIP3   OH215053   7.053   1.427   1.280  0.0898 -0.8340 -0.6496
 5030TIP3    H115054   7.037   1.439   1.186 -1.0236  1.2653 -0.2628
 5030TIP3    H215055   6.984   1.477   1.322  0.7129 -1.5467  1.3111
 5031TIP3   OH215056   0.393   4.934   5.169 -0.2817  0.5028 -0.4019
 5031TIP3    H115057   0.445   4.998   5.216 -1.0733  1.0185 -0.2052
 5031TIP3    H215058   0.303   4.965   5.178 -0.5955 -0.2059 -0.9815
 5032TIP3   OH215059   6.523   4.421   4.671  0.7836 -0.5921  0.6030
 5032TIP3    H115060   6.529   4.482   4.598 -0.0585 -1.4103 -0.1906
 5032TIP3    H215061   6.492   4.339   4.631  0.7890 -1.2046  1.8009
 5033TIP3   OH215062   5.536   3.479   4.297  0.2468  0.4248 -0.7248
 5033TIP3    H115063   5.559   3.510   4.210 -1.5170  1.2350 -0.9638
 5033TIP3    H215064   5.518   3.386   4.286  0.6433  0.3876 -1.0870
 5034TIP3   OH215065   1.627   6.693   1.689 -0.1577 -1.0704 -0.2038
 5034TIP3    H115066   1.704   6.639   1.710 -0.5416 -1.2404  0.7989
 5034TIP3    H215067   1.559   6.663   1.750 -0.2193  0.9082  0.7838
 5035TIP3   OH215068   5.918   4.912   4.584 -0.5691 -0.3826  0.1512
 5035TIP3    H115069   5.965   4.992   4.610 -1.7812 -0.4944  3.0138
 5035TIP3    H215070   5.918   4.915   4.488  2.2869  1.3191  0.0819
 5036TIP3   OH215071   5.165   5.979   5.656  0.8186  0.4110 -0.4716
 5036TIP3    H115072   5.192   5.955   5.745  1.0121  1.6088 -0.1971
 5036TIP3    H215073   5.073   5.954   5.652  0.5047  1.3307  0.4502
 5037TIP3   OH215074   1.534   2.839   5.681  0.1044 -0.0760  0.3491
 5037TIP3    H115075   1.541   2.791   5.763 -0.7389 -1.2929 -0.2613
 5037TIP3    H215076   1.596   2.911   5.690  0.4351 -0.5135  1.8195
 5038TIP3   OH215077   2.280   5.354   1.264  0.8062  0.4829 -0.3819
 5038TIP3    H115078   2.217   5.385   1.199 -0.1507 -3.3347 -1.5451
 5038TIP3    H215079   2.227   5.336   1.342  0.6098 -1.4050 -0.9023
 5039TIP3   OH215080   7.122   2.321   2.409 -0.2271  0.1232  0.2443
 5039TIP3    H115081   7.045   2.312   2.353 -0.5437  0.6324  0.5880
 5039TIP3    H215082   7.115   2.248   2.471 -0.3583  0.0917  0.1933
 5040TIP3   OH215083   5.217   1.916   4.226 -0.4900 -0.0361  0.0666
 5040TIP3    H115084   5.141   1.960   4.190 -0.7013 -0.6036 -0.1969
 5040TIP3    H215085   5.250   1.863   4.154 -0.3102 -0.3969  0.4096
 5041TIP3   OH215086   1.595   3.150   0.226 -0.1066  0.5685 -0.1364
 5041TIP3    H115087   1.615   3.064   0.188 -0.4518  0.7882 -0.8251
 5041TIP3    H215088   1.501   3.160   0.215  0.0664  1.4435 -0.9308
 5042TIP3   OH215089   3.498   5.399   1.604 -0.3803  0.2879 -0.1061
 5042TIP3    H115090   3.493   5.428   1.695 -1.3058  1.7073 -0.5721
 5042TIP3    H215091   3.565   5.456   1.565  1.7682 -1.8732  0.1793
 5043TIP3   OH215092   4.707   3.326   3.806  0.0267 -0.1107 -0.4917
 5043TIP3    H115093   4.673   3.415   3.812  0.1288  0.2171 -3.2938
 5043TIP3    H215094   4.629   3.270   3.807 -0.1529  0.1402 -0.3878
 5044TIP3   OH215095   7.137   6.067   5.711 -0.7577 -0.7499 -0.3847
 5044TIP3    H115096   7.185   6.015   5.646 -0.8399 -0.8043 -0.4017
 5044TIP3    H215097   7.085   6.128   5.658 -2.4485 -2.1862 -0.4547
 5045TIP3   OH215098   0.893   6.389   3.989 -0.0473  0.3059 -0.4512
 5045TIP3    H115099   0.820   6.437   4.028 -2.0632 -1.7880 -1.4602
 5045TIP3    H215100   0.949   6.367   4.063 -1.0025  0.9850  0.5114
 5046TIP3   OH215101   7.160   4.570   5.053 -0.5878  0.0343  0.5239
 5046TIP3    H115102   7.204   4.615   4.981 -1.1566 -0.3320 -0.0662
 5046TIP3    H215103   7.074   4.610   5.058 -1.1131 -0.9819 -0.0308
 5047TIP3   OH215104   4.859   6.679   4.423  0.6302 -0.1052 -0.3195
 5047TIP3    H115105   4.923   6.751   4.421 -0.1446  0.5854 -1.2893
 5047TIP3    H215106   4.896   6.613   4.364  0.6415  0.1284 -0.5784
 5048TIP3   OH215107   2.463   2.718   4.681 -0.1789 -0.4767 -0.2076
 5048TIP3    H115108   2.553   2.724   4.650 -0.8924  0.2638 -2.2676
 5048TIP3    H215109   2.426   2.643   4.633 -0.2916 -1.7678  1.7500
 5049TIP3   OH215110   5.467   2.792   0.448  0.0744  0.6505  0.2770
 5049TIP3    H115111   5.452   2.698   0.455 -1.5702  0.8520 -0.0900
 5049TIP3    H215112   5.448   2.826   0.535  1.0712  0.6047  0.5187
 5050TIP3   OH215113   5.041   1.988   3.774  0.2576  0.1834 -0.6798
 5050TIP3    H115114   5.120   2.042   3.777  0.1081  0.3974 -0.5552
 5050TIP3    H215115   4.971   2.045   3.808  0.3546 -0.5498  0.8037
 5051TIP3   OH215116   0.322   2.629   5.506  0.1282  0.1116 -0.5125
 5051TIP3    H115117   0.243   2.656   5.458 -1.5339 -0.5624  1.6992
 5051TIP3    H215118   0.332   2.536   5.485 -1.2221 -0.4554  1.1621
 5052TIP3   OH215119   1.128   6.406   3.298 -0.0635 -0.0131  0.6993
 5052TIP3    H115120   1.128   6.345   3.372  1.2833 -1.1278 -0.1636
 5052TIP3    H215121   1.073   6.362   3.232 -0.7183  0.6632  0.7860
 5053TIP3   OH215122   1.562   2.382   4.080 -0.0367  0.3000  0.6898
 5053TIP3    H115123   1.474   2.344   4.084  0.6636 -1.6668 -0.9002
 5053TIP3    H215124   1.547   2.474   4.056 -1.6708  0.2595  1.3833
 5054TIP3   OH215125   1.934   5.152   2.736 -0.1503 -0.1204  0.1964
 5054TIP3    H115126   2.023   5.124   2.756  0.1356  0.2597 -0.5111
 5054TIP3    H215127   1.880   5.074   2.751  0.6359 -1.1449 -1.8907
 5055TIP3   OH215128   2.503   0.339   5.607 -0.3934 -0.1204  0.1410
 5055TIP3    H115129   2.534   0.253   5.580 -1.2212 -0.2479 -0.4597
 5055TIP3    H215130   2.580   0.382   5.643 -0.2187 -1.5312  1.5376
 5056TIP3   OH215131   0.266   6.100   2.108  0.1105  0.7655  0.0230
 5056TIP3    H115132   0.297   6.100   2.199 -1.8663 -0.4007  0.7538
 5056TIP3    H215133   0.223   6.185   2.098 -0.5391  0.5051  0.5194
 5057TIP3   OH215134   0.735   3.459   3.952  0.1574  0.3065 -0.2508
 5057TIP3    H115135   0.684   3.509   3.888 -2.6027 -0.7180  0.9703
 5057TIP3    H215136   0.751   3.521   4.023  0.8088  0.6859 -0.7192
 5058TIP3   OH215137   2.988   3.317   4.890 -0.5494  0.2197  0.0928
 5058TIP3    H115138   2.918   3.351   4.835 -2.4286 -0.3049  2.0382
 5058TIP3    H215139   3.028   3.247   4.837 -0.6871  1.3006 -1.5036
 5059TIP3   OH215140   5.157   6.499   4.091 -0.5003  0.6331 -0.1842
 5059TIP3    H115141   5.225   6.436   4.067  0.2675  1.1535  0.5475
 5059TIP3    H215142   5.157   6.562   4.019 -1.7287 -0.5181 -1.2438
 5060TIP3   OH215143   1.084   1.238   0.462 -0.0787 -0.0687  0.8724
 5060TIP3    H115144   1.082   1.154   0.509 -1.8295 -1.1140 -0.9482
 5060TIP3    H215145   1.174   1.246   0.431  0.0900 -1.3383  0.9885
 5061TIP3   OH215146   3.280   0.560   3.791 -0.1398  0.0166 -0.2346
 5061TIP3    H115147   3.275   0.653   3.813  1.6993 -0.0578  0.6659
 5061TIP3    H215148   3.265   0.557   3.696  1.5101  1.4493 -0.5864
 5062TIP3   OH215149   3.297   6.479   2.999 -0.2188 -0.0976  0.1797
 5062TIP3    H115150   3.370   6.477   3.061  0.3186 -1.3028 -0.4603
 5062TIP3    H215151   3.235   6.414   3.032 -0.7997  0.5747  0.4511
 5063TIP3   OH215152   5.079   2.318   4.779  0.0140 -0.0369  0.5825
 5063TIP3    H115153   5.080   2.396   4.723 -1.4003  0.5363  1.2915
 5063TIP3    H215154   5.102   2.246   4.721  0.8686  0.8306 -0.2011
 5064TIP3   OH215155   6.125   5.374   0.914  0.0178  0.0722  0.5603
 5064TIP3    H115156   6.114   5.331   0.998  2.5141 -0.8593  0.5015
 5064TIP3    H215157   6.079   5.317   0.852 -0.9619  0.2148  1.1429
 5065TIP3   OH215158   3.122   6.273   3.074 -0.0686 -0.3124 -0.2186
 5065TIP3    H115159   3.046   6.295   3.021  0.5854  0.7356 -0.7546
 5065TIP3    H215160   3.099   6.191   3.117 -1.2881 -0.2741 -0.7758
 5066TIP3   OH215161   5.103   2.109   4.574 -0.1757  0.0598 -1.1937
 5066TIP3    H115162   5.095   2.027   4.623  0.6296 -1.2245 -3.1057
 5066TIP3    H215163   5.039   2.102   4.504 -2.8705  2.8338  0.7621
 5067TIP3   OH215164   6.834   1.762   0.782  0.3233 -0.0707  0.1644
 5067TIP3    H115165   6.826   1.713   0.701 -0.0264 -0.5497  0.4832
 5067TIP3    H215166   6.781   1.713   0.845 -0.2707  0.8762  0.4125
 5068TIP3   OH215167   5.888   0.987   0.870 -0.0213 -0.1184 -0.4306
 5068TIP3    H115168   5.928   0.903   0.893  0.1741  0.2573  0.6640
 5068TIP3    H215169   5.795   0.975   0.888 -0.2514 -0.5821 -1.7715
 5069TIP3   OH215170   0.428   2.191   4.307  0.1040 -0.0091  0.0613
 5069TIP3    H115171   0.429   2.260   4.240  0.6155  0.8260  0.9139
 5069TIP3    H215172   0.503   2.135   4.285 -1.4548 -1.5367 -1.8397
 5070TIP3   OH215173   1.478   1.414   1.587  0.0098  0.4044  0.2174
 5070TIP3    H115174   1.552   1.436   1.531 -0.0331  0.3517  0.1385
 5070TIP3    H215175   1.401   1.431   1.532 -0.0050 -0.7515 -0.1562
 5071TIP3   OH215176   6.329   2.788   3.569  0.1240 -0.5832 -0.0754
 5071TIP3    H115177   6.262   2.720   3.573 -0.3026 -0.1600  0.1657
 5071TIP3    H215178   6.393   2.764   3.636  0.2917 -1.0678 -0.4030
 5072TIP3   OH215179   7.040   1.200   4.360 -0.0866 -0.7380  0.0165
 5072TIP3    H115180   7.010   1.114   4.390 -1.5038 -0.3821 -0.2932
 5072TIP3    H215181   6.971   1.229   4.300 -0.1170  1.0060  0.8386
 5073TIP3   OH215182   0.708   0.806   5.583 -0.0997 -0.3452 -0.3301
 5073TIP3    H115183   0.630   0.787   5.637  0.7934 -1.6206  0.5825
 5073TIP3    H215184   0.753   0.722   5.578 -0.3220 -0.3738 -3.4488
 5074TIP3   OH215185   3.663   0.795   4.613  0.1735 -0.3253 -0.3437
 5074TIP3    H115186   3.617   0.712   4.625 -0.5877 -0.1358 -1.7490
 5074TIP3    H215187   3.607   0.860   4.656  1.5770 -0.6791  2.2415
 5075TIP3   OH215188   0.544   5.248   5.463 -0.6140  0.1967  0.6821
 5075TIP3    H115189   0.480   5.179   5.482 -0.3097  0.3729  2.4763
 5075TIP3    H215190   0.578   5.274   5.548  1.5418  0.4239 -0.1887
 5076TIP3   OH215191   6.221   4.062   2.487 -0.0130 -0.2887  0.0979
 5076TIP3    H115192   6.291   4.029   2.544  0.0057  1.5395  1.1913
 5076TIP3    H215193   6.157   3.991   2.486  0.8772 -1.1445  0.7957
 5077TIP3   OH215194   0.391   6.022   4.854  0.0560 -0.1481 -0.2747
 5077TIP3    H115195   0.359   6.091   4.912 -1.6025 -2.0683  1.2018
 5077TIP3    H215196   0.330   6.022   4.781 -0.2696 -0.4154 -0.0027
 5078TIP3   OH215197   7.022   4.683   0.309 -0.6314 -0.0704 -0.1859
 5078TIP3    H115198   6.968   4.704   0.385 -2.4247 -1.1017 -1.0912
 5078TIP3    H215199   6.992   4.744   0.241  0.8164  0.7112 -0.1585
 5079TIP3   OH215200   6.971   2.617   2.379 -0.1412 -0.0811 -0.0338
 5079TIP3    H115201   6.988   2.704   2.343 -0.3483 -0.2108 -0.4419
 5079TIP3    H215202   7.032   2.559   2.334  2.4597  0.3510  2.6481
 5080TIP3   OH215203   2.562   2.063   0.854  0.0362  0.3513 -0.1403
 5080TIP3    H115204   2.651   2.090   0.875 -0.3253  2.0675 -0.6650
 5080TIP3    H215205   2.524   2.036   0.937  0.5392  1.1752  0.3682
 5081TIP3   OH215206   6.834   1.102   3.321  0.3159  0.1758 -0.3200
 5081TIP3    H115207   6.906   1.164   3.308  1.2543 -0.4489  1.6147
 5081TIP3    H215208   6.771   1.149   3.375  0.7055 -0.2996  0.5608
 5082TIP3   OH215209   3.908   1.495   2.438  0.2153  0.2500 -0.4445
 5082TIP3    H115210   3.942   1.507   2.349 -0.2020  0.1364 -0.6238
 5082TIP3    H215211   3.934   1.406   2.462 -0.5972 -0.1144 -0.8754
 5083TIP3   OH215212   2.510   6.401   2.392  0.3694  0.3740  0.7558
 5083TIP3    H115213   2.446   6.332   2.410  0.2988 -0.0142 -0.8661
 5083TIP3    H215214   2.594   6.363   2.416  0.0676  0.8014  2.6671
 5084TIP3   OH215215   6.316   2.446   4.533 -0.5309 -0.0113 -0.4627
 5084TIP3    H115216   6.364   2.512   4.484 -0.4760 -0.9659 -1.7502
 5084TIP3    H215217   6.372   2.424   4.607  0.5385 -0.3094 -1.3359
 5085TIP3   OH215218   0.194   3.110   3.178 -0.1809 -0.1290 -0.1355
 5085TIP3    H115219   0.178   3.019   3.153 -0.8889  0.1674 -0.7895
 5085TIP3    H215220   0.262   3.140   3.117 -1.9507  0.6123 -1.8348
 5086TIP3   OH215221   6.620   0.249   3.611 -0.1617 -0.0246  0.3788
 5086TIP3    H115222   6.715   0.261   3.610 -0.0672  0.0397  2.7873
 5086TIP3    H215223   6.586   0.317   3.552  1.2886 -0.4889 -1.0386
 5087TIP3   OH215224   1.156   3.298   3.733  0.4694 -0.0122 -0.1841
 5087TIP3    H115225   1.148   3.369   3.669  2.0928  0.5845  0.2216
 5087TIP3    H215226   1.066   3.275   3.754 -0.1358  2.3192  0.0712
 5088TIP3   OH215227   1.041   1.078   0.969 -0.0986  0.3252 -0.4685
 5088TIP3    H115228   1.072   1.128   0.893 -0.1579  0.0498 -0.6712
 5088TIP3    H215229   1.103   1.006   0.978  0.9809  1.3472  0.8261
 5089TIP3   OH215230   3.011   1.151   5.098 -0.1612  0.0733 -0.4009
 5089TIP3    H115231   3.086   1.206   5.075  1.2634 -1.3217  0.6708
 5089TIP3    H215232   3.019   1.074   5.043 -0.9859  0.0261 -0.4750
 5090TIP3   OH215233   1.676   3.109   0.502 -0.1185  0.1956  0.5573
 5090TIP3    H115234   1.648   3.189   0.547  1.0329  1.5037 -0.9196
 5090TIP3    H215235   1.631   3.113   0.418 -1.5868 -1.7796  1.1846
 5091TIP3   OH215236   0.519   3.649   0.174  0.2295  0.2285 -0.0044
 5091TIP3    H115237   0.576   3.572   0.176 -1.8197 -1.5371 -2.7979
 5091TIP3    H215238   0.430   3.614   0.171 -0.8237  2.7277 -0.4583
 5092TIP3   OH215239   6.431   4.111   0.230 -0.0849 -0.6272 -0.8152
 5092TIP3    H115240   6.393   4.141   0.147  1.0237  2.5103 -0.3452
 5092TIP3    H215241   6.363   4.131   0.295 -1.1012 -3.4185 -0.9067
 5093TIP3   OH215242   3.315   0.815   3.916 -0.5054 -0.3392  0.1997
 5093TIP3    H115243   3.358   0.807   4.001  0.4994 -1.9209 -0.4086
 5093TIP3    H215244   3.226   0.784   3.931 -0.5445  0.0470  0.8164
 5094TIP3   OH215245   2.081   1.808   1.505  0.2640  0.3822 -0.4188
 5094TIP3    H115246   2.132   1.833   1.428  0.3442 -1.0446 -0.8537
 5094TIP3    H215247   2.003   1.863   1.501  1.6676  2.5038  0.1826
 5095TIP3   OH215248   6.411   0.139   5.339  0.3372 -0.2362 -0.3571
 5095TIP3    H115249   6.426   0.125   5.432  0.8057  1.7798 -0.0821
 5095TIP3    H215250   6.368   0.224   5.334  1.6552  0.3963 -2.0391
 5096TIP3   OH215251   2.742   5.607   3.633  0.0731 -0.0599  0.3464
 5096TIP3    H115252   2.761   5.635   3.722  2.4108  0.9244 -0.3902
 5096TIP3    H215253   2.803   5.657   3.579  0.7322 -2.7321 -1.5519
 5097TIP3   OH215254   5.619   4.946   0.587  0.2801 -0.1901 -0.2710
 5097TIP3    H115255   5.628   5.041   0.586  0.5695 -0.1737 -2.6294
 5097TIP3    H215256   5.528   4.930   0.610  0.5583  0.5599  1.5197
 5098TIP3   OH215257   1.743   1.779   0.740  0.0585 -0.2631  0.1785
 5098TIP3    H115258   1.769   1.723   0.667 -2.6667 -0.5435 -0.6764
 5098TIP3    H215259   1.705   1.719   0.804 -0.2177  0.3048  0.5528
 5099TIP3   OH215260   1.322   1.236   5.587  0.4420 -0.3249 -0.3155
 5099TIP3    H115261   1.306   1.187   5.668 -0.8799 -1.2735 -1.1125
 5099TIP3    H215262   1.293   1.325   5.608  3.5618  0.4635  1.3869
 5100TIP3   OH215263   5.367   5.095   4.853 -0.0074  0.0335 -0.2300
 5100TIP3    H115264   5.443   5.153   4.845  1.5370 -1.8349 -0.0515
 5100TIP3    H215265   5.317   5.109   4.773 -0.1220  2.1352  0.1703
 5101TIP3   OH215266   5.596   4.242   2.448  0.0064 -0.1753 -0.2204
 5101TIP3    H115267   5.674   4.286   2.482 -0.1154  0.7140 -1.0595
 5101TIP3    H215268   5.540   4.230   2.526 -0.2782  1.8471 -0.0545
 5102TIP3   OH215269   0.475   2.295   0.046  0.2867 -0.0905  0.5337
 5102TIP3    H115270   0.395   2.333   0.010  1.4260  0.4934 -1.5162
 5102TIP3    H215271   0.518   2.369   0.090  0.4673 -0.0117  0.2275
 5103TIP3   OH215272   3.896   3.194   4.319 -0.0146 -0.4253  0.1690
 5103TIP3    H115273   3.969   3.217   4.261 -0.4153  1.0306  0.2196
 5103TIP3    H215274   3.895   3.263   4.385 -1.0274 -0.8005  0.5572
 5104TIP3   OH215275   6.096   2.333   4.956 -0.0871 -0.3156 -0.4392
 5104TIP3    H115276   6.174   2.352   5.008 -0.0346 -1.4760 -0.0645
 5104TIP3    H215277   6.023   2.349   5.016 -0.0143 -2.0743  0.1929
 5105TIP3   OH215278   6.462   0.886   4.812 -0.8589  0.0573  0.0012
 5105TIP3    H115279   6.416   0.804   4.832  0.2997 -1.1115 -1.7513
 5105TIP3    H215280   6.510   0.866   4.731  3.0236  1.0035  1.8318
 5106TIP3   OH215281   2.169   6.516   3.758  0.0585  0.2619 -0.3789
 5106TIP3    H115282   2.109   6.556   3.695 -0.7279 -2.1495 -1.2405
 5106TIP3    H215283   2.207   6.442   3.712  0.8122 -0.5385  1.4272
 5107TIP3   OH215284   5.631   2.286   0.082  0.9820 -0.3324 -0.1189
 5107TIP3    H115285   5.608   2.306  -0.008 -1.8514  2.2078  0.9934
 5107TIP3    H215286   5.552   2.249   0.120  1.7612 -0.3833  1.5912
 5108TIP3   OH215287   3.718   4.152   3.772 -0.4434  0.1080 -0.5143
 5108TIP3    H115288   3.680   4.216   3.832 -0.2578  0.8372 -1.1545
 5108TIP3    H215289   3.650   4.137   3.707  0.2345  1.2072 -1.5101
 5109TIP3   OH215290   2.255   0.390   4.026  0.1135 -0.2983 -0.0423
 5109TIP3    H115291   2.212   0.465   3.986  0.9779  0.1902 -0.0906
 5109TIP3    H215292   2.193   0.359   4.092  0.3440  1.3991  1.0383
 5110TIP3   OH215293   0.307   5.452   3.123  0.2036 -0.3739  0.2188
 5110TIP3    H115294   0.325   5.487   3.210  2.0272  1.4714 -0.8186
 5110TIP3    H215295   0.242   5.512   3.086  1.1673  0.2390 -0.5131
 5111TIP3   OH215296   7.070   6.607   3.275 -0.8852 -0.2589 -0.2305
 5111TIP3    H115297   7.089   6.670   3.344  1.2192  0.5435 -1.4427
 5111TIP3    H215298   7.088   6.522   3.314  3.7466  0.3097 -0.5794
 5112TIP3   OH215299   5.211   6.112   3.536 -0.5421  0.4284  0.7229
 5112TIP3    H115300   5.252   6.076   3.614 -2.0871  0.1681  1.4464
 5112TIP3    H215301   5.281   6.163   3.493  1.5313 -2.7216  0.0491
 5113TIP3   OH215302   0.138   4.344   3.631 -0.1703 -0.0442  0.1093
 5113TIP3    H115303   0.188   4.299   3.563  1.1262 -0.4403  1.2593
 5113TIP3    H215304   0.049   4.312   3.621 -0.2792  0.7887 -2.1008
 5114TIP3   OH215305   3.085   4.978   1.331  0.6399 -0.3212 -0.1132
 5114TIP3    H115306   3.038   5.011   1.254  2.2689  1.4600 -0.4142
 5114TIP3    H215307   3.020   4.979   1.401 -0.0977  0.8954 -0.7804
 5115TIP3   OH215308   2.634   5.528   3.961  0.3310 -0.1728  0.4549
 5115TIP3    H115309   2.615   5.603   4.017 -2.2220 -0.5398  0.1648
 5115TIP3    H215310   2.605   5.452   4.012 -1.2332 -0.5785 -0.9776
 5116TIP3   OH215311   5.339   2.322   1.650  0.1573 -0.1679  0.1902
 5116TIP3    H115312   5.307   2.242   1.610 -0.2196 -0.0760  0.3054
 5116TIP3    H215313   5.321   2.312   1.743  2.4505 -1.0632  0.6005
 5117TIP3   OH215314   4.447   3.065   2.152  0.3545 -0.0919  1.0324
 5117TIP3    H115315   4.398   3.020   2.221  0.3787  0.1621  1.2151
 5117TIP3    H215316   4.531   3.019   2.148 -0.8362 -2.3341 -1.1429
 5118TIP3   OH215317   1.877   0.398   4.884  0.1423 -0.3739  0.5204
 5118TIP3    H115318   1.966   0.425   4.908  0.0168 -0.4626  1.1127
 5118TIP3    H215319   1.828   0.403   4.966 -1.0791  2.2874 -0.2538
 5119TIP3   OH215320   1.372   2.701   5.458 -0.4224  0.4390 -0.3706
 5119TIP3    H115321   1.337   2.671   5.542  0.2279 -0.4923 -0.4117
 5119TIP3    H215322   1.454   2.744   5.480  0.1100 -0.4463 -0.5810
 5120TIP3   OH215323   4.104   0.956   4.726  0.6901  0.5088 -0.2406
 5120TIP3    H115324   4.044   0.881   4.724  2.7743 -1.4517  2.6412
 5120TIP3    H215325   4.047   1.031   4.745 -1.1455 -0.7508 -0.4402
 5121TIP3   OH215326   2.010   6.066   0.482  0.4163  0.4478 -0.4824
 5121TIP3    H115327   2.043   6.061   0.571 -0.4363 -0.5234 -0.1974
 5121TIP3    H215328   2.076   6.115   0.434  0.9713  0.8236  0.6403
 5122TIP3   OH215329   6.128   0.585   1.735 -0.2079 -0.4714  0.2100
 5122TIP3    H115330   6.058   0.546   1.787 -1.9020  0.9064 -0.9180
 5122TIP3    H215331   6.143   0.670   1.776  0.7766 -0.7165  0.3845
 5123TIP3   OH215332   4.607   2.202   5.764  0.1018  0.1950  0.5902
 5123TIP3    H115333   4.677   2.160   5.814  0.3585  0.0009  0.0814
 5123TIP3    H215334   4.527   2.163   5.798  0.1704  0.9830  1.7217
 5124TIP3   OH215335   1.029   4.772   2.618  0.2052 -0.0327 -1.2138
 5124TIP3    H115336   1.077   4.834   2.672 -0.7071 -0.1503 -0.2302
 5124TIP3    H215337   0.937   4.791   2.636 -0.1831  0.7333 -3.6484
 5125TIP3   OH215338   1.081   2.196   4.877  0.1868  0.0802  0.2982
 5125TIP3    H115339   1.118   2.265   4.821 -0.1986 -0.3660 -0.5135
 5125TIP3    H215340   1.154   2.169   4.932  0.6406  0.3486 -0.1608
 5126TIP3   OH215341   4.855   3.040   4.976 -0.0201 -0.1579 -0.1663
 5126TIP3    H115342   4.814   3.125   4.965  1.1554  0.4505 -0.0770
 5126TIP3    H215343   4.847   3.022   5.070 -1.4107 -0.7690 -0.3839
 5127TIP3   OH215344   6.041   3.873   3.880 -0.0229 -0.0152 -0.1699
 5127TIP3    H115345   6.053   3.944   3.943 -0.5792  0.2668 -0.3693
 5127TIP3    H215346   6.128   3.837   3.867  0.2221  0.4478  0.1531
 5128TIP3   OH215347   2.664   5.210   5.847 -0.1651 -0.1263  0.2762
 5128TIP3    H115348   2.754   5.241   5.852 -0.1617 -0.3042  2.2145
 5128TIP3    H215349   2.670   5.125   5.804  0.5611 -0.0524  0.2137
 5129TIP3   OH215350   5.696   6.416   5.191 -0.3720  0.7402  0.0436
 5129TIP3    H115351   5.624   6.367   5.231  0.3171 -0.1004  0.2880
 5129TIP3    H215352   5.735   6.464   5.264 -1.8144  2.6967 -0.3984
 5130TIP3   OH215353   3.958   0.981   5.822  0.0158  0.4141 -0.4177
 5130TIP3    H115354   3.948   1.012   5.732 -0.6237  1.5964  0.0402
 5130TIP3    H215355   3.879   1.011   5.866  0.1381 -0.4947  0.4635
 5131TIP3   OH215356   5.848   3.288   0.881 -0.2488  0.2892 -0.1407
 5131TIP3    H115357   5.767   3.302   0.832  0.2623  1.4607 -0.7073
 5131TIP3    H215358   5.915   3.276   0.813  0.2244  0.4560  0.2858
 5132TIP3   OH215359   6.782   6.633   1.901 -0.0142 -0.0205 -0.2935
 5132TIP3    H115360   6.731   6.675   1.969 -1.1453  1.2678 -1.8586
 5132TIP3    H215361   6.865   6.610   1.944 -0.5446  1.0514  1.4091
 5133TIP3   OH215362   1.253   0.119   3.063 -0.6645  0.1872  0.0990
 5133TIP3    H115363   1.335   0.152   3.027  0.0519 -2.6827 -1.1820
 5133TIP3    H215364   1.250   0.153   3.152  1.1338  1.6171 -0.3299
 5134TIP3   OH215365   3.593   2.310   0.398  0.3696 -0.4825  0.0478
 5134TIP3    H115366   3.688   2.325   0.395  0.8480 -2.7617  1.3828
 5134TIP3    H215367   3.583   2.216   0.388 -1.8436 -0.2352 -0.6477
 5135TIP3   OH215368   2.299   1.031   2.790  0.0408  0.0624  0.2817
 5135TIP3    H115369   2.340   1.010   2.874  0.2168  0.6677  0.3549
 5135TIP3    H215370   2.273   0.947   2.754  0.0026 -0.2078  0.9283
 5136TIP3   OH215371   2.368   6.202   4.252 -0.1115 -0.0879  0.0509
 5136TIP3    H115372   2.464   6.204   4.256  0.0509 -3.3094 -0.0871
 5136TIP3    H215373   2.347   6.245   4.169  1.2614 -0.0308 -0.2949
 5137TIP3   OH215374   4.367   0.187   4.399 -0.0860 -0.1980  0.6125
 5137TIP3    H115375   4.293   0.151   4.447 -0.3102  0.2372  0.5900
 5137TIP3    H215376   4.373   0.278   4.428 -2.0979  1.0440 -2.3563
 5138TIP3   OH215377   4.725   5.628   0.979 -0.2909  0.0250 -0.7443
 5138TIP3    H115378   4.657   5.643   0.914  0.6727 -1.7834 -2.2598
 5138TIP3    H215379   4.780   5.707   0.974 -0.9857  0.4946 -1.1234
 5139TIP3   OH215380   5.696   0.772   0.228  0.7896 -0.0772  0.8631
 5139TIP3    H115381   5.646   0.853   0.219  2.6984  1.0837  0.1436
 5139TIP3    H215382   5.667   0.734   0.311 -0.5812  0.9944  0.9063
 5140TIP3   OH215383   6.025   0.944   5.343  0.1863  0.8224 -0.5886
 5140TIP3    H115384   5.970   0.866   5.354  0.6155  0.5286 -0.5035
 5140TIP3    H215385   6.100   0.929   5.400  1.2904  0.3406 -2.1026
 5141TIP3   OH215386   1.409   5.683   1.459  0.2197 -0.8404  0.1987
 5141TIP3    H115387   1.499   5.708   1.480 -0.4764  0.3637  2.0245
 5141TIP3    H215388   1.389   5.729   1.378  1.3477 -1.4353 -0.4422
 5142TIP3   OH215389   2.624   6.622   5.632  0.0336 -0.1944 -0.3437
 5142TIP3    H115390   2.549   6.660   5.586 -0.6910  0.0000  0.9526
 5142TIP3    H215391   2.655   6.552   5.574  0.2651  1.1597 -1.9484
 5143TIP3   OH215392   3.105   5.391   1.326  0.6162  0.1343  0.0736
 5143TIP3    H115393   3.180   5.343   1.362 -0.5684 -1.9424 -0.1374
 5143TIP3    H215394   3.089   5.460   1.391  1.7426 -0.3279  0.8937
 5144TIP3   OH215395   2.388   3.142   1.010 -0.2810 -0.3917  0.1993
 5144TIP3    H115396   2.367   3.230   0.978 -0.5523 -0.5960 -0.2024
 5144TIP3    H215397   2.326   3.127   1.081  1.0788  0.5145  1.6267
 5145TIP3   OH215398   0.206   5.460   4.732  0.2688  0.3186  0.1672
 5145TIP3    H115399   0.148   5.512   4.676  1.5256  0.3019 -1.2295
 5145TIP3    H215400   0.237   5.521   4.799  0.3865  0.9357 -0.4327
 5146TIP3   OH215401   4.217   1.436   3.709  0.2765  0.8455 -0.5300
 5146TIP3    H115402   4.139   1.440   3.654  0.9624 -0.9224 -1.7335
 5146TIP3    H215403   4.288   1.416   3.648  1.0419 -1.4232  0.9442
 5147TIP3   OH215404   0.253   1.127   4.061  0.2280 -0.4562  0.0840
 5147TIP3    H115405   0.342   1.121   4.028 -0.0493 -0.3214 -0.7249
 5147TIP3    H215406   0.213   1.043   4.039  0.4298 -0.8861  1.3092
 5148TIP3   OH215407   3.569   0.535   5.110 -0.0991  0.2161  0.6835
 5148TIP3    H115408   3.498   0.475   5.088  0.9745 -0.8141 -0.0612
 5148TIP3    H215409   3.548   0.565   5.199 -2.1085  0.9276  0.0262
 5149TIP3   OH215410   2.306   1.901   5.372 -0.4366 -0.8861  0.2875
 5149TIP3    H115411   2.279   1.812   5.354  0.0832 -0.7350 -1.4279
 5149TIP3    H215412   2.238   1.956   5.331  0.2359 -0.5242 -0.3869
 5150TIP3   OH215413   6.558   6.048   0.824 -0.6768  0.3158  0.1851
 5150TIP3    H115414   6.504   6.019   0.751 -0.8470 -0.0157  0.4411
 5150TIP3    H215415   6.570   5.970   0.878  0.4289  0.2701 -0.0942
 5151TIP3   OH215416   1.303   6.159   1.057 -0.2700  0.2433  0.1447
 5151TIP3    H115417   1.386   6.112   1.056 -1.4064 -1.8483 -0.3861
 5151TIP3    H215418   1.301   6.203   1.142  2.8148  3.2163 -1.0784
 5152TIP3   OH215419   3.012   3.765   0.068  0.6084  0.0289  0.0510
 5152TIP3    H115420   3.093   3.733   0.106  1.8372  0.0834 -2.3492
 5152TIP3    H215421   3.040   3.819  -0.006 -1.6170  0.0167 -0.8737
 5153TIP3   OH215422   4.088   6.560   3.410 -0.4724 -0.5445  0.4799
 5153TIP3    H115423   4.180   6.536   3.423 -0.5244 -2.3390 -1.7636
 5153TIP3    H215424   4.090   6.653   3.388  0.7302 -0.4079  1.1139
 5154TIP3   OH215425   3.400   4.188   5.795 -0.3615 -0.0689  0.2632
 5154TIP3    H115426   3.367   4.098   5.794 -3.1084  0.8344  0.5572
 5154TIP3    H215427   3.411   4.208   5.887 -3.6152  1.0573  0.5355
 5155TIP3   OH215428   2.065   0.493   2.525  0.1782  0.0626  0.4457
 5155TIP3    H115429   2.035   0.568   2.474 -0.2426  0.0211  0.6269
 5155TIP3    H215430   2.014   0.419   2.493 -0.1825  0.0590  1.0091
 5156TIP3   OH215431   0.149   4.746   5.273 -0.3684 -0.0338  0.0350
 5156TIP3    H115432   0.068   4.718   5.231 -0.3567  0.5616 -0.3953
 5156TIP3    H215433   0.122   4.804   5.344 -0.2795  1.6040 -1.2086
 5157TIP3   OH215434   5.659   2.496   1.097  0.7108  0.4332  0.2984
 5157TIP3    H115435   5.708   2.418   1.074  0.8068  0.7178 -0.4964
 5157TIP3    H215436   5.708   2.568   1.057 -0.4000  0.7078 -0.6350
 5158TIP3   OH215437   1.936   5.802   1.527 -0.4122  0.9128 -0.0030
 5158TIP3    H115438   1.960   5.839   1.612  0.3987  2.9192 -1.0567
 5158TIP3    H215439   1.858   5.851   1.500  0.0649  1.1618 -0.9709
 5159TIP3   OH215440   5.884   3.915   5.291  0.0227 -0.4941 -0.0138
 5159TIP3    H115441   5.920   3.919   5.380 -1.3044  0.4363  0.5221
 5159TIP3    H215442   5.791   3.936   5.302  0.2906  2.3071 -1.8763
 5160TIP3   OH215443   1.189   4.103   5.318  0.3631  0.1752 -0.1986
 5160TIP3    H115444   1.222   4.013   5.320  1.7683  0.6410 -1.1664
 5160TIP3    H215445   1.254   4.151   5.267  0.3373  2.0238  1.3895
 5161TIP3   OH215446   3.416   2.162   1.723 -0.3653  0.3756 -0.3104
 5161TIP3    H115447   3.402   2.080   1.675 -2.5055  1.5161 -1.7935
 5161TIP3    H215448   3.472   2.214   1.665  2.4040 -0.5611  1.3638
 5162TIP3   OH215449   0.705   2.259   1.593  0.1633 -0.0032 -0.0062
 5162TIP3    H115450   0.624   2.309   1.601 -1.2978 -2.3049  0.4692
 5162TIP3    H215451   0.703   2.223   1.504  1.6328  1.3886 -0.6595
 5163TIP3   OH215452   3.576   6.720   0.512  0.1134 -0.8816  0.1888
 5163TIP3    H115453   3.658   6.689   0.474  1.3338  0.8560  1.2439
 5163TIP3    H215454   3.533   6.767   0.441 -0.0538 -1.8879 -0.3990
 5164TIP3   OH215455   4.972   3.371   3.502 -0.1928  0.4043 -0.3180
 5164TIP3    H115456   4.979   3.335   3.414  0.3818 -0.9254  0.2330
 5164TIP3    H215457   4.958   3.464   3.490  0.5374  0.3390 -1.8065
 5165TIP3   OH215458   1.239   5.244   5.776  0.0556  0.2189 -0.8166
 5165TIP3    H115459   1.160   5.229   5.724 -0.2009 -1.4291 -0.0191
 5165TIP3    H215460   1.312   5.231   5.715 -0.2585  0.1272 -1.1752
 5166TIP3   OH215461   3.181   2.710   0.799 -0.3483 -0.0100 -0.1535
 5166TIP3    H115462   3.143   2.774   0.739 -1.5338  0.9506  1.5252
 5166TIP3    H215463   3.121   2.636   0.798  0.7829 -0.9709 -1.7460
 5167TIP3   OH215464   3.765   1.335   4.964 -0.2574 -0.2765  0.1266
 5167TIP3    H115465   3.699   1.309   4.900  0.6254  0.8488 -1.3235
 5167TIP3    H215466   3.767   1.431   4.958  1.7756 -0.2937 -0.2123
 5168TIP3   OH215467   2.648   2.060   5.612 -0.6056  0.5329 -0.2607
 5168TIP3    H115468   2.674   2.132   5.555  1.8653 -1.2000 -1.5072
 5168TIP3    H215469   2.554   2.051   5.597 -0.8262  2.9045 -0.6953
 5169TIP3   OH215470   3.595   1.020   2.418  0.4509 -0.0413  0.1506
 5169TIP3    H115471   3.666   1.081   2.438  0.5601 -0.1273  0.0256
 5169TIP3    H215472   3.517   1.060   2.457  0.3155  0.7385 -0.9002
 5170TIP3   OH215473   6.991   5.422   3.363 -0.0650  0.2349 -0.8281
 5170TIP3    H115474   6.955   5.434   3.451  0.4018  1.3563 -0.7629
 5170TIP3    H215475   7.060   5.488   3.357  1.7645 -1.6037 -1.0785
 5171TIP3   OH215476  -0.019   3.168   3.385  0.0762  0.0536  0.6404
 5171TIP3    H115477   0.052   3.155   3.448 -0.8527 -0.9915  1.5490
 5171TIP3    H215478   0.019   3.220   3.315  1.7449 -0.5436  1.0544
 5172TIP3   OH215479   1.851   2.826   5.173  0.1596 -0.3774  0.4147
 5172TIP3    H115480   1.795   2.772   5.229  0.5183  0.3368  1.4878
 5172TIP3    H215481   1.837   2.915   5.204  2.9490 -0.2997  1.6978
 5173TIP3   OH215482   3.708   3.639   0.964  0.1530  0.0865 -0.1314
 5173TIP3    H115483   3.772   3.624   0.894  0.2549 -0.3767  0.0587
 5173TIP3    H215484   3.654   3.560   0.963 -1.3412  1.0557 -1.2522
 5174TIP3   OH215485   0.967   3.717   5.103 -0.1939 -0.0727 -0.6147
 5174TIP3    H115486   0.894   3.697   5.161  1.4574 -2.0471  0.9487
 5174TIP3    H215487   0.951   3.807   5.074 -1.1190  1.0839  2.9581
 5175TIP3   OH215488   2.584   2.777   3.648 -0.2217 -0.5318  0.6533
 5175TIP3    H115489   2.495   2.808   3.666  0.5746  2.1438  0.3389
 5175TIP3    H215490   2.623   2.763   3.734 -0.9874 -2.0641  0.7992
 5176TIP3   OH215491   6.038   3.637   4.256 -0.3567 -0.3713  0.5255
 5176TIP3    H115492   5.944   3.648   4.274 -0.8971 -1.7915 -1.1136
 5176TIP3    H215493   6.079   3.633   4.342 -1.9138 -0.5665  1.2917
 5177TIP3   OH215494   5.031   4.654   1.203  0.1656  0.1352 -0.2081
 5177TIP3    H115495   5.005   4.623   1.290 -1.6144  2.2700  0.1160
 5177TIP3    H215496   4.996   4.588   1.143 -0.9427 -0.0465  0.5911
 5178TIP3   OH215497   1.741   4.531   2.709  0.0150 -0.2041  0.0925
 5178TIP3    H115498   1.737   4.576   2.625  0.8150  0.2251  0.2736
 5178TIP3    H215499   1.834   4.527   2.730 -0.1827 -0.1792  1.0328
 5179TIP3   OH215500   4.926   0.056   1.723 -0.3652 -0.1270 -0.5664
 5179TIP3    H115501   4.943   0.026   1.812  0.8672 -0.8669 -1.0229
 5179TIP3    H215502   4.990   0.009   1.669 -0.2858  1.2021 -1.6945
 5180TIP3   OH215503   6.269   2.261   0.902 -0.2885  0.4204 -0.4116
 5180TIP3    H115504   6.316   2.275   0.820 -0.8060  0.4695 -0.7086
 5180TIP3    H215505   6.241   2.348   0.928 -0.3252  0.3766 -0.3056
 5181TIP3   OH215506   3.792  -0.002   0.619 -0.1311  0.8077 -0.4351
 5181TIP3    H115507   3.718  -0.043   0.574 -0.7393  0.9387  0.4205
 5181TIP3    H215508   3.817   0.071   0.562  0.3357 -0.1422 -1.4873
 5182TIP3   OH215509   3.126   2.685   5.179 -0.0422 -0.2436  0.0578
 5182TIP3    H115510   3.033   2.661   5.183  0.3321 -1.7014  0.3719
 5182TIP3    H215511   3.168   2.612   5.134  1.0098  0.2802  0.1573
 5183TIP3   OH215512   4.292   6.377   1.352 -0.8524  0.6109  0.4048
 5183TIP3    H115513   4.213   6.377   1.406 -1.3471 -0.0420 -0.2908
 5183TIP3    H215514   4.259   6.369   1.262 -0.0062  0.6232  0.0860
 5184TIP3   OH215515   1.633   0.078   0.369  0.0566  0.3230 -0.0159
 5184TIP3    H115516   1.625   0.055   0.277 -1.7894 -0.0733  0.2229
 5184TIP3    H215517   1.708   0.138   0.372  1.0505 -0.7907 -1.5326
 5185TIP3   OH215518   4.443   1.563   0.232 -0.0082  0.6888 -0.0248
 5185TIP3    H115519   4.352   1.591   0.228 -0.1164  0.2840 -0.5377
 5185TIP3    H215520   4.444   1.492   0.296 -0.6097 -1.2287 -1.9819
 5186TIP3   OH215521   3.383   6.222   5.329  0.4780 -0.0817  0.1537
 5186TIP3    H115522   3.288   6.209   5.332  0.5349 -0.5119  0.1120
 5186TIP3    H215523   3.418   6.138   5.298  0.9401 -0.2495  1.0982
 5187TIP3   OH215524   0.972   5.897   0.119  0.3920 -0.4554 -0.7376
 5187TIP3    H115525   0.902   5.918   0.181 -0.3591 -1.1666 -1.3165
 5187TIP3    H215526   0.960   5.960   0.047 -2.2886 -3.0061 -2.8031
 5188TIP3   OH215527   5.532   5.329   4.753 -0.3309 -0.1683  0.2025
 5188TIP3    H115528   5.491   5.346   4.668 -0.8505  3.3006  0.9726
 5188TIP3    H215529   5.622   5.361   4.742 -0.8762  1.9721  1.3114
 5189TIP3   OH215530   4.130   6.174   1.914 -0.7906 -0.6351  0.4217
 5189TIP3    H115531   4.136   6.128   1.830  1.6489  0.3836 -0.0620
 5189TIP3    H215532   4.037   6.188   1.927 -1.3903 -2.8302 -0.9754
 5190TIP3   OH215533   1.938   2.721   0.043 -0.2769 -0.4281 -0.1520
 5190TIP3    H115534   1.976   2.796   0.090  0.6347 -1.2279  0.4160
 5190TIP3    H215535   1.861   2.757  -0.001 -0.7438  0.5109  1.3573
 5191TIP3   OH215536   1.890   6.591   4.142 -0.2477  0.2805  0.3597
 5191TIP3    H115537   1.860   6.504   4.167 -0.6304  0.1034 -0.6851
 5191TIP3    H215538   1.982   6.579   4.117 -0.7656 -0.1718 -1.4395
 5192TIP3   OH215539   6.166   5.645   0.434  0.2265  0.2937  0.0478
 5192TIP3    H115540   6.086   5.637   0.486  1.1707  0.5993  1.6320
 5192TIP3    H215541   6.156   5.727   0.386 -0.0260  0.8221  0.9723
 5193TIP3   OH215542   6.666   3.583   2.544 -0.1126  0.1690  0.5672
 5193TIP3    H115543   6.622   3.498   2.554 -0.6110  0.4272  0.5857
 5193TIP3    H215544   6.595   3.647   2.550  0.1377  0.5472 -0.3578
 5194TIP3   OH215545   4.095   3.519   0.394  0.0938 -0.4904  0.2986
 5194TIP3    H115546   4.006   3.519   0.360  0.0466 -2.4400  0.3608
 5194TIP3    H215547   4.085   3.518   0.489  0.1342 -2.1641  0.3087
 5195TIP3   OH215548   2.172   3.868   2.218 -0.2620  0.2070  0.1723
 5195TIP3    H115549   2.150   3.802   2.152 -0.2413 -0.6556  1.0149
 5195TIP3    H215550   2.243   3.919   2.178  0.8758 -1.3320  0.1439
 5196TIP3   OH215551   5.006   5.760   0.617 -0.4244 -0.1701  0.0084
 5196TIP3    H115552   4.927   5.765   0.670  0.2758 -0.7942  1.1659
 5196TIP3    H215553   5.061   5.696   0.662  0.0947 -0.9474 -1.6476
 5197TIP3   OH215554   6.383   2.508   3.734  0.5469  0.1850  0.2657
 5197TIP3    H115555   6.414   2.498   3.644  0.3301  1.1941  0.0609
 5197TIP3    H215556   6.428   2.586   3.766 -0.2615  0.5129  0.6311
 5198TIP3   OH215557   4.548   0.235   1.768  0.3490  0.4143  0.2787
 5198TIP3    H115558   4.470   0.290   1.778  0.2099  0.0022  1.7512
 5198TIP3    H215559   4.615   0.278   1.821 -0.0027 -1.2070  2.1734
 5199TIP3   OH215560   4.696   1.854   3.285  0.2068  0.0921  0.0475
 5199TIP3    H115561   4.735   1.831   3.200  0.4741  0.0707  0.1761
 5199TIP3    H215562   4.602   1.845   3.271  0.2598 -0.1232 -0.1875
 5200TIP3   OH215563   3.361   5.958   4.934 -0.1321 -0.5387 -0.0010
 5200TIP3    H115564   3.393   5.956   5.024 -0.0278  0.1699 -0.0128
 5200TIP3    H215565   3.269   5.983   4.942  0.1826  0.7740 -0.1386
 5201TIP3   OH215566   6.681   6.362   3.633  0.0284 -0.2332  0.8447
 5201TIP3    H115567   6.663   6.316   3.551 -1.2261  0.8776  0.4597
 5201TIP3    H215568   6.619   6.435   3.634  0.6530  0.3251  2.3463
 5202TIP3   OH215569   5.538   4.503   1.486 -0.2216  0.4173 -0.0464
 5202TIP3    H115570   5.506   4.419   1.519  0.3785 -0.0522 -0.6271
 5202TIP3    H215571   5.492   4.515   1.403 -1.3414  1.3411  0.6947
 5203TIP3   OH215572   2.487   3.745   5.371 -0.0423  0.0222 -0.7264
 5203TIP3    H115573   2.474   3.777   5.282  0.7073 -0.4051 -1.0017
 5203TIP3    H215574   2.576   3.773   5.394 -0.5606  0.9315  0.2423
 5204TIP3   OH215575   6.055   4.155   1.221  0.1277 -0.1298  0.8094
 5204TIP3    H115576   6.140   4.135   1.182 -0.4510 -3.2057  0.8674
 5204TIP3    H215577   6.069   4.147   1.315 -0.0647  0.0101  0.8509
 5205TIP3   OH215578   4.730   3.288   4.955  0.2858  0.3394 -0.2006
 5205TIP3    H115579   4.751   3.377   4.925  1.3933 -0.2586 -1.2720
 5205TIP3    H215580   4.635   3.281   4.943 -0.3044  2.2620  2.4175
 5206TIP3   OH215581   6.250   0.691   4.550 -0.1083  0.0971  0.1502
 5206TIP3    H115582   6.325   0.667   4.606 -0.1349  0.9677  0.5711
 5206TIP3    H215583   6.236   0.614   4.496  1.9027  0.3629 -0.8405
 5207TIP3   OH215584   2.380   5.477   2.380  0.3827 -0.5770 -0.0673
 5207TIP3    H115585   2.474   5.462   2.363 -0.0072 -2.2369 -0.9955
 5207TIP3    H215586   2.346   5.390   2.401 -1.0506 -0.0730 -0.2334
 5208TIP3   OH215587   4.748   5.238   0.379  0.3545  0.3547 -0.1323
 5208TIP3    H115588   4.654   5.256   0.374  0.3439  0.2810 -0.2017
 5208TIP3    H215589   4.784   5.312   0.428  0.2011  0.1767  0.2522
 5209TIP3   OH215590   4.491   0.039   5.737  0.0182  0.0915  0.0830
 5209TIP3    H115591   4.542   0.099   5.684 -0.7222 -0.2969 -1.1154
 5209TIP3    H215592   4.401   0.072   5.731 -0.6353 -1.7623 -1.6509
 5210TIP3   OH215593   2.076   2.329   1.224 -0.0117 -0.1381 -0.3391
 5210TIP3    H115594   2.031   2.245   1.214 -0.8263  0.4008 -1.3572
 5210TIP3    H215595   2.155   2.321   1.171 -0.8224  0.2370 -1.6411
 5211TIP3   OH215596   3.561   1.696   1.936  0.1941 -0.1003 -0.4733
 5211TIP3    H115597   3.552   1.758   1.863 -0.1108  0.0919 -0.2728
 5211TIP3    H215598   3.656   1.688   1.948  0.2341  0.7092 -0.1800
 5212TIP3   OH215599   4.569   0.941   5.570  0.1159 -0.4729 -0.1774
 5212TIP3    H115600   4.535   0.990   5.645  1.6501  1.1257 -0.4319
 5212TIP3    H215601   4.615   0.867   5.609  0.7549  0.2504  0.4971
 5213TIP3   OH215602   0.968   1.603   5.165  0.1233 -0.1538 -0.0378
 5213TIP3    H115603   0.985   1.598   5.071 -1.2934 -0.9624 -0.2683
 5213TIP3    H215604   1.049   1.573   5.205  0.6084 -0.1870 -1.0094
 5214TIP3   OH215605   1.010   3.034   4.755  0.0072 -0.3307  0.1011
 5214TIP3    H115606   1.053   3.017   4.839 -1.0324  0.6112  0.8414
 5214TIP3    H215607   0.948   3.104   4.773 -0.2133 -0.0877 -1.4721
 5215TIP3   OH215608   1.601   4.605   3.314 -0.1412  0.1624  0.4276
 5215TIP3    H115609   1.565   4.549   3.383 -0.5176  1.7251  1.5823
 5215TIP3    H215610   1.590   4.555   3.234  0.3970 -1.7732  1.4943
 5216TIP3   OH215611   6.550   3.318   5.266  0.2149 -0.4248 -0.2065
 5216TIP3    H115612   6.610   3.353   5.200  0.2814  0.3566  0.2522
 5216TIP3    H215613   6.510   3.396   5.305  1.2516 -0.7617  1.6635
 5217TIP3   OH215614   5.787   2.864   2.761  0.1965 -0.1307 -0.6214
 5217TIP3    H115615   5.756   2.898   2.845  0.7581  1.5879 -1.0639
 5217TIP3    H215616   5.822   2.777   2.782 -1.6187 -0.6400  0.5016
 5218TIP3   OH215617   7.002   2.390   2.095 -0.3814  0.2819 -0.0888
 5218TIP3    H115618   7.071   2.362   2.035 -1.0955  1.6936 -1.6332
 5218TIP3    H215619   6.991   2.484   2.078 -1.7863  0.3693  1.0482
 5219TIP3   OH215620   5.988   5.251   1.840 -0.2332 -0.1908 -0.2048
 5219TIP3    H115621   5.949   5.337   1.854  1.7156  0.7872 -0.4316
 5219TIP3    H215622   6.002   5.247   1.745 -0.2323 -0.7322 -0.1832
 5220TIP3   OH215623   5.813   3.802   4.062 -0.5109 -0.1627  0.3848
 5220TIP3    H115624   5.902   3.805   4.026 -0.7338 -0.0646 -0.1605
 5220TIP3    H215625   5.786   3.894   4.067 -1.1142 -0.2577 -0.7945
 5221TIP3   OH215626   1.735   6.624   1.038  0.5737  0.6500  0.5053
 5221TIP3    H115627   1.657   6.578   1.070 -0.2235  0.8106 -1.1170
 5221TIP3    H215628   1.720   6.715   1.062  1.2578  0.4113  2.0034
 5222TIP3   OH215629   3.455   4.460   1.819 -0.0019 -0.1032 -0.2991
 5222TIP3    H115630   3.404   4.533   1.784 -1.0733 -0.5097  0.3595
 5222TIP3    H215631   3.458   4.397   1.747 -1.4663 -0.5754  0.0068
 5223TIP3   OH215632   5.961   6.186   3.595  0.6238  0.0981 -0.4362
 5223TIP3    H115633   6.044   6.217   3.559  1.9838 -2.3112  0.3638
 5223TIP3    H215634   5.969   6.091   3.595 -1.4436 -0.1597  1.3076
 5224TIP3   OH215635   1.265   6.312   3.883  0.8298  0.3665  0.0951
 5224TIP3    H115636   1.335   6.251   3.906  0.4362 -1.4849 -2.9721
 5224TIP3    H215637   1.296   6.354   3.802 -1.7603 -1.0554 -1.8009
 5225TIP3   OH215638   3.742   5.820   2.063 -0.1543 -0.2854  0.4218
 5225TIP3    H115639   3.684   5.892   2.041  0.1527  0.6627  2.4840
 5225TIP3    H215640   3.826   5.862   2.083  0.1398 -1.2399  1.2760
 5226TIP3   OH215641   3.403  -0.026   1.397  0.3303  0.2316 -0.1565
 5226TIP3    H115642   3.485   0.022   1.390  0.7011 -0.4442 -0.5913
 5226TIP3    H215643   3.349   0.011   1.326  0.1707  0.8217  0.2623
 5227TIP3   OH215644   5.895   4.117   4.150  0.1033  0.6549  0.1066
 5227TIP3    H115645   5.868   4.208   4.162 -0.1733  1.1279 -3.3684
 5227TIP3    H215646   5.958   4.120   4.078  1.3144 -1.7582  0.9622
 5228TIP3   OH215647   6.974   5.385   5.421 -0.2422  0.0987 -0.4167
 5228TIP3    H115648   6.914   5.358   5.352 -0.4031 -1.8302  0.4290
 5228TIP3    H215649   6.965   5.481   5.424 -0.9822  0.1324 -2.3331
 5229TIP3   OH215650   6.393   0.649   0.996 -0.2499 -0.4124  0.1671
 5229TIP3    H115651   6.443   0.598   1.059  1.6465  0.0856 -0.8759
 5229TIP3    H215652   6.440   0.732   0.989 -2.0247  0.6609  0.1653
 5230TIP3   OH215653   6.296   2.572   4.075  0.1744  0.5911 -0.5372
 5230TIP3    H115654   6.257   2.563   3.988 -0.5784  0.0267 -0.1570
 5230TIP3    H215655   6.274   2.660   4.103 -0.0435  0.5901 -0.7043
 5231TIP3   OH215656   1.004   4.221   4.900  0.8574  0.3163 -0.3098
 5231TIP3    H115657   0.945   4.238   4.973 -0.6716  0.2255 -1.4786
 5231TIP3    H215658   1.085   4.266   4.925  1.0657 -1.2604  2.2576
 5232TIP3   OH215659   3.718   0.006   1.109 -0.0420  0.3872  0.0794
 5232TIP3    H115660   3.631  -0.010   1.074  0.4876 -0.4432 -0.9074
 5232TIP3    H215661   3.719   0.100   1.129 -1.0427  0.4621 -0.1874
 5233TIP3   OH215662   1.129   1.233   0.771 -0.0570 -0.1719  0.4284
 5233TIP3    H115663   1.052   1.281   0.743 -0.6092 -1.2179  0.0931
 5233TIP3    H215664   1.192   1.300   0.794 -0.7794  0.7056 -0.0832
 5234TIP3   OH215665   1.180   3.711   1.282 -0.3240  0.2234  0.3845
 5234TIP3    H115666   1.259   3.763   1.298  0.4984 -0.8732  0.0249
 5234TIP3    H215667   1.202   3.657   1.206 -1.7601  0.5414 -0.2859
 5235TIP3   OH215668   1.592   2.710   5.260 -0.5118  0.0305 -0.3395
 5235TIP3    H115669   1.601   2.617   5.280  1.5473  0.4212  0.8332
 5235TIP3    H215670   1.569   2.712   5.167 -1.0707 -1.6567 -0.2661
 5236TIP3   OH215671   6.477   3.982   2.940  0.0967  0.2964 -0.1110
 5236TIP3    H115672   6.456   3.923   3.013  2.7664 -0.0766  0.4717
 5236TIP3    H215673   6.421   4.058   2.953 -0.6423 -0.4654  1.3801
 5237TIP3   OH215674   6.999   0.066   4.578  0.6083 -0.3016  0.2985
 5237TIP3    H115675   7.035   0.098   4.495  0.3867 -0.3559  0.1793
 5237TIP3    H215676   6.916   0.112   4.588 -0.1234 -1.4308 -0.3005
 5238TIP3   OH215677   3.883   6.024   4.883  0.1520  0.0391 -0.0446
 5238TIP3    H115678   3.884   6.059   4.972 -1.3040 -0.7163  0.2907
 5238TIP3    H215679   3.917   6.096   4.829 -0.1307  0.9605  0.9603
 5239TIP3   OH215680   4.460   3.930   4.652  0.2913 -0.6246  0.0316
 5239TIP3    H115681   4.484   3.982   4.576  0.0654 -0.5760 -0.0079
 5239TIP3    H215682   4.479   3.987   4.727  1.4941 -1.0537  0.0716
 5240TIP3   OH215683   1.756   2.077   4.906  0.4284 -0.1950 -0.0517
 5240TIP3    H115684   1.763   1.987   4.874 -0.2884  0.0272 -0.8866
 5240TIP3    H215685   1.716   2.125   4.834  1.1047  0.8766  0.2486
 5241TIP3   OH215686   6.023   0.618   1.074 -0.6146  0.8709  0.3043
 5241TIP3    H115687   5.994   0.636   0.985  0.1815 -0.6922 -0.3139
 5241TIP3    H215688   6.006   0.525   1.086  0.7428  0.7178  1.2192
 5242TIP3   OH215689   5.281   3.598   3.454 -0.5681 -1.1775  0.1268
 5242TIP3    H115690   5.310   3.539   3.523 -1.0205 -0.1007  1.2767
 5242TIP3    H215691   5.313   3.684   3.480 -1.9337 -0.5151 -0.2548
 5243TIP3   OH215692   5.607   3.392   2.105  0.4402  0.0460 -0.0888
 5243TIP3    H115693   5.682   3.451   2.112  1.7983 -1.6367  0.1262
 5243TIP3    H215694   5.597   3.356   2.193  0.6636 -1.2075 -0.5456
 5244TIP3   OH215695   4.650   1.229   4.412 -0.2722  0.1935  0.2122
 5244TIP3    H115696   4.738   1.264   4.395  0.5433 -0.3757  2.7742
 5244TIP3    H215697   4.665   1.157   4.473 -2.5037 -0.0538  0.5413
 5245TIP3   OH215698   3.162   6.370   3.802 -0.3163 -0.1566  0.3821
 5245TIP3    H115699   3.229   6.307   3.779 -0.0354  0.7823 -1.5432
 5245TIP3    H215700   3.161   6.371   3.898  2.6313  0.0316  0.4768
 5246TIP3   OH215701   5.931   4.996   0.055 -0.4568 -0.1518  0.1366
 5246TIP3    H115702   5.963   4.959   0.136  2.1389  3.6415  1.1434
 5246TIP3    H215703   6.000   4.978  -0.009 -1.4353 -1.1460 -0.6835
 5247TIP3   OH215704   6.237   0.057   3.722 -0.7846 -0.2882 -0.1841
 5247TIP3    H115705   6.261   0.120   3.654  1.0983 -1.7843 -1.0182
 5247TIP3    H215706   6.187  -0.010   3.675 -1.3497 -0.2485  0.3529
 5248TIP3   OH215707   4.717   2.957   3.533 -0.4059  0.2458 -0.2450
 5248TIP3    H115708   4.779   2.921   3.470 -0.7044  0.2202 -0.5321
 5248TIP3    H215709   4.652   2.888   3.546  1.1974 -0.9080  2.3592
 5249TIP3   OH215710   1.775   6.496   3.195 -0.2810 -0.0805  0.0925
 5249TIP3    H115711   1.774   6.585   3.160  0.0154 -0.0472  0.1653
 5249TIP3    H215712   1.771   6.507   3.290  1.7284 -0.0590  0.2190
 5250TIP3   OH215713   2.810   3.184   2.490  0.0556  0.5127  0.1543
 5250TIP3    H115714   2.902   3.210   2.494  0.8707 -2.2075  1.8529
 5250TIP3    H215715   2.766   3.241   2.553  1.1460 -0.0258  1.4487
 5251TIP3   OH215716   1.896   3.442   5.541  0.4485  0.8029 -0.1648
 5251TIP3    H115717   1.925   3.512   5.483 -3.2498  2.0391 -0.8325
 5251TIP3    H215718   1.852   3.487   5.613  0.9305 -0.8016  1.1926
 5252TIP3   OH215719   5.403   5.763   2.511  0.2918  1.0683 -0.5236
 5252TIP3    H115720   5.485   5.800   2.544 -0.7539  2.0673  1.0592
 5252TIP3    H215721   5.380   5.696   2.575  0.8195 -0.6098 -1.9995
 5253TIP3   OH215722   6.429   0.891   3.814 -0.2158 -0.2582 -0.4474
 5253TIP3    H115723   6.340   0.894   3.849 -0.3391 -1.8355 -0.5797
 5253TIP3    H215724   6.422   0.931   3.727 -1.3320 -2.6040 -1.5006
 5254TIP3   OH215725   3.003   0.059   2.532  0.1165 -0.0541 -0.7601
 5254TIP3    H115726   3.027   0.076   2.440 -1.9339  0.2912 -1.2775
 5254TIP3    H215727   2.931  -0.004   2.526 -1.7087  1.8167  0.4721
 5255TIP3   OH215728   5.262   5.378   4.184  0.0945  0.3785  0.0493
 5255TIP3    H115729   5.249   5.320   4.259  0.4163 -1.6901 -1.3825
 5255TIP3    H215730   5.274   5.318   4.110 -0.6026  2.3114 -1.7285
 5256TIP3   OH215731   0.851   6.073   4.063  0.2496 -0.1362 -0.0633
 5256TIP3    H115732   0.879   6.016   4.134  1.4512 -0.3829 -0.7125
 5256TIP3    H215733   0.763   6.101   4.088  0.2999 -0.9338  1.0723
 5257TIP3   OH215734   1.649   0.792   0.844  0.6602  0.0699 -0.8685
 5257TIP3    H115735   1.637   0.885   0.822 -1.1427  0.1676  0.2987
 5257TIP3    H215736   1.705   0.793   0.921 -2.3685  0.5761  1.5598
 5258TIP3   OH215737   6.980   1.970   0.434  0.1424  0.1778  0.4220
 5258TIP3    H115738   6.958   2.049   0.384  1.0354 -0.7303 -1.5064
 5258TIP3    H215739   7.059   1.994   0.483 -0.5323  0.9644  1.1642
 5259TIP3   OH215740   3.105   3.186   0.435  0.0781  0.2431 -0.1962
 5259TIP3    H115741   3.060   3.104   0.414  0.5959  0.2944 -1.5541
 5259TIP3    H215742   3.133   3.174   0.526  1.3919 -1.6941 -0.7768
 5260TIP3   OH215743   3.644   0.105   3.462  0.2743  0.0315  0.2343
 5260TIP3    H115744   3.586   0.044   3.415 -0.1067  1.7132 -1.5817
 5260TIP3    H215745   3.592   0.134   3.537 -0.1871 -0.5801  0.1606
 5261TIP3   OH215746   1.464   4.068   5.694 -0.1885  0.0586  0.1790
 5261TIP3    H115747   1.472   4.080   5.789 -2.3572  2.7741  0.1486
 5261TIP3    H215748   1.481   4.155   5.658  0.0690 -0.8176 -1.9238
 5262TIP3   OH215749   4.456   1.073   5.033  0.0182  0.3862  0.0402
 5262TIP3    H115750   4.442   1.165   5.011  0.5945 -0.2072 -3.4130
 5262TIP3    H215751   4.542   1.072   5.074 -0.8879  1.5585  2.1325
 5263TIP3   OH215752   2.937   5.221   2.582 -0.0683 -0.0763 -0.4092
 5263TIP3    H115753   2.923   5.155   2.649  0.5173  1.0268  0.8513
 5263TIP3    H215754   3.023   5.202   2.546 -0.0459 -0.1974 -0.2894
 5264TIP3   OH215755   4.627   2.182   4.721 -0.5404  0.3479  0.2596
 5264TIP3    H115756   4.554   2.243   4.710  0.2889  1.0008 -2.7009
 5264TIP3    H215757   4.677   2.218   4.794 -0.4066  3.0048 -0.9847
 5265TIP3   OH215758   3.502   4.805   3.137 -0.4972  0.0895 -0.6188
 5265TIP3    H115759   3.576   4.778   3.192 -0.6565 -0.9675 -0.9034
 5265TIP3    H215760   3.524   4.772   3.049 -0.7259  0.8600 -0.9739
 5266TIP3   OH215761   2.894   4.650   0.747 -0.0742  0.3636 -0.1914
 5266TIP3    H115762   2.938   4.675   0.828 -0.5494  3.1004 -0.6878
 5266TIP3    H215763   2.925   4.714   0.683 -1.0590 -0.6675 -1.7540
 5267TIP3   OH215764   2.031   2.917   0.208 -0.0459 -0.1369 -0.4209
 5267TIP3    H115765   2.018   3.010   0.189 -1.4662  0.0564  1.2352
 5267TIP3    H215766   2.126   2.905   0.202 -0.0137  0.8964 -2.7293
 5268TIP3   OH215767   1.228   0.831   4.021  0.2620  0.0406  0.7830
 5268TIP3    H115768   1.227   0.876   3.936  1.2644 -1.4833 -0.0824
 5268TIP3    H215769   1.271   0.893   4.080  1.7867  0.2034 -0.4171
 5269TIP3   OH215770   2.715   6.190   1.808  0.2256  0.5500  0.0818
 5269TIP3    H115771   2.664   6.270   1.816  0.5138  0.7047  0.4232
 5269TIP3    H215772   2.806   6.220   1.811  0.3436  0.3598 -1.3707
 5270TIP3   OH215773   0.947   2.802  -0.011 -0.0679  0.3760  0.2841
 5270TIP3    H115774   0.979   2.870   0.048  1.9950 -0.9280  0.7948
 5270TIP3    H215775   0.985   2.721   0.024 -0.5462 -0.7327 -1.6137
 5271TIP3   OH215776   0.530   5.970   4.514 -0.9313 -0.4691  0.1338
 5271TIP3    H115777   0.595   5.940   4.578  0.7068 -1.2425 -1.7873
 5271TIP3    H215778   0.548   6.063   4.503  0.8631 -0.9381 -1.3886
 5272TIP3   OH215779   1.646   2.844   4.791  0.0421  0.0720 -0.1110
 5272TIP3    H115780   1.732   2.851   4.832 -0.6935  0.2885  1.4810
 5272TIP3    H215781   1.637   2.752   4.768  1.4999  0.3913 -2.2190
 5273TIP3   OH215782   0.822   6.416   2.369 -0.0875  0.2920 -0.2462
 5273TIP3    H115783   0.770   6.445   2.444 -0.4804 -0.6971 -0.1149
 5273TIP3    H215784   0.905   6.387   2.406  0.8956  2.5462 -0.5307
 5274TIP3   OH215785   0.539   3.332   0.074  0.2769 -0.2267  0.4267
 5274TIP3    H115786   0.488   3.311   0.152  0.0630  0.0339  0.3607
 5274TIP3    H215787   0.607   3.266   0.071  0.0944 -0.4271  0.6595
 5275TIP3   OH215788   1.415   2.517   0.834  0.4117  0.0934  0.0297
 5275TIP3    H115789   1.479   2.560   0.777 -1.2508  0.8631 -1.3358
 5275TIP3    H215790   1.460   2.439   0.865  2.5409  1.3547  0.3517
 5276TIP3   OH215791   6.677   3.864   4.270  0.1127 -0.4530 -0.0087
 5276TIP3    H115792   6.697   3.944   4.222  0.7906  0.4882  1.7187
 5276TIP3    H215793   6.754   3.808   4.258  0.8197  0.2863  0.9352
 5277TIP3   OH215794   3.317   3.897   4.883 -0.2188 -0.6843 -0.1198
 5277TIP3    H115795   3.274   3.870   4.964  1.1759 -0.9954  0.5459
 5277TIP3    H215796   3.294   3.829   4.820 -1.3740 -0.3985 -0.0204
 5278TIP3   OH215797   6.813   6.817   3.265  0.2057 -0.2683  0.3131
 5278TIP3    H115798   6.719   6.801   3.269  0.2952 -0.6485  0.9548
 5278TIP3    H215799   6.852   6.741   3.307  0.7374  0.6833  1.5878
 5279TIP3   OH215800   3.671   4.479   4.609  0.3718 -0.1075 -0.1174
 5279TIP3    H115801   3.640   4.391   4.631  0.6314  0.0054  0.7276
 5279TIP3    H215802   3.748   4.464   4.554 -1.0029 -0.3943 -2.0570
 5280TIP3   OH215803   6.833   3.814   4.557  0.5652 -0.1597  0.3517
 5280TIP3    H115804   6.750   3.770   4.577  0.0302  1.1262  1.0397
 5280TIP3    H215805   6.830   3.827   4.462 -0.2350  0.2887  0.4334
 5281TIP3   OH215806   4.028   4.836   5.734  0.2470 -0.2355 -0.2607
 5281TIP3    H115807   4.058   4.746   5.719  0.4860 -0.5117  1.6505
 5281TIP3    H215808   3.935   4.828   5.752  0.0775  0.0163 -1.0015
 5282TIP3   OH215809   4.132   4.544   1.403 -0.2643  0.1426  0.1854
 5282TIP3    H115810   4.227   4.560   1.404 -0.0698 -0.9086 -0.3219
 5282TIP3    H215811   4.104   4.573   1.316  0.0150 -1.7498 -0.5705
 5283TIP3   OH215812   7.187   6.422   3.472  0.3226 -0.2799 -0.3772
 5283TIP3    H115813   7.133   6.444   3.548  0.5888  0.3917 -0.3830
 5283TIP3    H215814   7.274   6.454   3.494  0.9866 -2.2234  0.0486
 5284TIP3   OH215815   2.204   0.737   2.171  0.0464  0.6090  0.3798
 5284TIP3    H115816   2.223   0.752   2.078  2.2920 -1.1667  0.4563
 5284TIP3    H215817   2.287   0.753   2.216  0.0601 -2.1611  1.5546
 5285TIP3   OH215818   4.631   5.696   0.208  0.3719 -0.5936 -0.1276
 5285TIP3    H115819   4.630   5.773   0.150  1.5462  0.3227  1.0012
 5285TIP3    H215820   4.689   5.721   0.280 -1.6969 -1.3505  1.9267
 5286TIP3   OH215821   1.251   2.959   2.586 -0.3649 -0.2415 -0.1224
 5286TIP3    H115822   1.200   3.022   2.636  0.2249 -0.4492  0.7754
 5286TIP3    H215823   1.229   2.977   2.495 -0.5452  0.9566  0.1385
 5287TIP3   OH215824   2.824   6.024   4.064  0.2567  0.3126 -0.3662
 5287TIP3    H115825   2.854   6.034   4.155 -1.9497  0.0299  0.4618
 5287TIP3    H215826   2.762   6.096   4.051  1.3806  1.0381 -2.0795
 5288TIP3   OH215827   5.994   1.941   0.374  0.3278  0.2192  0.4384
 5288TIP3    H115828   5.902   1.915   0.375  0.5979 -0.8032  0.4865
 5288TIP3    H215829   6.009   1.974   0.286 -0.0987  0.4348  0.4442
 5289TIP3   OH215830   1.861   1.338   5.856 -0.9213 -0.0831 -0.0514
 5289TIP3    H115831   1.806   1.262   5.838  1.2255 -1.5333 -1.0773
 5289TIP3    H215832   1.950   1.303   5.855  0.2356  2.5780 -1.3917
 5290TIP3   OH215833   3.681  -0.012   0.210 -0.0655  0.3365 -0.3816
 5290TIP3    H115834   3.722   0.058   0.161 -0.5981 -0.9271 -2.7718
 5290TIP3    H215835   3.594   0.022   0.233  0.3256  1.0700  0.0548
 5291TIP3   OH215836   0.234   2.431   0.830  0.5412 -0.2859  0.6035
 5291TIP3    H115837   0.290   2.376   0.775 -1.0534 -1.0196 -0.3617
 5291TIP3    H215838   0.173   2.471   0.768 -0.8480 -0.5596  1.7534
 5292TIP3   OH215839   5.742   4.330   0.580  0.2694 -0.0693  0.2601
 5292TIP3    H115840   5.776   4.248   0.543 -0.0724  0.4019 -1.1778
 5292TIP3    H215841   5.684   4.302   0.650 -1.7799 -1.2583 -1.7568
 5293TIP3   OH215842   6.594   4.349   1.355 -0.0587  0.4882 -0.0270
 5293TIP3    H115843   6.521   4.379   1.302  0.2068 -1.2188 -1.4381
 5293TIP3    H215844   6.668   4.344   1.294  1.3041  2.2749  1.3840
 5294TIP3   OH215845   6.076   1.879   0.630  0.1073  0.5439  0.1129
 5294TIP3    H115846   6.144   1.855   0.566 -0.0108  0.9304 -0.1606
 5294TIP3    H215847   6.023   1.945   0.585 -0.0393  0.7454  0.5783
 5295TIP3   OH215848   0.824   5.522   0.609 -0.4457  0.4404  0.2259
 5295TIP3    H115849   0.807   5.478   0.693  0.4119  1.1546  0.7974
 5295TIP3    H215850   0.787   5.610   0.620 -0.9716  0.3059 -0.4177
 5296TIP3   OH215851   1.618   3.320   4.137  0.1885 -0.0765 -0.0503
 5296TIP3    H115852   1.559   3.356   4.204 -0.1958  0.1567 -0.5055
 5296TIP3    H215853   1.613   3.383   4.065  1.5667  0.3255  0.1861
 5297TIP3   OH215854   6.067   5.543   3.581  0.2049 -0.6058  0.2390
 5297TIP3    H115855   6.110   5.570   3.499  0.2555  0.5914  0.6427
 5297TIP3    H215856   6.139   5.534   3.643  0.0404 -0.0965  0.5145
 5298TIP3   OH215857   1.330   4.126   4.883  0.0303 -0.2870  0.1837
 5298TIP3    H115858   1.395   4.140   4.952  1.4942 -0.0353 -1.1930
 5298TIP3    H215859   1.296   4.038   4.900  1.9508 -1.1181  0.0046
 5299TIP3   OH215860   5.734   2.639   4.517  0.7303  0.0270  0.0963
 5299TIP3    H115861   5.724   2.670   4.607 -0.8013 -0.5242  0.1499
 5299TIP3    H215862   5.751   2.545   4.526  1.9192  0.2093 -0.1615
 5300TIP3   OH215863   4.802   2.424   1.856  0.3261 -0.2163 -0.5174
 5300TIP3    H115864   4.894   2.418   1.832  0.8558  0.8059  1.0773
 5300TIP3    H215865   4.787   2.517   1.872 -0.7675 -0.4668  0.0340
 5301TIP3   OH215866   0.371   0.530   3.662  0.0018  0.6285 -0.5642
 5301TIP3    H115867   0.314   0.554   3.589  1.5962 -1.3042 -2.6078
 5301TIP3    H215868   0.348   0.440   3.682  1.7731  0.0621 -0.9350
 5302TIP3   OH215869   1.473   4.952   0.104 -0.1646  0.3713  0.1093
 5302TIP3    H115870   1.512   4.887   0.163 -0.0884 -1.4624 -1.8490
 5302TIP3    H215871   1.471   5.033   0.156 -0.7179 -1.2618  2.8450
 5303TIP3   OH215872   4.987   2.917   2.176 -0.1547  0.4812  0.1090
 5303TIP3    H115873   4.978   2.832   2.218 -1.8800  0.2144 -0.7088
 5303TIP3    H215874   5.078   2.918   2.145 -0.2240 -1.2796 -0.2903
 5304TIP3   OH215875   1.912   0.040   1.665  0.4136 -0.1952  0.0859
 5304TIP3    H115876   1.914  -0.014   1.744 -2.0930 -0.5808 -0.0144
 5304TIP3    H215877   1.941  -0.018   1.595 -0.4995 -0.8997  0.2655
 5305TIP3   OH215878   3.747   1.378   1.227  0.1893  0.2846 -0.7149
 5305TIP3    H115879   3.823   1.345   1.274 -1.0934  0.4340  1.6336
 5305TIP3    H215880   3.717   1.304   1.174  1.3709 -0.0698 -0.9167
 5306TIP3   OH215881   2.786   5.326   4.405 -0.2694  0.2481  0.3478
 5306TIP3    H115882   2.723   5.268   4.363 -0.2087  1.3412 -1.3608
 5306TIP3    H215883   2.813   5.279   4.484 -0.6119 -1.7780 -0.6736
 5307TIP3   OH215884   1.031   1.635   0.809  0.3665 -0.0247  0.1738
 5307TIP3    H115885   1.037   1.728   0.832  0.2647  0.0402 -0.0617
 5307TIP3    H215886   1.102   1.594   0.858 -1.0569 -0.2093  2.2153
 5308TIP3   OH215887   6.349   3.428   0.104  0.3607 -0.0121  0.1014
 5308TIP3    H115888   6.376   3.493   0.040 -0.4071 -0.1570 -0.3793
 5308TIP3    H215889   6.255   3.441   0.114  0.3962 -0.2853  0.8726
 5309TIP3   OH215890   2.560   6.599   1.266  0.0551  0.0567 -0.1189
 5309TIP3    H115891   2.480   6.625   1.311  0.2880  3.2388 -1.2670
 5309TIP3    H215892   2.531   6.559   1.184 -0.3321 -0.1987  0.1398
 5310TIP3   OH215893   0.543   0.566   2.651  0.0333  0.3468  0.5181
 5310TIP3    H115894   0.558   0.477   2.620 -0.3487  0.5193 -0.1738
 5310TIP3    H215895   0.563   0.562   2.745  1.1430 -0.1891  0.2728
 5311TIP3   OH215896   5.887   1.727   5.704  0.0529 -0.3802  0.0978
 5311TIP3    H115897   5.981   1.738   5.717 -0.2634  0.4004  1.9519
 5311TIP3    H215898   5.880   1.695   5.614  1.9646  1.2757 -0.7359
 5312TIP3   OH215899   2.582   2.359   1.928 -0.3672  0.2374 -0.1494
 5312TIP3    H115900   2.651   2.312   1.974  0.1110 -0.6722 -1.7344
 5312TIP3    H215901   2.532   2.291   1.883 -2.1776  0.8995  0.7456
 5313TIP3   OH215902   3.523   3.454   1.490 -0.6950 -0.7061 -0.6187
 5313TIP3    H115903   3.475   3.515   1.434  0.4285  0.5268 -0.2822
 5313TIP3    H215904   3.531   3.499   1.574  0.8544 -0.9492 -0.6086
 5314TIP3   OH215905   1.360   2.708   2.069  0.6554 -0.4502 -0.1261
 5314TIP3    H115906   1.334   2.659   2.147 -0.1264 -0.1746 -0.1997
 5314TIP3    H215907   1.284   2.763   2.048  1.5257  0.8508 -0.0153
 5315TIP3   OH215908   1.838   4.750   3.758 -0.2556  0.4456  0.0332
 5315TIP3    H115909   1.878   4.694   3.824 -1.0829 -0.0781  0.1131
 5315TIP3    H215910   1.840   4.837   3.797  1.9474  0.6830 -0.5069
 5316TIP3   OH215911   5.424   0.202   1.796  0.3067 -0.8546  0.3707
 5316TIP3    H115912   5.376   0.185   1.715 -1.0047 -0.9653  1.1299
 5316TIP3    H215913   5.399   0.291   1.820 -0.2488 -1.2352  1.2450
 5317TIP3   OH215914   5.852   2.297   5.794 -0.4933 -0.0744  0.0219
 5317TIP3    H115915   5.940   2.324   5.819  0.3184 -0.6967 -1.9651
 5317TIP3    H215916   5.795   2.364   5.831  0.8883  0.7903  0.6559
 5318TIP3   OH215917   6.262   0.465   4.386 -0.4786 -0.4665  0.4557
 5318TIP3    H115918   6.250   0.373   4.364 -0.8484 -0.3315  0.0793
 5318TIP3    H215919   6.177   0.505   4.369 -0.0133  0.1605 -0.4827
 5319TIP3   OH215920   1.272   0.265   4.748 -0.0055 -0.0984 -0.4073
 5319TIP3    H115921   1.280   0.298   4.659 -0.0826  0.4158 -0.2295
 5319TIP3    H215922   1.206   0.196   4.742  1.2188 -1.2580 -1.0446
 5320TIP3   OH215923   4.869   0.110   4.456  0.2622 -0.1497  0.3565
 5320TIP3    H115924   4.786   0.064   4.442 -0.0119  0.5919 -0.5934
 5320TIP3    H215925   4.885   0.156   4.374 -0.1537  2.5068  1.6449
 5321TIP3   OH215926   5.947   1.731   5.184 -0.8374 -0.2959 -0.4902
 5321TIP3    H115927   5.953   1.661   5.118  0.8330 -1.3528  0.6823
 5321TIP3    H215928   5.973   1.810   5.138 -1.1811 -0.7361 -1.4642
 5322TIP3   OH215929   5.584   3.265   3.154  0.1135 -0.3543 -0.3375
 5322TIP3    H115930   5.557   3.173   3.162 -1.6826  0.1046 -0.5978
 5322TIP3    H215931   5.510   3.314   3.190  0.2375  1.0608 -1.9073
 5323TIP3   OH215932   2.300   5.072   1.611 -0.9477  0.1582  0.2127
 5323TIP3    H115933   2.299   5.091   1.705  1.3837 -2.1265  0.8112
 5323TIP3    H215934   2.383   5.109   1.581 -1.7550  1.0218 -1.0485
 5324TIP3   OH215935   2.459   3.392   5.743  0.2976  0.5601  0.2259
 5324TIP3    H115936   2.385   3.452   5.747  0.3996  0.6758  0.3947
 5324TIP3    H215937   2.506   3.405   5.826  0.5993  0.6085  0.0493
 5325TIP3   OH215938   6.075   6.738   2.589 -0.6682 -0.4719  0.2367
 5325TIP3    H115939   6.038   6.803   2.649  2.0330  0.2708  1.3004
 5325TIP3    H215940   6.011   6.668   2.587 -2.9061  1.4378  0.4356
 5326TIP3   OH215941   6.272   2.243   4.222 -0.1863  0.1304 -0.1370
 5326TIP3    H115942   6.351   2.208   4.264  0.6663 -0.4688 -2.1182
 5326TIP3    H215943   6.303   2.313   4.165 -1.6195  2.7163  2.0538
 5327TIP3   OH215944   5.893   4.307   1.074  0.1239  0.1470 -0.3398
 5327TIP3    H115945   5.930   4.327   0.989 -1.6457  0.6789 -1.0339
 5327TIP3    H215946   5.946   4.234   1.107  2.0125  1.1529 -1.0318
 5328TIP3   OH215947   3.017   2.478   0.813  0.3761  1.1030  0.6951
 5328TIP3    H115948   2.969   2.400   0.784  1.6472  0.9676 -1.2779
 5328TIP3    H215949   2.960   2.520   0.876 -1.7038  0.1907 -0.4904
 5329TIP3   OH215950   7.104   4.261   3.576  0.7568 -0.7772  0.4658
 5329TIP3    H115951   7.088   4.196   3.508  1.0439 -0.1244 -0.2484
 5329TIP3    H215952   7.026   4.316   3.576  1.6124  0.5387 -0.8795
 5330TIP3   OH215953   1.909   1.619   0.571  0.0212 -0.0173 -0.0258
 5330TIP3    H115954   1.868   1.534   0.553  0.1957  0.0419 -0.7387
 5330TIP3    H215955   1.927   1.656   0.484 -0.9557  1.1911  0.2530
 5331TIP3   OH215956   6.712   2.778   0.594  0.0387 -0.2935 -0.3778
 5331TIP3    H115957   6.778   2.709   0.590  1.2687  0.8285  0.2230
 5331TIP3    H215958   6.757   2.854   0.631 -0.9155  1.2789 -2.2425
 5332TIP3   OH215959   6.956   0.307   2.724  0.6098 -0.1511  0.2426
 5332TIP3    H115960   6.920   0.396   2.731 -0.9760 -0.7948  0.9748
 5332TIP3    H215961   6.977   0.283   2.814 -0.7117 -1.1445  0.3300
 5333TIP3   OH215962   2.076   4.244   0.842  0.3282 -1.2678  0.2346
 5333TIP3    H115963   1.989   4.278   0.859  0.2845 -0.3787 -1.5182
 5333TIP3    H215964   2.132   4.323   0.836  1.1938 -1.8001  1.0032
 5334TIP3   OH215965   2.785   4.426   1.122 -0.0808  0.2699  0.1508
 5334TIP3    H115966   2.733   4.364   1.173  0.7681 -0.8615 -0.3152
 5334TIP3    H215967   2.871   4.385   1.115  0.9580  2.1523  1.0310
 5335TIP3   OH215968   2.901   6.508   4.861  0.2036 -0.1611  0.2426
 5335TIP3    H115969   2.908   6.587   4.915  1.0289  1.4266 -2.0088
 5335TIP3    H215970   2.811   6.508   4.830  0.4897  0.5935 -0.6522
 5336TIP3   OH215971   4.983   1.864   0.767  0.3805  0.2488  0.2085
 5336TIP3    H115972   4.968   1.938   0.826 -0.8826  1.7423 -1.8700
 5336TIP3    H215973   4.908   1.806   0.781 -0.0715  0.7477 -0.1483
 5337TIP3   OH215974   0.659   2.291   3.801  0.4628  0.2244 -0.1236
 5337TIP3    H115975   0.701   2.293   3.715 -3.1770  0.0395 -2.1031
 5337TIP3    H215976   0.626   2.380   3.812 -0.8215 -0.2586  0.0760
 5338TIP3   OH215977   6.103   1.909   2.674  0.2563 -0.3553 -0.2724
 5338TIP3    H115978   6.105   1.988   2.621 -0.2777  0.0281  0.2628
 5338TIP3    H215979   6.120   1.838   2.612  1.3039  0.2150 -0.6558
 5339TIP3   OH215980   4.103   2.135   5.308 -0.1756 -0.0611  0.1759
 5339TIP3    H115981   4.115   2.082   5.229  3.1004  0.4885  0.1662
 5339TIP3    H215982   4.084   2.223   5.276 -1.2757 -0.3023  0.1110
 5340TIP3   OH215983   5.160   6.692   2.842 -0.0561  0.1040  0.0611
 5340TIP3    H115984   5.090   6.735   2.792  0.9192  2.1237  0.3231
 5340TIP3    H215985   5.114   6.646   2.912 -1.1881  0.4466 -0.4228
 5341TIP3   OH215986   6.786   3.657   1.149  0.0758 -0.6010 -0.2062
 5341TIP3    H115987   6.714   3.595   1.150 -0.2841 -0.2309 -1.2522
 5341TIP3    H215988   6.863   3.606   1.173 -0.6686 -0.7682  2.0030
 5342TIP3   OH215989   5.313   3.278   3.604  0.4379  0.3141 -0.1575
 5342TIP3    H115990   5.351   3.353   3.649  0.1626 -0.1433  0.8750
 5342TIP3    H215991   5.326   3.205   3.665 -0.4157 -0.2160 -0.5909
 5343TIP3   OH215992   3.737   0.662   4.946  0.0049  0.4894 -0.5365
 5343TIP3    H115993   3.804   0.692   5.007  0.1266 -0.8425  0.0326
 5343TIP3    H215994   3.679   0.607   5.000 -0.1468 -0.3496 -1.5121
 5344TIP3   OH215995   3.289   4.486   2.167  0.4350 -0.5269 -0.3105
 5344TIP3    H115996   3.279   4.578   2.143 -2.1615 -0.1529  1.7218
 5344TIP3    H215997   3.376   4.481   2.207  0.4471  1.1439 -0.0613
 5345TIP3   OH215998   3.863   4.515   2.443  0.1722 -0.6508 -0.0382
 5345TIP3    H115999   3.793   4.451   2.457  0.5231 -1.0582 -0.1263
 5345TIP3    H216000   3.855   4.541   2.352  3.2204 -4.5140 -1.7137
 5346TIP3   OH216001   7.048   6.236   1.238  0.9076  0.6598  0.1525
 5346TIP3    H116002   6.986   6.183   1.187  0.9590 -0.2930  1.0431
 5346TIP3    H216003   7.129   6.186   1.236  0.8061  0.4067  1.4617
 5347TIP3   OH216004   2.980   1.765   1.590  0.1581 -0.5239 -0.5196
 5347TIP3    H116005   3.038   1.822   1.540  0.5508  0.7718  1.2983
 5347TIP3    H216006   2.914   1.735   1.527 -0.1686  2.0809 -1.5346
 5348TIP3   OH216007   6.144   1.029   2.008 -0.8241 -0.6388  0.3758
 5348TIP3    H116008   6.054   1.050   2.033 -0.4089  2.4769 -0.3235
 5348TIP3    H216009   6.189   1.014   2.091 -1.3148  1.0855  1.0030
 5349TIP3   OH216010   4.609   6.750   2.752  0.0886 -0.2713  0.4872
 5349TIP3    H116011   4.648   6.669   2.784  2.9086  0.7786 -0.0481
 5349TIP3    H216012   4.646   6.819   2.807  0.7343  0.9991 -1.4367
 5350TIP3   OH216013   1.374   4.960   4.988 -0.2359  0.3992  0.5888
 5350TIP3    H116014   1.351   4.868   5.000  0.0610  0.4131  1.3157
 5350TIP3    H216015   1.466   4.959   4.964 -0.4196  0.4683 -0.1282
 5351TIP3   OH216016   4.973   0.191   2.313 -0.4181 -0.0101  0.6910
 5351TIP3    H116017   4.963   0.099   2.289 -0.0434  0.6312 -2.2867
 5351TIP3    H216018   4.995   0.235   2.231 -0.8238  2.7898  1.9708
 5352TIP3   OH216019   4.057   0.313   0.263 -0.7743  0.2555  0.0684
 5352TIP3    H116020   4.121   0.252   0.228  0.9443  1.0402  1.6882
 5352TIP3    H216021   3.974   0.286   0.224 -0.3903 -4.0293  1.7397
 5353TIP3   OH216022   5.350   1.189   2.826  0.0614  0.6806 -0.0370
 5353TIP3    H116023   5.255   1.186   2.812 -0.3644  0.9013  2.2331
 5353TIP3    H216024   5.370   1.107   2.870  0.8669  0.7456 -0.2808
 5354TIP3   OH216025   0.559   3.819   1.557  0.5177  0.8608 -0.1914
 5354TIP3    H116026   0.534   3.905   1.525  0.6466  0.9328 -0.0976
 5354TIP3    H216027   0.637   3.796   1.505 -0.2881  0.2332 -1.1470
 5355TIP3   OH216028   1.616   2.528   0.146 -0.8806  0.7745 -0.1233
 5355TIP3    H116029   1.624   2.550   0.238  1.5685  2.2087 -0.5880
 5355TIP3    H216030   1.703   2.495   0.121 -0.9080  2.0827 -2.2725
 5356TIP3   OH216031   5.518   0.053   0.198 -0.1353 -0.7698  0.3455
 5356TIP3    H116032   5.514   0.133   0.146  0.1524  0.6936  2.4888
 5356TIP3    H216033   5.555  -0.012   0.138  1.0025  1.0355 -1.0228
 5357TIP3   OH216034   1.623   5.680   5.536  0.1355 -0.0328  0.2284
 5357TIP3    H116035   1.636   5.772   5.556 -1.8857  0.3351  0.0569
 5357TIP3    H216036   1.620   5.637   5.621  0.7178  0.1161  0.3237
 5358TIP3   OH216037   5.882   2.633   4.801  0.3277  0.5914 -0.6977
 5358TIP3    H116038   5.798   2.605   4.764  0.8144  0.1257 -1.4679
 5358TIP3    H216039   5.947   2.611   4.734  1.6180 -2.7266  1.3597
 5359TIP3   OH216040   4.496   0.374   3.292  0.0991  0.1387 -0.0502
 5359TIP3    H116041   4.588   0.390   3.314 -0.0685  0.4003  0.4692
 5359TIP3    H216042   4.490   0.279   3.285  0.7619  0.1755 -1.6863
 5360TIP3   OH216043   2.737   3.967   5.193 -0.4008 -0.1275 -0.1632
 5360TIP3    H116044   2.747   3.891   5.251 -1.3460  0.5531  0.9227
 5360TIP3    H216045   2.734   3.929   5.105 -0.0055 -1.2749  0.2930
 5361TIP3   OH216046   4.028   6.454   5.428  0.4625  0.0652  0.3102
 5361TIP3    H116047   4.057   6.544   5.442  0.4710  0.5022 -2.0334
 5361TIP3    H216048   4.099   6.400   5.462  0.1596  0.8598  2.3850
 5362TIP3   OH216049   5.508   2.732   5.190 -0.1085  0.1589 -0.2337
 5362TIP3    H116050   5.454   2.803   5.155 -0.8458 -0.6368 -0.7567
 5362TIP3    H216051   5.593   2.745   5.149  0.4029  1.9103  1.2239
 5363TIP3   OH216052   2.235   1.529   3.274  0.4149 -0.2856  0.0593
 5363TIP3    H116053   2.153   1.510   3.321  1.2469 -1.0723  1.2564
 5363TIP3    H216054   2.212   1.600   3.214 -1.0479 -0.2282  0.6346
 5364TIP3   OH216055   1.095   6.701   5.696 -0.3093  0.6542 -0.1520
 5364TIP3    H116056   1.015   6.653   5.717 -0.0444 -0.1081 -0.8284
 5364TIP3    H216057   1.064   6.783   5.658 -0.8069 -0.2944 -1.9000
 5365TIP3   OH216058   2.806   2.145   1.430  0.2502 -0.3456  0.1894
 5365TIP3    H116059   2.842   2.085   1.364  1.9309  1.1499 -0.3214
 5365TIP3    H216060   2.726   2.102   1.460  0.7402 -2.2406 -1.0437
 5366TIP3   OH216061   0.471   3.301   4.016  0.1759  0.2339  0.0922
 5366TIP3    H116062   0.498   3.230   4.074 -2.2900 -0.9083 -0.0589
 5366TIP3    H216063   0.553   3.345   3.993  1.6288 -1.6673  1.3195
 5367TIP3   OH216064   5.126   1.464   0.379  0.0465  0.4091  0.4274
 5367TIP3    H116065   5.099   1.555   0.367  0.1130  0.3894  0.0937
 5367TIP3    H216066   5.093   1.440   0.465  0.7302  0.9982  0.8633
 5368TIP3   OH216067   3.863   1.243   0.524  0.5916 -0.4215 -0.3691
 5368TIP3    H116068   3.855   1.251   0.620  1.5442  0.7100 -0.3658
 5368TIP3    H216069   3.806   1.311   0.490  0.1429 -0.9190 -0.6269
 5369TIP3   OH216070   6.083   0.243   5.371  0.0171  0.5519 -0.3318
 5369TIP3    H116071   6.127   0.215   5.451 -0.8879 -2.9645 -0.8732
 5369TIP3    H216072   6.008   0.293   5.401 -0.3040 -0.6929  1.0631
 5370TIP3   OH216073   3.967   1.990   3.982  0.2550 -0.4125 -0.0525
 5370TIP3    H116074   3.973   1.894   3.980 -1.2458 -0.7541  3.8370
 5370TIP3    H216075   4.058   2.020   3.975  0.7702 -2.0888 -1.0838
 5371TIP3   OH216076   0.484   2.307   4.557 -0.2555 -0.0669 -0.8753
 5371TIP3    H116077   0.446   2.285   4.472  0.1605 -0.1688 -1.0360
 5371TIP3    H216078   0.569   2.263   4.558 -0.4620 -0.4708 -0.2117
 5372TIP3   OH216079   1.999   0.692   2.377  0.2585 -0.0093  0.4246
 5372TIP3    H116080   2.061   0.709   2.305  1.1332 -1.3081  0.8301
 5372TIP3    H216081   1.923   0.653   2.334  0.2670  0.3663  0.0627
 5373TIP3   OH216082   5.620   1.615   4.656 -0.0421 -0.1342  0.3068
 5373TIP3    H116083   5.616   1.707   4.630  0.2111 -0.3026 -0.3466
 5373TIP3    H216084   5.699   1.607   4.708  0.6388 -0.2441 -0.7232
 5374TIP3   OH216085   5.286   2.482   0.089 -0.4630 -0.1472 -0.1015
 5374TIP3    H116086   5.365   2.523   0.124  0.1620  0.0058 -1.6358
 5374TIP3    H216087   5.252   2.547   0.027 -0.6057 -1.0912 -1.0258
 5375TIP3   OH216088   1.592   6.678   5.653  0.3519 -0.0767 -0.0533
 5375TIP3    H116089   1.554   6.722   5.577 -0.5047 -0.8851 -0.1129
 5375TIP3    H216090   1.520   6.673   5.716  0.6732 -0.6399  0.2714
 5376TIP3   OH216091   4.884   0.995   5.011  0.0933  0.2890 -0.5123
 5376TIP3    H116092   4.930   0.938   5.074 -0.9315  0.8082  0.7609
 5376TIP3    H216093   4.835   0.934   4.955 -0.1537 -0.1414  0.1546
 5377TIP3   OH216094   1.398   1.500   3.881 -0.2955 -0.0890 -0.0795
 5377TIP3    H116095   1.335   1.571   3.890 -0.8527 -0.4451 -0.9981
 5377TIP3    H216096   1.466   1.520   3.945 -0.7484  0.9407  0.1016
 5378TIP3   OH216097   1.299   5.057   3.120 -0.1193  0.4693 -0.6140
 5378TIP3    H116098   1.291   4.974   3.167 -0.0375  0.7892 -0.0308
 5378TIP3    H216099   1.274   5.124   3.184 -0.0525  0.9075 -1.0386
 5379TIP3   OH216100   2.469   1.851   4.512 -0.4267  0.1933 -0.0994
 5379TIP3    H116101   2.406   1.826   4.579 -0.0517 -2.1425 -0.5362
 5379TIP3    H216102   2.442   1.939   4.486 -2.6332 -0.1734  0.7217
 5380TIP3   OH216103   6.516   5.426   1.230  0.3382  0.4064 -0.4459
 5380TIP3    H116104   6.460   5.422   1.308  0.1019  1.0619 -0.5832
 5380TIP3    H216105   6.455   5.429   1.157  0.5528 -1.0030 -0.7221
 5381TIP3   OH216106   0.858   0.682   2.695 -0.5641 -0.7536 -0.2727
 5381TIP3    H116107   0.791   0.737   2.656  0.1039 -0.0702 -0.4735
 5381TIP3    H216108   0.921   0.666   2.624  0.9382  0.9341  0.5782
 5382TIP3   OH216109   6.502   5.865   0.202 -0.7342  0.0880 -0.3459
 5382TIP3    H116110   6.466   5.779   0.178 -1.1664  0.0069  0.5501
 5382TIP3    H216111   6.429   5.925   0.187  0.5865  0.9621 -4.5545
 5383TIP3   OH216112   6.076   5.143   5.427  0.4414  0.0302  0.5075
 5383TIP3    H116113   6.023   5.165   5.503  0.0571 -1.7828  0.8159
 5383TIP3    H216114   6.026   5.076   5.381  1.6493 -0.4625 -0.1611
 5384TIP3   OH216115   3.427   0.033   2.427 -0.4718 -0.3143  0.5886
 5384TIP3    H116116   3.450  -0.057   2.449 -2.0286 -0.8599  0.0795
 5384TIP3    H216117   3.509   0.082   2.440  0.8887 -2.0840 -0.8402
 5385TIP3   OH216118   3.221   5.331   1.570  0.0113  0.0493  0.1064
 5385TIP3    H116119   3.174   5.375   1.640  0.7949 -0.7434  1.1712
 5385TIP3    H216120   3.310   5.368   1.575  0.2085 -0.3903 -0.1134
 5386TIP3   OH216121   4.190   4.739   0.660  0.1328  0.0985 -0.3960
 5386TIP3    H116122   4.190   4.834   0.658 -1.0214  0.1274  0.1770
 5386TIP3    H216123   4.106   4.714   0.622 -0.0727 -0.6429  0.4933
 5387TIP3   OH216124   3.886   4.597   1.613 -0.5601  0.3569  0.0173
 5387TIP3    H116125   3.844   4.675   1.648 -0.4646  0.8730 -1.0068
 5387TIP3    H216126   3.980   4.616   1.618 -0.4195 -0.5168  1.6436
 5388TIP3   OH216127   7.087   5.065   4.309 -0.3844  0.3845  0.2480
 5388TIP3    H116128   7.145   5.117   4.364  0.5089  0.5724 -0.8481
 5388TIP3    H216129   7.078   4.981   4.355  0.1834  0.6085  0.7729
 5389TIP3   OH216130   3.258   3.342   3.809 -0.3474 -0.1843 -0.0656
 5389TIP3    H116131   3.312   3.358   3.886  1.5338 -1.2648 -1.0871
 5389TIP3    H216132   3.222   3.254   3.822 -1.5646  0.3519  0.3972
 5390TIP3   OH216133   3.143   0.796   2.480 -0.4044  0.2136  0.4129
 5390TIP3    H116134   3.119   0.703   2.477  2.3004 -0.6571  2.0601
 5390TIP3    H216135   3.168   0.817   2.390 -0.1527 -0.9464  0.1905
 5391TIP3   OH216136   1.133   3.608   4.064 -0.0503 -0.6231 -0.3393
 5391TIP3    H116137   1.163   3.526   4.103  0.8311  0.1960  0.7568
 5391TIP3    H216138   1.195   3.624   3.992  0.3518 -0.4514  0.0397
 5392TIP3   OH216139   4.055   5.546   5.289  0.1258 -0.0301 -0.3269
 5392TIP3    H116140   4.035   5.523   5.198 -2.5178  0.1889  0.1227
 5392TIP3    H216141   4.036   5.640   5.295 -0.4013 -0.1785  0.5961
 5393TIP3   OH216142   4.927   1.659   4.294  0.2625  0.1981 -0.6293
 5393TIP3    H116143   4.980   1.655   4.214 -0.8350  0.4832 -1.3822
 5393TIP3    H216144   4.856   1.597   4.279 -0.4224  0.8791 -0.2285
 5394TIP3   OH216145   0.069   0.339   3.169 -0.2524 -0.6651  0.3972
 5394TIP3    H116146   0.102   0.257   3.203 -0.5022 -1.2710 -0.7590
 5394TIP3    H216147   0.132   0.364   3.101  0.5351  0.7870  1.6061
 5395TIP3   OH216148   4.009   3.589   4.200  0.4868  0.2239 -0.2215
 5395TIP3    H116149   3.981   3.498   4.192  0.4201  0.2191  0.0665
 5395TIP3    H216150   4.104   3.586   4.188  0.4332  0.1769 -0.6734
 5396TIP3   OH216151   3.655   6.047   2.368 -0.7333  0.1623 -0.1895
 5396TIP3    H116152   3.743   6.082   2.380 -0.9974  0.7809  0.0112
 5396TIP3    H216153   3.642   6.044   2.274  0.3155 -2.0438 -0.3080
 5397TIP3   OH216154   7.129   4.528   3.200  0.1905  0.6357  0.5238
 5397TIP3    H116155   7.040   4.562   3.191 -0.2377 -0.1969  1.4780
 5397TIP3    H216156   7.160   4.563   3.283 -0.0451 -0.7804  1.2393
 5398TIP3   OH216157   2.338   3.405   0.927  0.0274  0.1381  0.3346
 5398TIP3    H116158   2.261   3.431   0.977 -2.4538 -2.5436 -1.7697
 5398TIP3    H216159   2.360   3.483   0.876 -2.5714  0.4793 -0.4170
 5399TIP3   OH216160   5.969   3.138   1.908  0.1753  0.6206 -0.6175
 5399TIP3    H116161   6.009   3.052   1.915 -1.4304 -0.0699  1.0275
 5399TIP3    H216162   5.876   3.123   1.928 -0.3638  2.5754 -1.3621
 5400TIP3   OH216163   3.774   2.246   4.369 -0.3461 -0.7596  0.8020
 5400TIP3    H116164   3.691   2.282   4.336  0.0800 -0.9397 -0.5181
 5400TIP3    H216165   3.808   2.194   4.297  0.7504 -0.9978  1.4647
 5401TIP3   OH216166   2.962   5.648   5.333  0.0459 -0.1192 -0.0844
 5401TIP3    H116167   3.037   5.594   5.358  0.3888  0.3354 -0.1108
 5401TIP3    H216168   2.979   5.672   5.242 -0.2629 -0.2298 -0.1711
 5402TIP3   OH216169   0.223   5.682   5.718 -0.2223  0.2208  0.3189
 5402TIP3    H116170   0.151   5.734   5.682  0.1911 -0.2123 -1.2107
 5402TIP3    H216171   0.209   5.594   5.683  0.5574 -0.0711  0.7183
 5403TIP3   OH216172   4.089   0.874   3.612 -0.3418 -0.0950  0.2228
 5403TIP3    H116173   3.997   0.860   3.636 -0.9787  0.1538 -1.8010
 5403TIP3    H216174   4.110   0.800   3.556  0.4233  0.2791  0.0105
 5404TIP3   OH216175   2.742   1.966   3.745  0.3405 -0.0106 -0.0037
 5404TIP3    H116176   2.833   1.936   3.752 -0.2545 -2.0491 -0.4339
 5404TIP3    H216177   2.749   2.062   3.743  2.3500 -0.0493  1.4876
 5405TIP3   OH216178   5.929   3.225   5.635 -0.0832  0.4791  0.5354
 5405TIP3    H116179   6.016   3.242   5.673  0.2352  0.8500 -0.3324
 5405TIP3    H216180   5.880   3.306   5.652  0.3922  1.0631 -0.7178
 5406TIP3   OH216181   5.401   1.218   0.782 -0.0008  0.3183 -0.1037
 5406TIP3    H116182   5.355   1.301   0.766  0.3974  0.2798 -1.5733
 5406TIP3    H216183   5.450   1.233   0.863 -2.1732  0.5200  1.2620
 5407TIP3   OH216184   3.890   5.403   4.777  0.1078 -0.1710 -0.0364
 5407TIP3    H116185   3.891   5.486   4.729 -0.1474 -1.0865 -1.7296
 5407TIP3    H216186   3.982   5.383   4.792  0.1368  1.2141  1.9160
 5408TIP3   OH216187   3.820   5.970   0.950  0.1707  0.4106 -0.5176
 5408TIP3    H116188   3.870   6.001   0.874  0.8597 -0.4274 -0.4184
 5408TIP3    H216189   3.887   5.937   1.011 -0.4558 -0.0396 -0.0603
 5409TIP3   OH216190   7.133   5.922   0.910  0.2290 -0.3465 -0.0944
 5409TIP3    H116191   7.191   5.847   0.897  1.2810  0.5332 -0.6143
 5409TIP3    H216192   7.192   5.995   0.931 -0.8030  0.2573  0.8039
 5410TIP3   OH216193   1.600   6.358   2.124 -0.3871 -0.1241 -0.1942
 5410TIP3    H116194   1.563   6.326   2.207  0.8851 -0.7918  0.1386
 5410TIP3    H216195   1.596   6.282   2.066  1.7730 -0.6737  0.3030
 5411TIP3   OH216196   5.054   5.279   1.258 -0.2824 -0.0473  0.3440
 5411TIP3    H116197   5.083   5.362   1.221 -1.2503  0.6532  1.0975
 5411TIP3    H216198   5.035   5.224   1.182  0.9755  0.1912 -0.1571
 5412TIP3   OH216199   4.994   1.040   0.118  0.5467 -0.0611  0.0376
 5412TIP3    H116200   5.047   1.108   0.160  3.1667 -2.5557  1.1281
 5412TIP3    H216201   5.042   1.019   0.038  0.2802 -1.1857  0.1640
 5413TIP3   OH216202   6.750   4.323   3.038  0.0023 -0.0088 -0.1027
 5413TIP3    H116203   6.702   4.406   3.030  0.3272  0.1721 -0.1537
 5413TIP3    H216204   6.777   4.302   2.949  3.0285  1.6631  0.2836
 5414TIP3   OH216205   3.827   2.060   0.286  0.2010 -0.4396 -0.0612
 5414TIP3    H116206   3.843   2.077   0.193  2.1238  0.8123  0.4559
 5414TIP3    H216207   3.846   1.967   0.297  0.6967 -0.4282 -0.7781
 5415TIP3   OH216208   6.094   3.653   0.427  0.0917 -0.0646 -0.0634
 5415TIP3    H116209   6.132   3.729   0.471 -0.5155  0.3927 -0.3230
 5415TIP3    H216210   6.013   3.686   0.388 -0.3718 -0.9354  0.1514
 5416TIP3   OH216211   6.436   6.760   0.890 -0.2694  0.5181  0.8800
 5416TIP3    H116212   6.502   6.821   0.858 -0.6415  0.1196 -0.7283
 5416TIP3    H216213   6.477   6.674   0.881 -1.4330  0.1312 -1.4480
 5417TIP3   OH216214   2.804   1.590   5.592 -0.1048 -0.5201 -0.6490
 5417TIP3    H116215   2.863   1.665   5.588 -0.9794  0.2703  0.5264
 5417TIP3    H216216   2.787   1.578   5.686 -0.5461 -1.7349 -0.8683
 5418TIP3   OH216217   4.400   5.188   0.589 -0.3352  0.3749  0.2528
 5418TIP3    H116218   4.417   5.216   0.499  0.5368 -0.9200 -0.0097
 5418TIP3    H216219   4.466   5.235   0.641 -1.0798  1.4143  0.2900
 5419TIP3   OH216220   1.752   3.712   2.184  0.2059 -0.4029 -0.3058
 5419TIP3    H116221   1.803   3.787   2.152  0.5875 -0.5194  0.0288
 5419TIP3    H216222   1.676   3.708   2.125  0.4388 -0.0578 -0.6314
 5420TIP3   OH216223   6.340   1.084   1.455 -0.1453 -0.1016  0.0032
 5420TIP3    H116224   6.354   1.022   1.383  0.1410 -1.0179  0.8388
 5420TIP3    H216225   6.428   1.114   1.478 -0.3616  1.9756 -1.5188
 5421TIP3   OH216226   4.836   3.257   3.292  0.1352 -0.1225  0.2630
 5421TIP3    H116227   4.808   3.172   3.257 -0.2815 -0.3657  1.1433
 5421TIP3    H216228   4.760   3.289   3.340 -0.4259  1.7194 -1.7272
 5422TIP3   OH216229   0.252   4.851   4.378  0.1893  0.7019 -0.5149
 5422TIP3    H116230   0.232   4.872   4.287  0.1104 -0.5967 -0.8121
 5422TIP3    H216231   0.344   4.828   4.378  0.1419  0.5068 -0.2956
 5423TIP3   OH216232   4.850   1.005   0.349  0.5403 -0.6957 -0.2618
 5423TIP3    H116233   4.872   1.022   0.257 -0.5828  0.3327 -0.3542
 5423TIP3    H216234   4.934   0.979   0.389  1.2585 -0.0849 -1.3219
 5424TIP3   OH216235   5.901   3.130   4.368 -0.3314  0.6174 -0.0111
 5424TIP3    H116236   5.897   3.196   4.299  1.0362  2.8407  1.9104
 5424TIP3    H216237   5.836   3.157   4.432 -0.0167 -0.1023  0.6324
 5425TIP3   OH216238   3.923   2.129   3.517 -0.3384  0.0794 -0.2666
 5425TIP3    H116239   3.992   2.125   3.451  0.0629 -1.2104  0.2158
 5425TIP3    H216240   3.853   2.075   3.481 -0.1216 -0.6252  0.3441
 5426TIP3   OH216241   7.033   1.477   0.498  0.1435 -0.1117 -0.5283
 5426TIP3    H116242   7.062   1.395   0.459  2.9331  0.3178  0.4170
 5426TIP3    H216243   7.082   1.544   0.451 -0.3257  0.8264  0.2823
 5427TIP3   OH216244   6.370   4.217   4.568 -0.9788  0.7153 -0.1608
 5427TIP3    H116245   6.358   4.181   4.481  0.8047  0.8121 -0.4745
 5427TIP3    H216246   6.390   4.141   4.623  0.9248  0.9722 -0.4575
 5428TIP3   OH216247   2.021   2.039   0.738 -0.5574  0.0507  0.6138
 5428TIP3    H116248   2.052   1.949   0.731 -0.9294 -0.0033 -0.5653
 5428TIP3    H216249   1.964   2.051   0.662  0.2780  1.5906  0.1769
 5429TIP3   OH216250   3.272   6.767   3.583  0.0154 -0.0608 -0.2510
 5429TIP3    H116251   3.260   6.728   3.496  1.1409  0.2508 -0.5597
 5429TIP3    H216252   3.333   6.707   3.627 -1.9527 -1.2518  1.0328
 5430TIP3   OH216253   4.809   0.687   5.420  0.0273  0.3626  0.0419
 5430TIP3    H116254   4.879   0.655   5.477  0.6760 -0.0665 -0.9715
 5430TIP3    H216255   4.801   0.780   5.441  0.8803  0.4048  0.1967
 5431TIP3   OH216256   1.379   4.456   0.622 -0.7950 -0.2633  0.1428
 5431TIP3    H116257   1.355   4.433   0.532  1.3653 -2.2822 -0.0086
 5431TIP3    H216258   1.433   4.535   0.613  0.0890 -0.9287 -0.4185
 5432TIP3   OH216259   5.033   2.482   1.700  0.0535 -0.4227  0.2419
 5432TIP3    H116260   5.105   2.425   1.727  0.2467 -0.0649  0.4872
 5432TIP3    H216261   5.074   2.550   1.648 -0.0892 -0.1493  0.4838
 5433TIP3   OH216262   0.395   5.016   1.109 -0.4838 -0.1074 -0.7775
 5433TIP3    H116263   0.373   5.104   1.141  1.2153  0.6180 -1.4624
 5433TIP3    H216264   0.400   4.963   1.188 -0.5271  0.6621 -0.2384
 5434TIP3   OH216265   3.501   1.483   1.377  0.4137 -0.0475 -0.0306
 5434TIP3    H116266   3.427   1.478   1.317  1.0026  1.6084 -0.9823
 5434TIP3    H216267   3.570   1.431   1.335  0.5573  0.4202 -0.3809
 5435TIP3   OH216268   1.673   2.947   3.973  0.5919  0.2904  0.1374
 5435TIP3    H116269   1.671   2.939   3.878 -0.8797  0.5622  0.1227
 5435TIP3    H216270   1.591   2.992   3.995  1.6254  1.6391  1.4072
 5436TIP3   OH216271   0.592   1.520   1.658  0.5114  0.0589 -0.1298
 5436TIP3    H116272   0.658   1.456   1.631  0.4101  0.6193 -1.8263
 5436TIP3    H216273   0.562   1.488   1.743 -0.3251 -2.8021 -1.3636
 5437TIP3   OH216274   1.635   5.374   4.969 -0.0571  0.7170 -0.1616
 5437TIP3    H116275   1.660   5.319   5.044 -0.6493  0.7712  0.0759
 5437TIP3    H216276   1.646   5.464   5.000 -1.7026  0.7654  0.3588
 5438TIP3   OH216277   2.874   4.836   0.469  0.4306 -0.1286 -0.0734
 5438TIP3    H116278   2.837   4.921   0.495  1.1196  0.3283 -0.5316
 5438TIP3    H216279   2.814   4.804   0.402  0.4121  0.2177 -0.2272
 5439TIP3   OH216280   2.490   4.378   3.905 -0.6443  0.7069 -0.2931
 5439TIP3    H116281   2.438   4.298   3.906 -1.7412  1.4137  0.1433
 5439TIP3    H216282   2.441   4.438   3.850  0.8753  0.6507 -1.7936
 5440TIP3   OH216283   1.704   3.148   1.928  0.2358  0.0098  0.5109
 5440TIP3    H116284   1.740   3.108   1.849  1.0310 -0.0204  0.8829
 5440TIP3    H216285   1.683   3.074   1.985  0.0751  0.0523  0.5089
 5441TIP3   OH216286   6.099   6.347  -0.019 -0.3490  0.4205  0.6688
 5441TIP3    H116287   6.088   6.345   0.076  0.1002  0.9808  0.7373
 5441TIP3    H216288   6.170   6.284  -0.036 -1.0806 -0.4026  0.5992
 5442TIP3   OH216289   0.985   2.155   4.460 -0.3144  0.1431  0.4102
 5442TIP3    H116290   1.005   2.152   4.366 -2.1465 -0.7724  0.0156
 5442TIP3    H216291   1.051   2.098   4.500 -0.3883 -0.6071 -0.5018
 5443TIP3   OH216292   2.738   3.815   4.922  0.2713  0.0377 -0.4399
 5443TIP3    H116293   2.702   3.735   4.882  1.5959 -0.6858 -0.2360
 5443TIP3    H216294   2.812   3.839   4.866  0.0630  0.9779 -0.3370
 5444TIP3   OH216295   7.130   0.592   0.644  0.1588 -0.6806 -0.5688
 5444TIP3    H116296   7.113   0.553   0.558  0.9417 -2.1150 -0.1142
 5444TIP3    H216297   7.173   0.675   0.624 -2.4981  0.5641 -1.6001
 5445TIP3   OH216298   5.646   1.781   1.500  0.5683  0.0848  0.0680
 5445TIP3    H116299   5.661   1.875   1.513 -0.8780  0.5092 -1.0503
 5445TIP3    H216300   5.697   1.759   1.422  1.5878 -0.2883  0.8093
 5446TIP3   OH216301   3.899   1.655   2.856  0.2553  0.2556  0.0198
 5446TIP3    H116302   3.829   1.720   2.849  0.6373  0.6332 -0.3912
 5446TIP3    H216303   3.918   1.651   2.950 -0.5223 -0.0745  0.1664
 5447TIP3   OH216304   5.783   4.209   0.060  0.0403  0.1705 -0.0760
 5447TIP3    H116305   5.739   4.270   0.001 -1.8204 -0.9687  0.0165
 5447TIP3    H216306   5.759   4.239   0.147  0.6967  0.4029  0.0241
 5448TIP3   OH216307   2.277   4.964   3.187 -0.0179 -0.4714 -0.0416
 5448TIP3    H116308   2.267   5.052   3.150  0.1363 -0.2476  0.4349
 5448TIP3    H216309   2.350   4.972   3.249  0.0220 -0.9455 -0.0247
 5449TIP3   OH216310   0.706   0.460   0.103  0.2078 -0.4100  0.0632
 5449TIP3    H116311   0.715   0.374   0.144 -0.4108 -0.7470 -0.4904
 5449TIP3    H216312   0.612   0.478   0.107  0.4124  0.6038  0.8902
 5450TIP3   OH216313   4.356   4.823   1.297 -0.1923 -0.3478  0.2299
 5450TIP3    H116314   4.311   4.859   1.220 -1.6928 -1.4331  0.5582
 5450TIP3    H216315   4.357   4.729   1.282  1.1295 -0.4236  0.7094
 5451TIP3   OH216316   4.878   6.642   4.709  0.3818 -0.0898  0.8036
 5451TIP3    H116317   4.871   6.547   4.718 -1.7895  0.0634  1.2197
 5451TIP3    H216318   4.858   6.659   4.617 -1.1644  0.0612  1.1354
 5452TIP3   OH216319   6.146   3.121   2.181 -0.1333  0.3550  0.3315
 5452TIP3    H116320   6.190   3.152   2.260 -1.6612 -0.5393  1.6139
 5452TIP3    H216321   6.056   3.153   2.190  0.0949  1.8327 -2.0210
 5453TIP3   OH216322   0.987   2.989   5.867 -0.2311  0.1122 -0.5590
 5453TIP3    H116323   1.079   2.997   5.845 -0.2642  1.8200 -0.2241
 5453TIP3    H216324   0.964   2.899   5.845  1.1407  0.0821 -2.0083
 5454TIP3   OH216325   0.925   0.882   3.949  0.2214 -0.3957 -0.2595
 5454TIP3    H116326   0.831   0.895   3.940  0.1251  1.7041  2.3969
 5454TIP3    H216327   0.935   0.834   4.031  1.4700  0.3633  0.0696
 5455TIP3   OH216328   1.193   3.187   4.522 -0.3226  0.4907  0.4912
 5455TIP3    H116329   1.194   3.130   4.599 -3.2890  1.3841  1.3490
 5455TIP3    H216330   1.185   3.126   4.448  0.2155 -0.3158  1.0791
 5456TIP3   OH216331   6.060   4.810   2.720 -0.7028  0.4261 -0.0429
 5456TIP3    H116332   6.090   4.736   2.668  2.7103 -1.5601  4.0924
 5456TIP3    H216333   5.978   4.779   2.760  1.2276 -1.9242  2.5247
 5457TIP3   OH216334   5.509   5.219   0.207 -0.4070  0.5030 -0.2891
 5457TIP3    H116335   5.480   5.300   0.167 -0.2988  1.1088  0.8154
 5457TIP3    H216336   5.589   5.195   0.161  0.0183  1.4734 -0.0665
 5458TIP3   OH216337   2.325   1.975   2.709  0.2569  0.0992 -0.5422
 5458TIP3    H116338   2.349   1.916   2.780  1.9149  0.9244 -0.3896
 5458TIP3    H216339   2.321   2.062   2.749  0.8050  0.5167 -1.3605
 5459TIP3   OH216340   2.285   4.670   0.484  0.1054  0.0683 -0.3887
 5459TIP3    H116341   2.358   4.611   0.504  0.8552  1.0150 -0.2475
 5459TIP3    H216342   2.283   4.732   0.557 -1.9741 -0.9666  0.5058
 5460TIP3   OH216343   6.073   4.791   0.731  0.4353 -0.4521 -0.1679
 5460TIP3    H116344   6.004   4.835   0.682  1.0281 -0.7103 -1.2665
 5460TIP3    H216345   6.042   4.790   0.822 -1.2604 -1.0965 -0.7308
 5461TIP3   OH216346   1.104   1.849   0.286 -0.1201 -0.1794  0.0741
 5461TIP3    H116347   1.103   1.900   0.368 -0.7062  0.3590 -0.2662
 5461TIP3    H216348   1.170   1.781   0.302  1.3550  1.2114  0.2147
 5462TIP3   OH216349   5.732   4.880   3.109  0.2645  0.3284 -0.3507
 5462TIP3    H116350   5.655   4.859   3.057  1.4564 -1.3863 -1.5477
 5462TIP3    H216351   5.778   4.947   3.059  0.3439  0.2134 -0.4317
 5463TIP3   OH216352   1.054   5.956   5.900  0.2806  0.6719  0.5844
 5463TIP3    H116353   1.094   6.043   5.901  0.2004  0.7218 -0.0475
 5463TIP3    H216354   1.071   5.923   5.812  1.4418 -0.4963  1.2180
 5464TIP3   OH216355   5.259   5.634   1.950 -0.2435 -0.1790 -0.1136
 5464TIP3    H116356   5.308   5.716   1.956 -0.3539 -0.1045 -0.2389
 5464TIP3    H216357   5.220   5.635   1.863  1.4293 -1.3231 -0.9160
 5465TIP3   OH216358   4.499   3.127   3.540  0.3552 -0.0698  0.0180
 5465TIP3    H116359   4.569   3.064   3.527  0.4490 -0.0953  0.5912
 5465TIP3    H216360   4.528   3.206   3.494  0.5096 -0.2559 -0.2022
 5466TIP3   OH216361   3.961   0.056   4.283 -0.4742  0.4637 -0.4581
 5466TIP3    H116362   3.940   0.011   4.201 -1.2253 -1.3130  0.6469
 5466TIP3    H216363   3.993  -0.013   4.341  1.5310  1.9271  0.2942
 5467TIP3   OH216364   1.654   4.444   4.753  0.0961 -0.3993  0.3340
 5467TIP3    H116365   1.580   4.463   4.810 -0.9001 -0.3457 -0.9185
 5467TIP3    H216366   1.731   4.459   4.807 -0.7153  2.4936  0.8452
 5468TIP3   OH216367   4.667   2.552   2.354 -0.0967  0.2945  0.1809
 5468TIP3    H116368   4.670   2.517   2.443  0.9038  0.3755  0.1899
 5468TIP3    H216369   4.641   2.478   2.299  1.2004 -0.2728  0.3032
 5469TIP3   OH216370   5.583   5.017   3.647  0.0063 -0.3661  0.1920
 5469TIP3    H116371   5.551   4.947   3.589 -1.3853  0.5373 -0.1883
 5469TIP3    H216372   5.595   5.092   3.589 -0.3497  0.2446  0.8953
 5470TIP3   OH216373   4.540   2.387   1.113 -0.8112 -0.2549  0.3324
 5470TIP3    H116374   4.574   2.405   1.026 -1.0291  0.9869  0.4860
 5470TIP3    H216375   4.611   2.412   1.172 -1.7347  1.8424  0.6278
 5471TIP3   OH216376   3.607   2.903   0.175  0.1242 -0.2772  0.0297
 5471TIP3    H116377   3.589   2.821   0.222  1.2913 -0.7089 -0.2368
 5471TIP3    H216378   3.702   2.916   0.185 -0.1056  1.2737  0.4172
 5472TIP3   OH216379   7.115   5.183   3.259  0.0464  0.5351  0.2783
 5472TIP3    H116380   7.089   5.249   3.323 -1.3673 -1.6721  2.1570
 5472TIP3    H216381   7.098   5.224   3.174  0.3840  2.9682  1.3039
 5473TIP3   OH216382   0.837   4.499   0.722  0.5047 -0.7535 -0.1162
 5473TIP3    H116383   0.876   4.544   0.647  1.2050 -2.0646 -0.5694
 5473TIP3    H216384   0.800   4.419   0.685 -1.2774 -0.2906  0.5609
 5474TIP3   OH216385   6.444   3.241   3.495  0.5648  0.2216 -0.4233
 5474TIP3    H116386   6.382   3.304   3.459  0.5940  1.4043  1.4788
 5474TIP3    H216387   6.430   3.162   3.443 -1.0879  1.0849 -1.3789
 5475TIP3   OH216388   2.777   0.419   5.546  0.3190 -0.3019  0.1622
 5475TIP3    H116389   2.774   0.323   5.547 -1.0051 -0.2742  1.3366
 5475TIP3    H216390   2.697   0.445   5.500 -0.2868  0.2384  1.4726
 5476TIP3   OH216391   6.659   0.337   5.349  0.1413  0.1941  0.1620
 5476TIP3    H116392   6.652   0.402   5.420  0.9539 -0.6020  0.9907
 5476TIP3    H216393   6.751   0.340   5.323 -0.1366  0.4260 -0.8235
 5477TIP3   OH216394   4.105   5.015   3.250 -0.3007  0.1973 -0.7092
 5477TIP3    H116395   4.032   4.978   3.201  0.5818 -0.0325 -1.8944
 5477TIP3    H216396   4.098   4.975   3.337 -0.0992 -1.8420 -1.5749
 5478TIP3   OH216397   5.681   4.905   4.954 -0.1852 -0.1532  0.3444
 5478TIP3    H116398   5.659   4.950   4.873  0.9468 -0.7671 -0.3311
 5478TIP3    H216399   5.767   4.939   4.979 -0.3398 -0.2652  1.0701
 5479TIP3   OH216400   0.459   4.052   4.627  0.1507 -0.5303 -0.1264
 5479TIP3    H116401   0.391   4.068   4.562 -0.6157  0.3034  0.8586
 5479TIP3    H216402   0.462   3.956   4.635 -0.5474 -0.5952 -0.5477
 5480TIP3   OH216403   4.739   3.770   1.154  0.4443  0.4601 -0.1699
 5480TIP3    H116404   4.759   3.751   1.245 -0.9804 -0.2962  0.0169
 5480TIP3    H216405   4.793   3.846   1.133  2.3355 -0.5884  0.6684
 5481TIP3   OH216406   3.322   3.460   4.995 -0.0484  0.0777 -0.1208
 5481TIP3    H116407   3.274   3.488   5.072 -1.2421 -2.0649  0.0157
 5481TIP3    H216408   3.305   3.527   4.929 -2.2627  0.0123  0.3257
 5482TIP3   OH216409   6.524   4.848   0.840 -0.1167  0.1318  0.0594
 5482TIP3    H116410   6.600   4.897   0.809  0.5829 -0.3828  0.8758
 5482TIP3    H216411   6.531   4.763   0.796  0.0009 -0.0417  0.3996
 5483TIP3   OH216412   5.230   5.154   2.217 -0.0812  0.1819 -0.3107
 5483TIP3    H116413   5.218   5.249   2.217 -0.6158  0.1623 -2.3062
 5483TIP3    H216414   5.325   5.141   2.212  0.1818  0.5235  2.3142
 5484TIP3   OH216415   1.613   3.193   2.907 -0.8828 -0.1246  0.2968
 5484TIP3    H116416   1.578   3.107   2.885  1.9747 -0.7286 -2.7810
 5484TIP3    H216417   1.705   3.177   2.931  0.3153  2.0589 -2.2430
 5485TIP3   OH216418   4.169   0.393   2.320 -0.1589  0.2559 -0.0233
 5485TIP3    H116419   4.180   0.321   2.383 -0.7729  0.3883  0.2403
 5485TIP3    H216420   4.074   0.404   2.313 -0.0683  1.4093  0.3685
 5486TIP3   OH216421   0.359   0.801   4.162 -0.3222  0.4456  0.4114
 5486TIP3    H116422   0.315   0.757   4.090  1.7771 -2.0276  0.5083
 5486TIP3    H216423   0.319   0.766   4.241  1.2068 -1.2808  0.4837
 5487TIP3   OH216424   3.915   4.621   5.580  0.3131  0.0719 -0.0779
 5487TIP3    H116425   4.009   4.608   5.568  0.1706 -0.1260 -1.0111
 5487TIP3    H216426   3.876   4.594   5.497 -0.5951 -0.1041  0.3941
 5488TIP3   OH216427   1.935   0.967   5.449 -0.1294 -0.1925  0.0542
 5488TIP3    H116428   1.889   1.049   5.432 -1.5972 -0.8804  0.5588
 5488TIP3    H216429   1.947   0.928   5.362 -0.9947 -0.2490 -0.0512
 5489TIP3   OH216430   2.464   4.521   1.695 -0.3075 -0.2438  0.6892
 5489TIP3    H116431   2.467   4.433   1.656 -0.9390 -0.4267  1.0471
 5489TIP3    H216432   2.424   4.575   1.627  1.2297  0.0465 -0.0301
 5490TIP3   OH216433   0.125   4.392   3.077  0.2030  0.1889 -0.4012
 5490TIP3    H116434   0.059   4.445   3.122 -1.4834 -0.2069 -2.3114
 5490TIP3    H216435   0.087   4.305   3.071  1.7552 -0.5700  0.1811
 5491TIP3   OH216436   3.525   1.428   2.437  0.1794 -0.0234 -0.4355
 5491TIP3    H116437   3.564   1.513   2.457 -0.9964  0.7298 -1.2600
 5491TIP3    H216438   3.573   1.366   2.492  0.3048  1.3134  1.0175
 5492TIP3   OH216439   6.480   2.385   4.729  0.1063  0.0289 -0.4079
 5492TIP3    H116440   6.531   2.322   4.779  0.9693  0.3544 -0.8586
 5492TIP3    H216441   6.459   2.454   4.792  0.4860  0.0384 -0.2896
 5493TIP3   OH216442   0.475   2.668   1.317 -0.2469  0.4495 -0.1726
 5493TIP3    H116443   0.518   2.584   1.334  0.7455  0.8270 -0.7663
 5493TIP3    H216444   0.382   2.649   1.329  0.0073 -0.5615  0.4107
 5494TIP3   OH216445   4.448   1.998   1.369  0.1265 -0.1388  0.3016
 5494TIP3    H116446   4.489   2.000   1.455 -0.9636 -0.9053  0.8641
 5494TIP3    H216447   4.434   1.905   1.352  0.1171  0.0209 -0.6072
 5495TIP3   OH216448   0.856   5.139   0.152  1.0835  0.6276  0.8053
 5495TIP3    H116449   0.877   5.071   0.088 -0.3400  1.6127 -0.7962
 5495TIP3    H216450   0.919   5.126   0.223  2.3918 -0.8301 -0.5537
 5496TIP3   OH216451   6.606   2.282   1.992 -0.1815 -0.0501  0.0860
 5496TIP3    H116452   6.621   2.319   2.079 -0.1794 -1.0367  0.5133
 5496TIP3    H216453   6.619   2.356   1.932  0.9160  0.3828  0.8390
 5497TIP3   OH216454   3.199   3.360   3.450 -0.1537  0.1619  0.2456
 5497TIP3    H116455   3.255   3.304   3.397 -0.1591  2.4823 -2.4633
 5497TIP3    H216456   3.110   3.330   3.430 -0.0792 -0.3724  0.6955
 5498TIP3   OH216457   4.224   0.407   0.919  0.0261  0.1327 -0.1662
 5498TIP3    H116458   4.286   0.348   0.960  0.5059  0.8932  0.2301
 5498TIP3    H216459   4.138   0.369   0.938  0.2250  0.4748  1.5895
 5499TIP3   OH216460   6.983   5.781   2.176 -0.0658  0.2562  0.0225
 5499TIP3    H116461   7.068   5.802   2.215 -0.6965 -0.3391  1.8186
 5499TIP3    H216462   6.985   5.686   2.165 -0.4568  0.2536 -0.0187
 5500TIP3   OH216463   1.178   0.516   5.474  0.3592  0.2312 -0.4563
 5500TIP3    H116464   1.186   0.438   5.418 -1.7078  0.9375 -1.8547
 5500TIP3    H216465   1.086   0.541   5.466  0.4788  1.5658  1.7152
 5501TIP3   OH216466   4.288   6.433   1.899  0.5681  0.1644  0.0041
 5501TIP3    H116467   4.264   6.340   1.891  0.7433  0.2016 -1.1508
 5501TIP3    H216468   4.239   6.476   1.829  1.3567  0.7644 -0.1915
 5502TIP3   OH216469   0.274   3.372   2.024 -0.0806  0.2579  0.1770
 5502TIP3    H116470   0.342   3.409   2.080 -0.1136 -1.0853  1.1680
 5502TIP3    H216471   0.208   3.339   2.085 -0.2669 -0.9760 -0.6394
 5503TIP3   OH216472   3.526   0.785   3.712  0.9922  0.5297  0.3361
 5503TIP3    H116473   3.455   0.811   3.771  1.4666  1.2568  0.5912
 5503TIP3    H216474   3.485   0.723   3.651  0.5281 -0.3581  1.5171
 5504TIP3   OH216475   4.618   3.592   3.825  0.3085 -0.1570  0.1146
 5504TIP3    H116476   4.695   3.646   3.843  0.3027 -0.0128 -0.3071
 5504TIP3    H216477   4.557   3.650   3.780  0.0607 -0.3471  0.2027
 5505TIP3   OH216478   6.306   6.785   3.095  0.2756 -0.2237 -0.1073
 5505TIP3    H116479   6.228   6.782   3.150  0.0803 -1.5220 -0.4162
 5505TIP3    H216480   6.274   6.771   3.006  0.8827 -1.2567 -0.1890
 5506TIP3   OH216481   5.915   1.220   0.764 -0.2581  0.0850  0.4130
 5506TIP3    H116482   5.844   1.226   0.701  1.3872 -0.2409 -1.5561
 5506TIP3    H216483   5.916   1.128   0.790 -0.7929  0.1764  0.7863
 5507TIP3   OH216484   3.775   4.868   1.449  0.2155 -0.5527 -0.1102
 5507TIP3    H116485   3.687   4.838   1.425 -0.2297  1.5828 -1.3711
 5507TIP3    H216486   3.767   4.894   1.541 -1.0070  1.2965 -0.6838
 5508TIP3   OH216487   5.294   5.172   3.986  0.3257  0.3411  0.3308
 5508TIP3    H116488   5.372   5.121   3.962  0.3662  0.1773  0.7888
 5508TIP3    H216489   5.221   5.114   3.967  0.3380  0.3510  0.2543
 5509TIP3   OH216490   2.545   2.180   3.820  0.1554  0.0272  0.3872
 5509TIP3    H116491   2.560   2.117   3.890 -0.3737  0.7451  1.1597
 5509TIP3    H216492   2.593   2.258   3.847 -0.1132  0.3382 -0.0189
 5510TIP3   OH216493   2.013   4.209   0.337  0.3337  0.3116 -0.2230
 5510TIP3    H116494   2.054   4.278   0.388 -0.6783 -0.8019  2.2933
 5510TIP3    H216495   2.041   4.224   0.247  3.2600  1.6757  0.8188
 5511TIP3   OH216496   1.817   2.311   4.142 -0.3860  0.1751 -0.2678
 5511TIP3    H116497   1.890   2.356   4.099  1.2671 -1.2258  0.9075
 5511TIP3    H216498   1.739   2.355   4.110  1.0323  2.7390 -0.4438
 5512TIP3   OH216499   1.232   2.986   4.065  0.1295 -0.0246  0.2106
 5512TIP3    H116500   1.311   2.952   4.023 -1.4233  0.3352 -3.3726
 5512TIP3    H216501   1.195   2.911   4.112  2.2046 -0.3586  1.4007
 5513TIP3   OH216502   0.712   2.876   4.608 -0.2172  0.9789 -0.0015
 5513TIP3    H116503   0.742   2.955   4.564  0.7079  0.8713  0.4238
 5513TIP3    H216504   0.751   2.804   4.557  1.2163  0.8558  1.1929
 5514TIP3   OH216505   1.967   1.187   3.967 -0.4236 -0.1137  0.1919
 5514TIP3    H116506   1.881   1.204   3.928 -0.1166 -0.2616 -0.5517
 5514TIP3    H216507   1.954   1.108   4.020 -0.2947 -1.2930 -1.4622
 5515TIP3   OH216508   3.865   3.253   3.476  0.2400  0.3557  0.3504
 5515TIP3    H116509   3.875   3.307   3.397 -0.3389  0.9625  0.6732
 5515TIP3    H216510   3.848   3.317   3.546  1.8513 -0.0803  1.1965
 5516TIP3   OH216511   1.974   3.202   0.206  0.1011  0.3123 -0.2899
 5516TIP3    H116512   1.943   3.198   0.297 -3.1672 -0.6347 -1.2985
 5516TIP3    H216513   1.965   3.294   0.181  0.7369  0.5233  0.2314
 5517TIP3   OH216514   3.406   1.330   4.717 -0.0914 -0.0516 -0.4790
 5517TIP3    H116515   3.323   1.286   4.735  0.9071 -1.0844  1.9889
 5517TIP3    H216516   3.382   1.423   4.709 -1.3287 -0.1075  1.8262
 5518TIP3   OH216517   4.441   4.373   2.613  0.4521 -0.4448 -0.5459
 5518TIP3    H116518   4.523   4.367   2.662  0.0452  0.9811  0.3472
 5518TIP3    H216519   4.372   4.366   2.679 -0.1245  0.3079 -1.0481
 5519TIP3   OH216520   3.124   0.395   5.365 -0.0348 -0.1545 -0.1748
 5519TIP3    H116521   3.061   0.349   5.420 -0.3983  0.0092 -0.4502
 5519TIP3    H216522   3.167   0.325   5.314 -0.3492 -0.2193 -0.3517
 5520TIP3   OH216523   0.405   6.669   2.466 -0.0901 -0.3124  0.0314
 5520TIP3    H116524   0.401   6.593   2.407 -1.5890  0.7756 -1.3548
 5520TIP3    H216525   0.357   6.738   2.420 -1.4615  0.5853  2.5787
 5521TIP3   OH216526   2.489   4.862   4.863 -0.0237 -0.0589 -0.2528
 5521TIP3    H116527   2.437   4.876   4.784 -0.5077  1.5514  0.3181
 5521TIP3    H216528   2.470   4.772   4.888 -3.0017  0.6148  0.2500
 5522TIP3   OH216529   2.234   0.127   5.398 -0.8545 -0.4560  0.1028
 5522TIP3    H116530   2.224   0.106   5.491 -1.5506  1.0946  0.4089
 5522TIP3    H216531   2.302   0.195   5.395 -2.9007  1.7136 -0.1422
 5523TIP3   OH216532   4.110   6.132   4.248 -0.1546  0.3965  0.0338
 5523TIP3    H116533   4.168   6.057   4.233  0.4309  0.6841  0.8115
 5523TIP3    H216534   4.153   6.204   4.203 -0.4324  0.3995 -0.2343
 5524TIP3   OH216535   5.334   3.933   1.769 -1.0201  0.1886  0.3293
 5524TIP3    H116536   5.262   3.975   1.722 -0.6318 -0.9018 -1.2918
 5524TIP3    H216537   5.353   3.854   1.720  0.3238 -0.3152  1.5738
 5525TIP3   OH216538   2.337   5.224   4.812  0.2570  0.4379  0.3924
 5525TIP3    H116539   2.407   5.245   4.750 -0.4787  0.1034 -0.5657
 5525TIP3    H216540   2.292   5.307   4.827  0.0741  0.4066  0.0202
 5526TIP3   OH216541   4.750   0.270   5.246  0.4320  0.4366  0.2957
 5526TIP3    H116542   4.770   0.264   5.153  1.1207  0.3840  0.4385
 5526TIP3    H216543   4.730   0.180   5.273  1.8102  0.1754  0.5256
 5527TIP3   OH216544   3.469   4.211   1.258 -0.0128 -0.0442  0.0613
 5527TIP3    H116545   3.417   4.272   1.206 -1.3811 -2.1712 -1.1975
 5527TIP3    H216546   3.538   4.181   1.199  0.3237 -0.1430  0.4934
 5528TIP3   OH216547   4.891   0.350   0.587 -0.0669 -0.0195  0.0498
 5528TIP3    H116548   4.826   0.364   0.655 -0.7046 -1.3593 -0.2465
 5528TIP3    H216549   4.849   0.381   0.507  0.5171  1.1517  0.1779
 5529TIP3   OH216550   3.589   6.056   1.706  0.5765 -0.4121  0.2007
 5529TIP3    H116551   3.619   6.074   1.795  0.6455 -1.2626  0.3524
 5529TIP3    H216552   3.652   6.102   1.650  0.4649  0.2201  0.5887
 5530TIP3   OH216553   5.718   4.004   4.375 -0.1285  0.1415 -0.0401
 5530TIP3    H116554   5.758   4.044   4.298 -0.0392 -1.5096 -0.9067
 5530TIP3    H216555   5.634   3.971   4.343 -1.2600  1.6694  1.2317
 5531TIP3   OH216556   2.688   6.786   0.585 -0.3104 -0.6193  0.6272
 5531TIP3    H116557   2.701   6.705   0.634  1.1981 -0.7484  0.0614
 5531TIP3    H216558   2.775   6.809   0.554 -1.2403 -0.7329 -2.3003
 5532TIP3   OH216559   5.978   6.451   5.690  0.6431  0.1867  0.1352
 5532TIP3    H116560   5.950   6.532   5.733 -0.5613 -0.6864  1.0871
 5532TIP3    H216561   5.932   6.450   5.607 -1.1721 -0.5586  1.0909
 5533TIP3   OH216562   4.454   1.407   4.063 -0.4077 -0.3656 -0.1760
 5533TIP3    H116563   4.462   1.360   4.146 -0.7724  0.7107  0.4891
 5533TIP3    H216564   4.369   1.381   4.028  0.3128 -1.8707 -0.9098
 5534TIP3   OH216565   0.694   3.077   4.815  0.3620 -0.0630  0.3375
 5534TIP3    H116566   0.709   2.988   4.781  0.8034 -0.0640  0.5223
 5534TIP3    H216567   0.731   3.074   4.904 -3.7422 -1.1073  2.2840
 5535TIP3   OH216568   4.402   3.301   5.050 -0.2765 -0.8327 -0.2755
 5535TIP3    H116569   4.478   3.272   5.100  1.0826 -2.0480 -2.8519
 5535TIP3    H216570   4.328   3.292   5.111  1.3731 -1.0873  1.8181
 5536TIP3   OH216571   3.539   6.096   3.992 -0.1822  0.2184 -0.0596
 5536TIP3    H116572   3.510   6.006   4.002 -0.7382  0.4660  0.5998
 5536TIP3    H216573   3.597   6.111   4.067  1.9390 -0.3563 -1.4895
 5537TIP3   OH216574   1.062   5.985   2.645  0.4564  0.9984  0.1923
 5537TIP3    H116575   1.101   6.072   2.636  0.8656  0.6177 -2.9954
 5537TIP3    H216576   0.971   6.002   2.670  0.6175  2.3175 -0.0603
 5538TIP3   OH216577   2.891   3.379   4.217 -0.2881 -0.1681  0.6008
 5538TIP3    H116578   2.880   3.315   4.288  1.4351  0.9379  1.9438
 5538TIP3    H216579   2.832   3.451   4.240  0.5005  0.3302  1.1268
 5539TIP3   OH216580   1.027   6.453   1.112  0.4910  0.3596  0.0525
 5539TIP3    H116581   0.962   6.385   1.091  1.5074 -0.8425  0.6974
 5539TIP3    H216582   0.999   6.529   1.060 -1.0963 -0.2997 -0.1279
 5540TIP3   OH216583   3.237   6.316   0.676  0.3194 -0.1714 -0.5629
 5540TIP3    H116584   3.287   6.364   0.610 -0.5968 -0.9115 -1.8564
 5540TIP3    H216585   3.168   6.272   0.626 -2.2060  1.4971  1.1997
 5541TIP3   OH216586   5.090   6.301   2.668 -0.0124  0.4498  0.1569
 5541TIP3    H116587   5.141   6.378   2.642  0.2803 -0.6581 -2.9766
 5541TIP3    H216588   5.124   6.230   2.613 -0.9812 -1.7024  2.1905
 5542TIP3   OH216589   6.723   5.005   4.846  0.2137 -0.7471  0.8412
 5542TIP3    H116590   6.766   5.016   4.930  0.7821 -0.0184  0.4695
 5542TIP3    H216591   6.717   5.094   4.810 -0.4738 -0.9881  0.3353
 5543TIP3   OH216592   1.369   6.092   4.600  0.6008 -0.2425  0.3121
 5543TIP3    H116593   1.375   6.016   4.542  2.4027 -0.8003  1.1431
 5543TIP3    H216594   1.296   6.072   4.659  0.9999 -1.3191  0.4715
 5544TIP3   OH216595   0.194   0.882   3.918  0.1836  0.3662 -0.0598
 5544TIP3    H116596   0.284   0.865   3.889 -0.4791 -2.3411 -0.8280
 5544TIP3    H216597   0.142   0.874   3.838 -0.9179  0.4139  0.6403
 5545TIP3   OH216598   0.919   2.710   0.296  0.3157 -0.1975 -0.4904
 5545TIP3    H116599   0.942   2.800   0.275 -0.1702 -0.0524 -0.3994
 5545TIP3    H216600   0.981   2.657   0.246  2.4969  0.2018  1.5700
 5546TIP3   OH216601   0.192   5.475   4.095 -0.2327 -0.2316 -0.1007
 5546TIP3    H116602   0.194   5.384   4.125  0.5086 -0.5719 -1.1361
 5546TIP3    H216603   0.262   5.518   4.144  0.7088 -0.6910 -1.0136
 5547TIP3   OH216604   2.852   6.239   5.203 -0.3939 -0.5232  0.8300
 5547TIP3    H116605   2.853   6.143   5.212 -0.1872 -0.6495 -0.4599
 5547TIP3    H216606   2.759   6.262   5.201 -0.4458 -0.7856  0.2419
 5548TIP3   OH216607   5.678   3.361   1.287  0.5564 -0.1324  0.3951
 5548TIP3    H116608   5.719   3.276   1.271  0.5952  0.2083 -1.5217
 5548TIP3    H216609   5.674   3.402   1.201 -1.9922  0.6786  0.8195
 5549TIP3   OH216610   6.253   1.495   2.121 -0.6060 -0.0658  0.3128
 5549TIP3    H116611   6.294   1.493   2.035 -2.3088  1.2514 -0.5777
 5549TIP3    H216612   6.268   1.407   2.156  2.6328  0.2258 -0.0378
 5550TIP3   OH216613   6.252   6.455   5.675 -0.2291  0.1410  0.0016
 5550TIP3    H116614   6.237   6.515   5.749 -0.1028 -1.0766  1.0547
 5550TIP3    H216615   6.164   6.431   5.646 -0.2869  1.3821 -0.9092
 5551TIP3   OH216616   0.938   1.040   2.865 -0.0941  0.2091  0.2206
 5551TIP3    H116617   0.990   1.094   2.925  1.1748 -0.7190 -0.0062
 5551TIP3    H216618   0.953   1.079   2.779  0.2025 -0.0375  0.1598
 5552TIP3   OH216619   2.213   0.306   0.962 -0.4336  0.3613 -0.0985
 5552TIP3    H116620   2.139   0.313   1.023 -0.6524 -1.7287 -0.0405
 5552TIP3    H216621   2.173   0.312   0.875 -0.8154 -1.3028 -0.0822
 5553TIP3   OH216622   3.385   6.211   1.216  0.2750  0.3869 -0.4628
 5553TIP3    H116623   3.316   6.221   1.150 -2.3014 -0.8023  1.8171
 5553TIP3    H216624   3.428   6.129   1.194 -0.2008  0.2735 -0.9928
 5554TIP3   OH216625   2.588   0.806   5.194  0.1405  0.2233 -0.6439
 5554TIP3    H116626   2.574   0.818   5.288  0.2913 -1.9899 -0.2678
 5554TIP3    H216627   2.574   0.892   5.156  0.2963  1.2293  1.4335
 5555TIP3   OH216628   1.418   2.088   2.045  0.4529 -0.2486 -0.1742
 5555TIP3    H116629   1.349   2.154   2.055  0.6118 -0.2689  1.2706
 5555TIP3    H216630   1.419   2.068   1.951  0.3063  1.7002 -0.6334
 5556TIP3   OH216631   1.876   3.919   3.311  0.5452 -0.4129 -0.0943
 5556TIP3    H116632   1.792   3.900   3.351  1.2849  0.1983  1.8480
 5556TIP3    H216633   1.879   3.864   3.233 -0.9958 -1.5859  0.6365
 5557TIP3   OH216634   3.665   6.707   5.476  0.0492  0.3604 -0.4676
 5557TIP3    H116635   3.619   6.623   5.481  2.1157 -0.9858 -2.3821
 5557TIP3    H216636   3.602   6.766   5.433 -1.1553 -0.3749  0.2214
 5558TIP3   OH216637   7.007   4.044   0.028  0.5807 -0.4965  0.0424
 5558TIP3    H116638   7.018   4.136   0.005 -0.2801 -0.7906 -1.6712
 5558TIP3    H216639   6.920   4.040   0.068  1.1389 -0.3857  1.3413
 5559TIP3   OH216640   6.421   1.437   0.948  0.3344 -0.7302  0.1235
 5559TIP3    H116641   6.456   1.517   0.988 -1.0376  0.3294 -0.6934
 5559TIP3    H216642   6.388   1.386   1.021  0.9190 -0.4106  0.6259
 5560TIP3   OH216643   4.603   1.080   3.751 -0.4401 -0.7037  0.3878
 5560TIP3    H116644   4.515   1.079   3.713 -1.4232 -0.1938  2.5249
 5560TIP3    H216645   4.628   0.987   3.756  0.0170 -0.7792 -1.9812
 5561TIP3   OH216646   0.667   4.054   4.794 -0.3686 -0.4430  0.7318
 5561TIP3    H116647   0.584   4.067   4.747 -1.2487 -0.5622  2.1762
 5561TIP3    H216648   0.734   4.080   4.732 -1.4989 -0.1796 -0.4299
 5562TIP3   OH216649   1.226   4.138   1.236 -0.1509  0.1391  0.3931
 5562TIP3    H116650   1.256   4.181   1.156 -1.1508  0.4441  0.1658
 5562TIP3    H216651   1.293   4.073   1.255  0.5396  0.6591 -0.2023
 5563TIP3   OH216652   0.465   1.762   0.723  0.3966  0.5615  0.1394
 5563TIP3    H116653   0.526   1.694   0.752 -0.2925  0.3276  1.0776
 5563TIP3    H216654   0.417   1.722   0.650  1.5689  0.8646 -0.8298
 5564TIP3   OH216655   5.362   5.729   5.036 -0.0789  0.2692  0.6351
 5564TIP3    H116656   5.298   5.716   4.967  0.5748 -1.1887  0.2642
 5564TIP3    H216657   5.363   5.823   5.051 -0.1279  0.6509 -1.4647
 5565TIP3   OH216658   5.705   4.741   5.707  0.3752 -0.7793 -0.8807
 5565TIP3    H116659   5.682   4.820   5.660 -1.0058 -0.3228  0.4932
 5565TIP3    H216660   5.637   4.731   5.773  1.2985 -2.3325 -0.0962
 5566TIP3   OH216661   3.888   4.901   3.144  0.0198 -0.1574  0.4448
 5566TIP3    H116662   3.816   4.873   3.200 -1.4855  0.7003 -0.9422
 5566TIP3    H216663   3.885   4.841   3.070 -0.1344  0.6622 -0.2335
 5567TIP3   OH216664   2.962   3.899   4.776 -0.1369 -0.2443 -0.4141
 5567TIP3    H116665   2.935   3.966   4.714  1.6611 -0.7104 -1.8123
 5567TIP3    H216666   2.998   3.829   4.720 -1.2903 -2.0635  1.0201
 5568TIP3   OH216667   2.085   0.884   4.454  0.2059  0.3937  0.2524
 5568TIP3    H116668   2.033   0.810   4.485  2.3260 -1.9521 -1.3640
 5568TIP3    H216669   2.175   0.852   4.457  1.5599  3.8535  1.8632
 5569TIP3   OH216670   4.879   1.655   2.761  0.2942 -0.1290 -0.0156
 5569TIP3    H116671   4.970   1.680   2.774  0.3187  0.0617 -0.5321
 5569TIP3    H216672   4.849   1.711   2.689  0.1331 -1.0603 -0.6912
 5570TIP3   OH216673   0.150   0.254   1.435 -0.4993 -0.5604  0.2664
 5570TIP3    H116674   0.188   0.244   1.348 -1.0713 -0.5135  0.0079
 5570TIP3    H216675   0.124   0.166   1.461 -2.4003 -0.2927 -0.5741
 5571TIP3   OH216676   7.094   4.741   5.339  0.2936 -0.2728  0.5573
 5571TIP3    H116677   7.049   4.821   5.310  1.4304 -0.3591 -1.5843
 5571TIP3    H216678   7.087   4.743   5.435 -0.5664  1.8676  0.4932
 5572TIP3   OH216679   0.748   3.204   2.581  0.2919  0.5477  0.3186
 5572TIP3    H116680   0.666   3.156   2.591  1.0939 -0.8357  0.5508
 5572TIP3    H216681   0.748   3.233   2.490 -1.3626  2.3644  0.8343
 5573TIP3   OH216682   1.925   5.908   0.266  0.0885  0.3162 -0.4894
 5573TIP3    H116683   1.928   5.993   0.221  1.2842  0.0046 -1.0355
 5573TIP3    H216684   1.927   5.931   0.359 -0.0575  0.8995 -0.6233
 5574TIP3   OH216685   3.795   5.268   3.096 -0.5792 -0.3139 -1.0212
 5574TIP3    H116686   3.711   5.303   3.125 -0.8202 -0.9313 -0.9692
 5574TIP3    H216687   3.794   5.176   3.123 -0.6100 -0.7869 -2.5293
 5575TIP3   OH216688   5.943   5.120   0.952 -0.1261 -0.0667  0.4718
 5575TIP3    H116689   6.015   5.071   0.991 -1.8236 -2.5873  0.7408
 5575TIP3    H216690   5.869   5.104   1.011 -1.6680 -0.3233 -1.4273
 5576TIP3   OH216691   1.987   5.740   0.027 -0.4786 -0.1213  0.3874
 5576TIP3    H116692   1.969   5.784   0.110  1.0492  1.6542 -0.1869
 5576TIP3    H216693   1.938   5.790  -0.038  2.5183  1.8714 -0.5054
 5577TIP3   OH216694   4.750   0.843   3.809 -0.5353 -0.5730  0.1556
 5577TIP3    H116695   4.819   0.910   3.810  0.9838 -2.0002 -1.1993
 5577TIP3    H216696   4.714   0.843   3.897  0.6262  0.8349  0.6638
 5578TIP3   OH216697   7.053   5.839   3.945 -0.6191 -0.9272  0.4330
 5578TIP3    H116698   7.029   5.868   4.033  1.2761  3.4324 -0.2125
 5578TIP3    H216699   6.986   5.875   3.888  0.9012  1.0145 -0.2590
 5579TIP3   OH216700   1.617   5.293   4.438  0.0391 -0.1378 -0.6483
 5579TIP3    H116701   1.670   5.269   4.362  0.6893 -0.0160 -0.2393
 5579TIP3    H216702   1.607   5.211   4.487  0.8111  0.0623 -0.1415
 5580TIP3   OH216703   2.748   0.687   3.047 -0.4715  0.0116  0.2349
 5580TIP3    H116704   2.743   0.738   2.966  1.7898 -2.1777 -1.4686
 5580TIP3    H216705   2.832   0.713   3.086 -0.4478 -0.6013  0.6017
 5581TIP3   OH216706   1.379   1.989   5.843  0.4182  0.1774  0.2398
 5581TIP3    H116707   1.331   1.921   5.796  0.6531 -0.4274  0.8540
 5581TIP3    H216708   1.454   2.009   5.787 -0.1337  0.5946 -0.3717
 5582TIP3   OH216709   5.341   3.646   3.999 -0.4931  0.3738  0.3146
 5582TIP3    H116710   5.327   3.651   4.093 -0.9648  2.9977  0.2006
 5582TIP3    H216711   5.254   3.628   3.962 -0.4838  0.2787  0.3393
 5583TIP3   OH216712   0.286   4.007   2.724 -0.1916  0.2093 -0.0682
 5583TIP3    H116713   0.299   3.936   2.662 -0.9439  0.8253 -0.9581
 5583TIP3    H216714   0.316   3.972   2.808 -0.7485 -1.2134 -0.4457
 5584TIP3   OH216715   1.863   0.975   4.848  0.1142 -0.2887  0.1058
 5584TIP3    H116716   1.908   0.997   4.766 -0.0455  0.5724  0.2477
 5584TIP3    H216717   1.789   0.921   4.820 -0.8176  1.2407 -0.4923
 5585TIP3   OH216718   1.110   0.598   4.404 -0.5584  0.2239 -0.2180
 5585TIP3    H116719   1.084   0.679   4.361 -1.2494  0.8569  1.3172
 5585TIP3    H216720   1.074   0.528   4.349 -1.3193  0.9949 -0.7171
 5586TIP3   OH216721   6.195   2.964   5.755 -0.0741 -0.2057  0.3322
 5586TIP3    H116722   6.226   2.972   5.665  0.1130  1.9284  0.5290
 5586TIP3    H216723   6.275   2.953   5.807  0.0402  0.9195  0.4259
 5587TIP3   OH216724   2.524   1.325   4.797 -0.1179  0.2451  0.1671
 5587TIP3    H116725   2.468   1.395   4.831 -0.0711  0.3832 -0.0336
 5587TIP3    H216726   2.596   1.372   4.754 -0.2365  0.0760 -0.2207
 5588TIP3   OH216727   1.685   2.828   3.706  0.3205  0.1415  0.4357
 5588TIP3    H116728   1.772   2.811   3.670  1.6438  2.4346  2.2499
 5588TIP3    H216729   1.642   2.882   3.641  1.2615  1.1187  0.5988
 5589TIP3   OH216730   0.520   2.880   4.958 -0.2624 -0.3601  0.5690
 5589TIP3    H116731   0.534   2.968   4.923 -3.0492  0.1406  0.4443
 5589TIP3    H216732   0.564   2.881   5.043  0.9048  0.6702 -0.0096
 5590TIP3   OH216733   0.763   4.468   4.343  0.1290 -0.7768 -0.9380
 5590TIP3    H116734   0.769   4.536   4.276  2.9029  0.3233  0.2477
 5590TIP3    H216735   0.771   4.386   4.294  1.3182 -0.0380 -2.0815
 5591TIP3   OH216736   0.368   5.635   1.553 -0.2757  0.5381 -0.1480
 5591TIP3    H116737   0.374   5.646   1.647  1.2659  0.6312 -0.2352
 5591TIP3    H216738   0.305   5.564   1.540 -3.3546  2.9300  0.7813
 5592TIP3   OH216739   4.358   3.613   5.031 -0.8436 -0.0218 -0.3886
 5592TIP3    H116740   4.277   3.648   5.067 -1.0719 -1.6130  0.7257
 5592TIP3    H216741   4.350   3.518   5.039  2.0389 -0.2225  2.0018
 5593TIP3   OH216742   1.499   6.458   4.161  0.2985 -0.3864 -0.6095
 5593TIP3    H116743   1.536   6.480   4.247  3.1521 -0.5955 -1.6627
 5593TIP3    H216744   1.519   6.364   4.150 -1.7283 -0.8380 -0.7713
 5594TIP3   OH216745   3.327   5.467   0.819 -0.1421 -0.1226  0.1738
 5594TIP3    H116746   3.386   5.509   0.757 -3.0037 -0.9791 -3.4921
 5594TIP3    H216747   3.365   5.381   0.834  0.0743 -0.3158 -1.3466
 5595TIP3   OH216748   3.683   3.100   1.920  0.2565 -0.1035  0.3347
 5595TIP3    H116749   3.666   3.061   2.006 -0.9629 -0.1638  0.0823
 5595TIP3    H216750   3.633   3.182   1.921  0.4717  0.0361 -0.2089
 5596TIP3   OH216751   0.279   0.600   3.986 -0.3834 -0.1529 -0.3097
 5596TIP3    H116752   0.322   0.558   4.061 -0.7716  0.2392  0.1384
 5596TIP3    H216753   0.187   0.580   3.997 -0.5033  0.3266 -0.4100
 5597TIP3   OH216754   2.399   1.214   1.235 -0.5376  0.1153 -0.3955
 5597TIP3    H116755   2.377   1.263   1.156  1.0046  0.0444 -0.9155
 5597TIP3    H216756   2.488   1.243   1.257 -0.9194  0.1266  1.3173
 5598TIP3   OH216757   2.597   0.603   2.354 -0.4476 -0.2296 -0.5647
 5598TIP3    H116758   2.683   0.608   2.396 -0.4314  1.3021 -0.7150
 5598TIP3    H216759   2.610   0.542   2.281  0.2876 -0.6335 -0.1163
 5599TIP3   OH216760   1.749   3.553   1.412  0.1130 -0.2703 -0.2437
 5599TIP3    H116761   1.761   3.648   1.419  1.7389 -0.4942  0.5317
 5599TIP3    H216762   1.687   3.532   1.482  0.1135  0.1677 -0.1038
 5600TIP3   OH216763   2.764   1.330   0.841 -0.0591 -0.1817  0.4371
 5600TIP3    H116764   2.709   1.257   0.871  1.1262 -0.9190  0.8987
 5600TIP3    H216765   2.769   1.388   0.916 -0.3838  0.0020  0.3191
 5601TIP3   OH216766   2.477   2.405   4.274  0.2720  0.1728  0.3032
 5601TIP3    H116767   2.485   2.424   4.368 -0.1235  0.9482  0.1911
 5601TIP3    H216768   2.412   2.335   4.269  1.1585 -0.7010  0.6774
 5602TIP3   OH216769   5.737   5.966   3.482  0.0266 -0.3543 -0.2001
 5602TIP3    H116770   5.707   5.913   3.409 -0.7161 -2.3736  1.4641
 5602TIP3    H216771   5.689   6.049   3.473 -0.6531 -0.8702 -1.5410
 5603TIP3   OH216772   5.616   2.337   2.313 -0.2660  0.2061  0.0970
 5603TIP3    H116773   5.530   2.295   2.310 -0.3301  0.3806 -0.5281
 5603TIP3    H216774   5.657   2.313   2.230 -0.3681  1.5255 -0.3560
 5604TIP3   OH216775   3.924   2.012   2.634  0.0032 -0.6356  0.2827
 5604TIP3    H116776   3.888   2.022   2.722 -1.8906 -1.2248 -0.3747
 5604TIP3    H216777   3.935   1.917   2.623 -0.6918 -0.6363 -0.4490
 5605TIP3   OH216778   2.933   4.177   1.119 -0.2192  0.0917  0.7262
 5605TIP3    H116779   2.859   4.136   1.075 -1.6818  1.6269  1.6380
 5605TIP3    H216780   2.939   4.133   1.204  0.2289 -0.3443  0.4745
 5606TIP3   OH216781   4.780   0.222   3.962  0.2405  0.1428  0.3198
 5606TIP3    H116782   4.762   0.142   3.912  2.3883  0.9912 -2.0532
 5606TIP3    H216783   4.704   0.278   3.945  0.2033 -0.1978 -0.7174
 5607TIP3   OH216784   1.615   0.875   5.160  0.4864  0.1833  0.5530
 5607TIP3    H116785   1.653   0.798   5.118  0.2214  1.2445 -1.7915
 5607TIP3    H216786   1.594   0.847   5.249  0.5325 -2.3780 -0.1916
 5608TIP3   OH216787   0.349   0.985   3.671 -0.3337 -0.1586 -0.1597
 5608TIP3    H116788   0.288   0.919   3.637  0.6843 -0.3924 -1.6045
 5608TIP3    H216789   0.433   0.964   3.631 -0.0021  2.0928 -0.8138
 5609TIP3   OH216790   6.020   0.331   1.481  0.5115 -0.5311  0.2175
 5609TIP3    H116791   6.046   0.326   1.573  0.7501  1.4510  0.3039
 5609TIP3    H216792   6.056   0.252   1.441 -1.5530 -2.6650  2.2434
 5610TIP3   OH216793   4.648   1.540   5.793 -0.3302 -0.2754  0.3991
 5610TIP3    H116794   4.742   1.547   5.776  0.0670 -0.9408  2.0458
 5610TIP3    H216795   4.638   1.571   5.884 -2.0609  1.9479 -0.4371
 5611TIP3   OH216796   7.021   0.504   3.043  0.3962  0.1524  0.3208
 5611TIP3    H116797   7.109   0.532   3.071  1.0076 -1.5232  0.1477
 5611TIP3    H216798   7.009   0.546   2.958  0.8183  0.7888  0.5625
 5612TIP3   OH216799   6.462   3.856   0.947 -0.0026 -0.2133  0.0756
 5612TIP3    H116800   6.516   3.782   0.919  0.7521  1.4025 -3.3331
 5612TIP3    H216801   6.373   3.831   0.925  0.2360 -0.1616 -0.9801
 5613TIP3   OH216802   6.548   4.876   0.120  0.0175  0.2654 -0.4723
 5613TIP3    H116803   6.600   4.823   0.181  0.6753  1.1304 -0.2646
 5613TIP3    H216804   6.458   4.850   0.137  0.3416 -1.0318 -0.6112
 5614TIP3   OH216805   3.335   2.499   4.361 -0.1730 -0.1628  0.3979
 5614TIP3    H116806   3.382   2.456   4.432  0.8459 -0.4190 -0.3975
 5614TIP3    H216807   3.249   2.458   4.360  0.3336 -1.2613  0.5013
 5615TIP3   OH216808   1.330   0.534   3.830  0.0114 -0.7105  0.1457
 5615TIP3    H116809   1.255   0.530   3.771  0.1082 -0.4122  0.0031
 5615TIP3    H216810   1.370   0.619   3.813  1.1049 -1.3661 -0.6748
 5616TIP3   OH216811   1.329   5.662   4.790 -0.2168  0.0133 -0.2008
 5616TIP3    H116812   1.274   5.655   4.868  0.8263  0.8500  0.6453
 5616TIP3    H216813   1.416   5.681   4.824  0.7822 -1.9654 -1.4595
 5617TIP3   OH216814   4.111   1.810   4.843 -0.1914 -0.0279 -0.5899
 5617TIP3    H116815   4.163   1.756   4.783 -0.4534  0.7859 -1.5962
 5617TIP3    H216816   4.023   1.809   4.805 -0.2669  0.8327 -0.4606
 5618TIP3   OH216817   3.630   4.850   2.687 -0.0700  0.7223 -0.7924
 5618TIP3    H116818   3.597   4.806   2.609  1.0270 -1.2969 -0.1881
 5618TIP3    H216819   3.714   4.887   2.659 -0.5324  1.6282 -1.0307
 5619TIP3   OH216820   6.810   2.465   4.979  1.0943  0.4681  0.1008
 5619TIP3    H116821   6.820   2.370   4.984 -2.5467 -0.0349  0.7076
 5619TIP3    H216822   6.801   2.494   5.070 -0.0612  1.0019 -0.1526
 5620TIP3   OH216823   5.717   2.463   0.296 -0.1410 -0.2248  0.4210
 5620TIP3    H116824   5.729   2.380   0.343  2.5870 -0.0124  0.2500
 5620TIP3    H216825   5.734   2.441   0.204  1.0197  0.5484  0.4287
 5621TIP3   OH216826   6.727   2.059   3.663 -0.0630  0.0445 -0.5936
 5621TIP3    H116827   6.689   2.124   3.722  0.3984  0.7395 -1.0464
 5621TIP3    H216828   6.653   2.028   3.610 -0.1619  0.7406 -0.8721
 5622TIP3   OH216829   2.947   2.909   1.607  0.2044 -0.4755 -0.3149
 5622TIP3    H116830   2.953   2.956   1.524 -0.7488  0.4654  0.1207
 5622TIP3    H216831   3.033   2.922   1.648  0.4347 -0.3324 -0.8368
 5623TIP3   OH216832   3.287   4.495   3.440 -0.2282 -0.3242 -0.2434
 5623TIP3    H116833   3.197   4.513   3.410 -0.2084 -1.0492 -0.7566
 5623TIP3    H216834   3.330   4.454   3.364  0.8957  1.0706 -0.4011
 5624TIP3   OH216835   3.026   6.759   4.679  0.1263 -0.0755  0.6434
 5624TIP3    H116836   2.944   6.766   4.631  0.9905  1.4343 -0.7195
 5624TIP3    H216837   3.000   6.757   4.771 -1.4244  0.2944  0.2355
 5625TIP3   OH216838   4.189   2.270   3.877 -0.2750 -0.0227 -0.1268
 5625TIP3    H116839   4.173   2.345   3.820  1.0858 -0.2981 -0.9098
 5625TIP3    H216840   4.192   2.195   3.817  1.8426 -0.2300  0.1822
 5626TIP3   OH216841   7.108   3.402   0.252  0.5821  0.1627  0.4956
 5626TIP3    H116842   7.051   3.335   0.215  0.5172  1.0145 -1.0362
 5626TIP3    H216843   7.140   3.452   0.176  1.0546  1.5257  1.5328
 5627TIP3   OH216844   5.929   0.170   1.143 -0.5716  0.0408  0.2123
 5627TIP3    H116845   5.967   0.220   1.071  2.4448 -0.5476  1.2358
 5627TIP3    H216846   5.964   0.082   1.132 -1.3813 -0.4561  1.4573
 5628TIP3   OH216847   5.264   3.189   5.003 -0.3733  0.4174  0.4126
 5628TIP3    H116848   5.206   3.242   4.949  0.7600  1.8071  0.5062
 5628TIP3    H216849   5.352   3.215   4.977  0.2107 -0.5939  1.2802
 5629TIP3   OH216850   5.821   1.829   4.328  0.8086  0.0696  0.1499
 5629TIP3    H116851   5.910   1.840   4.362  0.8350  1.1223 -0.1984
 5629TIP3    H216852   5.803   1.736   4.335  2.3272 -0.3221 -0.7169
 5630TIP3   OH216853   5.259   1.921   5.180 -0.6168 -0.1036  0.3579
 5630TIP3    H116854   5.318   1.997   5.175 -0.3823 -0.3039 -0.0149
 5630TIP3    H216855   5.191   1.948   5.241 -2.3298  1.6633 -2.1187
 5631TIP3   OH216856   4.303   0.744   1.387  0.4873  0.2141  0.1420
 5631TIP3    H116857   4.225   0.743   1.443  0.5642  0.2971  0.2527
 5631TIP3    H216858   4.329   0.652   1.381  1.4985  0.3503  1.6923
 5632TIP3   OH216859   1.991   5.967   3.125  0.2091  0.4239 -0.0905
 5632TIP3    H116860   1.939   5.917   3.188  1.8594  1.4019  2.1925
 5632TIP3    H216861   1.931   5.982   3.052 -1.7392 -0.9983  1.0938
 5633TIP3   OH216862   3.282   5.801   4.275 -0.7565 -0.5714 -0.4499
 5633TIP3    H116863   3.266   5.809   4.369  0.2344  0.7418 -0.3568
 5633TIP3    H216864   3.290   5.707   4.260  0.9480 -0.7633  1.1480
 5634TIP3   OH216865   3.399   2.965   1.856 -0.0600  0.1506 -0.0575
 5634TIP3    H116866   3.392   2.870   1.858  2.4371 -0.0678  0.4918
 5634TIP3    H216867   3.469   2.983   1.793 -0.0757  1.6079  0.3135
 5635TIP3   OH216868   1.684   3.924   0.088  0.4073 -0.0172 -0.7484
 5635TIP3    H116869   1.751   3.933   0.156 -0.9325  0.8451  0.5175
 5635TIP3    H216870   1.666   4.014   0.060 -3.0661  0.2972  1.8895
 5636TIP3   OH216871   5.095   0.734   4.371  0.4414 -0.7285  0.1141
 5636TIP3    H116872   5.103   0.769   4.283 -0.0824  0.8672  0.6732
 5636TIP3    H216873   5.081   0.640   4.358  0.2672 -0.5041 -1.5013
 5637TIP3   OH216874   5.856   2.971   1.261 -0.3810 -0.1160 -0.4433
 5637TIP3    H116875   5.940   3.016   1.252 -0.3655  0.2374  1.1350
 5637TIP3    H216876   5.800   3.010   1.194 -0.0593  1.5491  0.2089
 5638TIP3   OH216877   3.431   1.448   1.987  0.3125  0.3952 -0.2662
 5638TIP3    H116878   3.415   1.472   2.078  3.3585 -1.1250  0.8061
 5638TIP3    H216879   3.492   1.514   1.954  0.5052  0.0380 -0.6512
 5639TIP3   OH216880   4.874   3.155   0.438  0.5549  0.3119  0.1420
 5639TIP3    H116881   4.917   3.070   0.445  0.8716  0.5121  0.6405
 5639TIP3    H216882   4.836   3.171   0.524  1.2227  1.0628  0.3078
 5640TIP3   OH216883   0.143   2.928   5.389 -0.1174  0.2525 -0.4526
 5640TIP3    H116884   0.192   2.899   5.313 -0.1442  1.4625 -0.9498
 5640TIP3    H216885   0.088   2.999   5.357 -1.0993 -0.0874  0.4167
 5641TIP3   OH216886   0.418   1.986   4.872 -0.1927  0.2300  0.0376
 5641TIP3    H116887   0.403   1.968   4.780 -0.5410 -0.5401  0.2384
 5641TIP3    H216888   0.478   2.061   4.872  0.9351 -0.6202 -0.8320
 5642TIP3   OH216889   1.414   6.470   4.463 -0.3189 -0.4023 -0.4759
 5642TIP3    H116890   1.437   6.379   4.444 -0.0025 -0.3127 -0.5280
 5642TIP3    H216891   1.469   6.493   4.538 -1.5276 -0.7380  0.5519
 5643TIP3   OH216892   0.583   4.978   5.000  0.1287 -0.0375  0.1490
 5643TIP3    H116893   0.545   5.052   4.952 -1.1872 -0.4914  0.4590
 5643TIP3    H216894   0.512   4.948   5.057  1.3000 -0.2497  1.5340
 5644TIP3   OH216895   3.812   0.498   5.564  0.1904  0.3946 -0.1170
 5644TIP3    H116896   3.846   0.413   5.536  0.9795 -0.0296  1.9476
 5644TIP3    H216897   3.826   0.555   5.489  0.2643 -1.1265 -1.3048
 5645TIP3   OH216898   0.628   5.091   5.702  0.0084  0.4585 -0.5855
 5645TIP3    H116899   0.574   5.051   5.770  0.4111  2.2419  0.8598
 5645TIP3    H216900   0.676   5.018   5.663 -2.7014 -1.0662 -1.3206
 5646TIP3   OH216901   5.441   1.138   5.395  0.1983  0.0715 -0.1221
 5646TIP3    H116902   5.474   1.051   5.416 -2.1920 -0.8254  0.1744
 5646TIP3    H216903   5.362   1.123   5.344  1.0410  2.1447 -2.2642
 5647TIP3   OH216904   5.844   1.297   2.850  0.3087  0.1314  0.6512
 5647TIP3    H116905   5.842   1.253   2.935  1.1595 -1.0424  0.0816
 5647TIP3    H216906   5.936   1.316   2.835  0.3688 -1.1178 -0.7302
 5648TIP3   OH216907   2.818   5.018   5.371 -0.5246  0.4341  0.2303
 5648TIP3    H116908   2.833   4.998   5.463 -1.1998  3.1369  1.0232
 5648TIP3    H216909   2.892   4.977   5.325  0.1722 -0.4179  2.0200
 5649TIP3   OH216910   5.600   5.225   2.965 -0.5761  0.2829 -0.5040
 5649TIP3    H116911   5.566   5.157   2.907 -0.4854 -2.1320  2.0750
 5649TIP3    H216912   5.524   5.255   3.015 -0.7132  2.5511 -1.9371
 5650TIP3   OH216913   0.738   6.501   2.128 -0.6838 -0.0589  0.1272
 5650TIP3    H116914   0.647   6.523   2.149 -0.0953  0.8804  1.9096
 5650TIP3    H216915   0.778   6.481   2.213  1.3204  1.7842 -0.2967
 5651TIP3   OH216916   0.253   4.540   0.773  0.0053  0.3378  0.2733
 5651TIP3    H116917   0.250   4.502   0.861  0.5515  0.7839  0.4917
 5651TIP3    H216918   0.330   4.500   0.733 -0.7298 -0.5264 -0.3252
 5652TIP3   OH216919   3.625   6.676   1.372 -0.2137  0.2240 -0.0306
 5652TIP3    H116920   3.566   6.600   1.375  1.3455 -1.0636 -0.0946
 5652TIP3    H216921   3.659   6.675   1.282  1.0518 -0.0123  0.4339
 5653TIP3   OH216922   0.082   4.853   1.978  0.3745 -0.0349  0.1008
 5653TIP3    H116923   0.041   4.774   2.013  0.7575 -0.1588  0.2721
 5653TIP3    H216924   0.043   4.925   2.028 -2.0562  0.1702 -1.8962
 5654TIP3   OH216925   1.311   1.043   3.383  0.0575 -0.1661  0.3751
 5654TIP3    H116926   1.327   1.125   3.428  1.1052 -1.7159  3.0873
 5654TIP3    H216927   1.226   1.014   3.415  0.0408 -0.5185  0.0291
 5655TIP3   OH216928   3.076   0.526   2.521 -0.1426  0.3254  0.2511
 5655TIP3    H116929   3.139   0.475   2.573  0.4812 -0.5410 -1.2882
 5655TIP3    H216930   2.991   0.507   2.561  0.5504  2.0812  2.8274
 5656TIP3   OH216931   0.744   0.819   0.700 -0.1488 -0.0898  0.8322
 5656TIP3    H116932   0.746   0.755   0.629  1.0451  2.8078 -1.9762
 5656TIP3    H216933   0.651   0.843   0.707 -0.2737 -0.3733  0.2419
 5657TIP3   OH216934   3.888   1.703   1.460  0.2780 -0.6064  0.2867
 5657TIP3    H116935   3.967   1.650   1.447  0.7227 -0.3597  1.7820
 5657TIP3    H216936   3.848   1.668   1.539 -1.4327 -1.0663 -0.7260
 5658TIP3   OH216937   5.645   5.217   0.602  0.0362  0.1342  0.4198
 5658TIP3    H116938   5.709   5.253   0.663 -0.5185  2.1378 -0.1011
 5658TIP3    H216939   5.613   5.293   0.553 -2.6108 -0.7912  0.5313
 5659TIP3   OH216940   6.280   6.351   1.880 -0.2331  0.1614 -0.0573
 5659TIP3    H116941   6.232   6.318   1.956 -1.7209  0.6834 -0.7305
 5659TIP3    H216942   6.365   6.308   1.885 -0.3766 -0.0004  1.7642
 5660TIP3   OH216943   2.955   3.993   3.573 -0.1896  0.2783 -0.3368
 5660TIP3    H116944   2.983   3.913   3.617  0.2161  0.7799  0.3540
 5660TIP3    H216945   2.976   3.979   3.481 -0.4275 -0.5313 -0.2726
 5661TIP3   OH216946   6.941   4.993   0.586  0.3007 -0.2308  0.1457
 5661TIP3    H116947   6.938   5.054   0.512  1.7340 -0.3552 -0.0507
 5661TIP3    H216948   7.030   5.001   0.620 -0.2997 -0.2340  1.8270
 5662TIP3   OH216949   6.714   5.055  -0.018  0.2411  0.6093  0.1997
 5662TIP3    H116950   6.651   4.996   0.023  0.6006  0.9554  1.2829
 5662TIP3    H216951   6.681   5.143   0.003 -1.3687  0.9190 -2.9975
 5663TIP3   OH216952   1.742   6.633   1.966  0.1492 -0.7826  0.0231
 5663TIP3    H116953   1.674   6.581   1.923 -2.2480  1.2828  1.0997
 5663TIP3    H216954   1.783   6.572   2.028 -1.0517 -1.9621 -0.2914
 5664TIP3   OH216955   0.144   0.737   1.256 -0.0199  0.3538 -0.8347
 5664TIP3    H116956   0.057   0.712   1.224 -0.9776  1.7141  0.5926
 5664TIP3    H216957   0.177   0.659   1.301 -0.6861 -0.0270 -1.0025
 5665TIP3   OH216958   3.466   0.893   0.780  0.1251 -0.1625  0.1731
 5665TIP3    H116959   3.390   0.896   0.723 -0.8828  0.4326  1.4972
 5665TIP3    H216960   3.539   0.871   0.722 -0.8930  0.1782 -1.2823
 5666TIP3   OH216961   1.281   3.073   0.297  0.1174 -0.1594 -0.7479
 5666TIP3    H116962   1.335   3.013   0.349  1.8483  0.2115 -2.0404
 5666TIP3    H216963   1.247   3.136   0.360 -0.6776 -1.6894  0.4368
 5667TIP3   OH216964   0.313   0.989   5.368 -0.5317  0.5736 -0.0278
 5667TIP3    H116965   0.239   1.019   5.421 -1.6538  0.0519 -1.2486
 5667TIP3    H216966   0.385   0.978   5.431 -2.0177 -0.7723  1.5073
 5668TIP3   OH216967   0.488   5.167   0.711  0.3426  0.6073  0.3417
 5668TIP3    H116968   0.438   5.106   0.657  1.6948  0.5355 -0.9176
 5668TIP3    H216969   0.540   5.111   0.769 -0.5288  0.6637  1.1947
 5669TIP3   OH216970   2.367   2.470   0.588 -0.7512  0.3191 -0.4306
 5669TIP3    H116971   2.359   2.508   0.675  0.0109  0.7519 -0.5427
 5669TIP3    H216972   2.457   2.488   0.561 -0.9875  0.2472 -1.3310
 5670TIP3   OH216973   6.139   3.828   4.678 -0.0315  0.6632  0.3075
 5670TIP3    H116974   6.061   3.797   4.631  1.1203 -0.0612 -1.2362
 5670TIP3    H216975   6.180   3.748   4.711  1.6324  0.6667 -1.5357
 5671TIP3   OH216976   6.239   0.438   4.003 -0.4553  0.3729  0.2306
 5671TIP3    H116977   6.190   0.391   3.935 -1.0675 -1.0013  1.5704
 5671TIP3    H216978   6.325   0.396   4.004  0.1227  1.4717 -0.7631
 5672TIP3   OH216979   3.145   5.901   2.357  0.0523 -0.1944  0.7491
 5672TIP3    H116980   3.211   5.969   2.367  0.8003 -0.7141 -0.4400
 5672TIP3    H216981   3.169   5.856   2.275 -3.4922  1.5907 -1.5436
 5673TIP3   OH216982   3.792   1.663   1.194 -0.1345 -0.1710 -0.3969
 5673TIP3    H116983   3.887   1.655   1.180  0.0251  0.1086  0.4927
 5673TIP3    H216984   3.761   1.573   1.198  0.3221 -0.2927  0.7532
 5674TIP3   OH216985   5.480   0.797   1.048  0.1241  0.1592 -0.8239
 5674TIP3    H116986   5.501   0.881   1.006 -1.7865  0.4670 -1.2565
 5674TIP3    H216987   5.392   0.777   1.018  0.6955 -2.2486 -1.0615
 5675TIP3   OH216988   1.964   1.420   0.100 -0.0128  0.2423 -0.1943
 5675TIP3    H116989   2.060   1.430   0.098 -0.1148  2.4655  1.7762
 5675TIP3    H216990   1.948   1.340   0.050  2.7036  0.8145 -2.2493
 5676TIP3   OH216991   4.859   0.932   2.635 -0.6610 -0.3752 -0.1092
 5676TIP3    H116992   4.800   0.943   2.561 -1.2111 -1.8545  0.0739
 5676TIP3    H216993   4.803   0.901   2.706  0.0048  0.1813  0.6813
 5677TIP3   OH216994   4.081   4.848   4.115 -0.0136  0.2478  0.0373
 5677TIP3    H116995   4.128   4.805   4.043  0.6548 -1.6738  1.5319
 5677TIP3    H216996   3.996   4.871   4.078 -0.8395 -3.3120 -0.7068
 5678TIP3   OH216997   6.653   4.436   0.343 -0.0440 -0.4963 -0.2116
 5678TIP3    H116998   6.566   4.428   0.383 -0.9729  1.6053 -1.6566
 5678TIP3    H216999   6.638   4.419   0.250  0.6489  1.9130 -0.8249
 5679TIP3   OH217000   2.621   3.563   4.202 -0.0191  0.7600 -0.3870
 5679TIP3    H117001   2.576   3.612   4.133 -0.0549  0.5713 -0.4981
 5679TIP3    H217002   2.653   3.484   4.159  1.8412  1.6270 -0.7057
 5680TIP3   OH217003   5.634   3.028   0.814  0.1842 -0.0130 -0.4199
 5680TIP3    H117004   5.555   3.073   0.785 -0.7504 -0.9542  0.5236
 5680TIP3    H217005   5.605   2.938   0.830  0.8632  0.1557  2.2144
 5681TIP3   OH217006   3.285   0.761   2.202  0.3084 -0.5919 -0.6587
 5681TIP3    H117007   3.359   0.706   2.175  1.1771  0.6202 -0.8460
 5681TIP3    H217008   3.314   0.851   2.185 -0.2389  0.0774  1.5555
 5682TIP3   OH217009   2.639   4.221   5.212  0.1094 -0.0375  0.0956
 5682TIP3    H117010   2.686   4.139   5.205  1.5746  0.7886 -0.2065
 5682TIP3    H217011   2.598   4.232   5.126 -2.3594 -1.6856  0.9456
 5683TIP3   OH217012   1.689   6.079   0.502  0.3992 -0.6417 -0.0455
 5683TIP3    H117013   1.656   6.081   0.412  0.5318  0.6705 -0.0756
 5683TIP3    H217014   1.784   6.068   0.492  0.4013 -0.6080 -0.0618
 5684TIP3   OH217015   3.479   4.899   0.152 -0.1805 -0.3755  0.6690
 5684TIP3    H117016   3.416   4.893   0.080 -1.0773  0.3504  1.3631
 5684TIP3    H217017   3.434   4.951   0.219  0.8027 -0.6485  1.5739
 5685TIP3   OH217018   5.913   6.484   3.078 -0.2552 -0.1871 -0.0556
 5685TIP3    H117019   5.869   6.482   2.993 -1.4048 -1.5965  0.5306
 5685TIP3    H217020   5.914   6.577   3.103 -1.6050  0.0391 -0.7612
 5686TIP3   OH217021   6.385   0.533   1.650 -0.3989 -0.1078 -0.2779
 5686TIP3    H117022   6.293   0.560   1.643 -1.0212 -2.4390 -2.1302
 5686TIP3    H217023   6.395   0.510   1.743 -1.7147  0.0596 -0.0610
 5687TIP3   OH217024   0.013   5.035   2.167  0.2104  0.5983 -0.7045
 5687TIP3    H117025   0.082   5.007   2.227 -0.5746 -0.5340 -0.3061
 5687TIP3    H217026  -0.002   5.127   2.188  0.5925  0.4623  0.1767
 5688TIP3   OH217027   2.681   2.277   5.432 -0.3733 -0.6445 -0.7571
 5688TIP3    H117028   2.621   2.273   5.358  0.0861  0.4078 -1.2011
 5688TIP3    H217029   2.681   2.369   5.459 -1.0845 -1.1194  1.0280
 5689TIP3   OH217030   5.975   6.324   0.523 -0.0801 -0.0007 -0.2367
 5689TIP3    H117031   5.981   6.419   0.527  2.3047 -0.0625 -0.8604
 5689TIP3    H217032   6.025   6.294   0.599  0.9583 -0.7412 -1.1771
 5690TIP3   OH217033   0.575   5.104   1.343 -0.0066 -0.1135  0.1367
 5690TIP3    H117034   0.587   5.056   1.261  0.0237 -0.0216  0.0868
 5690TIP3    H217035   0.482   5.128   1.343 -0.7675 -2.6956  1.5455
 5691TIP3   OH217036   4.571   6.118   2.182  0.0471 -0.3270  0.0666
 5691TIP3    H117037   4.611   6.034   2.205  1.1799 -0.0100 -0.6657
 5691TIP3    H217038   4.477   6.103   2.191  0.2641 -1.4820  0.5685
 5692TIP3   OH217039   2.015   2.001   2.653 -0.5470  0.4215 -0.6917
 5692TIP3    H117040   2.037   2.065   2.721 -0.4911  0.3309 -0.6235
 5692TIP3    H217041   1.920   1.997   2.654 -0.5440  0.3599 -0.5609
 5693TIP3   OH217042   3.687   2.272   2.190  0.2207 -0.5267  0.1052
 5693TIP3    H117043   3.594   2.253   2.180 -0.3183  1.9186 -0.3386
 5693TIP3    H217044   3.704   2.256   2.283 -0.4063 -1.8025  0.0231
 5694TIP3   OH217045   0.656   2.488   1.367  0.0176  0.5227 -0.7321
 5694TIP3    H117046   0.697   2.404   1.344 -0.0296  0.1816  0.3795
 5694TIP3    H217047   0.724   2.553   1.351  0.0162  0.2935 -1.7243
 5695TIP3   OH217048   0.648   1.324   4.178 -0.1087  0.5165  0.1162
 5695TIP3    H117049   0.587   1.252   4.189  1.4139 -0.5812  2.1605
 5695TIP3    H217050   0.722   1.302   4.236  2.1539  1.8486 -2.0701
 5696TIP3   OH217051   6.015   0.567   5.064 -0.4420 -0.0117 -0.0613
 5696TIP3    H117052   6.096   0.565   5.012 -0.4315 -0.2585 -0.0389
 5696TIP3    H217053   5.946   0.581   5.000 -0.1587  3.5008  0.1986
 5697TIP3   OH217054   3.914   5.622   4.617 -0.2078  0.2997  0.4464
 5697TIP3    H117055   3.977   5.623   4.544 -0.9054 -0.1855 -0.1789
 5697TIP3    H217056   3.892   5.714   4.631  1.1009  0.5487  1.1015
 5698TIP3   OH217057   6.069   2.056   5.584  0.3194  0.1685 -0.6845
 5698TIP3    H117058   5.986   2.040   5.539 -0.9558  2.4898  0.6285
 5698TIP3    H217059   6.083   2.151   5.574  0.6805  0.5490  2.5268
 5699TIP3   OH217060   1.110   0.611   0.576  0.4044 -0.5397  0.2988
 5699TIP3    H117061   1.050   0.570   0.514  1.0457 -0.1047 -0.6186
 5699TIP3    H217062   1.168   0.664   0.522  2.3830 -1.8598  1.0253
 5700TIP3   OH217063   5.209   2.604   4.692  0.5058 -0.1309  0.2598
 5700TIP3    H117064   5.129   2.627   4.645 -0.5508 -0.5094  1.8102
 5700TIP3    H217065   5.267   2.570   4.624 -1.0467 -0.8924 -0.7430
 5701TIP3   OH217066   5.483   3.911   1.159  0.3868 -0.5136 -0.0697
 5701TIP3    H117067   5.520   3.855   1.227 -1.7287 -1.6417  0.2374
 5701TIP3    H217068   5.389   3.893   1.161 -0.3669  2.7233 -0.2937
 5702TIP3   OH217069   2.731   0.062   5.304  0.5398 -0.1095  0.3546
 5702TIP3    H117070   2.752  -0.003   5.372  1.7458 -0.0584  0.0475
 5702TIP3    H217071   2.647   0.033   5.268  0.4610 -0.7935  1.0637
 5703TIP3   OH217072   0.859   2.607   0.972 -0.3413 -0.1250  0.2518
 5703TIP3    H117073   0.794   2.644   1.031 -0.3721 -0.4366  0.4202
 5703TIP3    H217074   0.941   2.612   1.022 -0.1191  0.8398 -0.2029
 5704TIP3   OH217075   3.239   1.716   5.623 -0.0881  0.4337 -0.3361
 5704TIP3    H117076   3.248   1.633   5.670  1.0338  0.5777 -0.2507
 5704TIP3    H217077   3.146   1.736   5.627 -0.1039  0.2363  1.4832
 5705TIP3   OH217078   1.990   6.676   3.584 -0.0379 -0.3218 -0.1135
 5705TIP3    H117079   1.962   6.673   3.675  3.0771 -0.8771  0.9540
 5705TIP3    H217080   2.018   6.766   3.569 -1.0559 -0.0946 -0.7226
 5706TIP3   OH217081   3.107   6.183   5.277 -0.2835  0.0263  0.0780
 5706TIP3    H117082   3.017   6.214   5.261 -0.0035  2.5843  2.6342
 5706TIP3    H217083   3.109   6.162   5.370  1.5774 -0.8748 -0.1267
 5707TIP3   OH217084   4.313   0.798   2.639  0.1157 -0.3272  0.2148
 5707TIP3    H117085   4.298   0.892   2.630  0.3452 -0.2931  0.1810
 5707TIP3    H217086   4.301   0.780   2.733  0.6547 -0.1604  0.3164
 5708TIP3   OH217087   1.298   4.097   4.616  0.1370  0.0919  0.2286
 5708TIP3    H117088   1.315   4.119   4.707  0.7229  1.0707 -0.0960
 5708TIP3    H217089   1.267   4.006   4.618 -0.8305  0.4207  1.4869
 5709TIP3   OH217090   2.421   4.075   2.423  0.5086 -0.2768  0.2622
 5709TIP3    H117091   2.473   4.102   2.498  0.0968  0.8523  0.1770
 5709TIP3    H217092   2.332   4.065   2.458  0.9375 -3.5188  0.6974
 5710TIP3   OH217093   2.500   0.865   1.150 -0.3604 -0.1609  0.6694
 5710TIP3    H117094   2.468   0.825   1.230  0.7096 -0.7094  0.8450
 5710TIP3    H217095   2.548   0.943   1.179 -2.1813  1.1485  0.3514
 5711TIP3   OH217096   5.883   5.499   3.181  0.1043 -0.5552 -0.3003
 5711TIP3    H117097   5.918   5.412   3.201  2.7854  0.5125  0.0270
 5711TIP3    H217098   5.872   5.540   3.267  1.1892  0.2421 -0.5269
 5712TIP3   OH217099   3.432   6.455   4.416  0.2033 -0.5135  0.1030
 5712TIP3    H117100   3.411   6.406   4.496 -0.1416 -0.4821  0.0318
 5712TIP3    H217101   3.480   6.531   4.447  0.3168 -0.6481  0.2580
 5713TIP3   OH217102   5.720   5.647   3.810  0.5356 -0.8707  0.1692
 5713TIP3    H117103   5.627   5.643   3.787  0.3756 -0.6563  0.7556
 5713TIP3    H217104   5.747   5.556   3.813  0.2014 -0.9610  0.5448
 5714TIP3   OH217105   3.372   5.706   3.761 -0.3949 -0.4983 -0.0337
 5714TIP3    H117106   3.345   5.709   3.852 -1.0628 -0.7027 -0.2130
 5714TIP3    H217107   3.370   5.797   3.732  0.2374 -0.3865  0.2698
 5715TIP3   OH217108   0.584   5.237   2.334 -0.4261  0.3695 -0.0967
 5715TIP3    H117109   0.495   5.229   2.300 -0.4247  0.7365 -0.1843
 5715TIP3    H217110   0.607   5.147   2.358 -1.5572  0.5458  1.8196
 5716TIP3   OH217111   6.252   0.793   5.548 -0.4472  0.0112  0.3089
 5716TIP3    H117112   6.334   0.764   5.588 -0.3772 -0.0489  0.1211
 5716TIP3    H217113   6.205   0.837   5.619  0.3968  1.4116  0.0396
 5717TIP3   OH217114   2.923   0.578   4.785  0.4216  0.4304  0.0397
 5717TIP3    H117115   3.014   0.573   4.757  1.4171  4.4318  1.8574
 5717TIP3    H217116   2.876   0.607   4.707  1.2207  0.9999 -0.2502
 5718TIP3   OH217117   0.304   3.760   1.650 -0.0128 -0.5034 -0.2409
 5718TIP3    H117118   0.395   3.744   1.627  0.0021 -0.4412 -0.2269
 5718TIP3    H217119   0.264   3.791   1.568 -0.9745 -4.2028 -1.3477
 5719TIP3   OH217120   2.654   5.252   3.274  0.4923  0.8572  0.4262
 5719TIP3    H117121   2.660   5.271   3.368  0.4661  0.6705  0.4674
 5719TIP3    H217122   2.722   5.186   3.260 -0.8251 -0.6289  0.7207
 5720TIP3   OH217123   5.678   1.701   2.558  0.1581  0.3804 -0.1305
 5720TIP3    H117124   5.629   1.637   2.610  1.4396 -1.2767 -0.8542
 5720TIP3    H217125   5.691   1.775   2.617  0.3181 -0.8441  1.4430
 5721TIP3   OH217126   3.734   5.731   3.971 -0.6095 -0.2359  0.4123
 5721TIP3    H117127   3.672   5.737   4.043 -1.3040  0.6142 -0.2445
 5721TIP3    H217128   3.715   5.648   3.929 -0.4228 -0.5797  0.9931
 5722TIP3   OH217129   5.774   3.965   2.879 -0.2658  0.3749 -0.0538
 5722TIP3    H117130   5.729   3.889   2.843  0.4596 -0.6026  1.0549
 5722TIP3    H217131   5.703   4.019   2.916 -0.5813 -1.0618  1.5250
 5723TIP3   OH217132   5.267   2.073   1.538 -0.4554  0.7715  0.0609
 5723TIP3    H117133   5.313   2.006   1.589 -1.7104 -0.7978 -0.7919
 5723TIP3    H217134   5.269   2.041   1.448 -0.7780  2.0813 -0.4478
 5724TIP3   OH217135   6.355   5.037   1.154  0.2132  0.4450  0.0975
 5724TIP3    H117136   6.442   5.028   1.116 -0.0638  1.7374 -0.8965
 5724TIP3    H217137   6.296   5.041   1.079 -0.6471  0.2200  0.7412
 5725TIP3   OH217138   5.276   0.443   1.937 -0.2172  0.4751 -0.1252
 5725TIP3    H117139   5.280   0.535   1.962 -0.7712  0.2315  0.8912
 5725TIP3    H217140   5.330   0.398   2.002  0.6641  0.1515 -1.0480
 5726TIP3   OH217141   0.925   2.643   0.691 -0.1266 -0.2654  0.2354
 5726TIP3    H117142   0.851   2.608   0.643 -0.9672 -0.6805  1.7640
 5726TIP3    H217143   0.898   2.639   0.783  1.7642 -0.3936  0.8280
 5727TIP3   OH217144   2.420   4.823   4.595  0.4907  0.3124 -0.3983
 5727TIP3    H117145   2.432   4.759   4.525  0.4657  0.6799 -0.7437
 5727TIP3    H217146   2.329   4.852   4.587  0.1463 -0.4429  0.4847
 5728TIP3   OH217147   1.247   6.572   0.060  0.1875  0.1930  0.0814
 5728TIP3    H117148   1.266   6.608  -0.026  0.1899  0.1013  0.0439
 5728TIP3    H217149   1.242   6.649   0.117  0.5019  0.2290  0.0606
 5729TIP3   OH217150   0.215   2.995   4.932  0.3052 -0.2252 -0.0803
 5729TIP3    H117151   0.184   2.998   4.842  0.5460  0.5496 -0.1420
 5729TIP3    H217152   0.299   3.040   4.930 -0.3093  1.0222  0.7666
 5730TIP3   OH217153   1.249   5.829   2.475  0.4679  0.4609 -0.2871
 5730TIP3    H117154   1.160   5.827   2.440  0.1725  0.9911  0.4136
 5730TIP3    H217155   1.304   5.857   2.402 -0.2203  2.1527 -0.1932
 5731TIP3   OH217156   4.470   1.033   3.211  0.2166 -0.0519 -0.1864
 5731TIP3    H117157   4.482   0.942   3.235  1.8360  0.3999  0.8265
 5731TIP3    H217158   4.554   1.075   3.230 -0.5912  1.7224 -0.3065
 5732TIP3   OH217159   0.965   5.945   0.565 -0.0333 -0.3594  0.3097
 5732TIP3    H117160   0.946   6.010   0.497  0.1015  0.8395  1.3736
 5732TIP3    H217161   1.059   5.928   0.557  0.3540  1.1017  1.2619
 5733TIP3   OH217162   0.388   3.358   0.296 -0.3833 -0.5484 -0.1076
 5733TIP3    H117163   0.359   3.446   0.316  0.1183 -0.2869 -0.4861
 5733TIP3    H217164   0.480   3.355   0.325 -0.1979 -0.7306 -0.6934
 5734TIP3   OH217165   1.420   1.676   4.849 -0.2215 -0.1526 -0.2131
 5734TIP3    H117166   1.324   1.675   4.848 -0.2616  1.3061 -1.3171
 5734TIP3    H217167   1.445   1.590   4.815 -1.1785  0.1000 -1.6391
 5735TIP3   OH217168   5.043   0.106   5.113 -0.8209 -0.0982  0.3750
 5735TIP3    H117169   5.123   0.055   5.097 -0.8595 -0.1557  0.3668
 5735TIP3    H217170   5.070   0.174   5.175 -0.8625 -0.3707  0.6978
 5736TIP3   OH217171   0.955   0.709   3.059 -0.1693  0.2960 -0.5324
 5736TIP3    H117172   1.033   0.756   3.088 -0.7832 -0.0529  1.9290
 5736TIP3    H217173   0.979   0.616   3.068 -0.4207  0.1750 -1.0894
 5737TIP3   OH217174   4.582   0.794   4.035  0.7028 -0.4090  0.2332
 5737TIP3    H117175   4.490   0.771   4.027  0.5403  0.7174 -1.9280
 5737TIP3    H217176   4.583   0.867   4.098  0.0661 -0.2493  0.0694
 5738TIP3   OH217177   1.655   3.283   5.567 -0.0328  0.1348 -0.9627
 5738TIP3    H117178   1.641   3.296   5.473 -0.4938  0.5201 -0.8475
 5738TIP3    H217179   1.743   3.316   5.583 -0.4773  1.3951 -1.0217
 5739TIP3   OH217180   1.678   6.438   1.414  0.3766 -0.4736  0.2746
 5739TIP3    H117181   1.704   6.373   1.349  0.3958  0.5046 -0.7310
 5739TIP3    H217182   1.700   6.522   1.374 -1.6743  0.2664  0.5899
 5740TIP3   OH217183   1.866   3.962   0.308 -0.2575  0.0907  0.3130
 5740TIP3    H117184   1.805   3.974   0.381  0.0837  0.7702  0.4934
 5740TIP3    H217185   1.927   4.035   0.315  0.1384 -0.1699 -0.3044
 5741TIP3   OH217186   1.231   5.505   5.555 -0.4541 -0.8077 -0.0260
 5741TIP3    H117187   1.159   5.451   5.524 -0.4608 -0.5094 -0.5442
 5741TIP3    H217188   1.310   5.462   5.521 -0.4929 -0.1809 -0.9293
 5742TIP3   OH217189   1.808   6.263   3.600 -0.3996  0.1658  0.4088
 5742TIP3    H117190   1.790   6.344   3.554  0.1484 -0.0362 -0.1799
 5742TIP3    H217191   1.796   6.194   3.534 -0.3581 -0.1891  0.7638
 5743TIP3   OH217192   2.088   1.701   0.320  0.3465 -0.2402  0.1506
 5743TIP3    H117193   2.018   1.739   0.268  0.1791 -0.7297  0.0164
 5743TIP3    H217194   2.153   1.673   0.255 -0.4425 -2.0651  0.0723
 5744TIP3   OH217195   6.623   4.975   5.831 -0.4210 -0.2421 -0.5583
 5744TIP3    H117196   6.569   5.017   5.897 -0.5559 -2.5571  0.9390
 5744TIP3    H217197   6.568   4.906   5.794  0.7728 -1.2893 -0.4935
 5745TIP3   OH217198   5.964   2.309   5.217 -0.0240  0.3927  0.1192
 5745TIP3    H117199   5.954   2.214   5.217 -1.1634  0.5010 -0.2438
 5745TIP3    H217200   5.957   2.334   5.309  1.9907 -0.0138  0.4268
 5746TIP3   OH217201   4.429   0.739   1.083  0.2795  0.0732 -0.0086
 5746TIP3    H117202   4.429   0.796   1.006 -1.5168 -0.1949 -0.2387
 5746TIP3    H217203   4.417   0.798   1.157  1.0301  0.2309 -0.0019
 5747TIP3   OH217204   6.513   6.571   1.827 -0.7274  0.3705 -0.6049
 5747TIP3    H117205   6.607   6.565   1.842 -0.1460  0.6109 -3.5533
 5747TIP3    H217206   6.473   6.523   1.899  1.7365 -1.2529 -0.2300
 5748TIP3   OH217207   4.730   4.871   4.276  0.2680  0.2268 -0.1428
 5748TIP3    H117208   4.745   4.951   4.327  0.8204  1.0334 -1.5218
 5748TIP3    H217209   4.780   4.803   4.322 -0.2674  0.6292  1.0860
 5749TIP3   OH217210   1.965   5.126   2.410 -0.2889  0.1521  0.0341
 5749TIP3    H117211   1.982   5.064   2.481  0.1189  0.7040  0.4189
 5749TIP3    H217212   2.024   5.099   2.340  0.0048  0.2132  0.2604
 5750TIP3   OH217213   4.389   0.479   0.313 -0.1284 -0.1924  0.0702
 5750TIP3    H117214   4.374   0.574   0.303 -0.0618  0.0285  1.7367
 5750TIP3    H217215   4.405   0.448   0.224  1.0531  1.5748 -0.4046
 5751TIP3   OH217216   2.511   1.562   5.163 -0.0187  0.0135 -0.0112
 5751TIP3    H117217   2.584   1.621   5.145  1.3847 -1.2656  1.1638
 5751TIP3    H217218   2.449   1.577   5.092  0.4618  2.5648  0.0242
 5752TIP3   OH217219   5.521   0.212   1.023  0.1400  0.4844  0.7320
 5752TIP3    H117220   5.532   0.167   1.107 -0.0672  0.6605  0.8536
 5752TIP3    H217221   5.427   0.218   1.011  0.1463  1.9609  1.2923
 5753TIP3   OH217222   1.849   2.325   2.713 -0.2970  0.1472 -0.4827
 5753TIP3    H117223   1.863   2.293   2.624  0.4766  1.2483 -0.7834
 5753TIP3    H217224   1.780   2.391   2.704 -0.5823 -0.1082 -0.1785
 5754TIP3   OH217225   1.757   5.756   1.888 -0.2139 -0.7316  0.1926
 5754TIP3    H117226   1.830   5.708   1.926  0.2467  1.5718  2.4807
 5754TIP3    H217227   1.793   5.795   1.809  0.6604 -0.7046  0.5889
 5755TIP3   OH217228   2.127   1.982   0.178 -0.0215 -0.5325  0.5102
 5755TIP3    H117229   2.222   1.971   0.184 -0.0125 -1.4640 -0.8602
 5755TIP3    H217230   2.098   1.991   0.268  1.3953  0.0599  0.9367
 5756TIP3   OH217231   1.132   2.618   0.513 -0.2583  0.2048  0.1617
 5756TIP3    H117232   1.054   2.629   0.568 -0.3797 -0.1255  0.0593
 5756TIP3    H217233   1.191   2.689   0.540 -0.5903  0.4468  0.2461
 5757TIP3   OH217234   0.039   5.374   2.590 -0.1518  0.0315  0.0361
 5757TIP3    H117235   0.122   5.329   2.605 -0.0421  0.4131  0.5883
 5757TIP3    H217236   0.017   5.355   2.499  0.5598 -0.0427 -0.1208
 5758TIP3   OH217237   2.608   2.454   0.915  0.0428  0.0658  0.4868
 5758TIP3    H117238   2.664   2.418   0.984  1.1261 -1.1158 -0.9387
 5758TIP3    H217239   2.626   2.400   0.838 -1.1829  1.2784 -0.7307
 5759TIP3   OH217240   0.607   3.517   2.408 -0.3407 -0.4767 -0.2348
 5759TIP3    H117241   0.668   3.449   2.378 -0.5931 -0.0530 -1.7968
 5759TIP3    H217242   0.521   3.483   2.386 -0.4280  0.7212 -1.9428
 5760TIP3   OH217243   4.749   0.506   1.269  0.2295  0.0285  0.1045
 5760TIP3    H117244   4.702   0.454   1.335  0.7555  1.3725  1.6113
 5760TIP3    H217245   4.822   0.451   1.243 -0.0289 -0.5595  0.5959
 5761TIP3   OH217246   4.844   2.252   4.898  0.1625 -0.1056  0.5128
 5761TIP3    H117247   4.915   2.270   4.837  1.1905  0.1927  1.7583
 5761TIP3    H217248   4.813   2.339   4.925 -1.5475 -0.2073 -0.9516
 5762TIP3   OH217249   5.113   3.269   0.324 -0.1497  0.1345  0.3037
 5762TIP3    H117250   5.027   3.239   0.354 -0.8164  2.1191  0.5028
 5762TIP3    H217251   5.162   3.287   0.404  0.5282 -1.0951  0.1935
 5763TIP3   OH217252   3.011   4.336   3.191 -0.0173 -0.2628 -0.5659
 5763TIP3    H117253   3.014   4.404   3.258  0.5723  0.6942 -1.5185
 5763TIP3    H217254   2.941   4.277   3.219  0.2852  0.0444  0.9210
 5764TIP3   OH217255   0.811   0.754   2.403 -0.1604 -0.0311 -0.0993
 5764TIP3    H117256   0.748   0.815   2.442 -0.1036 -0.9231  1.4304
 5764TIP3    H217257   0.879   0.811   2.366  0.0285  0.8733  1.5354
 5765TIP3   OH217258   1.116   1.293   1.660 -0.0961 -0.0653 -0.4288
 5765TIP3    H117259   1.126   1.318   1.568 -0.8714 -1.3182 -0.8635
 5765TIP3    H217260   1.188   1.232   1.676 -0.3092 -0.3021 -0.3714
 5766TIP3   OH217261   5.036   6.638   1.537 -0.1881  0.2307 -0.4296
 5766TIP3    H117262   4.988   6.555   1.534  1.5732 -0.8922  0.5953
 5766TIP3    H217263   5.125   6.615   1.508 -0.1392  2.1744 -1.9987
 5767TIP3   OH217264   6.456   5.224   4.228 -0.0326 -0.0543 -0.4058
 5767TIP3    H117265   6.519   5.291   4.256  0.4897 -0.9222  0.5743
 5767TIP3    H217266   6.373   5.252   4.265  0.2559 -0.1183  0.3062
 5768TIP3   OH217267   5.511   5.419   2.544  0.3321 -0.0866  0.0111
 5768TIP3    H117268   5.595   5.460   2.523  1.0519 -0.4858  1.9367
 5768TIP3    H217269   5.464   5.417   2.461  2.0320  0.5865 -1.0125
 5769TIP3   OH217270   6.216   1.057   0.109 -0.1541  0.3597  0.6509
 5769TIP3    H117271   6.185   1.136   0.154 -0.6200 -0.5566  1.9888
 5769TIP3    H217272   6.252   1.002   0.178 -2.3136 -1.7843  0.2379
 5770TIP3   OH217273   2.271   6.061   5.003  0.3773 -0.3681  0.0940
 5770TIP3    H117274   2.196   6.112   5.034  0.4513  0.8778 -1.6190
 5770TIP3    H217275   2.262   6.060   4.908  3.0594  0.7304 -0.2684
 5771TIP3   OH217276   2.812   0.565   4.211  0.1149  0.3650 -0.2232
 5771TIP3    H117277   2.764   0.572   4.128 -0.5434  1.1272  0.1978
 5771TIP3    H217278   2.800   0.475   4.238 -3.1993  1.0175  1.0502
 5772TIP3   OH217279   5.859   3.220   3.866 -0.2535 -0.3463  0.7605
 5772TIP3    H117280   5.795   3.193   3.932 -0.0455 -0.2207  1.0149
 5772TIP3    H217281   5.817   3.199   3.782 -1.1197  0.7844  0.8835
 5773TIP3   OH217282   7.192   0.945   0.775  0.1589 -0.3589  0.6335
 5773TIP3    H117283   7.098   0.931   0.772  0.1441 -0.2397 -2.0466
 5773TIP3    H217284   7.227   0.863   0.810 -0.8516 -1.1393 -0.1191
 5774TIP3   OH217285   5.319   2.288   4.210  0.0747 -0.2235 -0.0468
 5774TIP3    H117286   5.253   2.225   4.239 -0.5657 -0.3610 -1.6606
 5774TIP3    H217287   5.394   2.273   4.267 -0.8792 -0.8601  1.0914
 5775TIP3   OH217288   4.037   3.322   3.118 -0.1790 -0.1012  0.2473
 5775TIP3    H117289   3.972   3.369   3.171 -0.2071 -2.1593  2.1847
 5775TIP3    H217290   4.085   3.269   3.180  2.7637  0.5584 -1.2769
 5776TIP3   OH217291   5.992   3.382   2.983  0.6640  0.2496 -0.3405
 5776TIP3    H117292   5.897   3.377   2.992  0.7524 -0.7137  0.2931
 5776TIP3    H217293   6.011   3.474   2.965 -0.3721  0.4727 -0.3149
 5777TIP3   OH217294   1.022   0.803   4.238 -0.5104 -0.1442 -0.5124
 5777TIP3    H117295   1.099   0.840   4.196 -0.5301  0.8504  0.2886
 5777TIP3    H217296   1.005   0.860   4.313 -1.5655 -0.7936 -0.2246
 5778TIP3   OH217297   4.566   0.409   3.894  0.3932  0.1992 -0.4605
 5778TIP3    H117298   4.531   0.440   3.977  1.5450 -1.1528  0.6085
 5778TIP3    H217299   4.491   0.371   3.848  0.1583 -1.3703  1.1314
 5779TIP3   OH217300   3.467   5.921   5.237 -0.5194  0.0072  0.2425
 5779TIP3    H117301   3.439   5.830   5.239 -0.5582  0.0147  0.0834
 5779TIP3    H217302   3.563   5.917   5.241 -0.5494  0.0045  1.4036
 5780TIP3   OH217303   4.317   5.690   4.989 -0.3342  0.5163  0.2419
 5780TIP3    H117304   4.225   5.701   4.964 -0.0743 -0.1284 -1.0917
 5780TIP3    H217305   4.364   5.752   4.934  0.1244  0.0824  0.1371
 5781TIP3   OH217306   3.578   5.197   1.943 -0.4210  0.1347 -0.0922
 5781TIP3    H117307   3.651   5.188   1.881 -0.1579 -1.9295  0.4283
 5781TIP3    H217308   3.617   5.231   2.023  0.0993 -1.2961  0.3006
 5782TIP3   OH217309   1.505   3.620   2.027  0.2214  0.5296  0.3722
 5782TIP3    H117310   1.448   3.576   1.964  0.2452 -0.2778  0.8860
 5782TIP3    H217311   1.461   3.608   2.111  0.6807  0.7107  0.6462
 5783TIP3   OH217312   1.582   3.988   5.254  0.1028 -0.1501 -0.7747
 5783TIP3    H117313   1.611   3.963   5.342 -1.7826 -1.0460 -0.3430
 5783TIP3    H217314   1.540   4.073   5.266  1.5127  0.6381 -1.1990
 5784TIP3   OH217315   6.616   2.752   1.015 -0.4559  0.3583  0.0365
 5784TIP3    H117316   6.531   2.795   1.003 -1.0072 -0.8186 -0.5304
 5784TIP3    H217317   6.601   2.663   0.984  0.9991  0.1308 -0.0659
 5785TIP3   OH217318   2.834   5.937   0.428 -0.5284 -0.0760 -0.5677
 5785TIP3    H117319   2.925   5.965   0.428 -0.6763  0.4417 -1.4313
 5785TIP3    H217320   2.829   5.870   0.496  0.6540 -0.6039 -0.9690
 5786TIP3   OH217321   1.120   6.533   1.356 -0.9735 -0.0328  0.0866
 5786TIP3    H117322   1.087   6.623   1.358  0.7070  0.6076  1.0325
 5786TIP3    H217323   1.108   6.505   1.266 -3.3798  0.3891  0.2112
 5787TIP3   OH217324   6.227   2.808   4.208  0.5534 -0.1378  0.2568
 5787TIP3    H117325   6.146   2.848   4.239  0.6877  0.1103  0.2887
 5787TIP3    H217326   6.285   2.810   4.284  1.3530  1.7005 -0.3480
 5788TIP3   OH217327   0.119   5.915   3.445  0.0138 -0.4796  0.4767
 5788TIP3    H117328   0.070   5.938   3.524 -0.1385  0.1817  0.1967
 5788TIP3    H217329   0.197   5.970   3.449  0.4265 -1.0685  0.5961
 5789TIP3   OH217330   3.740   4.871   0.308  0.8566  0.1003  0.0773
 5789TIP3    H117331   3.717   4.780   0.289  1.1520 -0.1076  0.6860
 5789TIP3    H217332   3.681   4.923   0.253  1.3606 -0.4632 -1.0128
 5790TIP3   OH217333   0.728   3.601   2.956  0.1696  1.2595 -0.4259
 5790TIP3    H117334   0.799   3.665   2.953 -0.2021  1.6450 -1.5615
 5790TIP3    H217335   0.760   3.532   3.014  1.0839  1.8746 -0.1764
 5791TIP3   OH217336   4.996   3.719   5.783  0.3059  0.4393  0.5305
 5791TIP3    H117337   4.937   3.710   5.858  1.7475  0.2648  1.7072
 5791TIP3    H217338   5.017   3.812   5.780 -0.5051  0.6011 -0.2757
 5792TIP3   OH217339   6.120   1.382   4.865  0.2368 -0.4542 -0.2061
 5792TIP3    H117340   6.045   1.392   4.923  1.2629  1.3868  0.9139
 5792TIP3    H217341   6.169   1.308   4.901  0.3604  0.0714  0.7390
 5793TIP3   OH217342   4.819   0.061   0.818 -0.0750  0.4646 -0.2291
 5793TIP3    H117343   4.860  -0.026   0.813 -1.8159 -0.3210 -1.9199
 5793TIP3    H217344   4.795   0.070   0.911  0.5764 -0.6271  0.0664
 5794TIP3   OH217345   0.543   5.197   3.493 -0.2858 -0.5784  0.0396
 5794TIP3    H117346   0.560   5.120   3.440 -0.3655 -0.6388  0.1013
 5794TIP3    H217347   0.619   5.253   3.480 -0.8301 -0.0774 -1.0643
 5795TIP3   OH217348   3.643   1.363   3.423  0.0503  0.6087  0.1066
 5795TIP3    H117349   3.632   1.273   3.394 -2.0042  0.2232  1.8336
 5795TIP3    H217350   3.667   1.355   3.515  0.2179  1.8310  0.1839
 5796TIP3   OH217351   3.397   1.257   1.249  0.2273  0.4112 -0.3276
 5796TIP3    H117352   3.376   1.189   1.184 -0.4136  0.3556 -0.0719
 5796TIP3    H217353   3.396   1.339   1.199  3.1609  0.0732 -1.1084
 5797TIP3   OH217354   0.691   0.804   3.106  0.1277  0.1040 -0.1553
 5797TIP3    H117355   0.778   0.764   3.100  0.7444  0.6824  3.1344
 5797TIP3    H217356   0.662   0.785   3.196 -2.6940  0.8864 -0.7955
 5798TIP3   OH217357   2.311   3.998   4.977  0.5872 -0.1400  0.1413
 5798TIP3    H117358   2.357   4.079   4.998 -0.1897  0.1086  0.9519
 5798TIP3    H217359   2.223   4.010   5.013  0.2618 -1.0854 -0.2993
 5799TIP3   OH217360   5.545   3.871   0.565 -0.0540  0.3326 -0.4415
 5799TIP3    H117361   5.474   3.926   0.532  1.8065  2.0653 -1.7193
 5799TIP3    H217362   5.548   3.797   0.504  0.6861  1.4125 -1.7332
 5800TIP3   OH217363   5.091   1.291   3.435 -0.0876 -0.4651 -0.1292
 5800TIP3    H117364   5.141   1.359   3.390 -1.7683  0.1006 -1.2029
 5800TIP3    H217365   5.100   1.314   3.528 -0.6212  1.2429 -0.4624
 5801TIP3   OH217366   5.473   2.412   3.526 -0.1982 -0.2320 -0.3025
 5801TIP3    H117367   5.538   2.381   3.463  0.3432  2.3640 -1.1206
 5801TIP3    H217368   5.524   2.438   3.602 -0.3984  0.5802 -0.4373
 5802TIP3   OH217369   3.526   5.705   4.795  0.1115  0.5116 -0.2547
 5802TIP3    H117370   3.503   5.787   4.838  1.5662  0.6311  0.3501
 5802TIP3    H217371   3.460   5.643   4.826 -0.8777  1.3882 -0.5526
 5803TIP3   OH217372   3.846   0.688   1.010 -0.2976 -0.0922 -0.2599
 5803TIP3    H117373   3.932   0.677   0.971 -0.0544  1.5012 -0.2149
 5803TIP3    H217374   3.828   0.782   1.005 -1.5736 -0.2497  0.6958
 5804TIP3   OH217375   2.152   5.559   0.466  0.3307  0.1959  0.2533
 5804TIP3    H117376   2.125   5.486   0.410  0.2998  2.8084 -3.5445
 5804TIP3    H217377   2.070   5.600   0.493  0.3103  1.1435 -1.1383
 5805TIP3   OH217378   4.902   4.660   5.850  0.5941  0.2027 -0.2324
 5805TIP3    H117379   4.935   4.750   5.846 -0.2148  0.4859 -0.8737
 5805TIP3    H217380   4.935   4.619   5.770 -1.3112  0.7696 -1.3869
 5806TIP3   OH217381   4.894   0.196   5.582  0.6572  0.4038  0.4330
 5806TIP3    H117382   4.941   0.150   5.513  0.7718  1.6554 -0.3492
 5806TIP3    H217383   4.956   0.261   5.614  0.0743  0.8638  0.6410
 5807TIP3   OH217384   7.120   5.095   3.603  0.4363 -0.2680  0.0721
 5807TIP3    H117385   7.089   5.065   3.517  2.0030  0.0506 -0.6371
 5807TIP3    H217386   7.180   5.026   3.632  0.9924  0.2920  0.2696
 5808TIP3   OH217387   1.867   1.927   2.929  0.2674  0.0533 -0.4847
 5808TIP3    H117388   1.962   1.914   2.932  0.2900  0.3540  1.1245
 5808TIP3    H217389   1.831   1.842   2.955  0.1537  0.3098  0.2339
 5809TIP3   OH217390   1.542   5.966   1.671 -0.3746 -0.0772  0.1201
 5809TIP3    H117391   1.586   5.902   1.615 -0.0683 -0.0423  0.3140
 5809TIP3    H217392   1.509   6.032   1.611 -2.8710 -1.6266 -0.3556
 5810TIP3   OH217393   6.581   0.837   4.581 -0.3403  0.4387  0.1102
 5810TIP3    H117394   6.605   0.769   4.518 -1.4013  1.9860 -2.1102
 5810TIP3    H217395   6.665   0.876   4.607  0.3917 -2.3134  2.3130
 5811TIP3   OH217396   0.503   1.752   4.972 -0.4990  0.1834  0.2852
 5811TIP3    H117397   0.434   1.719   5.030 -0.1522 -2.9315 -0.8548
 5811TIP3    H217398   0.460   1.816   4.917 -1.4613  1.2628  2.1956
 5812TIP3   OH217399   5.795   2.789   1.011 -0.0858 -0.2723  0.2461
 5812TIP3    H117400   5.886   2.818   1.000 -0.2787 -0.0873 -1.0000
 5812TIP3    H217401   5.749   2.868   1.040  0.5003 -0.8547  3.0243
 5813TIP3   OH217402   5.286   6.299   1.563  0.4076 -0.3256 -0.4240
 5813TIP3    H117403   5.312   6.368   1.501  2.2012 -0.7931 -0.2483
 5813TIP3    H217404   5.356   6.297   1.627 -1.4601  0.2081  1.7553
 5814TIP3   OH217405   0.666   0.580   2.221 -0.0855  0.6553  0.1702
 5814TIP3    H117406   0.607   0.526   2.275  0.4837 -0.0924  0.0728
 5814TIP3    H217407   0.725   0.621   2.284 -0.1570  0.7064  0.2037
 5815TIP3   OH217408   6.454   6.230   1.064  0.7114 -0.3366  0.2711
 5815TIP3    H117409   6.540   6.247   1.027 -0.1325  1.5595 -0.9765
 5815TIP3    H217410   6.431   6.311   1.110 -0.7622 -0.4407 -0.2107
 5816TIP3   OH217411   0.494   4.608   4.315  0.4631 -0.1140  0.3759
 5816TIP3    H117412   0.469   4.524   4.354  0.5860 -0.5484 -0.4774
 5816TIP3    H217413   0.481   4.672   4.386  0.3476 -0.8429  1.0220
 5817TIP3   OH217414   0.079   4.704   0.221 -0.1322  0.0065 -0.3476
 5817TIP3    H117415  -0.007   4.687   0.259  0.1263 -0.8500 -0.1463
 5817TIP3    H217416   0.109   4.784   0.265 -0.2923 -0.3794  0.4851
 5818TIP3   OH217417   6.969   1.787   1.226  0.1547 -0.3800 -0.1216
 5818TIP3    H117418   7.059   1.753   1.221  0.0962 -0.4882 -0.4972
 5818TIP3    H217419   6.980   1.880   1.247  0.5628  0.5530 -3.7522
 5819TIP3   OH217420   1.193   3.248   1.118  0.4059 -0.1767  1.0758
 5819TIP3    H117421   1.247   3.179   1.079  1.8625  1.5277 -0.1250
 5819TIP3    H217422   1.256   3.306   1.162 -0.8737 -0.1323  2.9507
 5820TIP3   OH217423   5.321   4.108   2.475 -0.1029 -0.2041 -0.2064
 5820TIP3    H117424   5.301   4.126   2.567 -1.1353 -1.8973 -0.0675
 5820TIP3    H217425   5.273   4.175   2.427  0.6153  0.8288  0.4682
 5821TIP3   OH217426   0.447   3.449   4.662  0.0903  0.3827  0.2861
 5821TIP3    H117427   0.451   3.458   4.567 -0.6563 -2.1455 -0.0516
 5821TIP3    H217428   0.535   3.421   4.688 -0.3695 -1.4872 -0.0447
 5822TIP3   OH217429   2.516   1.235   4.135 -0.1811  0.0525  0.1662
 5822TIP3    H117430   2.492   1.143   4.144  1.6894 -0.5658 -0.7077
 5822TIP3    H217431   2.586   1.248   4.198  1.0088  0.2776 -1.1398
 5823TIP3   OH217432   0.762   6.381   1.885 -0.3009  0.0040 -0.2057
 5823TIP3    H117433   0.768   6.427   1.969 -0.0115  0.6860 -0.5907
 5823TIP3    H217434   0.686   6.421   1.842 -0.7117 -0.6425 -0.0988
 5824TIP3   OH217435   4.402   4.367   4.610 -0.3404  0.5911 -0.0872
 5824TIP3    H117436   4.443   4.420   4.678  1.1468  0.2392 -0.6601
 5824TIP3    H217437   4.378   4.430   4.542 -1.4668  0.8925  0.5645
 5825TIP3   OH217438   5.869   1.943   4.060 -0.5158  0.2238 -0.6359
 5825TIP3    H117439   5.833   1.870   4.111  0.0082 -0.3081 -1.0130
 5825TIP3    H217440   5.820   2.020   4.091 -0.7014 -0.1962  0.1578
 5826TIP3   OH217441   0.870   0.765   3.651 -0.1793  0.6774 -0.2724
 5826TIP3    H117442   0.779   0.752   3.626 -0.1977 -0.2958  0.2392
 5826TIP3    H217443   0.871   0.848   3.698 -1.1009 -0.0043  1.0371
 5827TIP3   OH217444   2.158   1.066   1.493 -0.4691 -0.0072 -0.4505
 5827TIP3    H117445   2.104   1.067   1.572  0.9662 -0.3072  0.5656
 5827TIP3    H217446   2.204   0.982   1.495 -1.6145 -0.7744 -2.4960
 5828TIP3   OH217447   0.243   2.903   0.849  0.2297 -0.2679 -0.1673
 5828TIP3    H117448   0.269   2.955   0.773 -0.3248  0.3079  0.0331
 5828TIP3    H217449   0.300   2.826   0.845  0.8530  0.2048 -0.6310
 5829TIP3   OH217450   2.882   2.449   0.034 -0.2859 -0.0637  0.4315
 5829TIP3    H117451   2.850   2.492   0.114 -2.7182 -1.4461  0.2857
 5829TIP3    H217452   2.976   2.438   0.050 -0.0777  2.5620  1.6952
 5830TIP3   OH217453   7.146   4.705   0.605 -0.7595 -0.2648  0.0738
 5830TIP3    H117454   7.085   4.766   0.564  1.3918  1.1577 -1.1937
 5830TIP3    H217455   7.184   4.655   0.532  0.7624  0.0333  0.6176
 5831TIP3   OH217456   6.472   5.709   1.425  0.5523 -0.1920 -0.0411
 5831TIP3    H117457   6.485   5.694   1.331  1.0073 -0.0487 -0.0019
 5831TIP3    H217458   6.548   5.669   1.467  2.5782  3.2471 -0.0181
 5832TIP3   OH217459   1.267   0.867   1.862 -0.0103  0.0091 -0.4048
 5832TIP3    H117460   1.179   0.885   1.895 -0.0964  1.7822 -1.4868
 5832TIP3    H217461   1.293   0.785   1.906 -2.5852 -1.1262 -0.8221
 5833TIP3   OH217462   0.589   0.901   4.802 -0.3470 -0.1926 -0.1282
 5833TIP3    H117463   0.645   0.951   4.743 -0.6703  0.0668 -0.2213
 5833TIP3    H217464   0.615   0.929   4.890 -2.0481  1.8755 -0.2076
 5834TIP3   OH217465   0.160   5.045   3.284  0.3971  0.0210  0.1737
 5834TIP3    H117466   0.218   5.108   3.326  0.3485  0.1859 -0.0075
 5834TIP3    H217467   0.074   5.087   3.286  1.0501  2.0243 -3.9955
 5835TIP3   OH217468   7.132   6.721   3.536 -0.1271  0.6685  0.2867
 5835TIP3    H117469   7.059   6.772   3.570 -1.2600 -1.1039  0.6597
 5835TIP3    H217470   7.189   6.708   3.611  0.7943  2.3106 -0.0715
 5836TIP3   OH217471   6.178   0.941   0.631 -0.4093  0.5451  0.1281
 5836TIP3    H117472   6.206   0.964   0.542  1.1987 -1.5536 -0.0003
 5836TIP3    H217473   6.216   1.008   0.686 -2.0245  2.2954 -0.7569
 5837TIP3   OH217474   2.151   5.603   2.915  0.3148 -0.1962 -0.1939
 5837TIP3    H117475   2.138   5.660   2.839  0.1008  1.3835  0.9812
 5837TIP3    H217476   2.115   5.518   2.888 -1.1797  0.7578 -1.3005
 5838TIP3   OH217477   4.868   0.284   4.692 -0.5566 -0.3372 -0.1009
 5838TIP3    H117478   4.850   0.219   4.623 -2.6662 -0.8465  0.8310
 5838TIP3    H217479   4.801   0.351   4.679  0.5292  0.7943  0.0140
 5839TIP3   OH217480   1.760   5.883   4.284 -0.2283 -0.3889 -0.0015
 5839TIP3    H117481   1.849   5.857   4.261  0.7662  0.6316  2.3779
 5839TIP3    H217482   1.764   5.903   4.377 -2.8430  0.2301  0.0613
 5840TIP3   OH217483   1.702   1.811   4.243  0.4389 -0.5566  0.6747
 5840TIP3    H117484   1.663   1.787   4.159 -0.7639  0.5348  0.8899
 5840TIP3    H217485   1.677   1.903   4.256  0.6445 -0.6802  2.1854
 5841TIP3   OH217486   2.844   2.311   3.682 -0.6741 -0.6103 -0.1141
 5841TIP3    H117487   2.822   2.353   3.599 -0.7440 -0.2658  0.0749
 5841TIP3    H217488   2.776   2.342   3.743 -0.6360 -0.8753  0.0659
 5842TIP3   OH217489   5.292   0.472   1.021  0.2759  0.0025  0.3182
 5842TIP3    H117490   5.290   0.512   0.934 -0.2958 -0.6723  0.0167
 5842TIP3    H217491   5.261   0.383   1.008  1.0029 -0.3827  1.0796
 5843TIP3   OH217492   6.574   1.658   1.973 -0.3113 -0.4645 -0.3004
 5843TIP3    H117493   6.522   1.580   1.995 -1.4933  0.5240  0.5646
 5843TIP3    H217494   6.639   1.664   2.042  0.7479 -1.4977 -1.1811
 5844TIP3   OH217495   1.358   6.304   1.897  0.7281 -0.1898 -0.0886
 5844TIP3    H117496   1.293   6.255   1.949  1.3577 -1.3898 -0.3932
 5844TIP3    H217497   1.424   6.239   1.875 -0.1706 -0.1032 -3.5784
 5845TIP3   OH217498   2.373   1.118   0.795  1.2675  0.4068 -0.2440
 5845TIP3    H117499   2.389   1.207   0.762  1.2281 -0.1319 -1.7912
 5845TIP3    H217500   2.292   1.125   0.845 -0.2097  0.7749 -2.5350
 5846TIP3   OH217501   6.496   0.395   4.570  0.3437  0.3127 -0.7528
 5846TIP3    H117502   6.479   0.357   4.484  1.2418  0.2156 -0.9000
 5846TIP3    H217503   6.583   0.361   4.594  0.1711  0.4637  0.1198
 5847TIP3   OH217504   5.411   3.202   0.763  0.1590 -0.2347 -0.0949
 5847TIP3    H117505   5.452   3.288   0.777 -0.2212  0.3336 -2.0956
 5847TIP3    H217506   5.339   3.200   0.825 -0.7822  1.6016 -1.0269
 5848TIP3   OH217507   1.653   6.670   2.291  1.1216  0.2297 -0.8548
 5848TIP3    H117508   1.586   6.646   2.226  0.3575  0.0540 -0.0295
 5848TIP3    H217509   1.662   6.765   2.281 -0.5425  0.5373  0.1785
 5849TIP3   OH217510   5.898   4.313   3.399  0.2271  0.1305 -0.2418
 5849TIP3    H117511   5.835   4.261   3.349 -1.1981  1.2001  0.3494
 5849TIP3    H217512   5.943   4.366   3.334 -2.4098  2.3683 -0.4565
 5850TIP3   OH217513   1.597   2.898   0.104 -0.6100 -0.6472  0.0801
 5850TIP3    H117514   1.629   2.841   0.034  0.8627 -0.2117  0.3657
 5850TIP3    H217515   1.543   2.964   0.059  0.8109 -0.0057 -0.7632
 5851TIP3   OH217516   3.727   2.757   1.041 -0.6332  0.6248  0.1238
 5851TIP3    H117517   3.728   2.780   1.134  0.0896 -0.5611  0.4232
 5851TIP3    H217518   3.769   2.671   1.036 -1.1952  0.3921 -1.2303
 5852TIP3   OH217519   6.981   4.983   3.391  0.0869 -0.1109 -0.2205
 5852TIP3    H117520   7.011   5.030   3.314  0.8471  0.7122  0.5524
 5852TIP3    H217521   6.896   4.946   3.366  0.0381  0.6613 -1.2363
 5853TIP3   OH217522   4.050   4.049   4.468 -0.3604 -0.1281  0.2412
 5853TIP3    H117523   4.040   3.988   4.395  3.2715 -2.1143  1.0933
 5853TIP3    H217524   4.074   4.132   4.428 -2.3290 -0.0596 -0.8799
 5854TIP3   OH217525   6.201   5.334   4.638  0.1237 -0.4041  0.2157
 5854TIP3    H117526   6.220   5.402   4.574  1.2663  1.4830  2.4088
 5854TIP3    H217527   6.115   5.358   4.673 -0.3078 -1.1885 -0.2698
 5855TIP3   OH217528   0.587   2.552   3.747  0.4049  0.0615 -0.4494
 5855TIP3    H117529   0.500   2.581   3.774  0.8130  0.9852 -0.0773
 5855TIP3    H217530   0.610   2.610   3.674  0.4969 -0.5304 -0.8967
 5856TIP3   OH217531   6.637   6.217   3.398  0.1847 -0.3073 -0.5022
 5856TIP3    H117532   6.686   6.264   3.330  1.3564  0.8009  1.0351
 5856TIP3    H217533   6.546   6.244   3.385  0.4438  0.1743 -1.3860
 5857TIP3   OH217534   0.325   1.842   4.328  0.1483  0.4616 -0.3573
 5857TIP3    H117535   0.302   1.757   4.289  1.6179  0.1212 -0.5478
 5857TIP3    H217536   0.241   1.884   4.346 -0.5941 -0.5190 -1.3985
 5858TIP3   OH217537   5.825   4.313   3.896 -0.3446  0.2726  0.3723
 5858TIP3    H117538   5.826   4.324   3.991 -1.9040 -0.3509  0.4771
 5858TIP3    H217539   5.759   4.246   3.879  0.0263  0.2380 -1.1525
 5859TIP3   OH217540   6.045   6.046   3.948  0.1598  0.2889  0.7554
 5859TIP3    H117541   6.060   5.989   4.024  0.5334 -0.0365  0.4473
 5859TIP3    H217542   5.967   6.011   3.906  0.9489 -0.6462  0.0007
 5860TIP3   OH217543   6.365   0.500   0.151  0.2811  0.3301  0.1930
 5860TIP3    H117544   6.286   0.543   0.183 -0.8462 -0.5156 -1.2986
 5860TIP3    H217545   6.435   0.563   0.168 -0.5310  0.7598  2.3267
 5861TIP3   OH217546   6.317   4.441   1.286  0.2696 -0.1601 -0.0757
 5861TIP3    H117547   6.233   4.430   1.331 -0.6374  1.8762 -1.1691
 5861TIP3    H217548   6.347   4.528   1.311  0.2730  0.5904 -2.4603
 5862TIP3   OH217549   6.422   2.301   0.680 -0.5079 -0.6382  0.0565
 5862TIP3    H117550   6.384   2.313   0.593 -0.9629  0.5832  0.3952
 5862TIP3    H217551   6.503   2.252   0.665  1.0054  2.0555 -1.4514
 5863TIP3   OH217552   0.788   3.532   1.929 -0.1002 -0.0240  0.1703
 5863TIP3    H117553   0.778   3.583   1.848  0.4927 -0.6799 -0.3302
 5863TIP3    H217554   0.882   3.532   1.946 -0.0594 -1.1222  0.0360
 5864TIP3   OH217555   3.181   5.506   4.483 -0.2323 -0.0910  0.1671
 5864TIP3    H117556   3.116   5.522   4.414 -0.9246  0.3368  0.9037
 5864TIP3    H217557   3.188   5.590   4.528  2.2523  0.4446 -1.0608
 5865TIP3   OH217558   5.515   5.219   1.434 -0.5333 -0.3313  0.1307
 5865TIP3    H117559   5.467   5.138   1.454 -0.3722 -0.2044  1.0658
 5865TIP3    H217560   5.558   5.242   1.516 -3.0956  2.4231  0.8594
 5866TIP3   OH217561   4.780   4.706   2.022  0.3213  0.2181  0.2814
 5866TIP3    H117562   4.709   4.743   2.075 -0.7654  1.4590 -1.9186
 5866TIP3    H217563   4.852   4.768   2.030 -0.3908  1.2460 -0.8580
 5867TIP3   OH217564   6.761   5.817   2.745  0.1163 -0.5391 -0.2321
 5867TIP3    H117565   6.805   5.748   2.794  0.2824 -0.1741  0.1400
 5867TIP3    H217566   6.715   5.771   2.675 -0.0240 -1.0541  0.1880
 5868TIP3   OH217567   1.919   1.355   2.356 -0.0923  0.7528  0.2361
 5868TIP3    H117568   1.861   1.325   2.426  0.0035  2.3803  1.0383
 5868TIP3    H217569   1.976   1.279   2.339 -0.5591  0.1045  1.4344
 5869TIP3   OH217570   1.150   6.386   4.535  0.1553 -0.0200  0.1656
 5869TIP3    H117571   1.138   6.311   4.476  0.2072 -0.2887  0.4918
 5869TIP3    H217572   1.242   6.409   4.524 -0.2099  0.9753 -1.0775
 5870TIP3   OH217573   3.926   5.581   4.173  0.1443  0.1258 -0.3602
 5870TIP3    H117574   3.906   5.667   4.135 -0.6296  0.5711  1.0259
 5870TIP3    H217575   3.994   5.599   4.238  0.8023 -0.4962 -0.8646
 5871TIP3   OH217576   0.690   0.632   0.483  0.2868  0.8284  0.4676
 5871TIP3    H117577   0.734   0.635   0.398  1.5592 -1.1673  0.9784
 5871TIP3    H217578   0.621   0.568   0.472  1.0894 -0.1954  1.1604
 5872TIP3   OH217579   0.434   0.968   0.003  0.2546 -0.0571 -0.2331
 5872TIP3    H117580   0.467   0.882   0.028  0.1594 -0.3569 -1.1088
 5872TIP3    H217581   0.468   1.027   0.070  2.9568 -0.2584 -1.3002
 5873TIP3   OH217582   5.887   5.285   4.653 -0.2453 -0.0371  0.6014
 5873TIP3    H117583   5.846   5.326   4.729  0.4314 -0.6362  1.3113
 5873TIP3    H217584   5.929   5.207   4.688  1.4874  0.5386 -0.0689
 5874TIP3   OH217585   6.383   1.366   1.545 -0.2811 -0.2908 -0.7240
 5874TIP3    H117586   6.335   1.337   1.467  0.8495  1.0627 -1.9993
 5874TIP3    H217587   6.331   1.439   1.578 -0.7826 -0.8911 -0.1511
 5875TIP3   OH217588   5.828   6.303   1.580 -0.6904  0.0789  0.3065
 5875TIP3    H117589   5.855   6.274   1.667 -1.1598  2.2350  1.2301
 5875TIP3    H217590   5.909   6.317   1.532 -0.3734  0.3418  0.9158
 5876TIP3   OH217591   5.813   5.302   3.885  0.0476  0.2681 -0.1866
 5876TIP3    H117592   5.771   5.216   3.878 -0.5463  0.6379 -1.5200
 5876TIP3    H217593   5.778   5.340   3.965  0.6303 -0.8729  0.6486
 5877TIP3   OH217594   0.694   6.374   0.988  0.6724  0.1264 -0.0020
 5877TIP3    H117595   0.766   6.311   0.986  0.6929  0.0768  1.3381
 5877TIP3    H217596   0.657   6.365   1.076 -1.5335 -0.4629 -0.9029
 5878TIP3   OH217597   4.742   2.196   2.149 -0.0192  0.3633  0.4650
 5878TIP3    H117598   4.761   2.168   2.239  2.5005  0.4024  0.0007
 5878TIP3    H217599   4.769   2.288   2.146  0.5614  0.1787 -0.4861
 5879TIP3   OH217600   4.889   3.639   0.330  0.5211 -0.0646  0.3674
 5879TIP3    H117601   4.877   3.724   0.372  0.7537 -0.1435  0.5916
 5879TIP3    H217602   4.912   3.579   0.401 -3.0946 -1.1321  0.8358
 5880TIP3   OH217603   1.737   5.869   3.931  0.1873  0.1477 -0.0746
 5880TIP3    H117604   1.644   5.889   3.927  0.2502  0.4067 -0.2664
 5880TIP3    H217605   1.776   5.944   3.976  0.6550  1.2882 -2.2391
 5881TIP3   OH217606   2.149   6.286   0.358 -0.0292 -0.2615  0.4591
 5881TIP3    H117607   2.207   6.344   0.309  0.3653  0.9092  2.2470
 5881TIP3    H217608   2.065   6.291   0.311 -0.5357  3.1840  1.4834
 5882TIP3   OH217609   1.250   5.635   5.815  0.2999  0.8622  0.1661
 5882TIP3    H117610   1.231   5.596   5.730 -0.4987  0.5995  0.4524
 5882TIP3    H217611   1.303   5.712   5.796  1.7739 -0.2359 -0.4398
 5883TIP3   OH217612   1.202   5.944   1.394  0.0223  0.5541  0.5443
 5883TIP3    H117613   1.128   5.979   1.444 -0.1860 -1.3494  1.6712
 5883TIP3    H217614   1.278   5.994   1.426 -0.4673  1.0570  0.9475
 5884TIP3   OH217615   6.958   5.939   4.193  0.1677 -0.4134  0.1460
 5884TIP3    H117616   6.909   5.916   4.272 -0.0352  1.0175  0.4614
 5884TIP3    H217617   6.904   6.003   4.148  0.6214 -0.6649 -0.7918
 5885TIP3   OH217618   5.403   1.029   1.678 -0.1944 -0.1873 -0.1916
 5885TIP3    H117619   5.387   1.122   1.663  0.4820 -0.0400 -0.0622
 5885TIP3    H217620   5.481   1.009   1.625  0.6517 -0.2762  1.0366
 5886TIP3   OH217621   4.929   3.721   0.039  0.2607  0.4513  0.2035
 5886TIP3    H117622   4.956   3.810   0.061 -0.0878  0.2660  1.4286
 5886TIP3    H217623   4.848   3.733  -0.010 -0.1747  0.7841  0.9923
 5887TIP3   OH217624   1.876   6.417   2.431 -0.0138  0.0182 -0.6386
 5887TIP3    H117625   1.795   6.458   2.460  0.3796  1.1414 -1.0551
 5887TIP3    H217626   1.866   6.325   2.454 -0.8690  0.3638  0.4658
 5888TIP3   OH217627   7.118   2.298   1.448 -0.1546  0.0323 -0.0650
 5888TIP3    H117628   7.058   2.373   1.445 -1.6074 -1.0792 -0.3594
 5888TIP3    H217629   7.116   2.268   1.539  0.7150  0.5623  0.1349
 5889TIP3   OH217630   1.418   0.638   0.760  0.2001 -0.4121 -0.1155
 5889TIP3    H117631   1.489   0.669   0.816 -0.6817 -0.4343  1.0556
 5889TIP3    H217632   1.461   0.611   0.679  1.3421  1.0760 -0.0533
 5890TIP3   OH217633   2.297   3.566   3.224  0.0168 -0.1132 -0.0293
 5890TIP3    H117634   2.304   3.485   3.275 -0.2977 -0.0812  0.0645
 5890TIP3    H217635   2.288   3.535   3.133  0.6173 -0.1684 -0.0758
 5891TIP3   OH217636   2.980   1.816   5.562 -0.4404  0.4309 -0.0203
 5891TIP3    H117637   2.964   1.907   5.585 -1.5757  0.3829 -0.5347
 5891TIP3    H217638   3.016   1.819   5.474  2.4423  0.5223  1.0547
 5892TIP3   OH217639   2.576   2.919   1.959 -0.2436  0.6300 -0.4017
 5892TIP3    H117640   2.645   2.875   2.009 -0.5750  0.0964 -0.4073
 5892TIP3    H217641   2.623   2.964   1.889 -0.0521 -1.7587 -1.9169
 5893TIP3   OH217642   5.875   1.721   1.647 -0.0821  0.6245 -0.6273
 5893TIP3    H117643   5.904   1.647   1.594 -0.5194 -0.6514  0.8236
 5893TIP3    H217644   5.788   1.742   1.612 -0.0841  0.2448 -0.8603
 5894TIP3   OH217645   4.121   4.901   0.372 -0.5467  0.2437 -1.0008
 5894TIP3    H117646   4.207   4.919   0.410 -0.4274 -0.3310 -0.9917
 5894TIP3    H217647   4.104   4.976   0.315 -1.1968  1.6476  0.9322
 5895TIP3   OH217648   1.519   4.309   2.280 -0.4492 -0.6294 -0.1638
 5895TIP3    H117649   1.538   4.216   2.293 -1.2307 -0.7230  0.3838
 5895TIP3    H217650   1.567   4.353   2.350  3.4396 -0.1383 -2.8110
 5896TIP3   OH217651   2.054   3.054   2.770  0.2819 -0.2900 -0.4501
 5896TIP3    H117652   2.095   2.975   2.736 -0.3737 -0.3934 -1.0097
 5896TIP3    H217653   2.057   3.116   2.697 -0.7408 -0.3656 -0.5600
 5897TIP3   OH217654   6.567   6.618   2.420 -0.3589 -0.2836  0.0948
 5897TIP3    H117655   6.512   6.683   2.464  0.3759  0.4190  0.0018
 5897TIP3    H217656   6.505   6.559   2.377 -1.0465  0.1239  0.5109
 5898TIP3   OH217657   3.358   4.385   5.608 -0.1503  0.3175  0.5771
 5898TIP3    H117658   3.384   4.324   5.677 -0.2957  0.1976  0.5259
 5898TIP3    H217659   3.320   4.330   5.539 -0.7726  0.5060  0.7573
 5899TIP3   OH217660   1.120   3.838   0.741 -1.1333  0.5023 -0.7544
 5899TIP3    H117661   1.103   3.744   0.733 -0.5139  0.1822  1.1687
 5899TIP3    H217662   1.169   3.846   0.822 -0.6809  2.4502 -1.1822
 5900TIP3   OH217663   4.513   1.316   4.928  0.4338 -0.1099  0.1497
 5900TIP3    H117664   4.519   1.312   4.832 -2.4851  3.9875 -0.4604
 5900TIP3    H217665   4.596   1.354   4.956 -0.0266  2.0874 -1.2604
 5901TIP3   OH217666   6.217   1.858   3.076 -0.5144  0.2497  0.3253
 5901TIP3    H117667   6.311   1.880   3.080 -0.1714 -0.9546 -0.6565
 5901TIP3    H217668   6.214   1.764   3.093 -1.6146  0.3644  0.8544
 5902TIP3   OH217669   3.340   3.871   3.536  0.2961  0.0254 -0.0304
 5902TIP3    H117670   3.430   3.854   3.511  0.4608 -0.1373  0.6515
 5902TIP3    H217671   3.318   3.802   3.599 -0.9761 -1.1598 -1.6775
 5903TIP3   OH217672   1.157   2.889   2.035  0.6674 -0.2440 -0.6468
 5903TIP3    H117673   1.137   2.938   1.955 -0.5912  0.9700  0.3658
 5903TIP3    H217674   1.121   2.942   2.105  2.1575 -1.0529  0.7981
 5904TIP3   OH217675   6.746   6.489   0.016  0.2732  0.5297  0.0591
 5904TIP3    H117676   6.738   6.465   0.108 -0.7529  0.6240  0.0138
 5904TIP3    H217677   6.834   6.462  -0.009 -0.7488 -3.2053  0.0102
 5905TIP3   OH217678   4.010   4.676   4.481 -0.0903 -0.1048  0.4403
 5905TIP3    H117679   4.085   4.707   4.430 -1.2311  1.2941 -0.4566
 5905TIP3    H217680   4.041   4.680   4.572  0.9449  0.3776  0.0884
 5906TIP3   OH217681   1.073   1.935   5.204  0.3433 -0.0866 -0.6798
 5906TIP3    H117682   1.153   1.884   5.192 -0.3406 -1.3336 -0.0111
 5906TIP3    H217683   1.026   1.926   5.121 -0.9917 -2.7494  0.2731
 5907TIP3   OH217684   2.625   0.018   4.616  0.2556  0.1589  0.1082
 5907TIP3    H117685   2.613  -0.005   4.708  2.0716  1.1379  0.6376
 5907TIP3    H217686   2.537   0.037   4.585 -0.3819 -0.0429  1.6730
 5908TIP3   OH217687   6.599   4.235   5.497 -0.0655 -0.1544  0.4919
 5908TIP3    H117688   6.553   4.315   5.522 -0.7188 -1.1031  2.5030
 5908TIP3    H217689   6.691   4.252   5.520 -0.3639 -0.3243  1.8902
 5909TIP3   OH217690   4.925   6.614   2.019  0.0331 -0.4023  0.2328
 5909TIP3    H117691   4.961   6.682   2.075 -0.6947  0.2843 -0.1166
 5909TIP3    H217692   4.849   6.581   2.066 -0.9890  0.6491 -0.6147
 5910TIP3   OH217693   0.807   4.775   4.284 -0.1933  0.1426 -0.1932
 5910TIP3    H117694   0.782   4.827   4.361  0.8463 -0.6694  0.7297
 5910TIP3    H217695   0.725   4.765   4.235 -1.3785 -0.9369  1.8104
 5911TIP3   OH217696   5.773   2.932   3.313  0.6925 -0.3929  0.9091
 5911TIP3    H117697   5.700   2.923   3.374 -0.3796  1.2164 -0.0522
 5911TIP3    H217698   5.848   2.953   3.368  0.2869 -1.3528  1.8554
 5912TIP3   OH217699   4.097   5.227   3.497  0.1161  0.2351 -0.4084
 5912TIP3    H117700   4.093   5.290   3.569 -1.7725 -0.3209  0.0332
 5912TIP3    H217701   4.182   5.186   3.505  0.6543  1.4567  0.3975
 5913TIP3   OH217702   5.020   0.231   0.823 -0.1081  0.0750 -0.1220
 5913TIP3    H117703   4.996   0.275   0.742 -0.3345  0.9172  0.3910
 5913TIP3    H217704   4.954   0.163   0.835 -1.0540  1.0388  0.2211
 5914TIP3   OH217705   3.573   4.901   1.186  0.6028  0.1539 -0.1533
 5914TIP3    H117706   3.497   4.848   1.212  1.0215  0.1162  1.0873
 5914TIP3    H217707   3.639   4.836   1.161  0.4178  0.1704 -0.7009
 5915TIP3   OH217708   0.640   0.657   1.789 -0.0272  0.5382 -0.6616
 5915TIP3    H117709   0.594   0.734   1.824 -1.6052 -0.7129  0.1491
 5915TIP3    H217710   0.667   0.683   1.701 -0.7150  1.9373 -0.4858
 5916TIP3   OH217711   6.688   3.796   3.012 -0.3011 -0.2579 -0.1969
 5916TIP3    H117712   6.741   3.819   3.088  1.6886 -0.5588 -1.4276
 5916TIP3    H217713   6.649   3.879   2.984  1.4011  0.4421 -0.6099
 5917TIP3   OH217714   6.549   4.595   4.458 -0.0850  0.5657 -0.1369
 5917TIP3    H117715   6.533   4.687   4.476 -1.8193  0.2952 -0.1426
 5917TIP3    H217716   6.509   4.580   4.372 -0.9548 -0.4751  0.4397
 5918TIP3   OH217717   3.981   4.495   0.660 -0.2883 -0.4499 -0.5639
 5918TIP3    H117718   3.958   4.554   0.588  1.8276  0.4754 -0.5604
 5918TIP3    H217719   3.957   4.544   0.739  0.3338 -0.0727 -0.5958
 5919TIP3   OH217720   5.434   2.959   4.232  0.3227  0.0220 -0.1049
 5919TIP3    H117721   5.357   2.972   4.288  1.3953  0.9955  1.2019
 5919TIP3    H217722   5.469   2.874   4.259 -0.7409 -0.8355 -1.3055
 5920TIP3   OH217723   4.450   1.596   5.597  0.8142 -0.1675  0.3829
 5920TIP3    H117724   4.373   1.633   5.641  0.3128 -0.6581 -0.0694
 5920TIP3    H217725   4.515   1.586   5.667  0.7295  0.9293  0.6368
 5921TIP3   OH217726   4.550   4.054   4.894 -0.0976  0.0002 -0.3212
 5921TIP3    H117727   4.541   4.149   4.900  0.0553  0.0879 -1.3401
 5921TIP3    H217728   4.522   4.022   4.980  0.4396  1.0017  0.2409
 5922TIP3   OH217729   0.811   2.262   1.306 -0.3756 -0.0588  0.4811
 5922TIP3    H117730   0.836   2.176   1.342 -1.6848 -0.6222  0.1080
 5922TIP3    H217731   0.865   2.272   1.228  0.8824  0.1641  1.3510
 5923TIP3   OH217732   6.127   6.549   5.413  0.0380  0.4194  0.1662
 5923TIP3    H117733   6.179   6.566   5.334 -0.1269  1.3393  0.2432
 5923TIP3    H217734   6.178   6.589   5.483 -0.8126  1.4102  0.2290
 5924TIP3   OH217735   0.335   0.180   0.087  0.6676 -0.4122 -0.2676
 5924TIP3    H117736   0.264   0.126   0.123  0.7929 -1.8840 -2.1158
 5924TIP3    H217737   0.302   0.209   0.002  1.4846  0.6160 -0.2444
 5925TIP3   OH217738   1.473   5.336   2.547  0.0474 -0.3967  0.5220
 5925TIP3    H117739   1.528   5.282   2.491  0.3534  0.8306 -0.3963
 5925TIP3    H217740   1.389   5.291   2.550 -0.9829  0.9215 -3.3746
 5926TIP3   OH217741   5.655   1.830   3.272  0.1581  0.2169 -0.1863
 5926TIP3    H117742   5.733   1.805   3.321  1.7263 -0.2024 -2.7017
 5926TIP3    H217743   5.675   1.917   3.237 -0.5680  0.1870 -0.6958
 5927TIP3   OH217744   1.614   2.569   5.014 -0.0547  0.2382 -0.5100
 5927TIP3    H117745   1.559   2.520   5.075 -0.8362  1.7582  0.0558
 5927TIP3    H217746   1.597   2.529   4.929 -1.7717  0.4289 -0.2848
 5928TIP3   OH217747   5.145   5.637   4.389  0.1044  0.2441  0.0157
 5928TIP3    H117748   5.147   5.625   4.294 -0.3162 -0.4364  0.0843
 5928TIP3    H217749   5.115   5.727   4.402 -0.3197  0.1773 -0.4926
 5929TIP3   OH217750   4.700   0.339   2.749 -0.0660 -0.2187  0.1029
 5929TIP3    H117751   4.634   0.281   2.711 -1.2671 -0.0340  1.7702
 5929TIP3    H217752   4.709   0.410   2.685  0.3291 -1.4506 -1.2614
 5930TIP3   OH217753   4.203   2.885   4.969 -0.0149 -0.2521  0.5326
 5930TIP3    H117754   4.115   2.874   4.932 -0.6896  0.2949  1.8896
 5930TIP3    H217755   4.253   2.927   4.900 -0.2937 -2.1765 -0.9177
 5931TIP3   OH217756   0.381   1.127   0.582 -0.1089  0.2677  0.0663
 5931TIP3    H117757   0.319   1.175   0.637 -0.4839  0.1070 -0.2113
 5931TIP3    H217758   0.414   1.192   0.520  0.1859  0.4095  0.3673
 5932TIP3   OH217759   6.380   5.689   0.074  0.1142  0.2160  0.1565
 5932TIP3    H117760   6.293   5.708   0.040  0.4774  2.3046  0.3052
 5932TIP3    H217761   6.421   5.635   0.006 -0.6013  0.8745 -0.8118
 5933TIP3   OH217762   5.695   2.671   2.286 -0.0787 -0.2967 -0.1738
 5933TIP3    H117763   5.757   2.598   2.280  0.2177 -0.0090 -0.6791
 5933TIP3    H217764   5.661   2.666   2.376 -1.5959 -2.2977 -0.7823
 5934TIP3   OH217765   5.660   2.148   4.585  0.2929  0.0362 -0.4359
 5934TIP3    H117766   5.564   2.154   4.578  0.4076  2.2698 -0.9080
 5934TIP3    H217767   5.676   2.131   4.678 -0.5588 -1.2490 -0.4994
 5935TIP3   OH217768   7.075   4.332   0.665 -0.3883 -0.5928  0.2797
 5935TIP3    H117769   7.021   4.319   0.587 -0.7323  2.3869 -0.0687
 5935TIP3    H217770   7.030   4.280   0.733 -1.1375 -1.7293 -1.0353
 5936TIP3   OH217771   3.060   5.180   1.881  0.2263 -0.1364  0.2574
 5936TIP3    H117772   3.088   5.269   1.860 -4.2612  1.3212 -0.5672
 5936TIP3    H217773   3.137   5.126   1.862  2.4890  3.2678 -1.3230
 5937TIP3   OH217774   2.913   0.661   5.616  0.1062  0.3831  0.0399
 5937TIP3    H117775   2.881   0.571   5.603 -1.4713  1.0124 -0.6691
 5937TIP3    H217776   2.949   0.686   5.531  2.5801 -0.3007  0.8174
 5938TIP3   OH217777   3.071   4.117   2.234 -0.0731 -0.4204  0.4900
 5938TIP3    H117778   3.033   4.197   2.271  3.2575  2.7087 -2.0863
 5938TIP3    H217779   3.143   4.095   2.293 -1.6508 -2.4113  1.8201
 5939TIP3   OH217780   6.032   3.544   2.658 -0.1721  0.1830  0.4616
 5939TIP3    H117781   5.953   3.573   2.705  1.0182  1.0403  2.0017
 5939TIP3    H217782   6.050   3.457   2.694 -1.6330 -1.0357 -1.5195
 5940TIP3   OH217783   0.613   4.084   4.307  0.2404 -0.5866 -0.4427
 5940TIP3    H117784   0.550   4.079   4.236  1.0370 -1.0239 -1.1315
 5940TIP3    H217785   0.688   4.130   4.270  0.6484 -0.7830  0.1210
 5941TIP3   OH217786   1.228   2.826   3.058 -0.4162 -0.2405  0.2035
 5941TIP3    H117787   1.132   2.820   3.052 -0.3706 -1.1390  0.2574
 5941TIP3    H217788   1.259   2.800   2.971 -0.2068 -0.4300  0.3330
 5942TIP3   OH217789   6.250   0.044   2.609  0.2201  0.1715 -0.2238
 5942TIP3    H117790   6.299   0.022   2.688  0.7443 -1.5468 -0.9829
 5942TIP3    H217791   6.170   0.087   2.641 -0.3578 -1.9286  1.3618
 5943TIP3   OH217792   1.817   2.912   2.692 -0.2837 -0.5080  0.1461
 5943TIP3    H117793   1.907   2.930   2.719 -0.6326 -0.4207  1.2818
 5943TIP3    H217794   1.764   2.928   2.770 -1.2692 -0.7684 -0.4443
 5944TIP3   OH217795   7.033   4.197   2.999  0.5258  0.7590 -0.3471
 5944TIP3    H117796   6.991   4.239   3.074  0.5457  0.8754 -0.3995
 5944TIP3    H217797   7.035   4.266   2.932  1.9443  1.1542  0.0744
 5945TIP3   OH217798   3.958   1.368   5.252 -0.3342  0.1985  0.0852
 5945TIP3    H117799   3.928   1.409   5.334 -0.2165 -0.7347  0.6036
 5945TIP3    H217800   4.031   1.422   5.224 -0.1242  0.3015  0.8125
 5946TIP3   OH217801   7.206   0.918   3.737 -0.1037 -0.2127  0.7444
 5946TIP3    H117802   7.211   0.997   3.791  0.2335  0.4517 -0.2243
 5946TIP3    H217803   7.173   0.948   3.652 -0.6047 -1.2236  0.5603
 5947TIP3   OH217804   4.195   3.795   1.662  0.0223 -0.0604 -0.2012
 5947TIP3    H117805   4.147   3.831   1.588  0.6702 -0.5174 -0.8695
 5947TIP3    H217806   4.130   3.785   1.731 -0.6719  0.0419 -0.8311
 5948TIP3   OH217807   7.010   1.493   2.307  0.1372 -0.3212 -0.2919
 5948TIP3    H117808   7.065   1.557   2.262 -0.9225  0.3815 -0.6337
 5948TIP3    H217809   6.971   1.441   2.236 -0.4364 -0.1358 -0.1200
 5949TIP3   OH217810   3.033   2.596   3.284 -0.0048 -0.4735  0.0498
 5949TIP3    H117811   2.938   2.587   3.287 -0.3965  2.0096 -1.8940
 5949TIP3    H217812   3.060   2.543   3.209 -0.0106 -0.1906 -0.1522
 5950TIP3   OH217813   1.408   1.568   1.326 -0.4248  0.0390 -0.0280
 5950TIP3    H117814   1.461   1.515   1.266  0.0141  1.1377 -0.6324
 5950TIP3    H217815   1.459   1.648   1.338 -1.7271  0.9145 -0.2284
 5951TIP3   OH217816   4.835   2.856   2.969  0.1186 -0.6981 -0.7156
 5951TIP3    H117817   4.928   2.876   2.968 -0.5186  2.8777 -0.0779
 5951TIP3    H217818   4.826   2.783   3.031  2.3701 -0.5463 -0.1427
 5952TIP3   OH217819   3.940   1.407   4.611  0.2281 -0.2486  0.2988
 5952TIP3    H117820   3.958   1.327   4.563 -0.8641 -1.5365  1.9070
 5952TIP3    H217821   3.851   1.432   4.584  0.6529  0.5980 -0.3802
 5953TIP3   OH217822   2.025   5.775   2.073 -0.1100 -0.1490  0.7117
 5953TIP3    H117823   1.980   5.840   2.127  1.5701  1.0938  0.6927
 5953TIP3    H217824   2.112   5.767   2.112  0.8468  0.1095 -1.2173
 5954TIP3   OH217825   2.526   5.207   5.020  0.6925 -0.2698 -0.5040
 5954TIP3    H117826   2.571   5.291   5.020 -0.7166  0.5027 -0.7118
 5954TIP3    H217827   2.454   5.217   4.958 -0.8033 -0.8773  1.0428
 5955TIP3   OH217828   0.810   6.709   1.929  0.6088  0.2139  0.0237
 5955TIP3    H117829   0.726   6.675   1.898  1.7102 -1.4537 -1.2861
 5955TIP3    H217830   0.826   6.663   2.012 -0.0049  0.9672  0.5784
 5956TIP3   OH217831   0.629   6.430   0.738 -0.3570 -0.3801 -0.1884
 5956TIP3    H117832   0.694   6.392   0.679 -0.3659  0.6246 -0.8748
 5956TIP3    H217833   0.665   6.416   0.826 -0.1222 -1.4888 -0.4457
 5957TIP3   OH217834   5.947   2.856   5.779 -0.3728  0.2440  0.1986
 5957TIP3    H117835   5.891   2.920   5.822  0.0300 -0.6411  2.1163
 5957TIP3    H217836   6.035   2.894   5.784 -0.2685 -0.0322  0.5222
 5958TIP3   OH217837   1.780   4.906   0.601  0.1323 -0.3754  0.4439
 5958TIP3    H117838   1.734   4.854   0.667 -1.0016 -0.5551 -0.4420
 5958TIP3    H217839   1.726   4.985   0.591 -0.1630 -0.7087 -0.8081
 5959TIP3   OH217840   0.026   2.837   5.067 -0.1814  0.2412 -0.1624
 5959TIP3    H117841  -0.037   2.899   5.102  0.5503  0.9143 -0.0027
 5959TIP3    H217842   0.080   2.889   5.007 -0.6386 -0.6263 -1.3488
 5960TIP3   OH217843   0.224   5.985   2.796  0.0708  0.0544 -0.4357
 5960TIP3    H117844   0.136   6.021   2.782  0.8180  1.9319 -0.6277
 5960TIP3    H217845   0.232   5.976   2.891 -0.6486 -1.0273 -0.4658
 5961TIP3   OH217846   2.298   2.462   1.361  0.3477 -0.0592 -0.4451
 5961TIP3    H117847   2.277   2.553   1.341 -1.8632 -0.5917 -0.9085
 5961TIP3    H217848   2.277   2.415   1.280  0.6142 -1.0810  0.0625
 5962TIP3   OH217849   4.103   5.276   5.260  0.2835  0.1322  0.2944
 5962TIP3    H117850   4.111   5.358   5.309 -2.0099  0.3509  0.4008
 5962TIP3    H217851   4.034   5.227   5.306  0.3622 -1.0836 -0.8187
 5963TIP3   OH217852   1.965   1.569   2.210  0.2086 -0.7850 -0.3507
 5963TIP3    H117853   2.026   1.543   2.140  1.2645 -0.4350  0.4144
 5963TIP3    H217854   1.970   1.497   2.273 -0.1511 -0.7329 -0.2612
 5964TIP3   OH217855   1.714   5.167   3.492  0.4965 -0.1198 -0.6109
 5964TIP3    H117856   1.728   5.073   3.508  0.0076 -0.3936 -1.7490
 5964TIP3    H217857   1.706   5.175   3.397 -1.0835  0.8566 -0.4282
 5965TIP3   OH217858   6.324   3.552   2.853 -0.4932  0.2197 -0.4361
 5965TIP3    H117859   6.256   3.542   2.919  0.2727 -2.7151  0.0637
 5965TIP3    H217860   6.404   3.525   2.896  0.2993 -0.2653 -2.1134
 5966TIP3   OH217861   1.484   2.701   1.544 -0.4319  0.1151 -0.2647
 5966TIP3    H117862   1.503   2.614   1.579  0.9448  0.4931  0.0053
 5966TIP3    H217863   1.563   2.725   1.495 -0.8156  1.1775 -0.4026
 5967TIP3   OH217864   1.986   2.201   0.944  0.2753  0.4563 -0.1479
 5967TIP3    H117865   1.958   2.145   1.017  0.7879 -0.0607 -0.3322
 5967TIP3    H217866   1.975   2.145   0.866 -0.7092  1.1589 -0.5310
 5968TIP3   OH217867   0.850   3.860   3.367  0.3792  0.2183  0.0228
 5968TIP3    H117868   0.789   3.787   3.359  1.0610 -0.3073 -0.4513
 5968TIP3    H217869   0.825   3.903   3.449  0.7986 -1.3212  1.0061
 5969TIP3   OH217870   2.333   0.455   2.580  0.1224 -0.2990  0.4405
 5969TIP3    H117871   2.350   0.447   2.673 -1.8489 -1.0518  0.7950
 5969TIP3    H217872   2.245   0.492   2.574 -0.0956 -0.9531 -1.0992
 5970TIP3   OH217873   0.911   0.893   1.269  0.7115 -0.2137 -0.4492
 5970TIP3    H117874   0.896   0.886   1.175 -0.9350  1.5834 -0.3888
 5970TIP3    H217875   0.858   0.822   1.307 -0.9731  0.8323 -0.7530
 5971TIP3   OH217876   1.380   0.886   3.622  0.6804 -0.0921 -0.5248
 5971TIP3    H117877   1.397   0.797   3.592 -3.0303 -0.8833 -0.7967
 5971TIP3    H217878   1.384   0.939   3.542 -2.2710 -1.0365 -1.4517
 5972TIP3   OH217879   2.381   0.591   1.764 -0.5092 -0.1092 -0.0606
 5972TIP3    H117880   2.349   0.505   1.740 -2.9120  1.1477 -1.8334
 5972TIP3    H217881   2.303   0.640   1.790  0.9800  1.0844  2.6480
 5973TIP3   OH217882   6.777   3.638   1.860  0.2474 -0.3225 -0.5162
 5973TIP3    H117883   6.804   3.565   1.804 -2.1906 -1.7164 -0.0032
 5973TIP3    H217884   6.681   3.635   1.858  0.0781  0.6134  2.3968
 5974TIP3   OH217885   2.249   6.367   2.224  0.6298  0.3575  0.2824
 5974TIP3    H117886   2.298   6.335   2.299 -1.0509 -1.9157  0.5023
 5974TIP3    H217887   2.182   6.425   2.261  0.8657  0.5717  0.3689
 5975TIP3   OH217888   3.529   3.292   2.108  0.2341  0.6787 -0.0166
 5975TIP3    H117889   3.442   3.318   2.075  0.7499  0.8346 -1.3291
 5975TIP3    H217890   3.590   3.346   2.057  1.1769 -0.6546 -0.3540
 5976TIP3   OH217891   5.410   6.528   2.166 -0.0245 -0.8425  0.4586
 5976TIP3    H117892   5.428   6.478   2.245  0.3904  0.0784  0.9617
 5976TIP3    H217893   5.453   6.613   2.181 -0.3267 -0.4983 -0.5564
 5977TIP3   OH217894   1.805   1.502   3.222 -0.0695  0.1766  0.1022
 5977TIP3    H117895   1.753   1.468   3.294 -2.5604 -0.4011 -1.8321
 5977TIP3    H217896   1.763   1.585   3.198  2.1145  1.5426  0.7204
 5978TIP3   OH217897   5.731   2.071   2.037 -0.3132 -0.2303 -0.0735
 5978TIP3    H117898   5.774   2.045   1.955 -0.3968 -1.0902  0.1463
 5978TIP3    H217899   5.679   1.994   2.062  1.2531 -0.7387  1.8315
 5979TIP3   OH217900   3.781   2.871   3.956  0.0871  0.0852  0.1271
 5979TIP3    H117901   3.812   2.813   3.887 -2.3200  1.2998 -2.1060
 5979TIP3    H217902   3.697   2.835   3.982 -0.2360  1.1174  0.5665
 5980TIP3   OH217903   5.952   4.121   3.701  0.5068 -0.5881  0.3476
 5980TIP3    H117904   6.047   4.105   3.704  0.4250 -0.9358  1.4172
 5980TIP3    H217905   5.935   4.179   3.775 -0.0562 -0.1278 -0.1279
 5981TIP3   OH217906   6.357   6.093   3.002  0.2131 -0.6629 -0.1397
 5981TIP3    H117907   6.413   6.158   2.959 -0.0433 -0.0900  0.3611
 5981TIP3    H217908   6.403   6.010   2.991  2.4832  0.1003  2.3661
 5982TIP3   OH217909   5.641   6.009   0.811 -0.0616 -0.1126  0.2612
 5982TIP3    H117910   5.560   6.052   0.839 -0.4557 -1.0623  0.6094
 5982TIP3    H217911   5.708   6.044   0.869 -0.3429  0.1490  0.4335
 5983TIP3   OH217912   5.724   4.946   0.957  0.3825 -0.3117 -0.4375
 5983TIP3    H117913   5.809   4.950   1.002  0.3836 -2.2459 -0.2051
 5983TIP3    H217914   5.682   4.867   0.991 -0.6492 -0.5073 -2.0663
 5984TIP3   OH217915   5.499   0.528   2.721  0.1817  0.1984 -0.4104
 5984TIP3    H117916   5.432   0.562   2.662  1.0371 -0.4389 -1.8011
 5984TIP3    H217917   5.550   0.605   2.746 -1.3845  0.7910  1.1645
 5985TIP3   OH217918   5.468   6.487   0.137 -0.2081 -0.2628 -0.1371
 5985TIP3    H117919   5.543   6.507   0.081 -0.5639  1.9204  0.0596
 5985TIP3    H217920   5.422   6.417   0.092  1.1097 -0.5822 -1.0480
 5986TIP3   OH217921   6.698   1.213   4.831 -0.7891 -0.0721 -0.5471
 5986TIP3    H117922   6.695   1.136   4.888 -0.6558 -0.6581 -1.3120
 5986TIP3    H217923   6.675   1.286   4.888  0.0743 -0.5376  0.4319
 5987TIP3   OH217924   6.842   5.126   0.302 -0.2511 -0.4285  0.1368
 5987TIP3    H117925   6.759   5.126   0.348 -0.6070 -0.0797 -0.4888
 5987TIP3    H217926   6.844   5.041   0.257  0.9658 -1.6299  2.2683
 5988TIP3   OH217927   1.533   5.366   1.355  0.4812  0.2016  0.0789
 5988TIP3    H117928   1.590   5.409   1.420 -0.9055  1.3275  0.5930
 5988TIP3    H217929   1.453   5.345   1.404 -0.5811  1.0521 -1.2247
 5989TIP3   OH217930   1.326   5.024   1.744 -0.0360  0.7667 -0.4177
 5989TIP3    H117931   1.355   5.115   1.750  2.0957  0.1868 -1.0026
 5989TIP3    H217932   1.347   4.986   1.829 -1.1654  0.8710 -0.0839
 5990TIP3   OH217933   5.587   0.081   2.878 -0.2564 -0.0873 -0.5109
 5990TIP3    H117934   5.542  -0.002   2.894 -0.8968  0.2860 -0.3325
 5990TIP3    H217935   5.517   0.147   2.877  0.2368  0.4445 -0.6941
 5991TIP3   OH217936   5.167   0.402   4.991  0.1677 -0.2951  0.4058
 5991TIP3    H117937   5.235   0.364   5.046 -0.7916 -1.2693  0.9526
 5991TIP3    H217938   5.179   0.497   4.999  2.0487 -0.4322 -0.2716
 5992TIP3   OH217939   4.231   1.197   2.371  0.0327  0.5245  0.8931
 5992TIP3    H117940   4.239   1.277   2.423  0.1052  0.6146  0.7418
 5992TIP3    H217941   4.136   1.180   2.367 -0.3699  2.7312 -2.3054
 5993TIP3   OH217942   2.108   2.133   5.572  0.6148 -0.4552  0.2750
 5993TIP3    H117943   2.072   2.050   5.602  0.0549  0.5752  2.7432
 5993TIP3    H217944   2.100   2.130   5.477 -0.2072 -2.8308  0.3518
 5994TIP3   OH217945   2.996   1.230   2.558 -0.1379 -0.7539 -0.3825
 5994TIP3    H117946   2.990   1.299   2.492 -0.1331 -2.0416 -1.7688
 5994TIP3    H217947   2.980   1.275   2.641 -0.8992  0.7683 -1.3179
 5995TIP3   OH217948   1.633   4.939   2.008  0.0271 -0.1371 -0.4276
 5995TIP3    H117949   1.589   4.960   1.926  0.5270 -2.1343 -1.2779
 5995TIP3    H217950   1.639   5.022   2.054 -2.7043  0.5939 -1.1973
 5996TIP3   OH217951   3.061   4.254   0.763  0.4828 -0.5736 -0.1884
 5996TIP3    H117952   3.086   4.299   0.682  1.1729  0.0155  0.3391
 5996TIP3    H217953   2.988   4.307   0.797  1.1911  0.0851  0.3497
 5997TIP3   OH217954   5.455   0.315   2.105 -0.1079  0.0372  0.3959
 5997TIP3    H117955   5.416   0.265   2.178  1.5443 -0.1783  1.1816
 5997TIP3    H217956   5.524   0.257   2.071  1.4785  1.5108  0.9590
 5998TIP3   OH217957   2.773   0.275   0.509 -0.0411  0.3890  0.0019
 5998TIP3    H117958   2.833   0.201   0.515  0.2266  0.3660 -2.3186
 5998TIP3    H217959   2.819   0.339   0.455 -0.6721  1.8846  1.1521
 5999TIP3   OH217960   0.105   1.773   5.269  0.2960  0.2948  0.4843
 5999TIP3    H117961   0.034   1.710   5.251 -0.7451  1.6602 -0.3398
 5999TIP3    H217962   0.185   1.723   5.252 -0.5198  0.0081 -3.3038
 6000TIP3   OH217963   0.296   0.095   4.214  0.0389  0.1937 -0.0780
 6000TIP3    H117964   0.321   0.187   4.207 -2.0146  0.8987  0.9060
 6000TIP3    H217965   0.281   0.082   4.308  2.3169 -1.7881  0.1138
 6001TIP3   OH217966   3.979   4.461   3.886  1.0061  0.1438 -0.5084
 6001TIP3    H117967   4.000   4.433   3.797 -1.3830  0.1533 -1.1349
 6001TIP3    H217968   4.025   4.544   3.896  2.9729 -0.8366 -0.9531
 6002TIP3   OH217969   1.103   1.562   2.609  0.1950  0.1454 -0.2404
 6002TIP3    H117970   1.199   1.556   2.602  0.1509  0.1376 -1.0048
 6002TIP3    H217971   1.071   1.481   2.570 -0.1318  0.4783 -0.6866
 6003TIP3   OH217972   6.163   1.340   0.661  0.1395  0.2682  0.3488
 6003TIP3    H117973   6.097   1.274   0.681  0.3634  0.9438  3.9288
 6003TIP3    H217974   6.120   1.424   0.679  0.9494  0.9223 -0.6459
 6004TIP3   OH217975   2.621   4.798   0.737 -0.9197 -0.0592  0.4076
 6004TIP3    H117976   2.691   4.773   0.677 -1.4727  1.4906 -0.9284
 6004TIP3    H217977   2.628   4.735   0.809  1.2516 -0.4999 -0.1280
 6005TIP3   OH217978   3.552   0.087   0.781  0.0145 -0.1939 -0.3420
 6005TIP3    H117979   3.619   0.149   0.755 -1.9421  0.7505 -3.8608
 6005TIP3    H217980   3.566   0.012   0.723 -0.7039 -0.8530  0.3232
 6006TIP3   OH217981   1.774   4.951   2.594  0.2550  0.0396 -0.3046
 6006TIP3    H117982   1.852   4.897   2.578  0.8982  0.4052  1.3701
 6006TIP3    H217983   1.703   4.888   2.605  0.7087 -0.4128  0.1113
 6007TIP3   OH217984   2.091   0.966   3.759  0.5810 -0.3292  0.3410
 6007TIP3    H117985   2.103   1.021   3.836  1.7036  0.1901 -0.1824
 6007TIP3    H217986   2.031   1.015   3.703  0.3684 -0.3519  0.5494
 6008TIP3   OH217987   6.880   1.444   3.285 -0.0871 -0.2376  0.0114
 6008TIP3    H117988   6.921   1.410   3.206 -0.2329 -0.0475 -0.1472
 6008TIP3    H217989   6.887   1.539   3.277  0.0138 -0.2202  0.2884
 6009TIP3   OH217990   0.366   5.580   5.477 -0.5842  0.0538  0.2057
 6009TIP3    H117991   0.297   5.639   5.445 -0.2397  0.5220  0.3054
 6009TIP3    H217992   0.323   5.528   5.546 -0.6860  0.7754  0.7062
 6010TIP3   OH217993   5.682   5.701   2.694 -0.5482  0.3872 -0.7172
 6010TIP3    H117994   5.678   5.624   2.750  0.3540  1.0950  0.3818
 6010TIP3    H217995   5.688   5.667   2.605  1.7817 -0.8805 -0.1457
 6011TIP3   OH217996   4.037   6.169   5.203  0.1083 -0.1405 -0.5599
 6011TIP3    H117997   4.050   6.169   5.298 -1.2849 -0.2290 -0.3373
 6011TIP3    H217998   4.101   6.231   5.170 -0.2414  0.8933  0.5992
 6012TIP3   OH217999   5.390   4.848   5.269  0.2385  0.1701 -0.4833
 6012TIP3    H118000   5.470   4.831   5.221  0.9993  1.9519  0.0853
 6012TIP3    H218001   5.342   4.910   5.215 -0.6014 -0.5929 -0.6386
 6013TIP3   OH218002   0.740   1.766   1.059 -0.1276 -0.4314  0.1608
 6013TIP3    H118003   0.739   1.675   1.031  0.5116 -0.1676 -0.7580
 6013TIP3    H218004   0.725   1.816   0.979  1.6506  0.3450  0.2629
 6014TIP3   OH218005   7.184   5.583   4.944 -0.5152  0.1244 -0.7393
 6014TIP3    H118006   7.197   5.676   4.962  0.1656 -0.3411  1.5744
 6014TIP3    H218007   7.158   5.579   4.852  0.1664  2.5193 -1.0929
 6015TIP3   OH218008   0.059   3.229   5.629  0.0675 -0.4775 -0.8364
 6015TIP3    H118009  -0.023   3.270   5.601  1.4249  2.3928 -0.8946
 6015TIP3    H218010   0.115   3.301   5.655  1.6596 -2.5108  1.9480
 6016TIP3   OH218011   6.035   0.431   0.090  0.1416 -0.7880 -0.5442
 6016TIP3    H118012   5.941   0.415   0.097  0.1899 -0.3165  1.8649
 6016TIP3    H218013   6.047   0.460  -0.000 -2.1957  0.2285 -0.6004
 6017TIP3   OH218014   4.798   1.661   5.334 -0.2601 -0.7304 -0.5305
 6017TIP3    H118015   4.824   1.753   5.341 -1.8884 -0.3180  0.8743
 6017TIP3    H218016   4.878   1.612   5.352  0.0325  0.4567  1.7902
 6018TIP3   OH218017   5.653   1.476   1.215  0.0495 -0.3237  0.0210
 6018TIP3    H118018   5.748   1.467   1.224 -0.2225 -1.8991  2.0627
 6018TIP3    H218019   5.617   1.402   1.264 -2.3081  2.2655  2.5701
 6019TIP3   OH218020   2.862   3.915   1.868 -0.1876 -0.1395  0.2941
 6019TIP3    H118021   2.857   3.827   1.831 -0.4307 -0.6265  1.4406
 6019TIP3    H218022   2.793   3.965   1.824 -1.0797 -0.9546  0.7468
 6020TIP3   OH218023   1.667   2.263   2.001  0.3746 -0.1538  0.0629
 6020TIP3    H118024   1.616   2.325   2.054  1.1850 -0.0514  0.7382
 6020TIP3    H218025   1.623   2.179   2.014  1.3910 -0.4251  2.0997
 6021TIP3   OH218026   1.977   3.260   2.559 -0.1434 -0.1647  0.1121
 6021TIP3    H118027   1.924   3.275   2.481  0.2168 -0.6821 -0.2350
 6021TIP3    H218028   2.067   3.255   2.527 -0.0477 -0.9493  0.4741
 6022TIP3   OH218029   1.063   3.588   1.946  0.7340  0.4885  0.7298
 6022TIP3    H118030   1.157   3.585   1.962  1.3668  2.5922 -1.9111
 6022TIP3    H218031   1.029   3.652   2.008  1.1819  0.3632  1.1054
 6023TIP3   OH218032   1.578   4.079   4.761 -0.1335 -0.2029 -0.1681
 6023TIP3    H118033   1.503   4.135   4.780 -0.4619 -0.8265  0.4137
 6023TIP3    H218034   1.603   4.042   4.845  0.1743 -0.8047 -0.5130
 6024TIP3   OH218035   4.922   4.460   2.022  0.3804 -0.2342  0.4638
 6024TIP3    H118036   4.886   4.544   1.993  1.9060  0.0286 -0.7760
 6024TIP3    H218037   4.930   4.469   2.117  1.4933  1.4409  0.2523
 6025TIP3   OH218038   5.867   6.202   1.219 -0.1856  1.3017  0.2549
 6025TIP3    H118039   5.880   6.297   1.226  0.6826  1.1193  1.5070
 6025TIP3    H218040   5.956   6.167   1.212 -0.2304  0.4035  2.9326
 6026TIP3   OH218041   0.014   2.069   1.913 -0.2675 -0.0131 -0.1044
 6026TIP3    H118042   0.014   2.045   1.821  3.7802  1.0054 -0.5513
 6026TIP3    H218043   0.056   1.995   1.957 -0.7534  0.1743  0.7099
 6027TIP3   OH218044   1.388   6.404   5.019 -0.5259 -0.5425 -0.4601
 6027TIP3    H118045   1.415   6.344   5.088  0.3623  0.0894 -0.2366
 6027TIP3    H218046   1.293   6.405   5.024 -0.6010 -2.3463 -0.8338
 6028TIP3   OH218047   4.306   4.740   5.260 -0.8088  0.5416 -0.1337
 6028TIP3    H118048   4.215   4.716   5.278 -0.4137 -0.3576  0.7781
 6028TIP3    H218049   4.321   4.821   5.308 -1.0328  0.5246 -0.0376
 6029TIP3   OH218050   1.501   3.527   4.702  0.5497  0.4846 -0.1121
 6029TIP3    H118051   1.521   3.607   4.653 -1.8113  1.3824  0.3035
 6029TIP3    H218052   1.505   3.553   4.794 -1.6054  0.5353  0.0072
 6030TIP3   OH218053   1.615   1.251   2.955  0.4365  0.0514  0.4968
 6030TIP3    H118054   1.556   1.325   2.964 -1.0013 -0.9306 -0.4707
 6030TIP3    H218055   1.574   1.181   3.007 -0.0574 -1.0642 -1.2856
 6031TIP3   OH218056   7.123   1.513   5.145 -0.0750 -0.0454 -0.0708
 6031TIP3    H118057   7.167   1.452   5.085  1.5537  0.5028  0.5164
 6031TIP3    H218058   7.156   1.490   5.231  1.0430  2.0258  0.1042
 6032TIP3   OH218059   1.120   6.513   1.969  0.0715 -0.2483  0.5490
 6032TIP3    H118060   1.127   6.456   1.892  1.1203 -2.0400  1.8950
 6032TIP3    H218061   1.081   6.458   2.037  0.3584  0.8953  1.6936
 6033TIP3   OH218062   5.177   1.428   3.888  0.6217 -0.1447 -0.0248
 6033TIP3    H118063   5.262   1.425   3.845 -0.1018  2.3581 -1.8752
 6033TIP3    H218064   5.115   1.401   3.820 -0.1974 -0.9313  0.9911
 6034TIP3   OH218065   2.540   1.740   1.554 -0.4435 -0.0980 -0.0314
 6034TIP3    H118066   2.528   1.776   1.642  1.6296  0.0688  0.2381
 6034TIP3    H218067   2.504   1.652   1.559  0.9774 -0.6508  1.4708
 6035TIP3   OH218068   2.472   6.270   4.743  0.1694  0.7674  0.0031
 6035TIP3    H118069   2.400   6.207   4.738  1.5525 -0.8280 -1.4686
 6035TIP3    H218070   2.444   6.343   4.689 -0.6229  0.4980  0.0339
 6036TIP3   OH218071   3.006   4.452   3.979 -0.1396  0.0499  0.9801
 6036TIP3    H118072   2.939   4.463   4.047  0.3660 -2.4968  2.0353
 6036TIP3    H218073   2.988   4.366   3.941  1.9708 -0.3306  0.6944
 6037TIP3   OH218074   1.809   6.027   1.117  0.5899  0.0881  0.5462
 6037TIP3    H118075   1.825   6.072   1.199  1.2475 -0.4110  0.6956
 6037TIP3    H218076   1.772   5.943   1.142  0.1093  0.2180  0.2964
 6038TIP3   OH218077   1.006   4.177   3.996 -0.5015  0.0200 -0.0605
 6038TIP3    H118078   1.065   4.143   3.928  0.2871  0.0404  0.6014
 6038TIP3    H218079   1.053   4.252   4.032 -0.6003 -0.4109  0.9857
 6039TIP3   OH218080   3.590   5.626   1.021 -0.4283 -0.4528 -0.4225
 6039TIP3    H118081   3.512   5.582   1.054 -0.8484  0.4748 -0.1508
 6039TIP3    H218082   3.557   5.691   0.960  0.1198  0.0438 -0.2028
 6040TIP3   OH218083   2.375   1.851   2.203  0.2889 -0.2051 -0.6489
 6040TIP3    H118084   2.340   1.762   2.196 -0.7611  0.1706 -0.4502
 6040TIP3    H218085   2.382   1.881   2.113 -0.5613 -0.0579 -0.6782
 6041TIP3   OH218086   6.291   3.442   4.513  0.2965  0.4083 -0.1512
 6041TIP3    H118087   6.298   3.506   4.584  1.0290 -0.2023  0.3453
 6041TIP3    H218088   6.380   3.407   4.504 -0.0160 -0.2617 -0.6690
 6042TIP3   OH218089   2.698   4.922   1.751  0.3245  0.2092 -0.0931
 6042TIP3    H118090   2.686   4.856   1.820 -0.0971 -1.2406 -1.4853
 6042TIP3    H218091   2.635   4.898   1.684  3.6634 -1.2915 -3.0422
 6043TIP3   OH218092   5.150   2.222   5.566  0.3635 -0.7418  0.1299
 6043TIP3    H118093   5.242   2.223   5.592  0.0696 -3.1019  1.5961
 6043TIP3    H218094   5.104   2.268   5.637  0.2627 -0.9808  0.2210
 6044TIP3   OH218095   1.694   5.805   0.597 -0.0921 -0.2150 -0.4332
 6044TIP3    H118096   1.624   5.762   0.547  0.4556  0.8479 -2.2318
 6044TIP3    H218097   1.689   5.897   0.570 -0.0739  0.5257  1.9244
 6045TIP3   OH218098   3.147   4.158   1.632 -0.2897 -0.2511  0.3220
 6045TIP3    H118099   3.241   4.156   1.644 -0.2729 -1.2229  0.0788
 6045TIP3    H218100   3.130   4.100   1.558 -1.0366  0.2994  0.0321
 6046TIP3   OH218101   1.192   3.552   1.640 -0.6447 -0.1845  0.3541
 6046TIP3    H118102   1.146   3.636   1.634 -1.1633 -0.2894  2.4059
 6046TIP3    H218103   1.152   3.498   1.572 -0.9812  0.9011 -0.3386
 6047TIP3   OH218104   0.253   1.775   5.566 -0.4044 -0.1213 -0.1677
 6047TIP3    H118105   0.188   1.709   5.544  1.4564 -2.2977  0.4490
 6047TIP3    H218106   0.326   1.759   5.506  1.3099 -0.6880  1.9274
 6048TIP3   OH218107   1.121   6.429   5.050  0.0806 -0.2576 -0.2548
 6048TIP3    H118108   1.067   6.398   4.977 -1.1563 -0.8895  0.8766
 6048TIP3    H218109   1.097   6.522   5.059 -1.0548 -0.5874  0.3863
 6049TIP3   OH218110   6.123   6.115   2.320 -0.5807  0.5235  0.0856
 6049TIP3    H118111   6.137   6.111   2.415 -1.3944  1.8327  0.2839
 6049TIP3    H218112   6.031   6.142   2.310 -0.5423  0.2901 -1.0838
 6050TIP3   OH218113   3.998   6.166   2.762  0.1894 -0.2880  0.1203
 6050TIP3    H118114   4.088   6.149   2.735  0.1949  0.0642 -0.0819
 6050TIP3    H218115   3.980   6.254   2.732 -0.5187 -0.6675 -0.5983
 6051TIP3   OH218116   5.108   4.589   3.029  0.0608  0.4553  0.6649
 6051TIP3    H118117   5.118   4.575   3.123 -0.7345 -0.7156  0.5889
 6051TIP3    H218118   5.020   4.556   3.008  1.2287 -1.9280 -0.9518
 6052TIP3   OH218119   5.589   2.751   3.164  0.4974 -0.1730  0.3371
 6052TIP3    H118120   5.521   2.761   3.230  0.9802  0.5668  0.7318
 6052TIP3    H218121   5.667   2.790   3.203  0.3785  1.9082 -1.3090
 6053TIP3   OH218122   0.233   5.154   3.799 -0.0383  0.0225 -0.3085
 6053TIP3    H118123   0.245   5.111   3.715  1.2129 -1.0685  0.3834
 6053TIP3    H218124   0.139   5.147   3.817  0.1107 -2.5664 -0.1903
 6054TIP3   OH218125   1.580   0.883   2.506 -0.2852 -0.1330 -0.1620
 6054TIP3    H118126   1.527   0.868   2.585 -0.1503 -1.8961 -0.3741
 6054TIP3    H218127   1.601   0.795   2.475  1.1860  0.5506 -1.1520
 6055TIP3   OH218128   1.246   5.609   1.957  0.3025  0.1745 -0.4386
 6055TIP3    H118129   1.319   5.658   1.918  1.1041 -0.1706  0.5816
 6055TIP3    H218130   1.184   5.598   1.885  2.3415 -1.6967 -2.0486
 6056TIP3   OH218131   1.248   2.271   1.907  0.1827 -0.4930 -0.1920
 6056TIP3    H118132   1.181   2.273   1.975 -0.3982 -0.0856 -0.7545
 6056TIP3    H218133   1.222   2.199   1.850 -0.1079  0.0204 -0.7224
 6057TIP3   OH218134   3.310   3.096   5.089 -0.0636  0.4503  0.0065
 6057TIP3    H118135   3.365   3.034   5.137 -0.8233 -1.3634 -1.3560
 6057TIP3    H218136   3.221   3.064   5.101 -0.3552  0.4213 -1.8556
 6058TIP3   OH218137   4.653   2.594   2.670  0.2861  0.2291 -0.2971
 6058TIP3    H118138   4.712   2.527   2.707  0.1762  0.9365  1.2444
 6058TIP3    H218139   4.708   2.672   2.662 -0.0045  0.4142 -0.4854
 6059TIP3   OH218140   7.064   5.333   0.211 -0.1389  0.1307 -0.3493
 6059TIP3    H118141   7.002   5.308   0.143  0.5389 -0.5714 -0.7152
 6059TIP3    H218142   7.015   5.394   0.267 -1.5322 -1.2885  0.0298
 6060TIP3   OH218143   6.456   2.344   3.009 -0.0527 -0.3027 -0.7126
 6060TIP3    H118144   6.450   2.249   2.995  0.3136 -0.5555  0.6752
 6060TIP3    H218145   6.550   2.363   3.005  0.2489 -0.6297  2.4095
 6061TIP3   OH218146   2.918   0.052   0.465  0.1174 -0.3712 -0.4628
 6061TIP3    H118147   3.000   0.003   0.474  0.1078 -0.5140 -1.1059
 6061TIP3    H218148   2.874   0.011   0.390 -0.8144 -0.6811  0.2424
 6062TIP3   OH218149   3.741   1.146   4.247  0.0748  0.4373  0.0498
 6062TIP3    H118150   3.735   1.165   4.341  2.5904  1.5073  0.0856
 6062TIP3    H218151   3.651   1.148   4.216 -0.9205 -0.7813  2.5749
 6063TIP3   OH218152   6.951   0.943   0.529  0.1516  0.0995  0.4245
 6063TIP3    H118153   6.932   0.864   0.580  0.3595  0.8444  1.7031
 6063TIP3    H218154   7.045   0.939   0.513 -0.2031 -1.1354 -1.6864
 6064TIP3   OH218155   5.979   5.885   0.720  0.6213  0.3394 -0.3703
 6064TIP3    H118156   5.949   5.956   0.777  0.9773  0.3051 -0.1367
 6064TIP3    H218157   6.053   5.846   0.767  2.5126  1.8558 -1.9096
 6065TIP3   OH218158   1.512   4.836   2.661  0.2003 -0.1619  0.2420
 6065TIP3    H118159   1.442   4.891   2.696  1.9784  2.2941  0.2249
 6065TIP3    H218160   1.537   4.779   2.734  1.7466  2.7156  2.1431
 6066TIP3   OH218161   7.122   1.628   2.868 -0.1732 -0.2529 -0.1075
 6066TIP3    H118162   7.142   1.709   2.821 -1.1420 -0.6528 -1.2573
 6066TIP3    H218163   7.034   1.605   2.840  0.4715 -2.2640 -0.6161
 6067TIP3   OH218164   3.953   3.027   4.618 -0.0576 -0.6335  0.2640
 6067TIP3    H118165   3.920   3.117   4.619 -1.0249 -0.9148 -1.2908
 6067TIP3    H218166   3.874   2.973   4.630  0.5340 -1.2807  1.3486
 6068TIP3   OH218167   2.447   1.021   1.403  0.5037 -0.2052  0.1693
 6068TIP3    H118168   2.421   1.097   1.351 -1.3463 -0.0530  1.2236
 6068TIP3    H218169   2.536   1.040   1.431  0.3750  1.1857 -0.2908
 6069TIP3   OH218170   3.204   3.244   0.188  0.3867 -0.6705 -0.5976
 6069TIP3    H118171   3.173   3.244   0.279 -1.2783  0.8258 -1.1012
 6069TIP3    H218172   3.205   3.152   0.163 -0.4020 -1.0081  0.5324
 6070TIP3   OH218173   4.430   6.148   1.443  0.5515 -0.1027  0.2850
 6070TIP3    H118174   4.509   6.192   1.475 -1.1074  1.7045  2.1300
 6070TIP3    H218175   4.377   6.218   1.406 -0.3926 -1.2371 -0.5888
 6071TIP3   OH218176   5.599   4.302   2.148  0.4699  0.1803  0.3956
 6071TIP3    H118177   5.564   4.278   2.234  2.1860 -0.2698  1.0222
 6071TIP3    H218178   5.597   4.221   2.098 -0.3285  0.3934  0.0723
 6072TIP3   OH218179   0.894   3.242   2.035 -0.3067 -0.3479  0.5750
 6072TIP3    H118180   0.837   3.233   1.958 -1.5593  0.5083  1.3586
 6072TIP3    H218181   0.981   3.259   1.999 -0.6709 -0.9727 -0.6554
 6073TIP3   OH218182   3.657   2.585   4.731 -0.0022 -0.5994  0.6214
 6073TIP3    H118183   3.691   2.501   4.698 -1.6276 -0.6484 -1.1281
 6073TIP3    H218184   3.669   2.580   4.826  1.2377 -2.1974  0.4297
 6074TIP3   OH218185   1.931   2.565   1.245 -0.1784 -0.0569  0.3915
 6074TIP3    H118186   2.008   2.509   1.255  0.0966  0.5782  2.1456
 6074TIP3    H218187   1.943   2.606   1.159  0.4980 -1.3243 -0.1551
 6075TIP3   OH218188   5.716   4.786   5.394 -0.5771 -0.3309 -0.0263
 6075TIP3    H118189   5.657   4.711   5.389 -1.4167  0.3288 -0.4013
 6075TIP3    H218190   5.779   4.763   5.462 -0.3650 -1.6777 -0.6476
 6076TIP3   OH218191   4.359   0.559   0.565 -0.4050  0.3141 -0.3924
 6076TIP3    H118192   4.348   0.469   0.596 -2.8190  0.0856 -1.6459
 6076TIP3    H218193   4.404   0.550   0.481 -1.1809  0.1668 -0.8113
 6077TIP3   OH218194   6.895   3.595   2.344  0.6358 -0.3176  0.2962
 6077TIP3    H118195   6.882   3.550   2.260  1.2290  0.7188 -0.3798
 6077TIP3    H218196   6.810   3.587   2.388  0.8403 -2.4511  0.4209
 6078TIP3   OH218197   1.172   6.369   1.716  0.3540  0.0749 -0.4740
 6078TIP3    H118198   1.226   6.439   1.678  0.9039  0.1688  0.4510
 6078TIP3    H218199   1.229   6.326   1.780 -0.5028 -0.1582  0.1623
 6079TIP3   OH218200   5.152   5.338   4.788 -0.7166  0.1506  0.0285
 6079TIP3    H118201   5.086   5.289   4.837 -0.0433  0.8433  1.6873
 6079TIP3    H218202   5.184   5.275   4.723 -2.5151 -0.4007 -0.4020
 6080TIP3   OH218203   3.806   2.391   0.657 -0.6679  0.2894 -0.7104
 6080TIP3    H118204   3.876   2.417   0.597  2.1908 -0.8264  1.8808
 6080TIP3    H218205   3.799   2.296   0.647 -0.0800  0.0735  0.7108
 6081TIP3   OH218206   5.714   4.116   3.591  0.3444 -0.5158 -0.5131
 6081TIP3    H118207   5.798   4.125   3.637  0.2348  0.0498 -0.4157
 6081TIP3    H218208   5.683   4.206   3.579 -0.6172 -0.7502  0.1218
 6082TIP3   OH218209   0.525   0.030   5.607  0.2476 -0.5302  0.3937
 6082TIP3    H118210   0.476   0.077   5.675 -0.0520 -0.4079  0.0955
 6082TIP3    H218211   0.514  -0.062   5.628 -1.9755 -0.6279 -0.9161
 6083TIP3   OH218212   4.144   4.040   0.150  0.4850 -0.6478 -0.0725
 6083TIP3    H118213   4.101   4.041   0.236  1.0198 -0.1008  0.1942
 6083TIP3    H218214   4.237   4.028   0.169  0.3326 -3.7411 -0.7179
 6084TIP3   OH218215   3.311   0.373   5.059  0.3940 -0.4258 -0.1447
 6084TIP3    H118216   3.314   0.374   4.964 -0.4944 -0.0261 -0.1777
 6084TIP3    H218217   3.230   0.420   5.081  0.6787 -0.3583  0.8062
 6085TIP3   OH218218   5.697   2.949   2.335 -0.2857  0.4017 -0.1430
 6085TIP3    H118219   5.697   3.008   2.260 -3.5944 -0.2451 -0.8227
 6085TIP3    H218220   5.699   2.861   2.297  1.6305  0.0159  0.7390
 6086TIP3   OH218221   5.418   3.822   0.878  0.5965 -0.5349  0.0985
 6086TIP3    H118222   5.476   3.897   0.892  0.3647  0.4089 -3.1871
 6086TIP3    H218223   5.385   3.800   0.966  0.1994  3.6031  1.1833
 6087TIP3   OH218224   5.842   3.795   1.411  0.9413  0.3821  0.4272
 6087TIP3    H118225   5.923   3.749   1.388 -0.6153 -1.5633 -1.5308
 6087TIP3    H218226   5.836   3.866   1.348  1.3543  0.8765  0.9283
 6088TIP3   OH218227   6.010   3.286   0.304  0.4724 -0.1324  0.0527
 6088TIP3    H118228   5.959   3.367   0.297  1.2710  0.4509  0.8983
 6088TIP3    H218229   6.020   3.257   0.213  0.3930  0.8488 -0.2832
 6089TIP3   OH218230   2.485   1.474   2.036 -0.3951  0.3433  0.0222
 6089TIP3    H118231   2.517   1.468   2.126  0.4854  0.4372 -0.2798
 6089TIP3    H218232   2.398   1.435   2.039  0.1901 -0.9527  0.6275
 6090TIP3   OH218233   2.499   3.692   2.214 -0.6566  0.4135 -0.3138
 6090TIP3    H118234   2.574   3.634   2.200  0.0130  1.4532 -1.2912
 6090TIP3    H218235   2.427   3.634   2.237  0.2989 -0.6681  0.0470
 6091TIP3   OH218236   6.005   4.815   0.289  0.4071  0.0262  0.1709
 6091TIP3    H118237   5.911   4.798   0.289  0.0460  1.7558 -1.3146
 6091TIP3    H218238   6.015   4.896   0.339  1.2796 -0.7640  1.3396
 6092TIP3   OH218239   3.286   0.670   3.531  0.0719  0.2489 -0.3844
 6092TIP3    H118240   3.314   0.652   3.441  0.5452  0.9286 -0.3763
 6092TIP3    H218241   3.205   0.721   3.521  0.9395  1.6551 -0.4559
 6093TIP3   OH218242   4.665  -0.005   1.609  0.3453  0.2410 -0.2269
 6093TIP3    H118243   4.611   0.071   1.628  0.2506  0.0391  0.3313
 6093TIP3    H218244   4.754   0.024   1.627  0.3277  0.2752 -0.1956
 6094TIP3   OH218245   5.659   3.429   3.484 -0.4888 -0.5268  0.2302
 6094TIP3    H118246   5.624   3.486   3.552  0.2411 -0.9713  0.9980
 6094TIP3    H218247   5.652   3.480   3.403  0.4625  0.7829  0.9392
 6095TIP3   OH218248   0.826   4.151   1.611  0.6667  0.1504 -0.4279
 6095TIP3    H118249   0.847   4.098   1.534  0.7035 -0.4555 -0.0108
 6095TIP3    H218250   0.883   4.227   1.604  2.9071 -1.3232  0.5432
 6096TIP3   OH218251   6.929   3.282   0.080 -0.9425  0.0577  0.3412
 6096TIP3    H118252   6.860   3.323   0.132 -0.0685  0.1141  1.5129
 6096TIP3    H218253   6.925   3.327  -0.004 -2.1799  0.2052  0.4549
 6097TIP3   OH218254   4.490   3.191   3.818  0.1217  0.1577 -0.4923
 6097TIP3    H118255   4.470   3.133   3.744 -1.6660  0.9535 -0.6835
 6097TIP3    H218256   4.407   3.199   3.865  1.0681  0.2130  1.2410
 6098TIP3   OH218257   5.443   5.412   2.279 -0.1891 -0.3038 -0.1448
 6098TIP3    H118258   5.486   5.327   2.273 -0.0731 -0.4889  2.2187
 6098TIP3    H218259   5.391   5.419   2.199  1.5343 -1.5869 -1.4400
 6099TIP3   OH218260   6.852   4.166   5.232  0.6386 -0.4221 -0.3916
 6099TIP3    H118261   6.790   4.097   5.208  1.4168 -1.7542  1.2633
 6099TIP3    H218262   6.798   4.244   5.241 -0.7110 -1.3910  0.3109
 6100TIP3   OH218263   3.287   4.648   5.505  0.0326  0.1358  0.4372
 6100TIP3    H118264   3.319   4.559   5.496 -0.9580 -0.2497  0.6369
 6100TIP3    H218265   3.364   4.703   5.489  0.6021 -0.7407  0.1014
 6101TIP3   OH218266   3.182   2.485   5.701 -0.2318  0.1223  0.4190
 6101TIP3    H118267   3.142   2.502   5.616  0.9277  2.2085  0.2470
 6101TIP3    H218268   3.275   2.500   5.688  0.1995 -1.1667  1.6874
 6102TIP3   OH218269   5.455   4.687   3.852  0.0244 -0.3342  0.6000
 6102TIP3    H118270   5.423   4.621   3.913  0.0874 -1.1038 -0.1786
 6102TIP3    H218271   5.546   4.703   3.879  0.2071 -1.0360  0.4122
 6103TIP3   OH218272   2.042   0.043   4.593  0.0440 -0.3660 -0.2876
 6103TIP3    H118273   1.959   0.021   4.550  0.0858  0.9708 -1.1288
 6103TIP3    H218274   2.071  -0.039   4.632 -1.4955 -0.9470 -0.2687
 6104TIP3   OH218275   6.515   6.616   5.821 -0.1728 -0.2916  0.0964
 6104TIP3    H118276   6.558   6.666   5.890 -0.7291  1.2352 -0.5953
 6104TIP3    H218277   6.421   6.635   5.832 -0.5115 -1.9546  0.3592
 6105TIP3   OH218278   3.066   0.605   3.094  0.4504  0.8410 -0.3561
 6105TIP3    H118279   3.103   0.663   3.160  1.7275  0.3561 -0.6283
 6105TIP3    H218280   3.027   0.533   3.145  1.9506  0.1617 -0.1096
 6106TIP3   OH218281   7.001   4.433   0.168 -0.0541 -0.0320  0.2575
 6106TIP3    H118282   7.032   4.502   0.226  0.8251 -0.2856  0.1128
 6106TIP3    H218283   6.980   4.360   0.227 -1.0751  0.3822  0.4176
 6107TIP3   OH218284   2.821   5.504   0.421 -0.4164 -0.3571  0.4644
 6107TIP3    H118285   2.914   5.516   0.403 -0.2973 -0.5984  0.8943
 6107TIP3    H218286   2.816   5.498   0.516 -0.5598 -2.7521  0.3791
 6108TIP3   OH218287   5.177   4.085   4.019 -0.0095 -0.1072 -0.0677
 6108TIP3    H118288   5.140   4.159   3.969 -2.3909 -1.0542  0.1360
 6108TIP3    H218289   5.244   4.125   4.074  0.1764  1.5616 -1.3978
 6109TIP3   OH218290   1.592   2.649   4.303 -0.0040 -0.2152  0.0236
 6109TIP3    H118291   1.594   2.684   4.214 -1.5374  1.0141  0.4166
 6109TIP3    H218292   1.515   2.593   4.305  0.0472 -0.2744  0.5485
 6110TIP3   OH218293   1.452   0.801   4.529 -0.5101  0.0410 -0.0552
 6110TIP3    H118294   1.366   0.829   4.560  0.2915  2.1220  0.4815
 6110TIP3    H218295   1.450   0.705   4.534 -2.7979  0.0349 -0.1586
 6111TIP3   OH218296   0.191   6.499   3.912  0.1692  0.3474  0.5697
 6111TIP3    H118297   0.184   6.411   3.876 -0.2876  0.6962 -0.2046
 6111TIP3    H218298   0.103   6.519   3.943 -0.1236  1.1248 -0.6864
 6112TIP3   OH218299   0.794   6.633   5.668  0.4830  0.2901 -0.3156
 6112TIP3    H118300   0.703   6.656   5.650  0.6381  1.4471  0.2799
 6112TIP3    H218301   0.790   6.569   5.738  0.0367 -1.6309 -1.9922
 6113TIP3   OH218302   6.890   2.363   0.068 -0.8107  0.5390 -0.0509
 6113TIP3    H118303   6.896   2.435   0.132 -2.0424  0.4088  0.2444
 6113TIP3    H218304   6.798   2.362   0.043 -1.1458 -1.8306  1.0017
 6114TIP3   OH218305   1.311   6.168   4.243 -0.0243 -0.3592 -0.0517
 6114TIP3    H118306   1.216   6.158   4.248 -0.2596  0.8487 -1.5506
 6114TIP3    H218307   1.336   6.121   4.163  0.7853 -1.3927  0.7649
 6115TIP3   OH218308   3.041   6.432   4.582  0.3671  0.2250 -0.0593
 6115TIP3    H118309   2.946   6.446   4.578 -0.0890 -2.3306 -0.2149
 6115TIP3    H218310   3.054   6.352   4.531  2.4311 -0.2444  1.1325
 6116TIP3   OH218311   2.442   5.843   0.905  0.6565 -0.1606 -0.1722
 6116TIP3    H118312   2.460   5.882   0.819  2.9570 -1.9201 -0.5934
 6116TIP3    H218313   2.409   5.756   0.885  1.3650 -0.6484  0.6883
 6117TIP3   OH218314   0.430   3.139   5.013  0.1953  0.2299 -0.1282
 6117TIP3    H118315   0.445   3.101   5.100  0.9886  0.5679 -0.1141
 6117TIP3    H218316   0.397   3.227   5.030 -2.1833 -0.5680 -0.1526
 6118TIP3   OH218317   3.458   3.009   2.154 -0.1717 -0.1649  0.6764
 6118TIP3    H118318   3.440   2.997   2.060  1.2468 -0.2839  0.3995
 6118TIP3    H218319   3.490   3.099   2.160  0.5546 -0.4359  0.9148
 6119TIP3   OH218320   6.357   2.988   0.639 -0.4455  0.2035 -0.3640
 6119TIP3    H118321   6.385   2.903   0.605 -0.8525 -0.4417  0.8371
 6119TIP3    H218322   6.438   3.031   0.666 -0.2207  0.2727 -1.1470
 6120TIP3   OH218323   2.455   6.110   5.614 -0.3693  0.6860 -0.2784
 6120TIP3    H118324   2.544   6.114   5.648 -0.4969  1.0670  0.0095
 6120TIP3    H218325   2.400   6.087   5.689 -0.3216 -1.2714 -0.7849
 6121TIP3   OH218326   4.984   4.492   5.637 -0.0141 -0.0992  0.1276
 6121TIP3    H118327   4.967   4.398   5.644 -1.7591  0.1252 -0.6509
 6121TIP3    H218328   5.051   4.498   5.568 -1.9047 -0.6537 -1.8547
 6122TIP3   OH218329   1.693   3.668   0.899  0.0572  0.6335 -0.4241
 6122TIP3    H118330   1.664   3.580   0.875 -3.3065  2.1547 -2.8008
 6122TIP3    H218331   1.683   3.671   0.994  2.2302 -2.0587  0.0224
 6123TIP3   OH218332   4.515   4.151   0.085  0.4006  0.1690 -0.1233
 6123TIP3    H118333   4.478   4.239   0.085  1.6356  0.7063 -0.5163
 6123TIP3    H218334   4.604   4.162   0.049  1.3430 -0.8869  1.7408
 6124TIP3   OH218335   2.256   1.702   5.621  0.3092 -0.4138  0.1312
 6124TIP3    H118336   2.334   1.709   5.676  0.0699 -0.0040  0.4283
 6124TIP3    H218337   2.289   1.705   5.531  0.5289  1.2920  0.2364
 6125TIP3   OH218338   5.486   4.161   3.820 -0.5654 -0.3365  0.0849
 6125TIP3    H118339   5.481   4.141   3.913 -2.6777 -0.6037 -0.0348
 6125TIP3    H218340   5.420   4.105   3.779  0.2808 -0.2018 -1.5860
 6126TIP3   OH218341   0.939   1.715   1.273 -0.3683  0.2300  0.0062
 6126TIP3    H118342   0.915   1.769   1.198 -1.2814  0.0799  0.1694
 6126TIP3    H218343   0.856   1.698   1.317  0.3056  1.7233  2.0281
 6127TIP3   OH218344   1.014   0.111   4.727  0.3156  0.3563  0.2892
 6127TIP3    H118345   0.979   0.191   4.688 -1.0600 -0.1660  0.3721
 6127TIP3    H218346   0.976   0.040   4.675  0.8857 -0.2617  0.6946
 6128TIP3   OH218347   6.112   4.738   3.136 -0.0934 -0.9560  0.0917
 6128TIP3    H118348   6.105   4.825   3.174 -1.0555  0.1199 -2.3695
 6128TIP3    H218349   6.204   4.731   3.110  0.1667 -1.0273  0.9797
 6129TIP3   OH218350   6.799   2.887   1.199 -0.2473 -0.4420 -0.0653
 6129TIP3    H118351   6.838   2.837   1.270  1.5754 -0.8245 -1.2743
 6129TIP3    H218352   6.763   2.820   1.140  0.2576 -0.2408 -0.6079
 6130TIP3   OH218353   3.805   1.431   2.732 -0.1881 -0.1674  0.2151
 6130TIP3    H118354   3.845   1.512   2.763 -0.0296 -0.6136  1.2024
 6130TIP3    H218355   3.738   1.411   2.797  1.0666 -1.8401  1.0475
 6131TIP3   OH218356   3.205   2.484   0.572 -0.4012  0.2046  0.1099
 6131TIP3    H118357   3.178   2.524   0.654  0.2624 -1.0712  0.9854
 6131TIP3    H218358   3.163   2.398   0.572  0.5201 -0.2660 -0.3233
 6132TIP3   OH218359   4.094   3.891   2.294 -0.6911 -0.0448 -0.2770
 6132TIP3    H118360   4.123   3.956   2.358  0.0204 -0.1809 -0.4509
 6132TIP3    H218361   4.002   3.913   2.277 -0.3570  1.1526 -0.6208
 6133TIP3   OH218362   3.558   3.694   5.083  0.7210 -0.2480  0.1786
 6133TIP3    H118363   3.490   3.657   5.139 -0.6048  2.3255  0.4220
 6133TIP3    H218364   3.530   3.673   4.994  0.2713 -0.3035  0.3279
 6134TIP3   OH218365   1.709   5.020   3.227  0.2295 -0.2926  0.0014
 6134TIP3    H118366   1.629   5.060   3.192  0.2137  0.0074  0.3666
 6134TIP3    H218367   1.780   5.059   3.177  0.2344  0.4268  0.5581
 6135TIP3   OH218368   3.644   6.785   1.671  0.4585  0.1670 -0.1577
 6135TIP3    H118369   3.599   6.709   1.707 -2.2344  1.6945 -0.0386
 6135TIP3    H218370   3.643   6.770   1.576  0.7765 -0.3811 -0.0741
 6136TIP3   OH218371   6.699   6.097   4.384 -0.1675  0.7640 -0.0775
 6136TIP3    H118372   6.704   6.005   4.408  1.8489  0.8924  0.1485
 6136TIP3    H218373   6.771   6.138   4.431  0.2463  2.0882 -1.7590
 6137TIP3   OH218374   3.285   5.958   0.102  0.3482  0.2488  0.2401
 6137TIP3    H118375   3.314   5.963   0.193  2.0389 -1.8358 -0.1239
 6137TIP3    H218376   3.221   5.887   0.100 -0.7570  1.2197  0.0231
 6138TIP3   OH218377   2.261   0.624   2.928 -0.6642 -0.0855  0.1695
 6138TIP3    H118378   2.295   0.534   2.930 -0.2353  0.0525 -0.5881
 6138TIP3    H218379   2.313   0.671   2.993  1.4267  0.3845 -1.6949
 6139TIP3   OH218380   1.567   1.652   0.901 -0.0259 -0.3450 -0.8057
 6139TIP3    H118381   1.591   1.564   0.870  1.9935 -0.5030  0.9511
 6139TIP3    H218382   1.498   1.636   0.965  0.2178 -0.6483 -0.6120
 6140TIP3   OH218383   5.119   6.026   3.790  0.3422 -0.2812 -0.0206
 6140TIP3    H118384   5.195   5.976   3.820 -0.0554 -0.8812  0.0012
 6140TIP3    H218385   5.090   5.981   3.710  0.2463  0.1826 -0.2561
 6141TIP3   OH218386   4.191   3.451   5.395  0.4425  0.4854 -0.1850
 6141TIP3    H118387   4.195   3.371   5.343 -0.3306  1.1188 -1.2769
 6141TIP3    H218388   4.282   3.472   5.415  0.7088 -0.1301 -0.7196
 6142TIP3   OH218389   4.526   1.872   5.864 -0.2973  0.4713 -0.0909
 6142TIP3    H118390   4.463   1.943   5.852 -1.1845 -0.0921  1.0273
 6142TIP3    H218391   4.476   1.792   5.849  0.1931  0.0147  0.6127
 6143TIP3   OH218392   2.111   4.126   2.060  0.6788 -0.4195 -0.4313
 6143TIP3    H118393   2.080   4.148   1.972 -0.3702  0.6049  0.1738
 6143TIP3    H218394   2.206   4.122   2.051  0.6834  0.9992 -1.3448
 6144TIP3   OH218395   1.104   5.248   1.254  0.5042 -0.1127  0.4407
 6144TIP3    H118396   1.057   5.331   1.250  0.5913 -0.1029 -1.1751
 6144TIP3    H218397   1.055   5.196   1.318 -0.4589  0.6512  0.3487
 6145TIP3   OH218398   1.923   3.310   3.588 -0.1454  0.6758  0.5955
 6145TIP3    H118399   1.963   3.282   3.670 -1.3363 -0.3327  0.8659
 6145TIP3    H218400   1.887   3.230   3.550 -0.7310  1.3257 -0.2731
 6146TIP3   OH218401   1.905   0.115   5.466  0.2093 -0.2131 -0.3139
 6146TIP3    H118402   1.981   0.113   5.524 -0.0536  0.7255  0.0817
 6146TIP3    H218403   1.924   0.185   5.403 -0.9552  1.0871  0.7130
 6147TIP3   OH218404   1.917   5.208   0.219 -0.0196 -0.1985  0.0173
 6147TIP3    H118405   1.954   5.145   0.157  0.3496 -0.8810  0.9074
 6147TIP3    H218406   1.993   5.242   0.266 -0.0734  1.8163 -1.2224
 6148TIP3   OH218407   7.011   0.670   4.328  0.0438  0.3225 -0.3833
 6148TIP3    H118408   7.083   0.675   4.266 -0.2712  0.6014 -0.7315
 6148TIP3    H218409   6.994   0.576   4.338  1.4143  0.1749  0.8327
 6149TIP3   OH218410   7.218   3.723   0.313 -0.5914 -0.0470  0.1384
 6149TIP3    H118411   7.124   3.737   0.304 -0.5702 -0.0177 -0.0444
 6149TIP3    H218412   7.249   3.712   0.223 -0.4893 -0.4995  0.2299
 6150TIP3   OH218413   5.513   2.937   2.539 -0.2390 -0.4617  0.0940
 6150TIP3    H118414   5.576   2.959   2.470  0.3347 -2.6407 -0.1650
 6150TIP3    H218415   5.448   3.006   2.535  1.5832  1.3206 -0.3164
 6151TIP3   OH218416   6.632   5.162   1.778  0.1037  0.1734  0.0027
 6151TIP3    H118417   6.659   5.123   1.862 -1.1836 -0.7561  0.0214
 6151TIP3    H218418   6.581   5.093   1.736  0.3924  0.7793 -1.3821
 6152TIP3   OH218419   4.077   2.848   3.453 -0.1323 -1.0200 -0.1143
 6152TIP3    H118420   4.107   2.757   3.455 -2.1685 -1.7507 -0.6072
 6152TIP3    H218421   4.010   2.850   3.385  2.0188  1.6056 -2.4051
 6153TIP3   OH218422   4.475   5.777   1.163  0.1182 -0.4447  0.4180
 6153TIP3    H118423   4.480   5.840   1.091  2.0766 -0.7190  0.2701
 6153TIP3    H218424   4.460   5.693   1.120  0.0218 -0.4403  0.4413
 6154TIP3   OH218425   6.111   6.288   0.743  0.3553 -0.1701  0.3483
 6154TIP3    H118426   6.151   6.247   0.820  2.6650  2.1267  0.5086
 6154TIP3    H218427   6.063   6.363   0.778 -0.1651 -0.1812 -0.3134
 6155TIP3   OH218428   0.050   1.693   1.246  0.4854 -1.0512 -0.0172
 6155TIP3    H118429   0.112   1.632   1.208  0.8964 -0.1297 -0.8872
 6155TIP3    H218430   0.099   1.775   1.254 -0.4675 -0.4436 -0.2594
 6156TIP3   OH218431   4.926   0.512  -0.007  0.2979 -0.0724 -0.0878
 6156TIP3    H118432   4.992   0.493   0.059  1.0172  1.1426 -0.4377
 6156TIP3    H218433   4.888   0.596   0.018  0.4756  0.3363 -1.1173
 6157TIP3   OH218434   6.963   0.581   3.950  0.1548  0.1068 -0.5519
 6157TIP3    H118435   6.907   0.637   4.003 -0.2239 -1.1098  0.3936
 6157TIP3    H218436   6.957   0.616   3.862 -2.1546 -0.0007 -0.4848
 6158TIP3   OH218437   6.480   1.270   4.574  0.3948  0.2221  0.0294
 6158TIP3    H118438   6.426   1.346   4.593  0.4703  0.2562  0.1083
 6158TIP3    H218439   6.551   1.274   4.639 -0.1464 -0.4556  0.6793
 6159TIP3   OH218440   6.714   3.836   0.014 -0.3651  0.4487 -0.8041
 6159TIP3    H118441   6.789   3.776   0.020 -0.6209  0.1137 -0.8738
 6159TIP3    H218442   6.640   3.784   0.045 -0.5895  0.7388 -0.8496
 6160TIP3   OH218443   1.613   5.780   3.071 -0.0671 -0.1776 -0.2916
 6160TIP3    H118444   1.630   5.801   2.980 -1.5617 -0.9843 -0.7809
 6160TIP3    H218445   1.700   5.773   3.111  0.6012  0.1588 -1.6455
 6161TIP3   OH218446   6.498   2.942   5.133  0.1454 -0.5359 -0.4828
 6161TIP3    H118447   6.449   2.956   5.052 -0.5028 -0.1633 -0.0388
 6161TIP3    H218448   6.518   2.848   5.133  0.7583 -0.4131 -1.4067
 6162TIP3   OH218449   2.959   6.712   1.272 -0.1458  0.6552 -0.0477
 6162TIP3    H118450   2.986   6.690   1.361  0.3320 -1.6853 -0.7060
 6162TIP3    H218451   3.041   6.732   1.227  0.5380 -4.0769 -1.4137
 6163TIP3   OH218452   5.299   3.109   0.223 -0.3859 -0.3880 -0.2542
 6163TIP3    H118453   5.223   3.166   0.237 -0.8651 -1.2306  0.6788
 6163TIP3    H218454   5.342   3.104   0.309  0.0663 -0.8511 -0.4997
 6164TIP3   OH218455   5.945   2.910   3.551  0.1709 -0.1499  0.4864
 6164TIP3    H118456   5.910   2.934   3.636 -0.6641  0.7202 -0.0734
 6164TIP3    H218457   6.032   2.948   3.549 -0.0659  0.4128  0.7013
 6165TIP3   OH218458   4.228   5.270   5.556  0.1570  0.0934 -0.5319
 6165TIP3    H118459   4.212   5.179   5.582 -0.7728  0.3040 -0.3631
 6165TIP3    H218460   4.304   5.264   5.498 -0.9824 -1.0463 -2.0104
 6166TIP3   OH218461   1.982   3.729   0.420 -0.0117 -0.4361 -0.2601
 6166TIP3    H118462   1.936   3.693   0.496 -0.0394 -1.4739 -0.7550
 6166TIP3    H218463   1.935   3.810   0.401 -0.8418 -0.8360  0.0275
 6167TIP3   OH218464   4.750   1.630   3.725 -0.2780  0.2069 -0.4009
 6167TIP3    H118465   4.777   1.644   3.634 -0.0158  0.4347 -0.2872
 6167TIP3    H218466   4.810   1.683   3.777 -0.4119  0.0582 -0.0906
 6168TIP3   OH218467   6.073   4.547   3.741 -0.3314  0.6030 -0.5745
 6168TIP3    H118468   6.064   4.463   3.784  1.3397  0.9126  0.4827
 6168TIP3    H218469   6.017   4.541   3.663 -0.7856 -1.1968 -0.1427
 6169TIP3   OH218470   2.810   4.059   0.369 -0.2709  0.4087 -0.7311
 6169TIP3    H118471   2.852   4.004   0.435 -0.3181 -0.2426 -1.2445
 6169TIP3    H218472   2.845   4.147   0.387  1.4687 -0.1319 -1.2441
 6170TIP3   OH218473   3.472   3.673   1.284 -0.0793  0.1114 -0.1547
 6170TIP3    H118474   3.477   3.742   1.218 -0.3848  0.5681  0.2897
 6170TIP3    H218475   3.424   3.602   1.241  0.4353  0.0837 -0.6891
 6171TIP3   OH218476   3.267   4.549   4.572 -0.0769 -0.1830 -0.1746
 6171TIP3    H118477   3.191   4.491   4.572 -0.3664  0.1903 -0.8297
 6171TIP3    H218478   3.326   4.513   4.506 -0.0973  0.0583 -0.3263
 6172TIP3   OH218479   6.544   2.897   4.152 -0.4218 -0.0944  0.6486
 6172TIP3    H118480   6.589   2.925   4.072  0.6611 -0.3266  1.1602
 6172TIP3    H218481   6.460   2.942   4.149  0.3822  1.4831  0.3414
 6173TIP3   OH218482   1.542   1.833   1.344  0.6762  0.2776  0.4010
 6173TIP3    H118483   1.567   1.922   1.321 -0.7137  0.8035  0.8118
 6173TIP3    H218484   1.616   1.779   1.316  0.9491  1.3844 -1.1208
 6174TIP3   OH218485   4.741   1.698   4.924  0.1908 -0.0779  0.4720
 6174TIP3    H118486   4.780   1.786   4.921 -0.9026  0.4254  0.2297
 6174TIP3    H218487   4.686   1.699   5.003 -0.2184 -0.3646  0.1959
 6175TIP3   OH218488   5.391   4.777   1.929 -0.2012 -0.4482 -0.0002
 6175TIP3    H118489   5.449   4.701   1.932  0.6438  0.2007  2.3742
 6175TIP3    H218490   5.402   4.819   2.014 -1.4083  1.7878 -0.8593
 6176TIP3   OH218491   5.119   0.390   1.705 -0.3375 -0.1531 -0.4651
 6176TIP3    H118492   5.171   0.436   1.639 -0.9219 -0.6014 -1.2594
 6176TIP3    H218493   5.167   0.403   1.787  2.5659 -2.8545 -1.5281
 6177TIP3   OH218494   0.606   5.618   5.030  0.7117 -0.9298 -0.1563
 6177TIP3    H118495   0.633   5.707   5.011  0.6026 -1.1112 -1.2459
 6177TIP3    H218496   0.586   5.617   5.123 -0.2168  0.4310 -0.3149
 6178TIP3   OH218497   3.913   0.040   0.869  0.2893 -0.5597  0.0593
 6178TIP3    H118498   3.838   0.041   0.928  0.5528  1.7058  0.4668
 6178TIP3    H218499   3.880   0.000   0.789 -0.8373 -1.2223  0.8201
 6179TIP3   OH218500   2.791   2.031   2.683  0.2991 -0.2827 -0.1286
 6179TIP3    H118501   2.791   2.040   2.778 -0.0432 -0.0234 -0.1497
 6179TIP3    H218502   2.762   1.941   2.667  0.4161 -0.3459  0.0103
 6180TIP3   OH218503   1.655   2.143   0.161 -0.0526  0.8734  0.3021
 6180TIP3    H118504   1.578   2.133   0.218 -1.6453  3.4788 -1.1814
 6180TIP3    H218505   1.718   2.192   0.214 -0.1413  0.3350  0.9171
 6181TIP3   OH218506   2.429   0.039   5.836 -0.2327  0.0517 -0.5543
 6181TIP3    H118507   2.382  -0.011   5.903 -0.0477  1.5406  0.7569
 6181TIP3    H218508   2.454   0.121   5.880  1.5164  0.3139 -1.9122
 6182TIP3   OH218509   3.465   2.439   3.478 -0.1869  0.0792 -0.0330
 6182TIP3    H118510   3.531   2.501   3.447 -0.7973  0.2814 -0.9837
 6182TIP3    H218511   3.384   2.490   3.481 -0.3816 -0.2571  0.7787
 6183TIP3   OH218512   3.528   1.859   0.320  0.0586  0.0660  0.2167
 6183TIP3    H118513   3.611   1.821   0.287 -0.1840 -1.1846  0.9797
 6183TIP3    H218514   3.469   1.784   0.326 -1.4962  1.0901 -1.2984
 6184TIP3   OH218515   6.879   1.916   2.885  0.2523 -0.1522 -0.2678
 6184TIP3    H118516   6.849   1.840   2.935 -1.5032  0.0805 -0.9024
 6184TIP3    H218517   6.832   1.910   2.802 -0.1528  1.7923 -0.2280
 6185TIP3   OH218518   1.526   5.617   4.427  0.1863 -0.5825 -0.2168
 6185TIP3    H118519   1.585   5.600   4.354  0.0927  0.9260 -0.6751
 6185TIP3    H218520   1.572   5.584   4.504  0.5476 -1.6377 -0.8707
 6186TIP3   OH218521   5.167   2.316   2.854  0.1560  0.3854 -0.2072
 6186TIP3    H118522   5.217   2.332   2.773  1.0645  1.9126  0.5982
 6186TIP3    H218523   5.235   2.310   2.922 -0.6415  0.0542  0.5671
 6187TIP3   OH218524   6.668   1.939   0.167  0.2397 -0.4626  0.1309
 6187TIP3    H118525   6.573   1.939   0.177  0.3287 -0.6107  1.1071
 6187TIP3    H218526   6.684   1.990   0.087 -0.6709 -0.7636 -0.2555
 6188TIP3   OH218527   5.172   3.467   5.822  0.2918 -0.9210  0.3262
 6188TIP3    H118528   5.178   3.393   5.761 -0.0630 -1.5596  1.0483
 6188TIP3    H218529   5.091   3.512   5.797  0.7477 -0.4771 -0.4202
 6189TIP3   OH218530   3.864   4.648   3.657 -0.5743  0.6304  0.3005
 6189TIP3    H118531   3.797   4.595   3.700 -0.2340  1.1427  1.4956
 6189TIP3    H218532   3.925   4.585   3.620 -0.5783  0.1730  1.0602
 6190TIP3   OH218533   3.103   2.895   4.201  0.4362  0.1791 -0.3297
 6190TIP3    H118534   3.071   2.906   4.290  1.2534  1.0104 -0.1265
 6190TIP3    H218535   3.025   2.903   4.146  0.0217  0.2739  0.2656
 6191TIP3   OH218536   6.690   3.465   1.426 -0.0073  0.0213 -0.5948
 6191TIP3    H118537   6.705   3.462   1.331 -0.9088 -0.6104 -0.7290
 6191TIP3    H218538   6.684   3.558   1.447 -0.3627  0.1528 -1.2518
 6192TIP3   OH218539   1.161   3.934   2.491  0.0523 -0.3554 -0.6035
 6192TIP3    H118540   1.201   3.950   2.405 -0.4085 -0.9054 -0.9236
 6192TIP3    H218541   1.235   3.940   2.552  0.4646 -0.4144 -1.0851
 6193TIP3   OH218542   6.921   6.474   5.396 -0.1119  0.2410  0.8317
 6193TIP3    H118543   6.873   6.398   5.364  1.7049 -0.4432 -0.4240
 6193TIP3    H218544   6.861   6.547   5.383 -1.0547 -0.6620 -0.0928
 6194TIP3   OH218545   1.358   1.230   0.413  0.5776 -0.2897 -0.2865
 6194TIP3    H118546   1.414   1.206   0.339 -1.1235 -1.6458 -1.2110
 6194TIP3    H218547   1.356   1.152   0.469  0.0991 -0.0602  0.0315
 6195TIP3   OH218548   3.404   2.888   1.358  0.3719 -0.0346 -0.3566
 6195TIP3    H118549   3.495   2.903   1.334  0.2439 -0.4740 -1.1286
 6195TIP3    H218550   3.403   2.798   1.390  0.1644 -0.0916 -0.5302
 6196TIP3   OH218551   2.200   0.169   0.069 -0.4599 -0.4736 -0.5278
 6196TIP3    H118552   2.255   0.220   0.128  2.5554 -2.7266 -1.1476
 6196TIP3    H218553   2.129   0.228   0.045  0.6534  2.0079  1.8156
 6197TIP3   OH218554   2.051   6.362   1.220 -0.2172 -0.6498  0.6888
 6197TIP3    H118555   2.083   6.367   1.130  0.2231 -0.6164  0.8445
 6197TIP3    H218556   2.051   6.453   1.250 -2.5319 -0.3659 -0.0066
 6198TIP3   OH218557   6.972   2.661   3.840 -0.0328 -0.1506 -0.1565
 6198TIP3    H118558   7.047   2.665   3.900 -0.2432 -0.3062  0.1145
 6198TIP3    H218559   6.979   2.742   3.788  0.2677 -0.1177 -0.0675
 6199TIP3   OH218560   5.227   5.680   5.353 -0.1883  0.1605  0.2675
 6199TIP3    H118561   5.319   5.654   5.347 -0.3522 -0.2023 -0.8763
 6199TIP3    H218562   5.230   5.773   5.375  0.4600  0.2286 -0.0724
 6200TIP3   OH218563   2.436   0.236   2.427  0.0108  1.0508  0.1977
 6200TIP3    H118564   2.411   0.310   2.483 -3.3702 -0.7515  1.2835
 6200TIP3    H218565   2.361   0.222   2.370  0.5486 -1.5533  0.0147
 6201TIP3   OH218566   4.568   1.227   5.487  0.6069 -0.3736  0.2613
 6201TIP3    H118567   4.582   1.133   5.505 -0.8871 -0.4432  1.2436
 6201TIP3    H218568   4.567   1.267   5.574 -1.3466  0.1326  0.0584
 6202TIP3   OH218569   0.435   2.194   3.409 -0.1625  0.1309 -0.4773
 6202TIP3    H118570   0.467   2.104   3.409  2.7819  1.0778 -1.2366
 6202TIP3    H218571   0.439   2.221   3.317 -1.8259  0.8165 -0.3864
 6203TIP3   OH218572   5.749   6.393   3.280  0.8787 -0.1036 -0.4742
 6203TIP3    H118573   5.803   6.386   3.201  1.8284  2.3066 -0.1422
 6203TIP3    H218574   5.811   6.419   3.348 -0.4483  1.3854  0.2306
 6204TIP3   OH218575   3.382   4.905   4.068  0.2070  0.0031 -0.1009
 6204TIP3    H118576   3.308   4.894   4.010 -0.9333  0.8497  1.1321
 6204TIP3    H218577   3.409   4.816   4.091  0.8712 -0.3462 -2.0965
 6205TIP3   OH218578   2.995   0.151   5.386  0.3959  0.0683  0.0586
 6205TIP3    H118579   2.915   0.098   5.394  1.9001 -2.2057  0.8909
 6205TIP3    H218580   3.003   0.167   5.292 -0.1360 -1.1721 -0.2189
 6206TIP3   OH218581   0.101   6.686   5.599  0.1992 -0.1608 -0.5874
 6206TIP3    H118582   0.171   6.631   5.635 -0.1322 -0.9052 -1.0582
 6206TIP3    H218583   0.067   6.733   5.675  1.5537  0.6231 -0.4326
 6207TIP3   OH218584   6.673   4.250   3.759  0.4450  0.0047 -0.1137
 6207TIP3    H118585   6.720   4.259   3.677  0.9820 -2.5139 -0.1601
 6207TIP3    H218586   6.696   4.163   3.792  0.3932  0.9603  2.8136
 6208TIP3   OH218587   1.771   0.401   1.314  0.2445 -0.2119  0.4855
 6208TIP3    H118588   1.830   0.412   1.389 -1.4659 -1.2803  2.0897
 6208TIP3    H218589   1.687   0.435   1.345 -0.0382  1.2944 -1.7365
 6209TIP3   OH218590   2.546   0.657   0.463 -0.9484 -0.1973  0.0887
 6209TIP3    H118591   2.521   0.577   0.510 -0.4691 -1.3526 -1.5469
 6209TIP3    H218592   2.630   0.681   0.502 -1.7610  0.3744  1.5813
 6210TIP3   OH218593   2.348   0.701   2.423 -0.5558  0.2639 -0.4140
 6210TIP3    H118594   2.273   0.644   2.407 -1.8016  1.6795  0.0726
 6210TIP3    H218595   2.424   0.645   2.412 -1.6949 -1.3390 -0.4760
 6211TIP3   OH218596   0.110   0.041   1.792 -0.0223 -0.2256  0.2825
 6211TIP3    H118597   0.058  -0.024   1.744 -0.4807 -0.0646  0.5493
 6211TIP3    H218598   0.131  -0.002   1.874  0.5712 -0.4179  0.0369
 6212TIP3   OH218599   1.584   2.295   0.885 -0.4233  0.7265  0.6557
 6212TIP3    H118600   1.564   2.206   0.914 -0.9929  1.4884  2.8373
 6212TIP3    H218601   1.665   2.318   0.931 -0.2396  1.3169  0.0600
 6213TIP3   OH218602   1.178   0.175   0.641 -0.4940 -0.1389  0.8299
 6213TIP3    H118603   1.248   0.140   0.586 -1.2226  0.1126 -0.2954
 6213TIP3    H218604   1.213   0.259   0.673 -0.6198  0.4792 -0.5443
 6214TIP3   OH218605   6.123   4.454   4.080 -0.5310 -0.2559 -0.2343
 6214TIP3    H118606   6.082   4.408   4.007  0.5612 -0.1035 -0.9624
 6214TIP3    H218607   6.165   4.385   4.132 -0.6617 -0.2860 -0.1684
 6215TIP3   OH218608   4.721   4.486   2.502  0.1277 -0.7080  0.2419
 6215TIP3    H118609   4.649   4.546   2.525 -0.8699 -1.7751  0.0113
 6215TIP3    H218610   4.755   4.455   2.585 -0.6061 -1.2433  0.3551
 6216TIP3   OH218611   5.569   6.753   2.185 -0.4012  0.1065  0.1808
 6216TIP3    H118612   5.640   6.742   2.247 -1.4080  0.6786  1.4920
 6216TIP3    H218613   5.608   6.799   2.111  0.5055  0.7866  1.0568
 6217TIP3   OH218614   0.702   3.859   0.157  0.1459  0.7819  0.2338
 6217TIP3    H118615   0.631   3.922   0.163 -0.2630  0.3746 -0.2515
 6217TIP3    H218616   0.667   3.779   0.197 -0.1409  0.1789 -1.1775
 6218TIP3   OH218617   6.662   4.388   0.889  0.0389 -0.1317 -0.1079
 6218TIP3    H118618   6.716   4.388   0.968 -0.6151  1.2466  0.3829
 6218TIP3    H218619   6.637   4.296   0.877 -0.8152 -0.2468  1.9988
 6219TIP3   OH218620   6.782   3.451   5.430  1.0579  0.3263  0.2928
 6219TIP3    H118621   6.800   3.504   5.353  2.1919  0.4326  0.6063
 6219TIP3    H218622   6.794   3.361   5.400 -1.6879  0.1484 -0.4513
 6220TIP3   OH218623   4.222   4.629   0.918 -0.2254  0.1972  0.3997
 6220TIP3    H118624   4.273   4.550   0.903 -0.2872  0.1880  0.2260
 6220TIP3    H218625   4.233   4.680   0.838 -0.7428  0.0494  0.2273
 6221TIP3   OH218626   3.724   4.242   4.138  0.3258  0.0492  0.7149
 6221TIP3    H118627   3.659   4.296   4.094  1.1732  0.5385  0.0362
 6221TIP3    H218628   3.673   4.171   4.178 -0.6326  0.5012  0.3330
 6222TIP3   OH218629   6.835   1.420   5.492 -0.0601 -0.0683  0.4066
 6222TIP3    H118630   6.792   1.359   5.432 -2.0351  1.8336 -0.2380
 6222TIP3    H218631   6.763   1.472   5.530  1.4407  1.2461  1.6155
 6223TIP3   OH218632   2.436   0.273   1.933 -0.5384  0.2410  0.6214
 6223TIP3    H118633   2.387   0.317   1.864  0.0337  1.6327  1.0787
 6223TIP3    H218634   2.463   0.190   1.893 -2.1233 -0.0015 -0.0619
 6224TIP3   OH218635   3.820   1.128   3.546 -0.1681 -0.2437  0.5916
 6224TIP3    H118636   3.788   1.145   3.634 -1.8997 -0.6718  0.0813
 6224TIP3    H218637   3.912   1.156   3.548 -1.0852  3.1883  1.5272
 6225TIP3   OH218638   5.739   2.366   1.462 -0.2132 -0.0905 -0.1513
 6225TIP3    H118639   5.715   2.347   1.553 -0.4556  1.0465  0.0446
 6225TIP3    H218640   5.825   2.325   1.451  0.3175  0.6775  0.9417
 6226TIP3   OH218641   2.322   5.703   5.757 -0.5593 -0.2843  0.3094
 6226TIP3    H118642   2.397   5.749   5.794 -1.1871  0.4592  0.6982
 6226TIP3    H218643   2.252   5.769   5.756 -1.2726 -1.0301  0.1809
 6227TIP3   OH218644   5.698   2.080   3.532  0.1768 -0.5595  0.1929
 6227TIP3    H118645   5.685   2.165   3.490  1.5665 -0.5748 -0.3285
 6227TIP3    H218646   5.609   2.049   3.552 -0.6388 -0.7710 -3.1736
 6228TIP3   OH218647   3.122   1.332   0.015  0.3441  0.4721  0.0071
 6228TIP3    H118648   3.085   1.416  -0.011 -2.8395 -0.9661 -0.6000
 6228TIP3    H218649   3.055   1.292   0.069  3.2376 -0.3015  3.4039
 6229TIP3   OH218650   4.385   6.403   1.067  0.0730  0.6396  0.0705
 6229TIP3    H118651   4.480   6.386   1.065  0.2220  1.0461  1.7117
 6229TIP3    H218652   4.368   6.455   0.989  1.3645  1.2748  0.1839
 6230TIP3   OH218653   3.449   6.342   3.596  0.0577 -0.0283 -0.0148
 6230TIP3    H118654   3.426   6.293   3.517  2.4326 -1.4090  0.0508
 6230TIP3    H218655   3.415   6.289   3.668 -1.2130  0.7086 -0.0554
 6231TIP3   OH218656   2.990   3.499   5.103  0.8251 -0.0766  0.0687
 6231TIP3    H118657   2.988   3.445   5.024  1.2287 -0.0166  0.0151
 6231TIP3    H218658   2.898   3.509   5.128  0.7142 -0.3251 -0.2361
 6232TIP3   OH218659   6.341   5.289   2.416  0.4155  0.2491  0.4144
 6232TIP3    H118660   6.368   5.289   2.508  2.0933 -0.6745 -0.0243
 6232TIP3    H218661   6.407   5.343   2.372 -0.7727  1.2792 -0.1851
 6233TIP3   OH218662   5.934   3.466   3.305  0.4971 -0.6406  0.1826
 6233TIP3    H118663   5.906   3.411   3.378 -1.9797  0.3418  0.0574
 6233TIP3    H218664   5.948   3.552   3.344  1.4832 -0.6351 -0.1402
 6234TIP3   OH218665   4.168   0.106   1.138 -0.0585 -0.2465 -0.3679
 6234TIP3    H118666   4.108   0.177   1.117 -0.2757  0.4818  2.3984
 6234TIP3    H218667   4.255   0.147   1.137 -0.0953 -0.1440  0.3384
 6235TIP3   OH218668   3.779   3.772   2.040 -0.0512 -0.0382  0.1806
 6235TIP3    H118669   3.709   3.798   1.981 -0.6321  0.6030  1.1183
 6235TIP3    H218670   3.789   3.847   2.099  1.4524 -0.0993  0.0461
 6236TIP3   OH218671   1.048   6.799   4.087 -0.1484 -0.3317 -0.5242
 6236TIP3    H118672   1.114   6.845   4.139 -0.3944  0.6326 -1.0381
 6236TIP3    H218673   1.096   6.727   4.046 -0.0280 -1.3369  1.2975
 6237TIP3   OH218674   0.784   6.206   1.549  0.7325 -0.0581 -0.0840
 6237TIP3    H118675   0.728   6.280   1.572 -0.6429 -1.1977  0.3574
 6237TIP3    H218676   0.822   6.178   1.632  1.7647  0.5129 -0.3372
 6238TIP3   OH218677   1.149   3.741   5.619  0.3878 -0.0781 -0.4259
 6238TIP3    H118678   1.209   3.688   5.673  1.0851 -0.1136 -1.2237
 6238TIP3    H218679   1.105   3.678   5.563  0.5290  0.0886 -0.7238
 6239TIP3   OH218680   4.804   3.182   4.379  0.5024  0.0636 -0.0475
 6239TIP3    H118681   4.759   3.147   4.303  1.2156 -1.1773  0.0815
 6239TIP3    H218682   4.845   3.106   4.420  2.7577  1.1260 -0.1872
 6240TIP3   OH218683   6.550   1.783   5.295  0.2312  0.5806 -1.2167
 6240TIP3    H118684   6.572   1.861   5.345 -1.1348 -0.1264  0.6164
 6240TIP3    H218685   6.455   1.789   5.282  0.2307 -0.3908 -1.7439
 6241TIP3   OH218686   6.470   2.638   4.428 -0.1964 -0.2231 -0.0550
 6241TIP3    H118687   6.558   2.638   4.465  0.6760  0.4967 -2.0087
 6241TIP3    H218688   6.479   2.592   4.344 -1.6744 -0.0791 -0.3256
 6242TIP3   OH218689   5.752   5.570   5.463 -0.6926  0.5035 -0.0905
 6242TIP3    H118690   5.792   5.496   5.507  0.1287  0.5483 -0.7358
 6242TIP3    H218691   5.811   5.643   5.480  0.3251  0.2732 -2.1956
 6243TIP3   OH218692   1.393   4.037   3.556  0.2126  0.4495 -0.4418
 6243TIP3    H118693   1.313   4.088   3.542 -0.4363 -0.3637  0.1974
 6243TIP3    H218694   1.387   3.966   3.492  0.5268  0.5078 -0.5356
 6244TIP3   OH218695   5.292   2.019   3.930 -0.1388 -0.7888 -0.3079
 6244TIP3    H118696   5.218   2.019   3.991 -0.2623  1.9581 -0.2972
 6244TIP3    H218697   5.332   1.933   3.939 -0.4146 -0.6719  3.3454
 6245TIP3   OH218698   0.393   3.150   2.174 -0.0407  0.2588 -0.1749
 6245TIP3    H118699   0.445   3.134   2.095 -0.2870 -1.6241 -0.0033
 6245TIP3    H218700   0.412   3.241   2.197 -0.0632  0.9179 -2.4654
 6246TIP3   OH218701   1.814   0.986   4.076 -0.3270  0.1521  0.1792
 6246TIP3    H118702   1.822   0.891   4.076 -1.2592  0.0659 -0.2295
 6246TIP3    H218703   1.728   1.004   4.037  1.0357  1.2846 -2.5130
 6247TIP3   OH218704   0.919   0.931   0.344 -0.2032  0.2595  0.0198
 6247TIP3    H118705   0.997   0.917   0.397 -0.2554  0.7950  0.2380
 6247TIP3    H218706   0.853   0.961   0.406  0.2833  2.8752 -0.5923
 6248TIP3   OH218707   0.259   1.898   0.976  0.1586 -0.4517  0.1245
 6248TIP3    H118708   0.232   1.859   1.059 -1.9194 -2.4433 -1.3912
 6248TIP3    H218709   0.334   1.846   0.948  1.4388  0.7806  1.0769
 6249TIP3   OH218710   0.668   2.668   2.979  0.0594  0.1815  0.2692
 6249TIP3    H118711   0.613   2.622   3.043 -1.4078  0.2746 -0.8715
 6249TIP3    H218712   0.687   2.601   2.912  1.1574  0.2206  0.5190
 6250TIP3   OH218713   5.677   0.684   3.913  0.0756 -0.2738 -0.0439
 6250TIP3    H118714   5.675   0.720   3.824 -0.1739  0.8602  0.4035
 6250TIP3    H218715   5.757   0.721   3.951 -0.4104  0.1565  0.5678
 6251TIP3   OH218716   3.663   5.896   0.485 -0.5582  0.0998 -0.1775
 6251TIP3    H118717   3.742   5.859   0.525 -0.5916  0.1626 -0.0513
 6251TIP3    H218718   3.598   5.826   0.490 -0.4194 -0.0571 -0.5641
 6252TIP3   OH218719   6.876   6.018   2.910 -0.3756 -0.1889  0.1748
 6252TIP3    H118720   6.844   5.952   2.849 -0.5472  0.2323 -0.1959
 6252TIP3    H218721   6.810   6.088   2.906 -0.4296 -0.1950  0.8981
 6253TIP3   OH218722   1.929   3.366   3.233 -0.2005 -0.2092 -0.0073
 6253TIP3    H118723   1.983   3.289   3.249  0.0229  0.2201  1.3823
 6253TIP3    H218724   1.937   3.382   3.139 -0.1372 -1.7818 -0.2887
 6254TIP3   OH218725   5.063   4.736   3.740 -0.2878 -0.7339  0.1336
 6254TIP3    H118726   5.137   4.702   3.791 -0.1123 -0.2171  0.2291
 6254TIP3    H218727   5.012   4.658   3.718 -0.2880 -0.9838  0.9822
 6255TIP3   OH218728   6.989   4.244   4.866 -0.4909  0.4499  0.6184
 6255TIP3    H118729   6.903   4.282   4.885 -0.0044  0.7305  2.4388
 6255TIP3    H218730   6.969   4.163   4.818 -1.6897  1.1610 -0.1530
 6256TIP3   OH218731   3.790   3.786   3.790  0.8570  0.1051  0.6656
 6256TIP3    H118732   3.748   3.713   3.837  0.8253 -0.1491  0.2485
 6256TIP3    H218733   3.880   3.757   3.777  0.8138  0.0884  0.3965
 6257TIP3   OH218734   1.975   3.943   1.780  0.5692  0.0690  0.4853
 6257TIP3    H118735   1.984   4.038   1.785  0.7643  0.0028  1.5792
 6257TIP3    H218736   1.991   3.922   1.688 -1.1717  1.2610 -0.1530
 6258TIP3   OH218737   4.529   6.490   5.841 -0.4770  0.2889  0.0237
 6258TIP3    H118738   4.475   6.535   5.906  0.4594  1.7413 -0.1722
 6258TIP3    H218739   4.582   6.559   5.801 -0.8566 -0.5897 -2.1402
 6259TIP3   OH218740   5.697   0.628   3.575  0.1579  0.3858 -0.2894
 6259TIP3    H118741   5.608   0.613   3.543 -0.7264  0.1314  2.1216
 6259TIP3    H218742   5.743   0.546   3.556 -0.7985 -0.3585  0.5153
 6260TIP3   OH218743   5.453   2.775   3.391 -0.0327  0.0225 -0.1402
 6260TIP3    H118744   5.406   2.707   3.438 -0.1464 -1.0572 -1.7532
 6260TIP3    H218745   5.497   2.826   3.460 -0.1745 -1.4973  1.1171
 6261TIP3   OH218746   5.936   0.303   4.947  0.5520  1.0720 -0.0903
 6261TIP3    H118747   5.987   0.315   4.867  1.5332  2.8350  0.7333
 6261TIP3    H218748   5.997   0.322   5.018 -0.8646  1.8106  0.9994
 6262TIP3   OH218749   6.546   5.130   3.050  0.0906  0.6052 -0.4860
 6262TIP3    H118750   6.471   5.072   3.067 -1.1644  2.6501  1.3996
 6262TIP3    H218751   6.507   5.212   3.021  1.8315  0.6782 -2.9154
 6263TIP3   OH218752   3.679   2.314   4.670  0.0478  0.6609  0.1874
 6263TIP3    H118753   3.755   2.276   4.626 -0.1702  0.0413  0.3317
 6263TIP3    H218754   3.663   2.255   4.744 -0.4924  0.8598  0.2305
 6264TIP3   OH218755   3.985   4.133   5.333  0.8540  0.0256  0.5216
 6264TIP3    H118756   3.936   4.054   5.356  2.3560 -0.8489  0.8792
 6264TIP3    H218757   3.958   4.152   5.243 -1.0964  0.3711  1.1247
 6265TIP3   OH218758   6.151   5.800   2.247 -0.0687 -0.0271  0.0077
 6265TIP3    H118759   6.155   5.894   2.268  1.3907 -0.3424  1.3791
 6265TIP3    H218760   6.221   5.787   2.184 -0.3138 -0.1905 -0.2314
 6266TIP3   OH218761   1.236   1.514   3.188  0.5696  0.0089 -0.0669
 6266TIP3    H118762   1.226   1.546   3.098  1.8426  0.6535 -0.0042
 6266TIP3    H218763   1.162   1.550   3.236  0.1212  0.0222 -0.7549
 6267TIP3   OH218764   4.121   1.459   4.314  0.0729  0.2575  0.0608
 6267TIP3    H118765   4.090   1.456   4.405  0.0917 -3.3659  0.0662
 6267TIP3    H218766   4.207   1.417   4.317 -0.6825 -1.5540 -1.8441
 6268TIP3   OH218767   1.795   0.556   3.130  0.3025 -0.0149 -0.1906
 6268TIP3    H118768   1.706   0.527   3.108  0.7178 -1.0819 -0.5577
 6268TIP3    H218769   1.783   0.627   3.193 -0.7911 -1.9417  1.9452
 6269TIP3   OH218770   7.003   1.393   2.050  0.2897 -0.0493 -0.4913
 6269TIP3    H118771   6.933   1.454   2.026 -0.0646 -0.6739 -1.0901
 6269TIP3    H218772   7.058   1.389   1.971  1.2011  0.6891  0.0836
 6270TIP3   OH218773   0.125   4.555   2.716  0.1010 -0.4245  0.3808
 6270TIP3    H118774   0.197   4.570   2.777 -0.0446 -0.6110  0.6012
 6270TIP3    H218775   0.050   4.600   2.755 -0.0047 -0.5848  0.3656
 6271TIP3   OH218776   5.326   6.544   0.499  0.3026 -0.4630 -0.4835
 6271TIP3    H118777   5.314   6.594   0.419  0.6270  0.9888  0.3519
 6271TIP3    H218778   5.418   6.517   0.497  0.6245  0.5587 -0.0667
 6272TIP3   OH218779   1.885   2.072   2.070  0.0369  0.2993  0.1505
 6272TIP3    H118780   1.924   2.154   2.039 -0.3853 -0.2306 -1.9842
 6272TIP3    H218781   1.910   2.066   2.162  0.1533  2.7724  0.3460
 6273TIP3   OH218782   2.049   2.157   1.642 -0.2313  0.2500  0.3009
 6273TIP3    H118783   2.083   2.129   1.727  1.7225  2.7802  0.4916
 6273TIP3    H218784   2.004   2.240   1.660 -1.5282 -0.1638 -0.8729
 6274TIP3   OH218785   4.046   5.734   4.971  0.3860  0.7292  0.1032
 6274TIP3    H118786   4.018   5.753   5.061 -1.0901 -2.2443  0.4034
 6274TIP3    H218787   3.978   5.771   4.916  0.8993  1.8891  0.2264
 6275TIP3   OH218788   2.145   5.570   1.519  0.2637  0.0977 -0.1731
 6275TIP3    H118789   2.078   5.612   1.465 -0.4310  0.9278  1.2668
 6275TIP3    H218790   2.103   5.558   1.604  1.7323  0.0390  0.5701
 6276TIP3   OH218791   2.981   4.595   5.054 -0.2324  0.1800  0.2126
 6276TIP3    H118792   3.023   4.629   5.133 -2.2742 -0.5374  1.7143
 6276TIP3    H218793   3.018   4.646   4.983 -0.0920  2.6278  1.9054
 6277TIP3   OH218794   0.080   4.510   5.465  0.0806  0.4715  0.0792
 6277TIP3    H118795   0.027   4.441   5.423  1.7539  0.4265 -2.1776
 6277TIP3    H218796   0.045   4.592   5.430  0.3497  0.5288 -0.0667
 6278TIP3   OH218797   0.559   0.093   4.446  0.0588  0.4461 -0.1554
 6278TIP3    H118798   0.534   0.015   4.396 -0.2130  1.0189 -0.9339
 6278TIP3    H218799   0.589   0.155   4.380 -0.8275  1.4262  0.3462
 6279TIP3   OH218800   2.589   4.296   2.812  0.4756 -0.8065 -0.2366
 6279TIP3    H118801   2.495   4.315   2.806  0.2973 -1.0195  1.3818
 6279TIP3    H218802   2.629   4.348   2.742 -0.9025 -1.2214 -1.3741
 6280TIP3   OH218803   3.243   1.106   5.308  0.3541  0.5609 -0.0755
 6280TIP3    H118804   3.306   1.151   5.253 -0.5532  0.6583 -1.0672
 6280TIP3    H218805   3.158   1.128   5.270 -0.1618 -1.4563 -0.2061
 6281TIP3   OH218806   4.672   3.681   3.274  0.4298 -0.2070 -0.1073
 6281TIP3    H118807   4.693   3.663   3.366  1.0345  0.6380 -0.0612
 6281TIP3    H218808   4.678   3.597   3.230  1.1698 -0.4531  0.4437
 6282TIP3   OH218809   5.569   2.311   4.289  0.7240  0.1842 -0.1500
 6282TIP3    H118810   5.598   2.353   4.208  2.3865 -0.1984  0.1965
 6282TIP3    H218811   5.638   2.331   4.352 -1.0995  1.4818  1.5519
 6283TIP3   OH218812   6.779   1.538   3.807  0.1575  0.2434 -0.1152
 6283TIP3    H118813   6.874   1.537   3.803  0.2978  1.6309  1.5231
 6283TIP3    H218814   6.756   1.631   3.809 -1.2095 -0.0637 -0.0948
 6284TIP3   OH218815   0.269   4.128   0.076  0.0516 -0.0876 -0.5856
 6284TIP3    H118816   0.281   4.176   0.158  2.2845 -1.2702 -0.1233
 6284TIP3    H218817   0.187   4.080   0.088 -1.5974  2.5249 -0.5888
 6285TIP3   OH218818   1.727   5.762   1.233 -0.5957 -0.2500  0.2371
 6285TIP3    H118819   1.816   5.727   1.222 -1.1640 -1.5911 -0.1665
 6285TIP3    H218820   1.671   5.702   1.185 -1.6700  0.9442 -0.0536
 6286TIP3   OH218821   4.516   2.067   2.612 -0.1960  0.3194  0.2956
 6286TIP3    H118822   4.458   2.123   2.664 -0.9865  0.4663 -0.7114
 6286TIP3    H218823   4.562   2.128   2.554 -1.3710 -0.0742 -1.1083
 6287TIP3   OH218824   3.463   6.596   4.837  0.1347  0.1872  0.5393
 6287TIP3    H118825   3.452   6.524   4.776  0.9860  0.6988 -0.2483
 6287TIP3    H218826   3.376   6.635   4.845 -0.3383 -0.9324  1.0070
 6288TIP3   OH218827   6.705   1.166   3.775 -0.3078  0.1808  0.0226
 6288TIP3    H118828   6.615   1.197   3.768 -0.0602  0.9039 -0.1112
 6288TIP3    H218829   6.710   1.125   3.861 -1.1306 -1.1484 -0.5350
 6289TIP3   OH218830   2.364   2.064   5.595  0.1716  0.2372  0.0984
 6289TIP3    H118831   2.282   2.111   5.606 -0.0889 -0.4969  1.5852
 6289TIP3    H218832   2.347   2.000   5.527 -0.8815 -0.6729  1.1651
 6290TIP3   OH218833   5.760   2.535   5.017  0.1992 -0.2058 -0.7191
 6290TIP3    H118834   5.807   2.478   5.079 -0.8939  0.6607  0.9975
 6290TIP3    H218835   5.824   2.554   4.948  1.7458 -0.5965  0.5496
 6291TIP3   OH218836   2.487   6.211   3.399  0.5930 -0.5043 -0.4866
 6291TIP3    H118837   2.495   6.303   3.372 -0.2784 -0.4713 -0.6375
 6291TIP3    H218838   2.572   6.191   3.440  0.6804  0.4576 -0.1767
 6292TIP3   OH218839   5.204   1.209   1.945 -0.0417  0.2925 -0.1017
 6292TIP3    H118840   5.142   1.262   1.994 -1.3302 -0.0969 -1.2617
 6292TIP3    H218841   5.153   1.172   1.873  1.3103 -0.8146 -0.5418
 6293TIP3   OH218842   0.178   0.526   0.989  0.1061 -0.9011 -0.2211
 6293TIP3    H118843   0.181   0.618   0.961 -0.7185 -0.9152 -0.3761
 6293TIP3    H218844   0.159   0.531   1.083 -0.2516 -0.9118 -0.2898
 6294TIP3   OH218845   3.529   3.581   3.772  0.0979 -0.1579  0.1406
 6294TIP3    H118846   3.474   3.568   3.695 -2.3152 -0.3752  1.7822
 6294TIP3    H218847   3.494   3.659   3.814  1.7286  0.2935  0.7629
 6295TIP3   OH218848   2.837   1.352   1.861  0.3164  0.2535 -0.1576
 6295TIP3    H118849   2.826   1.303   1.942 -0.6638  2.4153  1.1062
 6295TIP3    H218850   2.763   1.325   1.806 -0.4033  0.5312  0.6523
 6296TIP3   OH218851   0.535   5.897   2.218  0.9789 -0.4040 -0.1210
 6296TIP3    H118852   0.594   5.841   2.269  2.4066 -0.7860 -2.0679
 6296TIP3    H218853   0.519   5.973   2.275  1.6896 -1.2381  1.2593
 6297TIP3   OH218854   2.215   2.271   4.192 -0.1476 -0.6093  0.0606
 6297TIP3    H118855   2.135   2.218   4.190 -0.5194 -0.1912  1.6682
 6297TIP3    H218856   2.184   2.361   4.200  0.4811 -0.3447 -0.4281
 6298TIP3   OH218857   1.786   1.089   1.267 -0.1112 -0.0523 -0.1968
 6298TIP3    H118858   1.711   1.049   1.222 -0.4991 -0.7647  1.0297
 6298TIP3    H218859   1.845   1.016   1.284 -0.4758 -0.0127  1.4029
 6299TIP3   OH218860   3.392   4.959   2.807 -0.7586 -0.4492 -0.1717
 6299TIP3    H118861   3.476   4.931   2.773 -0.6037  0.0872 -0.2408
 6299TIP3    H218862   3.382   5.050   2.777 -1.6495 -0.7039 -0.7062
 6300TIP3   OH218863   3.998   3.760   1.848 -0.4564  0.2644 -0.2065
 6300TIP3    H118864   4.041   3.758   1.933 -1.5651  1.2353  0.4130
 6300TIP3    H218865   3.905   3.770   1.868 -0.5005  4.7312 -1.4391
 6301TIP3   OH218866   3.958   4.157   3.616  0.7699 -0.1022 -0.1033
 6301TIP3    H118867   3.966   4.069   3.577  1.5669  0.5109 -1.3882
 6301TIP3    H218868   3.892   4.146   3.684 -0.8031 -1.2377 -1.7011
 6302TIP3   OH218869   5.330   1.871   1.713 -0.1752  0.7184  0.0692
 6302TIP3    H118870   5.368   1.784   1.697 -0.8756  0.4435 -0.1366
 6302TIP3    H218871   5.288   1.863   1.799 -0.2148  0.8573  0.0625
 6303TIP3   OH218872   1.447  -0.012   3.714 -0.2870  0.2564  0.4908
 6303TIP3    H118873   1.538   0.011   3.730 -0.0321  0.7835 -1.4795
 6303TIP3    H218874   1.414   0.058   3.659 -1.1038 -1.2612 -1.0484
 6304TIP3   OH218875   4.307   6.290   4.493 -0.3512 -0.2079 -0.4245
 6304TIP3    H118876   4.212   6.293   4.484 -0.6545  0.7395  2.1057
 6304TIP3    H218877   4.328   6.198   4.507 -1.6405 -0.0768  3.9211
 6305TIP3   OH218878   3.652   5.409   0.865 -0.2888  0.2829 -0.2844
 6305TIP3    H118879   3.666   5.442   0.777  2.5780 -1.6773 -0.6677
 6305TIP3    H218880   3.627   5.487   0.916  0.2284  1.8546 -2.3321
 6306TIP3   OH218881   0.655   1.885   1.920  0.1373 -0.5138 -0.8050
 6306TIP3    H118882   0.658   1.858   1.828 -0.5261 -0.1485 -0.9410
 6306TIP3    H218883   0.572   1.848   1.952 -0.0676  0.1192 -0.5999
 6307TIP3   OH218884   3.944   1.159   4.800  0.2390  0.0048 -0.2563
 6307TIP3    H118885   3.916   1.250   4.794 -1.2141 -0.4633 -1.1253
 6307TIP3    H218886   3.869   1.113   4.837  0.1627 -1.1553 -1.7385
 6308TIP3   OH218887   1.580   2.680   3.011  0.0933 -0.3860 -0.6405
 6308TIP3    H118888   1.640   2.607   3.024  1.8807  1.4154  2.3793
 6308TIP3    H218889   1.495   2.646   3.037  0.6008 -1.7774 -0.7367
 6309TIP3   OH218890   2.520   1.389   0.673  0.3238  0.4698  0.2963
 6309TIP3    H118891   2.600   1.350   0.706  1.2465  0.7057 -1.5468
 6309TIP3    H218892   2.548   1.450   0.605 -1.2814  2.1906  1.0744
 6310TIP3   OH218893   3.462   3.824   0.324 -0.9219  0.6789  0.0509
 6310TIP3    H118894   3.522   3.751   0.343  0.1643  1.7058  0.7187
 6310TIP3    H218895   3.502   3.899   0.366 -1.4051  1.9270 -1.5956
 6311TIP3   OH218896   6.326   1.661   2.843 -0.0888  0.0605 -0.0499
 6311TIP3    H118897   6.258   1.638   2.780 -0.3258  0.8509 -0.0941
 6311TIP3    H218898   6.280   1.670   2.926 -0.4374  2.5724 -0.4328
 6312TIP3   OH218899   5.606   2.306   1.712  0.4199 -0.0644 -0.5676
 6312TIP3    H118900   5.604   2.217   1.747  1.4645  0.8304  2.0101
 6312TIP3    H218901   5.515   2.323   1.687 -0.0757 -1.3680  0.2032
 6313TIP3   OH218902   0.556   6.420   5.274 -0.2155 -0.5876  0.3369
 6313TIP3    H118903   0.581   6.386   5.360 -0.4103  0.1078  0.6741
 6313TIP3    H218904   0.595   6.358   5.212 -0.7291 -1.5351  0.9334
 6314TIP3   OH218905   0.539   0.266   3.926  0.1888 -0.1608 -0.2001
 6314TIP3    H118906   0.588   0.199   3.878  0.2635 -0.8003  0.7265
 6314TIP3    H218907   0.448   0.241   3.916  0.2981 -1.8474  2.0790
 6315TIP3   OH218908   3.001   3.649   4.693 -0.0538  0.1717  0.4746
 6315TIP3    H118909   3.058   3.595   4.638 -1.0873 -0.1817 -0.2648
 6315TIP3    H218910   2.980   3.594   4.768 -0.1221 -0.0167  0.3182
 6316TIP3   OH218911   1.983   5.355   0.799 -0.1200  0.7265 -0.2893
 6316TIP3    H118912   1.977   5.447   0.824  0.7106  1.3351 -2.1440
 6316TIP3    H218913   1.949   5.351   0.710 -0.4154 -0.8229 -0.1427
 6317TIP3   OH218914   0.146   3.684   3.711  0.0185 -0.2618 -0.2630
 6317TIP3    H118915   0.149   3.655   3.620 -0.3010 -0.4006 -0.2308
 6317TIP3    H218916   0.058   3.721   3.722  0.0352 -0.2993  0.0060
 6318TIP3   OH218917   2.581   5.296   2.000  0.5096  0.3764 -0.0357
 6318TIP3    H118918   2.515   5.296   2.068  1.2294 -0.3203  0.6809
 6318TIP3    H218919   2.533   5.274   1.920  0.1319 -2.0500  0.7758
 6319TIP3   OH218920   3.627   1.149   0.321  0.5690 -0.5458 -0.3631
 6319TIP3    H118921   3.636   1.219   0.385  0.4521 -0.1797 -0.7386
 6319TIP3    H218922   3.544   1.107   0.343  0.5784 -0.4876 -0.2144
 6320TIP3   OH218923   4.951   6.023   0.463  0.0565 -0.3407  0.8217
 6320TIP3    H118924   5.008   6.014   0.539  0.1193 -0.9142  0.7132
 6320TIP3    H218925   5.002   5.989   0.390  0.0206  0.2660  0.5086
 6321TIP3   OH218926   3.068   0.610   4.157 -0.5036  0.5061 -0.2459
 6321TIP3    H118927   2.984   0.578   4.189 -0.6538  0.1845 -0.9326
 6321TIP3    H218928   3.115   0.530   4.132 -0.1237  0.7074 -0.1709
 6322TIP3   OH218929   6.816   6.468   3.218  0.5803 -0.2230 -0.1276
 6322TIP3    H118930   6.907   6.491   3.238  1.1043 -2.0448 -0.1638
 6322TIP3    H218931   6.765   6.506   3.289  1.5621 -0.3872  0.6920
 6323TIP3   OH218932   0.267   3.353   0.611  0.3129 -0.4081  0.0760
 6323TIP3    H118933   0.284   3.447   0.624 -2.0214 -0.3346  3.9790
 6323TIP3    H218934   0.187   3.350   0.558  1.1952 -0.3386 -1.3328
 6324TIP3   OH218935   5.192   0.777   5.418  0.0527  0.2430  0.3352
 6324TIP3    H118936   5.278   0.745   5.391 -0.0993  0.0587  0.0716
 6324TIP3    H218937   5.145   0.698   5.447 -0.1958  0.2746  0.0238
 6325TIP3   OH218938   2.674   1.043   0.882 -0.0393  0.4731 -0.5303
 6325TIP3    H118939   2.616   0.967   0.880 -1.4097  1.4226  0.9092
 6325TIP3    H218940   2.755   1.013   0.841  0.0522 -2.2628  1.4700
 6326TIP3   OH218941   4.748   1.085   1.313 -0.2106 -0.2004  0.4419
 6326TIP3    H118942   4.655   1.100   1.328  0.1688  3.2670  0.1249
 6326TIP3    H218943   4.786   1.075   1.400 -0.6027  0.6698  0.7212
 6327TIP3   OH218944   2.337   4.245   1.735 -0.2852 -0.0880  0.3970
 6327TIP3    H118945   2.371   4.180   1.796  1.6563 -0.4259 -0.9763
 6327TIP3    H218946   2.354   4.329   1.779 -1.1073 -0.3952  1.3475
 6328TIP3   OH218947   2.589   1.053   5.075 -0.2009  0.0013 -0.5893
 6328TIP3    H118948   2.509   1.094   5.110 -0.6925  0.8214 -2.5235
 6328TIP3    H218949   2.651   1.125   5.067  0.4103 -0.4557 -0.0012
 6329TIP3   OH218950   1.691   6.206   5.679  0.3818  0.5552  0.5464
 6329TIP3    H118951   1.766   6.150   5.701 -0.5645 -0.6210  0.9199
 6329TIP3    H218952   1.727   6.294   5.673  1.8873 -0.0693  0.1452
 6330TIP3   OH218953   2.749   6.366   1.314  0.4784 -0.2975 -0.1670
 6330TIP3    H118954   2.709   6.434   1.367 -0.0245  0.2790 -1.2491
 6330TIP3    H218955   2.764   6.293   1.374  0.5180  0.5586  0.8875
 6331TIP3   OH218956   6.656   2.477   5.709  0.9014 -0.2360 -0.4883
 6331TIP3    H118957   6.649   2.423   5.630  0.8534 -0.2725 -0.4598
 6331TIP3    H218958   6.609   2.557   5.688  0.7990 -0.2885 -0.4609
 6332TIP3   OH218959   3.259   4.177   2.435  0.4235  0.9401 -0.1324
 6332TIP3    H118960   3.344   4.183   2.392  1.0791 -2.3166  0.4553
 6332TIP3    H218961   3.279   4.149   2.524 -1.2508 -0.6834 -0.1995
 6333TIP3   OH218962   1.817   5.220   4.223 -0.0726 -0.6851 -0.0420
 6333TIP3    H118963   1.868   5.236   4.302 -0.8146  1.1445  0.1193
 6333TIP3    H218964   1.879   5.182   4.161  1.3428  0.8612  0.3560
 6334TIP3   OH218965   6.983   0.994   4.069 -0.2148 -0.6634  0.5256
 6334TIP3    H118966   6.897   1.025   4.042 -0.0597 -1.4544 -0.9771
 6334TIP3    H218967   7.043   1.028   4.003  0.6467 -0.1545  1.5309
 6335TIP3   OH218968   4.080   0.148   2.417 -0.1019 -0.1677 -0.0471
 6335TIP3    H118969   3.991   0.136   2.383 -0.1924  0.3675  0.0033
 6335TIP3    H218970   4.068   0.158   2.512  0.1162 -1.2375  0.1116
 6336TIP3   OH218971   5.838   2.383   4.533 -0.5260 -0.1160  0.1338
 6336TIP3    H118972   5.915   2.351   4.581  0.1738  0.4837 -0.5490
 6336TIP3    H218973   5.859   2.366   4.441 -1.4142 -0.3520 -0.0312
 6337TIP3   OH218974   2.105   1.150   2.292 -0.3432  0.2428  0.1748
 6337TIP3    H118975   2.132   1.110   2.210  1.3426  1.2011  0.2133
 6337TIP3    H218976   2.115   1.080   2.357 -0.2234 -0.0893 -0.1968
 6338TIP3   OH218977   5.987   4.740   5.739  0.1525 -0.3667  0.0508
 6338TIP3    H118978   5.892   4.751   5.748  0.4001  0.8733  1.6371
 6338TIP3    H218979   6.001   4.725   5.646 -1.6245 -0.9344 -0.1674
 6339TIP3   OH218980   3.893   2.758   3.685 -0.0513 -0.1613 -0.5932
 6339TIP3    H118981   3.981   2.724   3.697  0.1151  0.3099 -0.4557
 6339TIP3    H218982   3.905   2.846   3.650 -0.4961 -0.5776 -1.8544
 6340TIP3   OH218983   4.181   5.018   0.658  0.1568 -0.2791  0.2599
 6340TIP3    H118984   4.270   5.054   0.667  0.3008 -0.8105  1.0967
 6340TIP3    H218985   4.126   5.094   0.640  0.7270  0.1011  0.0745
 6341TIP3   OH218986   4.624   5.297   5.535 -0.1132  0.0422 -0.1410
 6341TIP3    H118987   4.706   5.265   5.498 -0.7910 -2.0379  0.0769
 6341TIP3    H218988   4.638   5.392   5.544  2.8736 -0.4130  1.3694
 6342TIP3   OH218989   0.065   2.937   4.436 -0.3616  0.0534  0.3739
 6342TIP3    H118990   0.016   2.863   4.400 -1.7000  0.8784  0.4464
 6342TIP3    H218991   0.012   3.014   4.415  1.3987  1.1142 -0.4373
 6343TIP3   OH218992   5.213   5.591   4.802 -0.0215 -0.0001 -0.6984
 6343TIP3    H118993   5.193   5.501   4.777 -0.6546 -0.2305  0.5367
 6343TIP3    H218994   5.130   5.626   4.835  0.5086  0.5997  0.0547
 6344TIP3   OH218995   0.554   0.313   3.523  0.0217 -0.2064 -0.1158
 6344TIP3    H118996   0.510   0.230   3.537 -0.0346 -0.7692 -3.0056
 6344TIP3    H218997   0.483   0.377   3.513 -0.2255 -0.8128 -3.0630
 6345TIP3   OH218998   6.515   2.696   5.650  0.3684  0.3061  0.0332
 6345TIP3    H118999   6.463   2.747   5.587 -0.0576 -0.0743  0.0707
 6345TIP3    H219000   6.534   2.758   5.721  2.2531  1.2139 -1.2054
 6346TIP3   OH219001   0.957   5.115   5.311  0.4822 -0.1165  1.0618
 6346TIP3    H119002   0.932   5.191   5.260  1.4112  0.8302  1.9630
 6346TIP3    H219003   0.991   5.053   5.247 -0.6000  0.0726  0.2776
 6347TIP3   OH219004   1.421   4.261   1.619  0.0127 -0.3741 -0.1192
 6347TIP3    H119005   1.461   4.336   1.664  1.8008 -0.5196 -1.3555
 6347TIP3    H219006   1.366   4.301   1.551 -0.1244 -0.1784  0.1042
 6348TIP3   OH219007   2.411   4.050   2.845 -1.6116 -0.1378 -0.6674
 6348TIP3    H119008   2.421   4.135   2.803  0.2743 -0.6485 -1.3504
 6348TIP3    H219009   2.433   4.066   2.937 -1.0974  0.1011 -0.8260
 6349TIP3   OH219010   3.489   1.269   0.679  0.5093  0.2362 -0.1948
 6349TIP3    H119011   3.487   1.360   0.648  0.9307  0.1387 -0.5211
 6349TIP3    H219012   3.434   1.221   0.618  0.1833  0.2872  0.0515
 6350TIP3   OH219013   4.639   3.212   0.800  0.5446  0.0424  0.0092
 6350TIP3    H119014   4.565   3.245   0.748  1.1540  0.0418 -0.8777
 6350TIP3    H219015   4.608   3.128   0.835 -0.3800  0.7030  0.8395
 6351TIP3   OH219016   5.130   2.732   0.039 -0.0713 -0.2058  0.4235
 6351TIP3    H119017   5.068   2.674   0.084  0.0512  0.6648  1.7911
 6351TIP3    H219018   5.177   2.776   0.110 -0.8971  2.3557 -0.5350
 6352TIP3   OH219019   3.041   0.080   3.505  0.1062 -0.8864 -0.4960
 6352TIP3    H119020   3.079   0.040   3.427 -0.2858 -0.2548 -1.0290
 6352TIP3    H219021   2.962   0.124   3.472  1.8038  2.5301 -0.4914
 6353TIP3   OH219022   5.919   2.437   1.235 -0.0830 -0.1990  0.0209
 6353TIP3    H119023   5.940   2.390   1.155  1.0617  0.0493  0.1597
 6353TIP3    H219024   6.002   2.444   1.282 -0.4654  0.8593  0.5802
 6354TIP3   OH219025   1.742   1.939   5.270 -0.1365 -0.5400  0.5062
 6354TIP3    H119026   1.775   1.957   5.359  0.3977 -1.1413  0.4333
 6354TIP3    H219027   1.818   1.906   5.223 -0.3857 -0.1019 -0.2231
 6355TIP3   OH219028   0.552   4.690   4.725 -0.6038 -0.0939 -0.3408
 6355TIP3    H119029   0.612   4.629   4.683  1.0031 -0.2886  2.0737
 6355TIP3    H219030   0.563   4.675   4.819 -1.7012  2.4568  0.2923
 6356TIP3   OH219031   3.011   3.368   1.329  0.3514  0.5349 -0.2844
 6356TIP3    H119032   2.924   3.406   1.342 -0.2466 -0.8279 -0.1985
 6356TIP3    H219033   3.002   3.276   1.355  0.8207 -0.6364 -3.7705
 6357TIP3   OH219034   1.529   2.653   3.507 -0.4697 -0.0813  0.2367
 6357TIP3    H119035   1.596   2.718   3.488  0.6998 -2.0758 -3.2176
 6357TIP3    H219036   1.452   2.684   3.460  0.3286 -1.4466 -2.1192
 6358TIP3   OH219037   5.074   0.536   5.489  0.3368 -0.5848  0.7975
 6358TIP3    H119038   5.095   0.477   5.561  2.7751 -0.5360  0.2275
 6358TIP3    H219039   5.055   0.478   5.416 -1.0026 -0.6323  1.1659
 6359TIP3   OH219040   6.714   3.158   1.172  0.3357 -0.8333 -0.0959
 6359TIP3    H119041   6.638   3.164   1.114  2.1482  1.5393 -2.4282
 6359TIP3    H219042   6.745   3.068   1.162 -0.8686 -1.1922 -0.8026
 6360TIP3   OH219043   6.705   0.239   4.923 -0.8507  0.5635 -0.2638
 6360TIP3    H119044   6.738   0.246   4.833  0.4691 -0.1138  0.1412
 6360TIP3    H219045   6.766   0.293   4.974 -0.7901 -0.1259  0.4056
 6361TIP3   OH219046   5.453   3.478   5.492  0.0339 -0.0412 -0.1687
 6361TIP3    H119047   5.363   3.500   5.471 -0.0365 -0.0294  0.1397
 6361TIP3    H219048   5.458   3.383   5.482 -0.7121 -0.4002  2.3613
 6362TIP3   OH219049   5.815   1.983   2.628  0.1866  0.0214 -0.5672
 6362TIP3    H119050   5.796   2.038   2.552  0.1946 -0.5951 -1.0208
 6362TIP3    H219051   5.910   1.970   2.625  0.2697  0.4793 -0.1096
 6363TIP3   OH219052   1.975   6.503   0.673  0.0582  0.4150 -0.4042
 6363TIP3    H119053   1.946   6.560   0.602 -0.7746 -0.6409 -0.9350
 6363TIP3    H219054   1.896   6.487   0.725  0.2679 -0.2850 -0.2905
 6364TIP3   OH219055   1.707   0.396   5.088  0.2175 -0.1998  0.3166
 6364TIP3    H119056   1.689   0.368   5.178  0.6490 -2.3401 -0.2079
 6364TIP3    H219057   1.621   0.395   5.046  0.1873 -0.4562  0.3827
 6365TIP3   OH219058   2.694   2.244   0.029 -0.1385  0.6196 -0.3892
 6365TIP3    H119059   2.734   2.159   0.045 -1.3500  0.0966  0.0375
 6365TIP3    H219060   2.760   2.308   0.055  0.0297 -0.1977  1.3517
 6366TIP3   OH219061   2.360   1.313   5.219 -0.0661 -0.3137 -0.3625
 6366TIP3    H119062   2.383   1.292   5.310  0.1011 -0.7734 -0.5047
 6366TIP3    H219063   2.433   1.367   5.188 -0.0848 -0.2229 -0.2499
 6367TIP3   OH219064   2.700   5.462   2.452  0.1914  0.1563 -0.2721
 6367TIP3    H119065   2.723   5.553   2.435  1.6781  0.1768  1.5367
 6367TIP3    H219066   2.764   5.411   2.401 -1.3760  0.0464 -2.2383
 6368TIP3   OH219067   0.994   5.054   0.380  0.0077 -0.3731 -0.2509
 6368TIP3    H119068   1.062   5.053   0.447  0.2345  1.5571 -0.3770
 6368TIP3    H219069   0.913   5.037   0.427  0.2657  0.1187  0.3911
 6369TIP3   OH219070   5.393   6.347   4.041  0.7430  0.0358  0.2991
 6369TIP3    H119071   5.412   6.370   3.950  0.4334 -0.3300  0.1418
 6369TIP3    H219072   5.386   6.252   4.041  0.0036  0.0809  0.5580
 6370TIP3   OH219073   4.288   3.571   4.220  0.0741 -0.3347 -0.0470
 6370TIP3    H119074   4.296   3.476   4.220  0.1813 -0.3505  1.1210
 6370TIP3    H219075   4.282   3.594   4.313  2.9591  1.0351 -0.0947
 6371TIP3   OH219076   5.584   2.824   1.495  0.1087 -0.1194  0.3160
 6371TIP3    H119077   5.560   2.851   1.583  0.3017  0.0989  0.3025
 6371TIP3    H219078   5.524   2.872   1.438  1.0188  0.9691  0.2426
 6372TIP3   OH219079   2.600   3.689   3.452 -0.1170 -0.1333 -0.2988
 6372TIP3    H119080   2.674   3.674   3.392  0.1777 -0.5145  0.1595
 6372TIP3    H219081   2.632   3.756   3.512  0.5439 -1.6278  1.0674
 6373TIP3   OH219082   5.195   1.624   0.945 -0.5011  0.2012 -0.0873
 6373TIP3    H119083   5.231   1.698   0.896  0.7253 -1.3087 -1.5815
 6373TIP3    H219084   5.167   1.562   0.878 -1.3112 -0.8027  1.1243
 6374TIP3   OH219085   5.173   3.432   5.351 -0.0167  0.0200 -0.5425
 6374TIP3    H119086   5.107   3.423   5.282 -0.8704 -1.5593  0.4157
 6374TIP3    H219087   5.172   3.526   5.373 -0.0497  0.4736 -2.3262
 6375TIP3   OH219088   1.368   4.464   0.166 -0.3260  0.0699  0.4754
 6375TIP3    H119089   1.428   4.418   0.226 -1.0399 -0.4649  0.7904
 6375TIP3    H219090   1.412   4.547   0.148 -0.0944  0.2366  1.7384
 6376TIP3   OH219091   1.522   5.675   0.449 -0.2688  0.0150  0.3805
 6376TIP3    H119092   1.535   5.581   0.460 -0.9632 -0.2300 -0.7017
 6376TIP3    H219093   1.501   5.686   0.356 -0.4079  1.2121  0.5306
 6377TIP3   OH219094   2.846   3.325   3.368 -0.3254  0.2197  0.3170
 6377TIP3    H119095   2.879   3.242   3.403 -1.3581 -0.5322 -0.4769
 6377TIP3    H219096   2.785   3.356   3.435 -0.9967 -0.3612 -0.0206
 6378TIP3   OH219097   1.113   2.765   5.633  0.1278 -0.1065  0.3187
 6378TIP3    H119098   1.161   2.682   5.637  0.6867  0.2636  2.4216
 6378TIP3    H219099   1.028   2.746   5.672 -0.0186  0.1562  0.1347
 6379TIP3   OH219100   0.603   1.516   5.657  0.1424  0.4974  0.3723
 6379TIP3    H119101   0.666   1.583   5.632  0.8253 -0.1315  0.3776
 6379TIP3    H219102   0.531   1.565   5.699  1.3126  1.1056  1.7450
 6380TIP3   OH219103   0.857   3.960   5.007  0.6374 -0.1645 -0.0156
 6380TIP3    H119104   0.890   4.006   5.084 -0.9957  0.6921  0.2203
 6380TIP3    H219105   0.869   4.022   4.935  0.5715 -0.2885 -0.1351
 6381TIP3   OH219106   1.672   0.789   3.266 -0.3148 -0.3551  0.2711
 6381TIP3    H119107   1.591   0.839   3.264  0.0449  0.2407 -1.0471
 6381TIP3    H219108   1.732   0.843   3.318  0.8853  2.0711 -3.2357
 6382TIP3   OH219109   2.772   5.925   2.691 -0.5987 -0.0311 -0.0906
 6382TIP3    H119110   2.799   5.968   2.772 -0.4839 -0.1642 -0.0580
 6382TIP3    H219111   2.838   5.857   2.677 -1.4895 -1.0563  0.5505
 6383TIP3   OH219112   6.109   2.251   3.582 -0.8041 -0.3720 -0.7980
 6383TIP3    H119113   6.198   2.238   3.615 -1.1470  0.6780  0.6496
 6383TIP3    H219114   6.120   2.267   3.489  0.2814 -2.7280 -1.1442
 6384TIP3   OH219115   3.269   0.802   0.326 -0.1108  0.5200 -0.3753
 6384TIP3    H119116   3.239   0.734   0.266  1.7356 -0.8301  0.1391
 6384TIP3    H219117   3.364   0.804   0.315 -0.0825  2.9847 -0.2853
 6385TIP3   OH219118   2.853   0.510   3.496 -0.5296  0.0984  0.1903
 6385TIP3    H119119   2.907   0.468   3.429 -1.0192 -0.4634  0.1496
 6385TIP3    H219120   2.803   0.577   3.449 -0.8637 -0.2875 -0.0039
 6386TIP3   OH219121   0.890   4.140   5.733  0.6950  0.0131  0.2051
 6386TIP3    H119122   0.932   4.216   5.773  2.5037 -1.0193  0.3869
 6386TIP3    H219123   0.953   4.109   5.667 -0.9692 -0.0324 -1.4644
 6387TIP3   OH219124   1.322   2.812   0.610  0.3140 -0.4816  0.2683
 6387TIP3    H119125   1.385   2.825   0.681  0.0102  0.5422  0.3502
 6387TIP3    H219126   1.369   2.841   0.532  0.9837 -2.4572 -0.1210
 6388TIP3   OH219127   0.025   4.828   3.143  0.2275  0.1769  0.4403
 6388TIP3    H119128   0.085   4.858   3.210  1.1482 -0.1189 -0.2368
 6388TIP3    H219129   0.020   4.733   3.155 -1.0701  0.3181  1.2617
 6389TIP3   OH219130   4.395   3.905   0.853 -0.0841  0.1627 -0.2464
 6389TIP3    H119131   4.484   3.874   0.838 -0.0452  0.5272 -0.7953
 6389TIP3    H219132   4.362   3.927   0.766 -1.1041 -1.0215 -0.1894
 6390TIP3   OH219133   3.867   5.860   3.325  0.6237  0.2292 -0.4019
 6390TIP3    H119134   3.772   5.855   3.316  0.6483 -0.4886 -0.3844
 6390TIP3    H219135   3.898   5.775   3.292  1.0987 -0.4428  1.6234
 6391TIP3   OH219136   1.583   1.245   4.573  0.5589 -0.0041  0.5242
 6391TIP3    H119137   1.542   1.174   4.623 -1.8939 -1.2773 -2.9349
 6391TIP3    H219138   1.667   1.208   4.544 -0.0396 -0.9556 -0.0266
 6392TIP3   OH219139   6.488   1.037   0.681  0.1100 -0.1223 -0.1533
 6392TIP3    H119140   6.484   0.944   0.701 -0.2909  0.1613  1.1760
 6392TIP3    H219141   6.455   1.043   0.591 -1.6793 -1.0750  0.3969
 6393TIP3   OH219142   5.447   5.768   5.622 -0.2566 -0.6456  0.1243
 6393TIP3    H119143   5.420   5.822   5.547 -0.5786 -1.7759 -0.5989
 6393TIP3    H219144   5.367   5.724   5.650 -0.2521  0.1627  1.4981
 6394TIP3   OH219145   6.788   5.668   2.411 -0.5720  0.0482 -0.3228
 6394TIP3    H119146   6.854   5.647   2.345 -0.3578 -1.2425  0.2831
 6394TIP3    H219147   6.793   5.763   2.420  1.2254 -0.0125 -0.2890
 6395TIP3   OH219148   5.117   0.167   0.344  0.6588  0.0204 -0.3667
 6395TIP3    H119149   5.049   0.144   0.406 -0.6779  0.2770 -1.6762
 6395TIP3    H219150   5.179   0.095   0.348 -1.7772 -2.3677 -2.0660
 6396TIP3   OH219151   1.546   0.943   1.406 -0.3958 -1.1053 -0.4257
 6396TIP3    H119152   1.620   0.883   1.412 -0.0434 -0.5478  1.7941
 6396TIP3    H219153   1.571   1.018   1.460 -2.0181 -0.2764 -0.7470
 6397TIP3   OH219154   3.256   6.336   3.325 -0.4301 -0.1772 -0.5258
 6397TIP3    H119155   3.216   6.298   3.247 -1.1022  1.3576 -0.9637
 6397TIP3    H219156   3.347   6.305   3.323 -0.2707  0.3029 -2.2464
 6398TIP3   OH219157   1.683   5.517   4.646  0.1269 -0.3897 -0.6143
 6398TIP3    H119158   1.753   5.497   4.709 -0.1133 -0.5045 -0.3831
 6398TIP3    H219159   1.654   5.431   4.615  1.7313 -0.3234 -2.5466
 6399TIP3   OH219160   0.364   2.898   0.486  0.1304  0.2563  0.0852
 6399TIP3    H119161   0.410   2.931   0.409  0.5860 -0.1661  0.1691
 6399TIP3    H219162   0.290   2.958   0.498 -0.2937 -0.0170 -1.0375
 6400TIP3   OH219163   4.047   3.434   1.570  0.3607 -0.0033  0.7248
 6400TIP3    H119164   4.042   3.408   1.661  2.1659 -0.6263  0.6723
 6400TIP3    H219165   4.034   3.353   1.521  1.8688 -0.1181  0.4891
 6401TIP3   OH219166   5.719   2.082   3.178  0.7389 -0.3790  0.2000
 6401TIP3    H119167   5.713   2.036   3.094 -1.2414  3.4996 -2.0493
 6401TIP3    H219168   5.804   2.126   3.176  0.4688  0.1300  0.0142
 6402TIP3   OH219169   4.376   5.279   0.928  0.0391 -0.1986  0.6061
 6402TIP3    H119170   4.393   5.185   0.926  0.1681 -0.1807 -2.2628
 6402TIP3    H219171   4.282   5.286   0.945  0.2541 -0.7415  2.2313
 6403TIP3   OH219172   6.522   5.311   3.346  0.4704 -0.6120  0.0908
 6403TIP3    H119173   6.500   5.236   3.401  0.5424  0.7086  2.0240
 6403TIP3    H219174   6.587   5.278   3.284 -1.8232 -2.8991 -1.2585
 6404TIP3   OH219175   2.252   4.749   5.280  0.5240 -1.0336 -0.3234
 6404TIP3    H119176   2.314   4.745   5.208  1.5707 -1.5325  0.5862
 6404TIP3    H219177   2.195   4.672   5.267  2.0167 -2.3354  0.5166
 6405TIP3   OH219178   2.922   6.515   1.543  0.3303 -0.2281 -0.1986
 6405TIP3    H119179   2.939   6.421   1.550  2.2041 -0.0518 -1.5893
 6405TIP3    H219180   2.984   6.555   1.604 -0.5005  0.1044  0.4302
 6406TIP3   OH219181   4.224   0.651   5.104 -0.4080 -0.0910 -0.1325
 6406TIP3    H119182   4.313   0.616   5.100 -0.6076 -0.7293  0.6428
 6406TIP3    H219183   4.231   0.741   5.075  0.6082  0.0580  0.5490
 6407TIP3   OH219184   1.174   3.216   0.542 -0.2047 -0.4970 -0.6495
 6407TIP3    H119185   1.170   3.192   0.635 -0.7152 -3.2598 -1.3175
 6407TIP3    H219186   1.243   3.282   0.538  1.1657 -1.6782  1.4522
 6408TIP3   OH219187   1.031   2.722   3.480 -0.2499  0.0481  0.4083
 6408TIP3    H119188   1.048   2.697   3.571  0.5636 -0.7866  0.0482
 6408TIP3    H219189   0.950   2.677   3.458  1.1645 -2.4429 -0.2178
 6409TIP3   OH219190   4.185   4.890   4.691  0.8449 -0.1497  0.0399
 6409TIP3    H119191   4.121   4.832   4.732  0.6647 -0.2143 -0.3361
 6409TIP3    H219192   4.135   4.967   4.665  0.9549 -0.1173 -0.0786
 6410TIP3   OH219193   7.189   1.126   4.891  0.0868 -0.0142 -0.1753
 6410TIP3    H119194   7.184   1.058   4.824 -0.4944  0.5224 -0.6949
 6410TIP3    H219195   7.211   1.080   4.971  2.2095 -0.5241 -0.9720
 6411TIP3   OH219196   0.294   2.513   3.700 -0.6963 -0.5526  0.3429
 6411TIP3    H119197   0.304   2.489   3.792  1.5563 -2.8686 -0.3610
 6411TIP3    H219198   0.261   2.433   3.658 -0.9569  0.2058 -0.9493
 6412TIP3   OH219199   3.329   1.342   1.674 -0.3392  0.5893 -0.4034
 6412TIP3    H119200   3.392   1.393   1.623  1.2828 -0.0471  0.8564
 6412TIP3    H219201   3.357   1.251   1.663  0.2048  0.4343  1.7134
 6413TIP3   OH219202   5.287   2.948   3.998 -0.5077  0.2559 -0.0626
 6413TIP3    H119203   5.237   3.004   4.057  0.8448 -0.6168  2.0495
 6413TIP3    H219204   5.373   2.939   4.041  0.1594 -1.3645 -1.5965
 6414TIP3   OH219205   2.256   5.835   5.385 -0.4900 -0.0221 -0.0901
 6414TIP3    H119206   2.344   5.825   5.421  0.4361 -0.9910 -2.4278
 6414TIP3    H219207   2.202   5.864   5.459  2.1823  2.8068  0.9683
 6415TIP3   OH219208   1.175   5.949   4.802  0.1229 -0.5806 -0.1924
 6415TIP3    H119209   1.091   5.981   4.836  0.0992 -1.5742  0.7323
 6415TIP3    H219210   1.151   5.878   4.743  0.3045 -0.5522 -0.3014
 6416TIP3   OH219211   4.008   2.692   5.352  0.2624  0.1967 -0.4661
 6416TIP3    H119212   4.086   2.733   5.316  0.0784  0.5141 -0.5074
 6416TIP3    H219213   4.027   2.681   5.445  1.1474 -1.5559 -0.8003
 6417TIP3   OH219214   1.747   5.628   3.654 -0.2539  0.5872 -0.2868
 6417TIP3    H119215   1.819   5.599   3.710  0.4834 -0.3812 -1.6842
 6417TIP3    H219216   1.757   5.722   3.647  1.2409  0.4013 -0.9210
 6418TIP3   OH219217   5.038   5.528   4.124 -0.0257 -0.0849  0.1599
 6418TIP3    H119218   5.113   5.475   4.150  0.7467  0.9327  0.0527
 6418TIP3    H219219   5.033   5.519   4.029  1.7198  2.0538 -0.1989
 6419TIP3   OH219220   2.011   1.070   1.735 -0.1883  0.0557  0.1974
 6419TIP3    H119221   2.023   1.160   1.765  0.6362  0.1475 -0.3724
 6419TIP3    H219222   1.917   1.054   1.743 -0.0875  0.1721  2.5056
 6420TIP3   OH219223   6.586   0.713   1.602 -0.0671 -0.7797  0.3687
 6420TIP3    H119224   6.671   0.673   1.581 -0.3135 -1.1289  0.0177
 6420TIP3    H219225   6.529   0.638   1.620 -0.3288 -0.5482  0.4963
 6421TIP3   OH219226   0.285   2.102   4.001 -0.0661 -0.3133  0.1139
 6421TIP3    H119227   0.249   2.171   4.056  1.2032 -0.5180  1.2607
 6421TIP3    H219228   0.213   2.041   3.988 -0.9533  0.7828 -0.1961
 6422TIP3   OH219229   1.215   3.955   0.126  0.5398 -0.1021  0.3531
 6422TIP3    H119230   1.123   3.945   0.100  0.2552  1.4207  0.6382
 6422TIP3    H219231   1.221   4.047   0.154  2.3385  0.0521 -0.4380
 6423TIP3   OH219232   3.662   4.212   4.671  0.0355 -0.5850  0.0009
 6423TIP3    H119233   3.751   4.242   4.684  0.7132 -0.9387 -3.0436
 6423TIP3    H219234   3.668   4.116   4.675 -0.2163 -0.6093 -0.1690
 6424TIP3   OH219235   5.214   0.197   1.011 -0.1747 -0.4380  0.5881
 6424TIP3    H119236   5.148   0.209   0.943 -0.3841 -0.9097  0.7010
 6424TIP3    H219237   5.167   0.158   1.084 -0.1534  1.0116  1.4005
 6425TIP3   OH219238   6.872   5.349   3.099  0.0530  0.1756 -0.1211
 6425TIP3    H119239   6.945   5.301   3.061 -0.1990 -0.4518  0.1576
 6425TIP3    H219240   6.911   5.402   3.168  0.3083  0.2095 -0.2897
 6426TIP3   OH219241   3.004   0.939   5.860  0.6910 -0.3453 -0.4780
 6426TIP3    H119242   3.007   1.006   5.928  1.0483 -1.1365  0.3057
 6426TIP3    H219243   3.061   0.973   5.791 -0.6518  1.0453 -0.9504
 6427TIP3   OH219244   2.738   5.122   2.443  0.3090  0.3607  0.5730
 6427TIP3    H119245   2.722   5.192   2.507  1.9099  2.3535 -1.0518
 6427TIP3    H219246   2.833   5.114   2.440  0.2220 -0.4762 -0.7231
 6428TIP3   OH219247   0.618   4.401   0.930 -0.1174 -0.2248  0.0488
 6428TIP3    H119248   0.657   4.475   0.975  0.4867 -0.8191  0.5256
 6428TIP3    H219249   0.528   4.429   0.912  0.2667  0.8309 -0.3030
 6429TIP3   OH219250   5.974   4.291   0.804 -0.1025 -0.2384  0.3094
 6429TIP3    H119251   5.912   4.328   0.741 -0.1703 -1.6279 -0.4790
 6429TIP3    H219252   6.046   4.353   0.806 -1.2369  1.1072  0.7970
 6430TIP3   OH219253   5.109   2.559   5.068 -0.7250  0.3219  0.7106
 6430TIP3    H119254   5.096   2.539   5.161  1.2680  1.3885  1.2893
 6430TIP3    H219255   5.190   2.514   5.045  0.5063  2.5435  0.3972
 6431TIP3   OH219256   7.180   6.106   1.568  0.0855 -0.2851 -0.9227
 6431TIP3    H119257   7.100   6.061   1.596  1.2252 -1.9401 -0.1170
 6431TIP3    H219258   7.250   6.062   1.617  1.5857  0.5100 -2.2585
 6432TIP3   OH219259   2.467   0.858   0.874 -0.5172 -0.4711  0.0520
 6432TIP3    H119260   2.470   0.850   0.969 -0.6903 -2.8662 -0.0767
 6432TIP3    H219261   2.411   0.933   0.857 -3.4416 -2.0950  1.8581
 6433TIP3   OH219262   7.199   6.178   0.170  0.7817 -0.1787  0.3980
 6433TIP3    H119263   7.222   6.271   0.178  0.8655  0.0085 -1.5260
 6433TIP3    H219264   7.154   6.158   0.252  0.4618  1.6611  0.7269
 6434TIP3   OH219265   2.607   3.162   5.658 -0.4874 -0.0052 -0.3624
 6434TIP3    H119266   2.537   3.219   5.690 -1.0497 -0.9778  0.2024
 6434TIP3    H219267   2.687   3.205   5.686 -0.9253 -0.8236  2.6212
 6435TIP3   OH219268   2.812   1.978   5.227  0.1401  0.3729 -0.0443
 6435TIP3    H119269   2.898   1.990   5.267  0.5074 -0.6286 -0.5153
 6435TIP3    H219270   2.756   1.946   5.298  0.8621 -1.6967 -0.3446
 6436TIP3   OH219271   7.057   0.403   4.728  0.6505  0.1947 -0.2085
 6436TIP3    H119272   7.087   0.482   4.682  0.2723 -0.2502 -1.2414
 6436TIP3    H219273   6.972   0.383   4.688  0.8065 -0.8236 -0.0542
 6437TIP3   OH219274   1.158   3.844   4.657 -0.6972 -0.2981 -0.2131
 6437TIP3    H119275   1.146   3.868   4.748  2.3028  1.3668 -0.1281
 6437TIP3    H219276   1.176   3.750   4.659  1.0838  0.0185  1.1848
 6438TIP3   OH219277   5.828   5.911   2.219  0.3685  0.7634 -0.2154
 6438TIP3    H119278   5.849   5.897   2.312  0.7070 -2.1379 -0.6361
 6438TIP3    H219279   5.748   5.860   2.206  1.7690 -1.1223 -2.0492
 6439TIP3   OH219280   3.277   4.230   4.967 -0.4184  0.3950 -0.6871
 6439TIP3    H119281   3.204   4.168   4.967  0.1725 -0.3145 -0.8733
 6439TIP3    H219282   3.282   4.261   4.876 -1.7044  1.9450 -0.2891
 6440TIP3   OH219283   6.964   0.659   1.659 -0.0784  0.3722  0.5884
 6440TIP3    H119284   7.007   0.726   1.712  1.5253 -0.7837  0.8249
 6440TIP3    H219285   7.015   0.580   1.676 -1.8694 -0.8995  0.2540
 6441TIP3   OH219286   6.215   5.710   1.763  0.0103 -0.2042 -0.1516
 6441TIP3    H119287   6.239   5.765   1.837  0.9065 -1.5888  0.6205
 6441TIP3    H219288   6.296   5.695   1.715 -0.3753 -0.1721 -0.8400
 6442TIP3   OH219289   5.534   6.673   2.840  0.2301 -0.0309 -0.2268
 6442TIP3    H119290   5.466   6.660   2.775 -1.2214  3.5606  0.3413
 6442TIP3    H219291   5.501   6.631   2.919 -0.4260  0.0292 -0.4689
 6443TIP3   OH219292   6.444   6.284   0.727 -0.5211  0.0864  0.7762
 6443TIP3    H119293   6.511   6.223   0.758 -0.5885 -1.0482 -1.1608
 6443TIP3    H219294   6.361   6.249   0.759 -0.4769 -0.3767  0.3931
 6444TIP3   OH219295   2.325   2.211   2.985  0.6489  0.5117 -0.4094
 6444TIP3    H119296   2.395   2.214   2.919  0.1068 -1.7689 -1.1918
 6444TIP3    H219297   2.352   2.142   3.045 -0.4599  0.2426 -0.1962
 6445TIP3   OH219298   2.535   3.392   0.645 -0.5307  0.4714  0.3034
 6445TIP3    H119299   2.623   3.365   0.671 -0.2696 -0.7506 -1.6372
 6445TIP3    H219300   2.546   3.482   0.612  0.4286 -0.2973 -1.6594
 6446TIP3   OH219301   4.999   0.373   5.296 -0.1238 -0.0257  0.2338
 6446TIP3    H119302   4.924   0.317   5.317  0.0682 -0.4879 -0.3125
 6446TIP3    H219303   4.966   0.436   5.232 -0.3677  0.5725  0.9246
 6447TIP3   OH219304   1.665   6.546   5.023  0.1171 -0.1131  0.7434
 6447TIP3    H119305   1.585   6.502   5.049 -1.7324  1.4879 -1.7733
 6447TIP3    H219306   1.698   6.494   4.950  0.0296  0.5349  0.2345
 6448TIP3   OH219307   4.587   6.570   4.646 -0.1925 -0.3488 -0.2851
 6448TIP3    H119308   4.609   6.550   4.555  0.6127 -0.4627 -0.0799
 6448TIP3    H219309   4.604   6.664   4.655 -1.2121 -0.1321 -0.4979
 6449TIP3   OH219310   0.818   6.446   4.538 -0.2902 -0.1893 -0.7950
 6449TIP3    H119311   0.836   6.514   4.474 -0.5402  1.7960  1.1349
 6449TIP3    H219312   0.882   6.377   4.519  0.9908  1.2414 -1.8545
 6450TIP3   OH219313   5.850   6.507   5.440 -0.2925  0.5537 -0.8541
 6450TIP3    H119314   5.799   6.581   5.472 -2.1915 -0.5174 -1.2435
 6450TIP3    H219315   5.939   6.540   5.433 -0.2843  1.7394  2.6080
 6451TIP3   OH219316   0.508   0.078   2.196 -0.2390 -0.3082 -0.5206
 6451TIP3    H119317   0.597   0.046   2.182 -0.0932 -0.3933  0.4804
 6451TIP3    H219318   0.517   0.143   2.266 -0.9915 -0.4748 -0.2561
 6452TIP3   OH219319   4.198   0.106   1.565 -0.4104  0.5301  0.8884
 6452TIP3    H119320   4.175   0.198   1.579  0.1021  0.6767  0.7835
 6452TIP3    H219321   4.145   0.058   1.629 -0.8300  0.8799  0.8046
 6453TIP3   OH219322   4.104   0.975   0.051  0.0536  0.4236 -0.3147
 6453TIP3    H119323   4.023   0.984   0.001 -1.3673 -0.7894  1.6249
 6453TIP3    H219324   4.099   1.043   0.118  0.6525  0.3452 -0.1861
 6454TIP3   OH219325   2.906   1.727   0.348 -0.4532 -0.6956  0.2869
 6454TIP3    H119326   2.992   1.760   0.375 -0.8275  0.6246 -0.0498
 6454TIP3    H219327   2.898   1.643   0.392 -0.0821  0.3501  2.5228
 6455TIP3   OH219328   0.625   2.033   2.195  0.0146 -0.5585 -0.5532
 6455TIP3    H119329   0.529   2.039   2.201 -0.2003 -2.5175 -1.1683
 6455TIP3    H219330   0.642   2.006   2.105  1.0860 -1.0542 -0.2211
 6456TIP3   OH219331   2.434   3.974   0.141  0.0320 -0.0310 -0.2086
 6456TIP3    H119332   2.357   3.948   0.091 -1.4161  1.8444  0.9334
 6456TIP3    H219333   2.408   3.967   0.233  1.4505  0.0132  0.2315
 6457TIP3   OH219334   1.567   1.429   2.372  0.0896  0.0014 -0.0798
 6457TIP3    H119335   1.592   1.502   2.316  1.9790 -1.7859 -1.7609
 6457TIP3    H219336   1.642   1.415   2.430 -0.6456 -0.0270  0.8936
 6458TIP3   OH219337   4.506   1.499   0.598  0.3585 -0.2599  0.2700
 6458TIP3    H119338   4.587   1.483   0.647 -0.2761  0.9977  1.8090
 6458TIP3    H219339   4.516   1.587   0.563  0.4355 -0.8226 -1.2096
 6459TIP3   OH219340   0.338   5.270   2.187  0.1327 -0.0436 -0.2512
 6459TIP3    H119341   0.317   5.197   2.128 -1.2743 -0.1926  0.3921
 6459TIP3    H219342   0.279   5.340   2.160 -0.2408  0.0192  0.6932
 6460TIP3   OH219343   4.353   5.848   2.663 -0.3865 -0.0771  0.3370
 6460TIP3    H119344   4.392   5.817   2.745 -1.0846 -1.2882  0.2295
 6460TIP3    H219345   4.348   5.770   2.608 -1.7960  0.3032 -0.1154
 6461TIP3   OH219346   5.919   2.739   5.416 -0.1607 -0.0017 -0.4819
 6461TIP3    H119347   5.889   2.830   5.419 -1.0662 -0.2838 -0.5752
 6461TIP3    H219348   5.839   2.688   5.402  0.2636 -0.8543  0.0993
 6462TIP3   OH219349   0.443   6.720   3.893  0.4287  0.5283 -0.2943
 6462TIP3    H119350   0.370   6.668   3.859 -0.1935  3.2494 -3.7853
 6462TIP3    H219351   0.521   6.670   3.870 -0.1311  0.9936 -3.7754
 6463TIP3   OH219352   1.214   1.709   4.042 -0.2508 -0.3228 -0.6632
 6463TIP3    H119353   1.196   1.780   3.980 -1.8525  0.7869  0.9926
 6463TIP3    H219354   1.223   1.752   4.127  0.4184 -1.9588  0.1506
 6464TIP3   OH219355   0.377   1.558   2.573  0.1359 -0.3698 -0.1475
 6464TIP3    H119356   0.303   1.514   2.614  0.1513 -0.5033 -0.2622
 6464TIP3    H219357   0.385   1.641   2.621 -0.9601  0.2761 -1.0170
 6465TIP3   OH219358   1.009   1.557   4.021  0.4185  0.7248 -0.1290
 6465TIP3    H119359   1.086   1.615   4.028 -0.4242  1.6718  2.7914
 6465TIP3    H219360   0.936   1.617   4.009  0.0014 -0.1544 -2.4619
 6466TIP3   OH219361   3.555   4.907   0.577 -0.2558  0.0477 -0.3996
 6466TIP3    H119362   3.638   4.954   0.586 -0.7594  0.7644  0.7485
 6466TIP3    H219363   3.514   4.944   0.500  0.1050  0.2965 -0.4733
 6467TIP3   OH219364   4.624   1.369   1.657  0.1128 -0.1647  0.2521
 6467TIP3    H119365   4.683   1.296   1.676  0.6190  0.6027  1.8637
 6467TIP3    H219366   4.681   1.438   1.624 -0.5510 -0.9054 -2.8003
 6468TIP3   OH219367   0.163   1.346   2.163  0.1852  0.7840  0.0897
 6468TIP3    H119368   0.125   1.289   2.097 -0.4368  0.8332  0.4049
 6468TIP3    H219369   0.110   1.332   2.241  2.5717 -1.3971  1.4823
 6469TIP3   OH219370   4.655   0.477   0.727  0.1355 -0.6914  0.2922
 6469TIP3    H119371   4.567   0.438   0.737 -0.3963  0.1510 -0.9869
 6469TIP3    H219372   4.640   0.571   0.732  0.9682 -0.5375 -0.0588
 6470TIP3   OH219373   4.095   5.364   1.946  0.2639 -0.7389 -0.7337
 6470TIP3    H119374   4.102   5.317   2.029 -0.3044 -0.5292 -0.5582
 6470TIP3    H219375   4.123   5.301   1.880 -1.6980 -1.7853 -0.6298
 6471TIP3   OH219376   6.580   5.134   5.441 -0.1144  0.2077  0.4534
 6471TIP3    H119377   6.646   5.068   5.417 -0.0349  0.6419 -0.5843
 6471TIP3    H219378   6.497   5.086   5.437  0.0301 -0.0559  0.5909
 6472TIP3   OH219379   4.272   0.095   3.430  0.3299  0.3564  0.5360
 6472TIP3    H119380   4.248   0.135   3.347 -1.4785 -2.7000 -0.6020
 6472TIP3    H219381   4.367   0.096   3.430  0.3613  2.1429 -0.6230
 6473TIP3   OH219382   3.114   4.620   1.303 -0.4880  0.0818 -0.2399
 6473TIP3    H119383   3.100   4.544   1.246  0.7711  0.4129 -1.0435
 6473TIP3    H219384   3.028   4.641   1.338 -1.0903 -0.8478 -1.1205
 6474TIP3   OH219385   3.256   6.614   0.650 -0.4642  0.0245  0.0723
 6474TIP3    H119386   3.336   6.579   0.689 -0.7866 -0.2848  0.4624
 6474TIP3    H219387   3.186   6.578   0.703 -1.0634 -1.9848 -1.9392
 6475TIP3   OH219388   0.047   6.478   4.305 -0.1867  0.9214 -0.6254
 6475TIP3    H119389   0.011   6.479   4.216 -1.5359  1.3533 -0.0975
 6475TIP3    H219390   0.100   6.557   4.310  1.3147  0.0267 -1.5731
 6476TIP3   OH219391   0.576   2.132   4.007 -0.2848 -0.0207  0.2278
 6476TIP3    H119392   0.481   2.133   3.993 -0.0727  0.8839 -1.4510
 6476TIP3    H219393   0.610   2.190   3.939  1.6043 -1.6276 -0.2747
 6477TIP3   OH219394   3.134   2.534   2.847  0.0225 -0.4151 -0.0660
 6477TIP3    H119395   3.099   2.613   2.887 -0.6756 -0.7728  0.0393
 6477TIP3    H219396   3.158   2.478   2.920 -0.6258 -0.7926 -0.1287
 6478TIP3   OH219397   2.607   1.146   2.484 -0.1244 -0.0183 -0.1160
 6478TIP3    H119398   2.650   1.134   2.568  0.0735  0.8407 -0.0918
 6478TIP3    H219399   2.601   1.057   2.448 -0.9951 -0.5133  1.1659
 6479TIP3   OH219400   0.803   2.272   0.469 -0.0649 -0.3488  0.1356
 6479TIP3    H119401   0.728   2.225   0.433 -0.9701  0.9051  0.2966
 6479TIP3    H219402   0.789   2.270   0.564 -0.0022  0.0542  0.1545
 6480TIP3   OH219403   2.791   1.560   4.187  0.4724  0.5352 -0.3688
 6480TIP3    H119404   2.829   1.646   4.171  1.4291  0.6445  2.0062
 6480TIP3    H219405   2.723   1.577   4.252  0.3892 -0.4436 -0.1928
 6481TIP3   OH219406   4.827   1.677   0.378 -0.3987  0.5158  0.0938
 6481TIP3    H119407   4.771   1.754   0.384 -0.5911  0.5187 -1.3622
 6481TIP3    H219408   4.774   1.605   0.412 -0.7560  0.7726  0.0768
 6482TIP3   OH219409   2.779   4.973   1.031  0.0521  0.5419 -0.6904
 6482TIP3    H119410   2.751   4.885   1.005  0.3350  0.2834 -0.1345
 6482TIP3    H219411   2.790   5.020   0.948 -0.7453  0.2590 -0.9667
 6483TIP3   OH219412   0.941   1.083   3.764 -0.0866  0.2332  0.0099
 6483TIP3    H119413   0.933   1.023   3.838 -1.9361  0.5000  0.0813
 6483TIP3    H219414   0.941   1.170   3.803  1.6992  0.3387 -0.1531
 6484TIP3   OH219415   0.519   3.536   3.773 -0.1706 -0.2915 -0.1883
 6484TIP3    H119416   0.558   3.568   3.691 -2.3242  2.0995 -0.4202
 6484TIP3    H219417   0.434   3.501   3.747 -0.3541 -0.6642  0.8691
 6485TIP3   OH219418   0.427   5.288   4.678  0.1588 -0.2218 -0.0026
 6485TIP3    H119419   0.483   5.320   4.749  0.1980 -0.9355  0.2950
 6485TIP3    H219420   0.348   5.341   4.685  0.0543 -0.4628  0.7442
 6486TIP3   OH219421   5.547   1.525   2.708 -0.4920 -0.0116 -0.1860
 6486TIP3    H119422   5.555   1.488   2.796  1.8106  0.4107 -0.1693
 6486TIP3    H219423   5.468   1.483   2.672 -3.0894  1.7540  2.9343
 6487TIP3   OH219424   2.456   2.178   0.166  0.6051  0.1790 -0.7949
 6487TIP3    H119425   2.534   2.232   0.155  1.4030 -1.1346 -1.8824
 6487TIP3    H219426   2.397   2.231   0.220  2.3841  1.0528  0.3747
 6488TIP3   OH219427   3.777   6.285   0.587  0.5837 -0.2250  0.5628
 6488TIP3    H119428   3.722   6.281   0.509  1.8651  0.1110 -0.3960
 6488TIP3    H219429   3.724   6.244   0.655 -0.4522 -0.8332 -0.5535
 6489TIP3   OH219430   1.388   6.453   0.477 -0.1478  0.0871  0.5175
 6489TIP3    H119431   1.481   6.459   0.498 -0.0364 -0.6825  0.2682
 6489TIP3    H219432   1.352   6.538   0.503  0.1289 -0.4929  3.0081
 6490TIP3   OH219433   0.391   3.870   4.965 -0.1386  0.0375 -0.0012
 6490TIP3    H119434   0.387   3.780   4.934 -0.1664  0.0541 -0.0467
 6490TIP3    H219435   0.318   3.914   4.921  0.8013  0.4624 -1.1911
 6491TIP3   OH219436   0.471   0.004   0.720 -0.6179 -0.1344 -0.5962
 6491TIP3    H119437   0.501  -0.001   0.629 -1.2316  3.7260 -1.1473
 6491TIP3    H219438   0.534   0.061   0.763 -0.8172 -1.2319  1.2661
 6492TIP3   OH219439   2.099   2.985   0.827  0.0307 -0.4014  0.2200
 6492TIP3    H119440   2.104   2.893   0.800  0.1732 -0.3982  0.2321
 6492TIP3    H219441   2.058   2.983   0.913  0.9109 -0.5370  0.6492
 6493TIP3   OH219442   2.085   3.641   5.444  0.1363  0.4054  0.3867
 6493TIP3    H119443   2.158   3.691   5.482 -0.8448  1.2713  1.2080
 6493TIP3    H219444   2.065   3.687   5.362  1.7664 -1.0188 -0.8828
 6494TIP3   OH219445   5.161   1.631   3.598 -0.2532 -0.4454  0.4333
 6494TIP3    H119446   5.253   1.616   3.577 -0.0716  1.1046 -0.0312
 6494TIP3    H219447   5.127   1.679   3.523 -1.6476 -1.5869  0.2913
 6495TIP3   OH219448   3.977   5.289   0.937  0.1206 -0.0289 -0.0629
 6495TIP3    H119449   4.029   5.210   0.954  0.7639  0.4495  0.2229
 6495TIP3    H219450   3.888   5.256   0.922  0.6168 -0.9190 -1.2139
 6496TIP3   OH219451   5.471   6.076   5.771  0.3918  0.1737 -0.2164
 6496TIP3    H119452   5.437   5.991   5.744  1.1847 -0.8728  1.9042
 6496TIP3    H219453   5.519   6.107   5.694  1.2969 -1.9657 -0.5966
 6497TIP3   OH219454   3.858   0.960   0.918  0.3943  0.0824  0.5582
 6497TIP3    H119455   3.914   0.991   0.846  1.3709  4.1474  2.7422
 6497TIP3    H219456   3.778   1.013   0.910  0.0509 -0.2204  1.8057
 6498TIP3   OH219457   3.574   3.300   2.384  0.0777 -0.3983  0.0313
 6498TIP3    H119458   3.564   3.329   2.293  0.8426 -0.5989 -0.1211
 6498TIP3    H219459   3.666   3.317   2.405 -0.0327 -0.5884  0.6855
 6499TIP3   OH219460   1.099   2.598   3.742  0.1382  0.3785  0.3313
 6499TIP3    H119461   1.031   2.532   3.724  0.7720 -0.0194 -0.6776
 6499TIP3    H219462   1.181   2.549   3.741  0.6012  1.1462 -0.2445
 6500TIP3   OH219463   4.371   2.743   3.275 -0.1867 -0.6144 -0.0689
 6500TIP3    H119464   4.370   2.653   3.305 -0.5540 -0.9915 -1.1679
 6500TIP3    H219465   4.292   2.752   3.223  1.1988 -0.5028 -2.3124
 6501TIP3   OH219466   3.134   5.242   4.342 -0.3672  0.1379 -0.4916
 6501TIP3    H119467   3.083   5.323   4.336 -1.2317 -0.4235 -0.7183
 6501TIP3    H219468   3.225   5.273   4.346 -0.7661  1.2183  1.7323
 6502TIP3   OH219469   0.097   4.878   5.509 -0.0401 -0.1775  0.0275
 6502TIP3    H119470   0.041   4.815   5.557 -0.2623 -1.5062 -1.8634
 6502TIP3    H219471   0.056   4.963   5.525  0.0500 -0.4969  2.3669
 6503TIP3   OH219472   3.314   6.144   2.019 -0.5340 -0.2348  0.0535
 6503TIP3    H119473   3.304   6.051   1.999 -0.1535 -0.2324 -0.1724
 6503TIP3    H219474   3.225   6.179   2.017 -0.6826 -0.5992  0.1650
 6504TIP3   OH219475   0.469   1.098   3.891 -0.1630  0.7060 -0.1663
 6504TIP3    H119476   0.509   1.184   3.880  0.4786  0.4070 -0.1904
 6504TIP3    H219477   0.432   1.078   3.805 -2.3119  1.9216  0.3831
 6505TIP3   OH219478   4.630   2.660   4.071  0.4982 -0.0916 -0.3179
 6505TIP3    H119479   4.704   2.711   4.039  0.1109  1.3776  1.0060
 6505TIP3    H219480   4.553   2.698   4.028  0.1770  0.6617  0.8847
 6506TIP3   OH219481   0.685   3.951   2.766 -0.2980 -0.0373  0.7113
 6506TIP3    H119482   0.765   3.956   2.713 -0.7985  0.4332 -0.0141
 6506TIP3    H219483   0.714   3.912   2.848  0.4090 -1.2419 -0.0752
 6507TIP3   OH219484   6.428   2.980   3.399 -0.2618  0.1080  0.6588
 6507TIP3    H119485   6.398   2.917   3.465  2.5869 -0.4041  1.6181
 6507TIP3    H219486   6.353   2.992   3.341 -1.7289 -2.1732  1.9325
 6508TIP3   OH219487   4.688   3.739   5.426 -0.0299 -0.1430  0.6123
 6508TIP3    H119488   4.621   3.769   5.364  0.5874 -0.9006 -0.4680
 6508TIP3    H219489   4.760   3.709   5.370  0.4577 -1.0833  1.6966
 6509TIP3   OH219490   2.733   0.706   5.828  0.3088  0.1913 -0.0221
 6509TIP3    H119491   2.826   0.726   5.818  0.6830 -1.6358 -0.6522
 6509TIP3    H219492   2.700   0.701   5.738  0.3264 -2.1168  0.0498
 6510TIP3   OH219493   3.200   0.787   4.345  0.2302  0.8262 -0.6019
 6510TIP3    H119494   3.156   0.723   4.288  0.7154 -0.2444  0.1941
 6510TIP3    H219495   3.249   0.843   4.284  1.0481 -0.5288 -1.2372
 6511TIP3   OH219496   5.771   2.975   5.353 -0.0774 -0.4764  0.0152
 6511TIP3    H119497   5.759   2.996   5.260  2.0286  0.7790 -0.0436
 6511TIP3    H219498   5.732   3.049   5.399  1.5088  0.3956  0.0077
 6512TIP3   OH219499   0.749   2.256   3.120 -0.1972 -0.0365  0.2634
 6512TIP3    H119500   0.704   2.322   3.173  0.9029  0.5776  0.4585
 6512TIP3    H219501   0.805   2.210   3.183  0.5243  0.1712 -0.2155
 6513TIP3   OH219502   4.037   2.412   0.083  0.4601 -0.1998  0.0721
 6513TIP3    H119503   4.099   2.464   0.134 -0.0241  0.1119  0.3482
 6513TIP3    H219504   3.999   2.473   0.021  0.8994 -0.5361 -0.5335
 6514TIP3   OH219505   0.595   5.640   1.166  0.3801  0.6012  0.2069
 6514TIP3    H119506   0.613   5.733   1.176  0.4761  0.5453  0.5469
 6514TIP3    H219507   0.665   5.609   1.107 -0.1488  0.9100 -0.5951
 6515TIP3   OH219508   1.638   3.179   1.204 -0.1924 -0.0480 -0.4895
 6515TIP3    H119509   1.660   3.221   1.120 -0.0881 -1.2282 -1.0652
 6515TIP3    H219510   1.709   3.206   1.263  0.0867  0.2563 -0.9554
 6516TIP3   OH219511   4.488   2.295   3.427 -0.0838 -0.3254  0.1710
 6516TIP3    H119512   4.436   2.236   3.481 -0.8430  1.3636  1.3740
 6516TIP3    H219513   4.577   2.286   3.461 -0.0727 -1.2219 -0.0788
 6517TIP3   OH219514   2.987   1.616   4.485  0.4541 -0.1580 -0.5876
 6517TIP3    H119515   3.044   1.603   4.409  0.3926  0.3466 -0.7223
 6517TIP3    H219516   2.904   1.646   4.449 -0.2818 -1.9661 -0.4782
 6518TIP3   OH219517   2.004   5.654   5.677 -0.1369 -0.0844  0.4144
 6518TIP3    H119518   1.952   5.575   5.664 -0.1274 -0.0266 -0.0069
 6518TIP3    H219519   2.059   5.635   5.753 -1.2581  0.1150  1.2877
 6519TIP3   OH219520   1.478   0.988   3.186 -0.5723  0.3094 -0.8268
 6519TIP3    H119521   1.410   1.002   3.252 -1.1072  1.0974 -1.5208
 6519TIP3    H219522   1.432   0.993   3.102  0.1062 -0.5856 -1.2710
 6520TIP3   OH219523   1.025   1.891   0.879 -0.1238  0.0918  0.1738
 6520TIP3    H119524   1.118   1.902   0.899 -0.3862  0.9697  0.9896
 6520TIP3    H219525   0.997   1.976   0.846 -0.5757 -0.2579 -0.3674
 6521TIP3   OH219526   2.066   3.686   0.895  0.1339  0.3516  0.2099
 6521TIP3    H119527   2.138   3.748   0.885 -1.0618  1.8120  0.3128
 6521TIP3    H219528   2.030   3.677   0.806  1.1622 -1.3424 -0.0849
 6522TIP3   OH219529   1.892   3.626   1.891 -0.2937 -0.5898 -0.6709
 6522TIP3    H119530   1.851   3.541   1.877 -0.8178 -1.1350  3.0588
 6522TIP3    H219531   1.822   3.690   1.876 -0.4143 -0.9441 -1.6476
 6523TIP3   OH219532   6.600   3.597   3.346  0.2859  0.2511 -0.3112
 6523TIP3    H119533   6.609   3.503   3.365  2.3517  0.2839 -0.9247
 6523TIP3    H219534   6.611   3.604   3.251 -0.7450  1.0519 -0.3938
 6524TIP3   OH219535   3.413   5.030   0.392  0.4070 -0.0681 -0.4518
 6524TIP3    H119536   3.323   5.012   0.417  0.3638 -0.2743 -0.7503
 6524TIP3    H219537   3.417   5.125   0.382  0.1172 -0.0976 -0.8478
 6525TIP3   OH219538   2.395   0.369   0.159  0.3786  0.0273  0.0647
 6525TIP3    H119539   2.334   0.437   0.191  0.0681  0.5314 -1.5238
 6525TIP3    H219540   2.480   0.397   0.191  0.0053  0.1823  0.9591
 6526TIP3   OH219541   4.096   0.795   1.972  0.4935  0.1778  0.0188
 6526TIP3    H119542   4.089   0.730   2.041  1.8558 -0.0540 -0.0299
 6526TIP3    H219543   4.156   0.861   2.007  0.0975  0.7705 -0.4015
 6527TIP3   OH219544   3.981   4.394   5.426 -0.9166 -0.2272  0.1597
 6527TIP3    H119545   3.982   4.298   5.424 -1.6404 -0.2389  0.0173
 6527TIP3    H219546   4.037   4.417   5.499  0.5725 -0.7138 -0.7931
 6528TIP3   OH219547   1.280   3.867   0.985  0.3771  0.1277  0.0004
 6528TIP3    H119548   1.257   3.774   0.983 -2.3168  0.6787  1.5115
 6528TIP3    H219549   1.334   3.876   1.064 -0.6014  0.0674  0.6926
 6529TIP3   OH219550   2.235   4.974   0.051 -0.4872  0.3129  0.3548
 6529TIP3    H119551   2.212   4.883   0.065 -1.1178  0.5087  0.6026
 6529TIP3    H219552   2.279   5.001   0.131  1.1706 -0.2234 -0.3350
 6530TIP3   OH219553   2.856   4.490   5.635 -0.3039 -0.5556  0.0618
 6530TIP3    H119554   2.796   4.435   5.685  0.2995 -2.2361 -0.9856
 6530TIP3    H219555   2.942   4.473   5.673 -0.2699  0.7373  0.6120
 6531TIP3   OH219556   0.833   4.896   0.929  0.3462  0.1257 -0.0765
 6531TIP3    H119557   0.912   4.947   0.945  1.2691 -0.5234 -2.2112
 6531TIP3    H219558   0.864   4.806   0.920 -0.5873 -0.1233 -1.0768
 6532TIP3   OH219559   3.971   3.190   1.473  0.1288  0.2279  0.4192
 6532TIP3    H119560   4.000   3.184   1.382 -2.9419  1.6343 -0.7923
 6532TIP3    H219561   3.929   3.106   1.490 -1.8916  0.9891 -0.5479
 6533TIP3   OH219562   4.717   1.199   5.146  0.0966 -0.0261 -0.0758
 6533TIP3    H119563   4.775   1.245   5.085 -0.0001  0.0127 -0.1387
 6533TIP3    H219564   4.757   1.113   5.158  0.8084  0.4158  0.8026
 6534TIP3   OH219565   2.743   4.632   2.852  0.3695 -0.3434 -0.5831
 6534TIP3    H119566   2.769   4.617   2.761 -0.0955 -1.2456 -0.5775
 6534TIP3    H219567   2.825   4.630   2.901  0.7392  1.1172 -1.0861
 6535TIP3   OH219568   6.870   2.633   5.658  0.0407  0.2389  0.1885
 6535TIP3    H119569   6.808   2.568   5.693  2.7626 -2.8973 -0.2932
 6535TIP3    H219570   6.836   2.653   5.571  0.1320 -2.2058 -0.4774
 6536TIP3   OH219571   3.669   0.200   3.820 -0.1979 -0.0896 -0.0519
 6536TIP3    H119572   3.728   0.188   3.746 -0.5852 -0.5263 -0.2946
 6536TIP3    H219573   3.591   0.150   3.797  0.0610 -1.0573  1.0985
 6537TIP3   OH219574   5.189   3.582   2.476 -0.8776 -0.2502  0.4195
 6537TIP3    H119575   5.185   3.676   2.490 -0.6411  0.1047 -1.6135
 6537TIP3    H219576   5.098   3.554   2.475 -0.9597  0.0034  0.7868
 6538TIP3   OH219577   2.429   5.136   5.495  0.6123 -0.4760  0.0166
 6538TIP3    H119578   2.500   5.123   5.558 -0.4962 -0.8436  1.2463
 6538TIP3    H219579   2.447   5.072   5.426  1.0312 -1.1580  0.7304
 6539TIP3   OH219580   3.337   3.730   0.840 -0.2132 -0.3369 -0.2498
 6539TIP3    H119581   3.418   3.745   0.791  0.1079 -0.1554  0.3302
 6539TIP3    H219582   3.366   3.713   0.929 -0.7817 -0.9313 -0.1727
 6540TIP3   OH219583   6.573   1.465   2.964 -0.0883 -0.7128  0.3516
 6540TIP3    H119584   6.521   1.504   3.035  0.9694  1.1696  0.1521
 6540TIP3    H219585   6.549   1.516   2.887  0.4452 -1.2658 -0.1866
 6541TIP3   OH219586   3.567   3.094   4.575  0.4965  0.4220 -0.3184
 6541TIP3    H119587   3.478   3.115   4.547  0.7384  0.6109 -0.9567
 6541TIP3    H219588   3.597   3.028   4.512  0.5205 -0.2534  0.3823
 6542TIP3   OH219589   7.027   4.695   4.753 -0.1002 -1.0832 -0.8314
 6542TIP3    H119590   6.986   4.722   4.835 -0.2483 -0.3266 -1.1461
 6542TIP3    H219591   7.067   4.775   4.719 -0.3759 -1.2983 -1.6925
 6543TIP3   OH219592   1.248   2.526   2.457 -0.1584 -0.0708 -0.0821
 6543TIP3    H119593   1.249   2.462   2.386  0.4045 -0.4223  0.2272
 6543TIP3    H219594   1.284   2.478   2.532 -2.4083 -0.2729  0.9546
 6544TIP3   OH219595   2.211   3.486   2.974  0.0751  0.5169  0.0575
 6544TIP3    H119596   2.159   3.406   2.983 -0.5503  0.9321  0.1336
 6544TIP3    H219597   2.241   3.485   2.883  2.5314 -1.2991  0.7542
 6545TIP3   OH219598   5.712   2.920   0.449 -0.2692 -0.3572 -0.2438
 6545TIP3    H119599   5.619   2.899   0.435  0.1194 -1.0838 -2.0267
 6545TIP3    H219600   5.730   2.992   0.389 -0.2278  1.4990  1.8801
 6546TIP3   OH219601   1.656   2.547   0.407  0.0666 -0.1708  0.0534
 6546TIP3    H119602   1.691   2.493   0.477  2.3252  0.8183 -0.2354
 6546TIP3    H219603   1.682   2.637   0.430 -1.9086  0.5906 -0.4558
 6547TIP3   OH219604   0.694   1.817   2.351  0.3987 -0.1773 -0.2923
 6547TIP3    H119605   0.603   1.794   2.331  0.2979  0.0115 -0.0566
 6547TIP3    H219606   0.707   1.901   2.308 -0.4029  1.1621  1.9528
 6548TIP3   OH219607   1.096   5.643   0.265 -0.3608 -0.3761  1.2644
 6548TIP3    H119608   1.080   5.709   0.197  0.9379 -1.9522 -0.6899
 6548TIP3    H219609   1.148   5.689   0.331  0.8576  0.5139 -0.2253
 6549TIP3   OH219610   4.176   2.673   3.714 -0.1798 -0.0732 -0.0601
 6549TIP3    H119611   4.198   2.636   3.628 -0.3626 -0.7944  0.1926
 6549TIP3    H219612   4.214   2.761   3.713  0.7394 -0.4631 -0.4792
 6550TIP3   OH219613   7.084   4.725   5.615 -0.0423 -0.0625 -0.2280
 6550TIP3    H119614   7.007   4.682   5.653 -0.9144  2.3993  0.9777
 6550TIP3    H219615   7.138   4.748   5.690  0.4330  0.8744 -0.8430
 6551TIP3   OH219616   3.413   5.045   4.911 -0.6517  0.3810 -0.2541
 6551TIP3    H119617   3.471   5.026   4.838 -1.4762 -2.1457 -0.3427
 6551TIP3    H219618   3.327   5.056   4.871 -0.9935 -0.3600  0.2497
 6552TIP3   OH219619   4.883   2.984   4.550 -0.1613 -0.0786 -0.4394
 6552TIP3    H119620   4.862   2.891   4.543 -4.3824  0.5796  0.6022
 6552TIP3    H219621   4.933   2.992   4.631 -1.0493 -1.2933  0.2502
 6553TIP3   OH219622   6.552   5.405   0.419 -0.2792 -0.0114 -0.1518
 6553TIP3    H119623   6.479   5.344   0.433  0.2919 -0.3658  1.5662
 6553TIP3    H219624   6.525   5.484   0.465  0.0992  0.1143 -0.1502
 6554TIP3   OH219625   4.530   6.735   0.689 -0.6387  0.7456  0.6083
 6554TIP3    H119626   4.548   6.654   0.641  0.4243  1.1667  0.2688
 6554TIP3    H219627   4.520   6.802   0.621 -0.1575  1.1555  0.9345
 6555TIP3   OH219628   3.138   2.318   1.157 -0.4328  0.5201  0.4655
 6555TIP3    H119629   3.128   2.395   1.212 -0.3838 -0.2435  1.5679
 6555TIP3    H219630   3.216   2.275   1.190  0.4142  0.7686 -1.1217
 6556TIP3   OH219631   1.780   1.141   4.404 -0.0411  0.5977 -0.2876
 6556TIP3    H119632   1.748   1.052   4.419  0.5693  0.7573  2.4412
 6556TIP3    H219633   1.875   1.131   4.395 -0.1164  0.8438 -1.5203
 6557TIP3   OH219634   3.495   2.059   0.532 -0.3044  0.0232 -0.5449
 6557TIP3    H119635   3.406   2.081   0.560 -0.3619 -0.9012  0.0574
 6557TIP3    H219636   3.487   1.972   0.493  0.4012 -0.2888 -0.0247
 6558TIP3   OH219637   3.018   5.579   1.485  0.2709  0.2324 -0.1295
 6558TIP3    H119638   2.985   5.568   1.574 -0.4622  0.2612 -0.3888
 6558TIP3    H219639   2.956   5.639   1.443 -1.1463 -2.0479 -1.5398
 6559TIP3   OH219640   2.523   4.498   3.511 -0.2049  0.0607  0.5742
 6559TIP3    H119641   2.595   4.552   3.544 -1.4148  1.8062  0.4860
 6559TIP3    H219642   2.475   4.557   3.453 -1.2707 -1.3091  0.0335
 6560TIP3   OH219643   7.169   4.293   5.309 -0.6569 -0.4026  0.2746
 6560TIP3    H119644   7.210   4.315   5.226 -0.5873  0.3055  0.4857
 6560TIP3    H219645   7.087   4.342   5.310 -1.5977 -1.9183 -0.2014
 6561TIP3   OH219646   2.453   4.049   1.534  0.5595  0.3793 -0.0509
 6561TIP3    H119647   2.391   3.981   1.560  0.2016  0.8493  0.3605
 6561TIP3    H219648   2.416   4.130   1.569 -0.3500  1.1942 -2.6219
 6562TIP3   OH219649   0.335   5.534   3.387 -0.2912  0.3675  0.4695
 6562TIP3    H119650   0.280   5.526   3.465  1.9847  0.7452  2.2221
 6562TIP3    H219651   0.412   5.584   3.416  2.3609 -2.4761 -1.0040
 6563TIP3   OH219652   1.468   1.052   4.734  0.1323  0.2089  0.2694
 6563TIP3    H119653   1.375   1.031   4.725 -0.0637  1.1700 -0.0070
 6563TIP3    H219654   1.508   0.970   4.764 -0.7934 -0.2191  0.3645
 6564TIP3   OH219655   0.773   3.947   3.060  0.4863  0.4213 -0.1903
 6564TIP3    H119656   0.692   3.992   3.085 -0.4709 -0.8165 -0.9529
 6564TIP3    H219657   0.800   3.901   3.140 -0.4982 -0.4966 -0.3654
 6565TIP3   OH219658   6.224   1.202   5.357 -0.1578  0.3811 -0.2006
 6565TIP3    H119659   6.202   1.203   5.450  2.0559 -0.0727  0.3886
 6565TIP3    H219660   6.228   1.109   5.334  0.5949  0.4556 -0.3945
 6566TIP3   OH219661   4.027   3.329   4.078 -0.3512  0.0685  0.2581
 6566TIP3    H119662   4.001   3.253   4.025 -0.5391  0.5301 -0.3108
 6566TIP3    H219663   4.083   3.380   4.021  0.2187  0.0916  0.8258
 6567TIP3   OH219664   2.666   1.762   1.112  0.3175  0.3845 -0.2680
 6567TIP3    H119665   2.648   1.761   1.018  0.6450  0.5890 -0.3368
 6567TIP3    H219666   2.584   1.791   1.152 -0.0501 -0.4032 -0.4314
 6568TIP3   OH219667   3.691   4.199   3.047 -0.6776  0.4935  0.3052
 6568TIP3    H119668   3.658   4.281   3.010 -1.6360  0.2396  0.5729
 6568TIP3    H219669   3.619   4.166   3.101 -1.1828 -1.6144 -1.4824
 6569TIP3   OH219670   1.633   5.123   2.241 -0.2450 -0.3723  0.2179
 6569TIP3    H119671   1.578   5.196   2.214  0.6535  0.3496  0.2799
 6569TIP3    H219672   1.682   5.156   2.317 -0.4091 -1.3097  0.7535
 6570TIP3   OH219673   3.181   2.279   0.892 -0.4108 -0.1266  0.4971
 6570TIP3    H119674   3.122   2.350   0.867  1.1224  0.9730 -0.1645
 6570TIP3    H219675   3.183   2.282   0.987 -0.0030  1.0624  0.4714
 6571TIP3   OH219676   4.829   1.438   0.564  0.0268 -0.1543  0.0090
 6571TIP3    H119677   4.844   1.522   0.608  0.9813 -0.5450  0.4716
 6571TIP3    H219678   4.909   1.387   0.582 -0.1914 -0.8639 -0.9488
 6572TIP3   OH219679   1.025   6.352   4.792 -0.1381  0.0764 -0.0000
 6572TIP3    H119680   1.057   6.368   4.704 -0.3187 -1.3464 -0.3607
 6572TIP3    H219681   0.946   6.300   4.780 -0.0890 -0.2668  0.9933
 6573TIP3   OH219682   4.668   5.556   4.195  0.3405  0.0819 -0.3970
 6573TIP3    H119683   4.724   5.633   4.199 -0.3625  0.5615  0.4202
 6573TIP3    H219684   4.627   5.551   4.281 -0.7759 -0.3330 -0.9347
 6574TIP3   OH219685   2.806   1.067   0.595  0.5003  0.0789  0.0439
 6574TIP3    H119686   2.779   0.992   0.541  0.2241 -1.4601  2.1883
 6574TIP3    H219687   2.726   1.120   0.604  0.0877 -0.5738  0.3337
 6575TIP3   OH219688   3.293   0.180   3.935 -0.1228 -0.4165 -0.4707
 6575TIP3    H119689   3.255   0.113   3.877 -2.2874  0.0072  0.3823
 6575TIP3    H219690   3.358   0.132   3.986  0.0615 -1.3348 -1.5140
 6576TIP3   OH219691   4.389   3.561   3.159  0.5999 -0.4700  0.5017
 6576TIP3    H119692   4.407   3.655   3.147  1.5330 -0.6334  0.5459
 6576TIP3    H219693   4.474   3.519   3.148  0.5638 -1.1372  2.3867
 6577TIP3   OH219694   6.992   4.091   3.361 -0.4097 -0.5214 -0.2189
 6577TIP3    H119695   7.006   4.002   3.392  0.7897 -0.8096 -1.4858
 6577TIP3    H219696   6.915   4.084   3.304 -1.4231 -0.3695  1.1053
 6578TIP3   OH219697   3.578   5.549   1.844  0.3236  0.1718 -0.3470
 6578TIP3    H119698   3.544   5.504   1.921 -0.2996 -0.0130 -0.7253
 6578TIP3    H219699   3.673   5.547   1.855  0.2431  0.1440  0.4103
 6579TIP3   OH219700   3.074   0.273   0.725  0.3033 -0.3149 -0.1909
 6579TIP3    H119701   3.167   0.277   0.746  0.0442  1.5922  0.8296
 6579TIP3    H219702   3.067   0.316   0.639  0.3905 -0.7100 -0.3970
 6580TIP3   OH219703   4.206   1.027   3.824  0.0304 -0.1166 -0.1480
 6580TIP3    H119704   4.162   0.943   3.835  0.0621 -0.0454  0.5336
 6580TIP3    H219705   4.272   1.011   3.756 -0.0367 -0.6100 -0.0972
 6581TIP3   OH219706   7.134   3.586   0.882  0.0204  0.1465  0.1969
 6581TIP3    H119707   7.151   3.600   0.789  0.2413  0.6163  0.3034
 6581TIP3    H219708   7.220   3.574   0.921 -0.1765 -2.2666  0.0253
 6582TIP3   OH219709   0.375   3.906   5.685 -0.0645 -0.0672 -0.6393
 6582TIP3    H119710   0.317   3.979   5.706 -0.2649  0.2163 -2.0743
 6582TIP3    H219711   0.378   3.905   5.589 -0.1618 -2.0153 -0.6508
 6583TIP3   OH219712   1.803   6.482   1.665 -0.4295  0.3934 -0.4068
 6583TIP3    H119713   1.896   6.499   1.652 -0.5777  1.6916  0.1410
 6583TIP3    H219714   1.770   6.462   1.577  0.3919 -0.3290 -0.5677
 6584TIP3   OH219715   4.716   5.212   1.009 -0.1738  0.1453 -0.1431
 6584TIP3    H119716   4.802   5.182   0.979 -0.2650 -2.5872  1.9502
 6584TIP3    H219717   4.735   5.286   1.067  0.9261 -0.9263  0.9397
 6585TIP3   OH219718   6.658   1.357   4.011  0.0963 -0.3639 -0.1765
 6585TIP3    H119719   6.672   1.327   3.921 -1.3989  1.5504 -1.1028
 6585TIP3    H219720   6.660   1.452   4.006 -1.1048 -0.1902  1.6092
 6586TIP3   OH219721   0.498   1.069   0.977 -0.2407 -0.2349  0.2408
 6586TIP3    H119722   0.486   1.022   1.059  0.8005  0.2388  0.6785
 6586TIP3    H219723   0.593   1.069   0.962 -0.0487  2.6313  0.8357
 6587TIP3   OH219724   4.755   1.321   3.102 -0.3007  0.2539 -0.2667
 6587TIP3    H119725   4.772   1.340   3.010  0.1620  1.7429  0.0924
 6587TIP3    H219726   4.662   1.339   3.113 -0.5388 -0.7107 -0.6035
 6588TIP3   OH219727   4.619   2.027   3.842 -0.0800 -0.2146 -0.6189
 6588TIP3    H119728   4.601   1.977   3.763  1.2667 -1.5497 -0.1385
 6588TIP3    H219729   4.547   2.006   3.901 -0.5313 -0.0555 -1.1147
 6589TIP3   OH219730   0.519   4.139   2.679  0.1473 -0.0555  0.5657
 6589TIP3    H119731   0.438   4.099   2.712  0.9098 -0.1290  2.4942
 6589TIP3    H219732   0.588   4.077   2.704  1.0311  1.0556  0.9828
 6590TIP3   OH219733   0.411   5.573   2.133 -0.3493 -0.4972 -0.1883
 6590TIP3    H119734   0.496   5.557   2.174  0.3175 -0.7269 -1.6021
 6590TIP3    H219735   0.350   5.580   2.206  0.4249 -2.8687  0.7785
 6591TIP3   OH219736   2.340   1.208   5.731  0.5241  0.2767  0.6958
 6591TIP3    H119737   2.385   1.289   5.757  1.5365  0.0589 -0.3098
 6591TIP3    H219738   2.410   1.145   5.716 -0.2815 -1.1813  2.5966
 6592TIP3   OH219739   5.059   1.850   4.702 -1.0455  0.3824 -0.5347
 6592TIP3    H119740   5.088   1.840   4.793  0.7570  0.4655 -1.0707
 6592TIP3    H219741   5.065   1.763   4.665 -1.5694  0.3908 -0.6530
 6593TIP3   OH219742   5.224   4.412   1.559  0.4254 -0.2291 -0.7728
 6593TIP3    H119743   5.187   4.326   1.575  0.7442 -0.4004 -0.9520
 6593TIP3    H219744   5.266   4.437   1.642 -0.7367  0.2962 -0.3236
 6594TIP3   OH219745   2.607   4.051   3.952 -0.1267  0.1265  0.0334
 6594TIP3    H119746   2.585   3.958   3.960  1.2232 -0.2138  0.0327
 6594TIP3    H219747   2.566   4.078   3.869  1.8267 -1.2242 -1.4605
 6595TIP3   OH219748   6.486   0.909   1.022 -0.0435 -0.0720  0.1949
 6595TIP3    H119749   6.423   0.916   1.093 -2.6045 -0.0029 -1.9051
 6595TIP3    H219750   6.477   0.991   0.974  0.5800 -0.6646 -0.9822
 6596TIP3   OH219751   6.010   0.352   0.950 -0.2865  0.5524 -0.4099
 6596TIP3    H119752   6.086   0.404   0.921  0.8704 -0.5145  0.5817
 6596TIP3    H219753   5.983   0.304   0.872  2.8967 -2.4153  0.0731
 6597TIP3   OH219754   4.055   5.148   1.254  0.6520 -0.0773 -0.0134
 6597TIP3    H119755   3.995   5.222   1.258 -1.9615 -2.0785  0.4715
 6597TIP3    H219756   4.055   5.122   1.162 -0.7270 -1.1475  0.2522
 6598TIP3   OH219757   1.261   2.362   3.945 -0.2155  0.4669 -0.1240
 6598TIP3    H119758   1.280   2.268   3.943  0.6296  0.6375 -0.6899
 6598TIP3    H219759   1.304   2.397   3.867 -0.6190  1.3120  0.0177
 6599TIP3   OH219760   7.167   3.121   5.315  0.1673 -0.3620  0.3544
 6599TIP3    H119761   7.105   3.113   5.242 -0.5982  1.4720  0.7307
 6599TIP3    H219762   7.124   3.181   5.376  1.1095 -1.2993  1.9886
 6600TIP3   OH219763   1.900   0.448   0.583 -0.2082 -0.1760  0.5082
 6600TIP3    H119764   1.820   0.499   0.595  0.9492  1.2901  2.6103
 6600TIP3    H219765   1.942   0.488   0.507 -1.4389 -0.9865 -0.6403
 6601TIP3   OH219766   0.272   5.135   0.884  0.2789 -0.6344 -0.0439
 6601TIP3    H119767   0.304   5.089   0.962  1.7573 -1.6421 -1.1903
 6601TIP3    H219768   0.351   5.159   0.836 -0.6076 -0.8755 -1.6853
 6602TIP3   OH219769   1.322   0.179   0.073 -0.1859  0.1876 -0.0147
 6602TIP3    H119770   1.245   0.212   0.026 -0.3351 -0.2441 -0.0871
 6602TIP3    H219771   1.285   0.125   0.143  0.0352 -1.3110 -0.9911
 6603TIP3   OH219772   7.138   4.631   2.052  0.3341  0.1608 -0.4516
 6603TIP3    H119773   7.076   4.645   1.980  1.1401 -0.4305 -1.2840
 6603TIP3    H219774   7.083   4.602   2.125 -0.5585  1.2067 -0.6653
 6604TIP3   OH219775   1.713   4.350   5.432  0.2683 -0.7764  0.2312
 6604TIP3    H119776   1.701   4.387   5.345 -1.3529 -1.0695  0.3046
 6604TIP3    H219777   1.626   4.320   5.458  0.4901  0.2119  2.3662
 6605TIP3   OH219778   3.481   2.973   2.490  0.1264 -0.4410 -0.3445
 6605TIP3    H119779   3.534   2.919   2.431  1.9327 -0.9580  1.6410
 6605TIP3    H219780   3.517   3.061   2.480  0.2954 -0.4907 -0.1860
 6606TIP3   OH219781   4.975   2.573   2.871  0.0628  0.0878  0.3207
 6606TIP3    H119782   4.947   2.631   2.942 -1.5180  0.2543 -0.4148
 6606TIP3    H219783   4.941   2.487   2.896  0.2414 -0.0243  0.1791
 6607TIP3   OH219784   2.789   4.397   2.991  0.4623  0.0707  0.2932
 6607TIP3    H119785   2.871   4.377   2.946  0.4371  1.0649 -0.2198
 6607TIP3    H219786   2.720   4.364   2.933  0.4749  0.1070  0.2574
 6608TIP3   OH219787   6.292   4.963   5.481  0.0319  0.2645 -0.6048
 6608TIP3    H119788   6.218   5.011   5.442 -0.3177 -0.9401 -1.4709
 6608TIP3    H219789   6.340   4.928   5.406  0.7794 -0.0228 -0.0076
 6609TIP3   OH219790   2.505   2.031   5.135  0.0703 -0.2524 -0.4670
 6609TIP3    H119791   2.532   1.988   5.216 -0.3232 -0.7602 -0.6036
 6609TIP3    H219792   2.434   2.090   5.161  0.2059 -0.1224 -0.3840
 6610TIP3   OH219793   6.500   5.771   5.497 -0.3856  0.2080 -0.2163
 6610TIP3    H119794   6.502   5.864   5.474  2.5030  0.0435 -0.9582
 6610TIP3    H219795   6.408   5.745   5.484 -1.1150  2.7570 -0.6700
 6611TIP3   OH219796   1.331   0.450   0.356 -0.4699 -0.5216  0.6535
 6611TIP3    H119797   1.387   0.447   0.433 -1.5183 -2.2604  1.4323
 6611TIP3    H219798   1.249   0.489   0.388  0.0774  1.5495 -0.3481
 6612TIP3   OH219799   2.076   5.899   5.580  0.2346 -0.5792 -0.4238
 6612TIP3    H119800   2.122   5.933   5.656  3.3328 -1.8115 -1.5558
 6612TIP3    H219801   2.044   5.813   5.607  1.1009 -0.9012 -0.3614
 6613TIP3   OH219802   2.467   1.507   2.789 -0.5509  0.3546 -0.0755
 6613TIP3    H119803   2.465   1.517   2.694  0.4087  0.7263 -0.0677
 6613TIP3    H219804   2.440   1.416   2.804  1.0361 -0.2810 -0.8358
 6614TIP3   OH219805   5.212   4.002   4.337 -0.6011  0.1861 -0.0161
 6614TIP3    H119806   5.225   3.907   4.345 -0.7767  0.0138 -1.5896
 6614TIP3    H219807   5.146   4.012   4.270 -1.1168  1.4247  0.6396
 6615TIP3   OH219808   2.095   6.670   4.699 -0.9584 -0.3644  0.1156
 6615TIP3    H119809   2.048   6.727   4.760 -1.4075 -0.9517  0.3270
 6615TIP3    H219810   2.066   6.582   4.722 -0.9488 -0.6090 -0.7968
 6616TIP3   OH219811   2.724   2.199   5.060  0.0043 -0.0276 -0.5050
 6616TIP3    H119812   2.632   2.203   5.034  0.1670  0.6434 -1.0285
 6616TIP3    H219813   2.733   2.116   5.106 -0.6297 -0.5997 -1.3836
 6617TIP3   OH219814   4.862   0.556   5.148 -0.0338  0.2993  0.5395
 6617TIP3    H119815   4.888   0.631   5.202 -0.5759  1.5017 -0.7855
 6617TIP3    H219816   4.790   0.589   5.095 -0.8759 -1.4504  0.5327
 6618TIP3   OH219817   7.171   3.569   0.052 -0.3386 -0.6826  0.1262
 6618TIP3    H119818   7.099   3.632   0.055 -1.4698 -1.9505  0.8845
 6618TIP3    H219819   7.180   3.547  -0.040 -1.2671 -0.8812  0.0779
 6619TIP3   OH219820   4.194   6.714   2.205  0.3593  0.2645 -0.1168
 6619TIP3    H119821   4.116   6.708   2.149  0.1038 -0.4803  0.3026
 6619TIP3    H219822   4.168   6.771   2.277  0.2834  0.2268 -0.1142
 6620TIP3   OH219823   7.070   6.415   0.489 -0.0806  0.1575  0.1485
 6620TIP3    H119824   7.049   6.458   0.406  1.7492  0.8087 -0.0227
 6620TIP3    H219825   7.028   6.470   0.556 -1.0184 -0.0087 -0.2776
 6621TIP3   OH219826   2.121   1.013   0.583 -0.6734  0.1852  0.0500
 6621TIP3    H119827   2.129   1.014   0.487 -1.1906  0.8449  0.0136
 6621TIP3    H219828   2.210   0.992   0.613 -0.3068  0.8354 -0.5455
 6622TIP3   OH219829   3.129   2.737   0.156 -0.2650  0.1689 -0.5738
 6622TIP3    H119830   3.093   2.665   0.208  0.0726 -0.8810 -1.7380
 6622TIP3    H219831   3.114   2.711   0.066  0.3186  1.3432 -1.0294
 6623TIP3   OH219832   0.652   4.568   3.614 -0.0896 -0.2639  0.4589
 6623TIP3    H119833   0.616   4.531   3.695  1.3422 -2.1775  0.2709
 6623TIP3    H219834   0.581   4.560   3.551 -1.0357  0.7384  1.3424
 6624TIP3   OH219835   2.982   3.555   0.831  0.2880  0.3874  0.2100
 6624TIP3    H119836   2.939   3.470   0.819 -0.4833  0.8287 -0.2155
 6624TIP3    H219837   3.074   3.533   0.843  0.2476 -0.4650 -0.8499
 6625TIP3   OH219838   0.372   1.624   1.522 -0.3940  0.0354 -0.5968
 6625TIP3    H119839   0.425   1.559   1.568 -0.2576  0.1106 -0.6487
 6625TIP3    H219840   0.426   1.703   1.520 -0.1777 -0.1293 -1.3689
 6626TIP3   OH219841   3.571   5.112   3.453 -0.2650  0.5818 -0.1760
 6626TIP3    H119842   3.576   5.071   3.367 -1.9387 -0.8847  0.3790
 6626TIP3    H219843   3.658   5.150   3.466  0.6334 -0.8037 -1.7061
 6627TIP3   OH219844   3.335   1.100   3.793  0.2127  0.0898 -0.0172
 6627TIP3    H119845   3.251   1.107   3.748  0.9903  0.8945 -1.4324
 6627TIP3    H219846   3.327   1.022   3.847 -0.4051 -1.6779 -2.4638
 6628TIP3   OH219847   4.775   0.095   1.090  0.5395  0.3684 -0.8167
 6628TIP3    H119848   4.755   0.043   1.169 -0.8482  0.5837 -0.9880
 6628TIP3    H219849   4.842   0.157   1.119  1.4563 -0.8016 -0.3259
 6629TIP3   OH219850   0.132   5.740   3.916 -0.2109 -0.1443 -0.1823
 6629TIP3    H119851   0.168   5.675   3.976 -0.6825  0.6500  1.0205
 6629TIP3    H219852   0.039   5.746   3.939 -0.1208  1.1460 -0.0505
 6630TIP3   OH219853   2.449   3.763   5.072 -0.0225 -0.4746 -0.0752
 6630TIP3    H119854   2.383   3.708   5.030 -0.1597  0.9061 -1.7969
 6630TIP3    H219855   2.432   3.851   5.039  1.4182  0.2769  1.0351
 6631TIP3   OH219856   6.853   2.282   1.131 -0.3098 -0.1333  0.0720
 6631TIP3    H119857   6.789   2.211   1.119  0.4090 -0.9100  0.6613
 6631TIP3    H219858   6.853   2.298   1.226 -2.2694  2.4084 -0.2571
 6632TIP3   OH219859   6.809   2.756   1.738  0.3375 -0.0937  0.4674
 6632TIP3    H119860   6.900   2.727   1.726 -0.0538 -0.5996 -1.5971
 6632TIP3    H219861   6.763   2.677   1.766 -0.1191 -0.8271 -2.0952
 6633TIP3   OH219862   4.892   1.244   1.681 -0.5111 -0.2744 -0.2134
 6633TIP3    H119863   4.929   1.164   1.643 -0.2215  0.2946 -1.1821
 6633TIP3    H219864   4.960   1.310   1.669  0.8528 -0.6556  4.0455
 6634TIP3   OH219865   4.867   4.194   3.925  0.3219 -0.5096 -0.1648
 6634TIP3    H119866   4.882   4.170   3.833  1.0895 -2.1828  0.3618
 6634TIP3    H219867   4.932   4.262   3.942  0.3057 -0.3248 -0.7989
 6635TIP3   OH219868   6.277   6.589   5.191  0.6217  0.1823  0.4492
 6635TIP3    H119869   6.350   6.534   5.220  0.2898 -0.1942  0.5745
 6635TIP3    H219870   6.318   6.673   5.171  1.4028 -0.5336 -1.2350
 6636TIP3   OH219871   1.066   1.963   1.195 -0.1413 -0.1915  0.2420
 6636TIP3    H119872   1.124   1.903   1.242  0.5415 -0.6905 -1.1727
 6636TIP3    H219873   1.078   1.941   1.102 -2.6277 -0.3097 -0.1192
 6637TIP3   OH219874   7.164   3.093   4.241  0.1518  0.1999  0.0650
 6637TIP3    H119875   7.072   3.066   4.238 -0.2391  1.3232  0.9476
 6637TIP3    H219876   7.207   3.041   4.174 -1.2802  0.1862 -0.8919
 6638TIP3   OH219877   0.863   5.061   3.802  0.2583 -0.2411  0.4267
 6638TIP3    H119878   0.851   5.030   3.892 -0.1522  0.2505  0.5460
 6638TIP3    H219879   0.933   5.127   3.809  1.2274 -1.2161  0.1526
 6639TIP3   OH219880   1.930   2.274   0.232  0.5535  0.1609  0.1448
 6639TIP3    H119881   1.982   2.352   0.215  0.7740  0.3887  1.7627
 6639TIP3    H219882   1.877   2.263   0.153  1.0249  1.5429 -0.3840
 6640TIP3   OH219883   7.040   6.539   0.733  0.7329  0.4017 -0.4685
 6640TIP3    H119884   6.980   6.554   0.807 -0.5844  0.9975 -1.6116
 6640TIP3    H219885   7.069   6.448   0.744  0.1360  0.3127  0.4830
 6641TIP3   OH219886   5.259   4.418   4.213 -0.0302  0.2191  0.0373
 6641TIP3    H119887   5.165   4.414   4.197 -0.1799  0.3030  0.8446
 6641TIP3    H219888   5.267   4.417   4.309  0.8009 -0.0558 -0.0290
 6642TIP3   OH219889   1.797   0.311   0.055  1.1824  0.7605 -0.1062
 6642TIP3    H119890   1.843   0.233   0.085 -0.0483  0.7924  2.0261
 6642TIP3    H219891   1.711   0.305   0.095 -0.1707  1.5266 -2.6607
 6643TIP3   OH219892   0.607   1.919   3.370  0.9121  0.0674  0.8578
 6643TIP3    H119893   0.622   1.843   3.426 -0.2349 -0.1714  0.8566
 6643TIP3    H219894   0.575   1.882   3.287  1.2549  0.5037  0.5240
 6644TIP3   OH219895   0.856   0.356   3.510  0.4433  0.1395  0.0155
 6644TIP3    H119896   0.829   0.398   3.591 -2.6471 -1.2734 -0.1210
 6644TIP3    H219897   0.774   0.338   3.464  1.5307 -4.5577 -0.6021
 6645TIP3   OH219898   3.067   0.983   0.303  0.4315 -0.3519  0.0231
 6645TIP3    H119899   3.123   0.913   0.336  0.3545  0.4673  2.0279
 6645TIP3    H219900   2.985   0.973   0.351  0.2882  0.8665  0.0674
 6646TIP3   OH219901   3.297   0.164   0.485 -0.0714  0.5732 -0.1548
 6646TIP3    H119902   3.298   0.129   0.574 -0.0859  0.3720 -0.2335
 6646TIP3    H219903   3.212   0.207   0.478 -0.9032 -1.0541 -0.6998
 6647TIP3   OH219904   7.127   6.367   1.512  0.7743  0.2730  0.3507
 6647TIP3    H119905   7.147   6.278   1.542  0.0124  0.8417  2.8049
 6647TIP3    H219906   7.040   6.359   1.472  1.5271 -0.3919 -1.2345
 6648TIP3   OH219907   5.647   4.681   1.883 -0.0223  0.1220  0.1029
 6648TIP3    H119908   5.674   4.700   1.973  0.4860  0.0935 -0.0379
 6648TIP3    H219909   5.684   4.594   1.865  1.6856  0.9850 -0.8214
 6649TIP3   OH219910   5.438   0.361   0.290  0.2515  0.0839 -0.1814
 6649TIP3    H119911   5.531   0.351   0.306  0.2234  0.6627  0.4041
 6649TIP3    H219912   5.396   0.313   0.361  0.0513 -2.6648 -2.0383
 6650TIP3   OH219913   6.085   4.543   0.279  0.3946 -0.4042 -0.0249
 6650TIP3    H119914   6.062   4.635   0.294  0.8496 -0.4264  0.8899
 6650TIP3    H219915   6.159   4.528   0.337  0.2482 -1.3904 -0.0845
 6651TIP3   OH219916   2.216   1.642   2.957  0.3431  0.1014 -0.2538
 6651TIP3    H119917   2.303   1.608   2.938 -0.2777 -1.3944 -0.5622
 6651TIP3    H219918   2.231   1.715   3.017  1.8280  0.2029 -0.7069
 6652TIP3   OH219919   1.620   3.928   3.376  0.0470 -0.2498 -0.1869
 6652TIP3    H119920   1.625   3.907   3.469  0.7820  0.0405 -0.1562
 6652TIP3    H219921   1.529   3.907   3.352 -0.0104 -0.7994  0.4711
 6653TIP3   OH219922   1.842   4.310   0.980 -0.3209  0.4862 -0.0491
 6653TIP3    H119923   1.865   4.378   1.043  1.2495 -0.1400  0.0770
 6653TIP3    H219924   1.862   4.228   1.024 -0.2591 -0.0011 -0.9483
 6654TIP3   OH219925   6.665   0.226   2.422 -0.3796 -0.4240  0.4269
 6654TIP3    H119926   6.616   0.180   2.354 -0.0301 -0.6983  0.3607
 6654TIP3    H219927   6.657   0.172   2.500  1.3021 -1.4113 -0.0313
 6655TIP3   OH219928   2.743   5.845   0.179 -0.0304 -0.2210 -0.8978
 6655TIP3    H119929   2.714   5.756   0.198  1.9328 -1.0797 -1.5945
 6655TIP3    H219930   2.753   5.886   0.265  0.3063 -1.1111 -0.5025
 6656TIP3   OH219931   5.928   2.691   4.331 -0.3963 -0.2452 -0.3188
 6656TIP3    H119932   5.889   2.684   4.418  0.7713 -1.3120  0.1501
 6656TIP3    H219933   5.983   2.614   4.323  0.6881  0.5992 -1.4116
 6657TIP3   OH219934   3.719   6.642   3.590 -0.0169  0.1236 -0.0360
 6657TIP3    H119935   3.641   6.637   3.645 -0.6483  0.6626 -0.8669
 6657TIP3    H219936   3.751   6.552   3.587 -1.1049 -0.2727 -0.3802
 6658TIP3   OH219937   0.799   1.740   4.733  0.0609 -0.0924  0.8798
 6658TIP3    H119938   0.755   1.824   4.723 -1.9833 -1.2883 -0.9024
 6658TIP3    H219939   0.843   1.726   4.649  1.7390 -0.1143  1.7257
 6659TIP3   OH219940   4.066   4.408   1.913 -0.3949 -1.0763 -0.1830
 6659TIP3    H119941   4.019   4.408   1.830  0.7714 -1.0917 -0.8699
 6659TIP3    H219942   4.080   4.316   1.933 -1.7872 -1.1140  0.7028
 6660TIP3   OH219943   2.335   6.740   3.854  0.0792  0.0853 -0.0015
 6660TIP3    H119944   2.273   6.677   3.818 -0.0989  0.8204 -1.0024
 6660TIP3    H219945   2.347   6.712   3.945 -0.1739 -1.2472 -0.3606
 6661TIP3   OH219946   2.340   5.004   3.773 -0.9644  0.2696 -0.3024
 6661TIP3    H119947   2.268   4.960   3.727  0.3108 -0.2142 -1.9001
 6661TIP3    H219948   2.349   5.088   3.729 -2.0827  1.3829  1.4660
 6662TIP3   OH219949   6.680   5.437   4.311 -0.2953 -0.0149  0.3763
 6662TIP3    H119950   6.647   5.439   4.401 -0.0709  0.9942  0.4473
 6662TIP3    H219951   6.775   5.445   4.321 -0.3224  0.8073  0.0257
 6663TIP3   OH219952   3.148   6.373   4.856 -0.1485 -0.5050 -0.2470
 6663TIP3    H119953   3.135   6.355   4.763 -0.1705  1.3923 -0.6590
 6663TIP3    H219954   3.090   6.447   4.874 -0.3855 -1.0572  1.3739
 6664TIP3   OH219955   0.994   2.449   4.562 -0.4666  0.0872 -0.3401
 6664TIP3    H119956   0.938   2.476   4.635 -0.2777  1.0131 -0.5230
 6664TIP3    H219957   1.068   2.405   4.603 -0.7451 -0.1019 -0.0288
 6665TIP3   OH219958   7.065   0.275   0.306  0.1155  0.0415  0.9359
 6665TIP3    H119959   7.126   0.245   0.239 -1.1914  0.5015 -0.5529
 6665TIP3    H219960   7.117   0.331   0.363  0.7249  2.2183 -1.5399
 6666TIP3   OH219961   3.109   4.026   0.208 -0.2913  0.4990 -0.1793
 6666TIP3    H119962   3.188   4.067   0.243 -0.7112  1.3024 -0.1381
 6666TIP3    H219963   3.140   3.973   0.134  0.6263 -1.3512  1.4518
 6667TIP3   OH219964   3.518   6.435   3.169  0.4983  0.2308 -0.1190
 6667TIP3    H119965   3.575   6.472   3.235  1.3700  0.4259 -0.9527
 6667TIP3    H219966   3.575   6.420   3.093  0.3391 -3.2291  0.2783
 6668TIP3   OH219967   0.887   2.888   4.028 -0.5215  0.4943 -0.3306
 6668TIP3    H119968   0.874   2.980   4.051 -2.2655  0.7440 -2.0676
 6668TIP3    H219969   0.951   2.890   3.956 -0.0941  0.2834  0.0388
 6669TIP3   OH219970   2.333   3.783   2.887 -0.3635 -0.2072  0.5720
 6669TIP3    H119971   2.404   3.739   2.934  0.8102 -3.9553 -3.9486
 6669TIP3    H219972   2.369   3.869   2.864  0.5854  0.0065  2.5774
 6670TIP3   OH219973   3.467   0.022   2.097 -0.2624 -0.0906  0.4212
 6670TIP3    H119974   3.371   0.022   2.101 -0.2822 -2.2730  1.9850
 6670TIP3    H219975   3.494   0.072   2.174 -0.0991  0.9602 -0.2937
 6671TIP3   OH219976   4.000   3.032   4.048  0.8979 -0.2585 -0.2169
 6671TIP3    H119977   4.026   3.014   4.139  0.5608  0.0903 -0.0483
 6671TIP3    H219978   3.909   3.002   4.043  0.2716  1.4841  0.1143
 6672TIP3   OH219979   4.572   4.096   1.736 -0.0490 -0.7458 -0.0020
 6672TIP3    H119980   4.553   4.151   1.659  0.1641 -0.6556  0.0078
 6672TIP3    H219981   4.649   4.137   1.775  0.1008 -1.0466  0.0151
 6673TIP3   OH219982   4.150   3.247   5.796 -0.1523  0.7314 -0.3089
 6673TIP3    H119983   4.103   3.219   5.717 -0.5042  0.1230  0.1015
 6673TIP3    H219984   4.216   3.179   5.810  1.6713  2.1839 -1.5414
 6674TIP3   OH219985   0.162   4.153   5.457  0.0856  0.0764  0.1257
 6674TIP3    H119986   0.222   4.122   5.388 -1.1367  0.5012 -1.1782
 6674TIP3    H219987   0.083   4.180   5.409 -0.4883  1.1742  1.6303
 6675TIP3   OH219988   0.087   6.450   5.356  0.1398  0.7639  0.5125
 6675TIP3    H119989   0.135   6.368   5.354 -2.1658 -0.7013  1.5503
 6675TIP3    H219990   0.153   6.516   5.375  2.0227 -0.8399 -0.1084
 6676TIP3   OH219991   5.853   0.500   5.283  0.3894  0.5000  0.4171
 6676TIP3    H119992   5.781   0.541   5.235 -0.3159 -0.2228  0.8202
 6676TIP3    H219993   5.925   0.495   5.221 -0.5783 -0.6310 -0.6665
 6677TIP3   OH219994   5.765   1.131   5.555  0.0510 -0.0622  0.0173
 6677TIP3    H119995   5.731   1.043   5.539 -0.7487  0.4564 -1.2270
 6677TIP3    H219996   5.799   1.159   5.470  6.5893 -1.6811  1.4992
 6678TIP3   OH219997   3.107   1.915   4.666 -0.0686  0.0882  0.0023
 6678TIP3    H119998   3.129   1.849   4.731  0.5066 -0.4914 -0.7556
 6678TIP3    H219999   3.176   1.981   4.675 -0.4085  0.3859  0.4751
 6679TIP3   OH220000   5.439   3.025   2.844  0.0001 -0.2594  0.2340
 6679TIP3    H120001   5.446   2.979   2.761 -1.4912 -0.4731  0.2098
 6679TIP3    H220002   5.429   2.956   2.909  2.1169 -0.1485  0.7531
 6680TIP3   OH220003   7.116   5.307   3.007  0.0704 -0.2804  0.8332
 6680TIP3    H120004   7.103   5.350   2.923 -1.9187  2.2033  2.2923
 6680TIP3    H220005   7.163   5.370   3.060  1.0962 -1.7220  1.7198
 6681TIP3   OH220006   4.126   1.358   0.528  0.1647 -0.6591  0.1997
 6681TIP3    H120007   4.082   1.273   0.530  0.3180 -0.7313  0.4877
 6681TIP3    H220008   4.119   1.391   0.617  0.2759 -0.4550  0.1331
 6682TIP3   OH220009   0.938   5.984   1.442  0.0773 -0.8067  0.6976
 6682TIP3    H120010   0.892   5.923   1.500  0.6510 -0.6612  1.3145
 6682TIP3    H220011   0.892   6.067   1.454  0.9278 -0.4726  1.8859
 6683TIP3   OH220012   2.750   1.314   5.799  0.1027  0.0276  0.1689
 6683TIP3    H120013   2.830   1.357   5.828  0.1645 -0.0265  0.0780
 6683TIP3    H220014   2.779   1.230   5.763  0.1549  0.5655 -1.1047
 6684TIP3   OH220015   1.073   3.575   0.688 -0.0534  0.1296 -0.5785
 6684TIP3    H120016   1.096   3.563   0.596 -0.8010 -0.0223 -0.7483
 6684TIP3    H220017   1.017   3.501   0.710 -0.9304  0.8340 -0.3640
 6685TIP3   OH220018   4.249   6.336   0.144  0.0710  0.4338  0.1812
 6685TIP3    H120019   4.187   6.386   0.197 -0.2553 -0.2836  0.4979
 6685TIP3    H220020   4.231   6.245   0.167 -0.0354  0.1089 -1.1239
 6686TIP3   OH220021   0.520   3.526   1.822 -0.4941  0.2172  0.3305
 6686TIP3    H120022   0.524   3.620   1.841 -0.2791  0.1605  0.5754
 6686TIP3    H220023   0.518   3.484   1.908  0.9221 -0.0645  0.2548
 6687TIP3   OH220024   6.057   1.126   2.351 -0.0829 -0.3638 -0.3494
 6687TIP3    H120025   5.974   1.168   2.328 -0.4688 -1.3756 -0.8417
 6687TIP3    H220026   6.124   1.183   2.313 -0.5723  0.0733 -0.5741
 6688TIP3   OH220027   5.102   2.110   0.487 -0.8103  0.6431 -0.0552
 6688TIP3    H120028   5.090   2.051   0.562 -0.6419  2.3335  1.3467
 6688TIP3    H220029   5.091   2.053   0.411  4.2516 -2.3543  1.0353
 6689TIP3   OH220030   6.933   2.035   2.454  0.3829  0.2890  0.0567
 6689TIP3    H120031   6.958   1.982   2.378  0.4509 -0.0835  0.3364
 6689TIP3    H220032   6.881   2.106   2.417 -0.4234 -0.4386 -0.2388
 6690TIP3   OH220033   6.160   3.941   1.991 -0.0435 -0.3118  0.3049
 6690TIP3    H120034   6.129   3.934   2.081 -0.9479  0.4091  0.0695
 6690TIP3    H220035   6.124   3.864   1.947 -0.1931 -0.2985  0.4028
 6691TIP3   OH220036   0.995   5.241   5.025  0.3109  0.2384  0.3670
 6691TIP3    H120037   1.032   5.152   5.022 -1.3044 -0.4975  1.0365
 6691TIP3    H220038   0.919   5.237   4.967  0.5690  1.3799 -0.0668
 6692TIP3   OH220039   5.632   3.598   0.839 -0.1682  0.6145  0.4418
 6692TIP3    H120040   5.711   3.634   0.799 -1.0945  1.2270 -0.9143
 6692TIP3    H220041   5.562   3.656   0.809 -1.1706 -0.0595  1.4122
 6693TIP3   OH220042   1.491   2.941   1.312  0.0089  0.3394 -0.0637
 6693TIP3    H120043   1.501   2.927   1.406  0.3960 -0.5007 -0.2224
 6693TIP3    H220044   1.544   3.019   1.293 -0.1719  0.5816  0.4325
 6694TIP3   OH220045   5.030   5.011   4.556 -0.3239 -0.8258  0.2385
 6694TIP3    H120046   4.943   5.011   4.518 -0.5356 -1.0991  0.7150
 6694TIP3    H220047   5.016   4.991   4.648  0.0724  0.9493  0.7312
 6695TIP3   OH220048   4.560   4.260   1.501  0.9701 -0.7777  0.4644
 6695TIP3    H120049   4.608   4.211   1.435  1.9331 -0.6281  1.0268
 6695TIP3    H220050   4.469   4.257   1.472  1.2417 -1.5042 -0.3633
 6696TIP3   OH220051   6.870   2.019   0.772 -0.3476 -0.0781 -0.4244
 6696TIP3    H120052   6.861   1.925   0.756  0.0527  0.0647 -1.5610
 6696TIP3    H220053   6.907   2.025   0.860 -0.8174 -0.9665 -0.1604
 6697TIP3   OH220054   5.940   6.591   1.114  0.3778 -0.1815  0.3763
 6697TIP3    H120055   5.911   6.646   1.042  1.3968  1.2474  1.0030
 6697TIP3    H220056   5.867   6.532   1.131 -0.2124  0.0522 -1.2274
 6698TIP3   OH220057   6.375   0.144   4.092 -0.0884 -0.2646  0.2961
 6698TIP3    H120058   6.315   0.169   4.162  1.1793 -1.0330  1.6994
 6698TIP3    H220059   6.439   0.087   4.134  2.1022  1.1266 -0.9689
 6699TIP3   OH220060   3.339   0.274   0.799  0.2557 -0.0535 -0.5309
 6699TIP3    H120061   3.419   0.326   0.813  0.8981 -1.0113 -0.5689
 6699TIP3    H220062   3.370   0.191   0.763 -0.9845  0.8231 -4.1254
 6700TIP3   OH220063   1.300   0.099   5.041  0.1440  0.0324  0.6238
 6700TIP3    H120064   1.237   0.032   5.068 -0.9706  1.5742  2.0465
 6700TIP3    H220065   1.372   0.091   5.104  0.6662 -0.6887 -0.0416
 6701TIP3   OH220066   7.095   2.782   0.123  0.1876  0.7665 -0.7206
 6701TIP3    H120067   7.132   2.862   0.159 -2.1829  1.2394  0.8800
 6701TIP3    H220068   7.154   2.713   0.154  0.2878  1.5501  0.9728
 6702TIP3   OH220069   5.394   0.921   2.970 -0.2260  0.0437  0.3636
 6702TIP3    H120070   5.343   0.981   3.024  0.5853  1.1940 -0.1109
 6702TIP3    H220071   5.484   0.931   3.001 -0.1445 -1.4058  0.6884
 6703TIP3   OH220072   3.604   0.846   5.724 -0.0712 -0.3563 -0.3811
 6703TIP3    H120073   3.622   0.924   5.775 -0.6014 -0.6526  0.2698
 6703TIP3    H220074   3.678   0.787   5.743  0.0949 -0.1933 -0.5191
 6704TIP3   OH220075   2.988   6.222   1.947 -0.9329  0.1180 -0.0570
 6704TIP3    H120076   2.964   6.313   1.968 -2.1487  0.2115 -1.6802
 6704TIP3    H220077   3.048   6.230   1.872  0.9981 -0.3369  1.3621
 6705TIP3   OH220078   6.118   1.650   1.374 -0.4149 -0.2466 -0.2939
 6705TIP3    H120079   6.175   1.720   1.404  1.7626 -1.0118 -2.3500
 6705TIP3    H220080   6.088   1.607   1.454  1.4509  0.5434  0.8860
 6706TIP3   OH220081   5.937   4.943   2.482 -0.2867 -0.4055  0.1667
 6706TIP3    H120082   5.959   4.952   2.389 -1.3112  2.6539  0.0894
 6706TIP3    H220083   6.012   4.899   2.521  0.6778 -0.7253 -1.9114
 6707TIP3   OH220084   4.019   6.290   3.908  0.9607 -0.0831  0.2550
 6707TIP3    H120085   3.946   6.239   3.874  2.6212 -1.7129 -1.0892
 6707TIP3    H220086   4.029   6.362   3.845  0.1332  0.5287  0.8077
 6708TIP3   OH220087   2.286   4.858   2.373  0.0695  0.6320 -0.1139
 6708TIP3    H120088   2.380   4.875   2.366  0.2739 -0.2043  0.4991
 6708TIP3    H220089   2.275   4.771   2.336 -0.7596  1.4626 -1.9252
 6709TIP3   OH220090   1.911   4.699   0.095 -0.4983  0.2192 -0.3939
 6709TIP3    H120091   1.834   4.678   0.043 -0.3642 -0.2723 -0.4027
 6709TIP3    H220092   1.897   4.652   0.178  0.1699 -0.5549 -0.7025
 6710TIP3   OH220093   2.256   0.401   1.413  0.0626  0.1433  0.0550
 6710TIP3    H120094   2.281   0.475   1.358  0.9052 -0.6991 -0.7404
 6710TIP3    H220095   2.271   0.324   1.358 -0.5831 -0.6353  0.9330
 6711TIP3   OH220096   0.628   0.738   4.180  0.1502  0.3732 -0.9245
 6711TIP3    H120097   0.539   0.763   4.157 -0.0769  0.9469  0.4767
 6711TIP3    H220098   0.669   0.819   4.210 -0.9162 -0.7983  4.7188
 6712TIP3   OH220099   3.815   6.037   5.151  0.4664  0.5910  0.2204
 6712TIP3    H120100   3.887   6.078   5.199  1.3109  0.3965 -0.8328
 6712TIP3    H220101   3.795   5.957   5.200  0.8086  0.7645  0.6435
 6713TIP3   OH220102   0.122   0.692   2.180  0.0507 -0.0991  0.3220
 6713TIP3    H120103   0.118   0.602   2.146  3.2777 -0.3989  0.4558
 6713TIP3    H220104   0.104   0.682   2.273 -0.0670 -0.5581  0.2550
 6714TIP3   OH220105   3.940   5.164   4.251 -0.3639 -0.1967  0.4613
 6714TIP3    H120106   3.905   5.087   4.207 -0.7283  1.0321 -1.5250
 6714TIP3    H220107   3.889   5.238   4.216  0.0521  0.9836  2.1911
 6715TIP3   OH220108   6.540   3.336   2.616 -0.6362 -0.2422  0.1199
 6715TIP3    H120109   6.560   3.258   2.564 -3.1509 -0.8095 -0.1239
 6715TIP3    H220110   6.450   3.322   2.648 -0.5480  1.7961  1.4895
 6716TIP3   OH220111   0.185   1.905   0.700 -0.0649 -0.1672 -0.3458
 6716TIP3    H120112   0.257   1.933   0.644  1.9974 -4.0606 -0.0213
 6716TIP3    H220113   0.212   1.929   0.788  0.3562 -0.6981 -0.3273
 6717TIP3   OH220114   6.640   4.706   1.561  0.2141  0.2410  0.1733
 6717TIP3    H120115   6.581   4.639   1.596 -0.2174  0.7339  0.4112
 6717TIP3    H220116   6.589   4.788   1.568 -0.1234  0.2887 -2.0731
 6718TIP3   OH220117   3.300   3.906   5.795  0.0680 -0.3496  0.8035
 6718TIP3    H120118   3.317   3.812   5.782  0.2864 -0.4379  1.6870
 6718TIP3    H220119   3.241   3.910   5.870  0.4542  0.2431  1.0865
 6719TIP3   OH220120   6.491   0.956   3.531 -0.5449 -0.1312 -0.3416
 6719TIP3    H120121   6.586   0.942   3.524 -0.8189 -1.8436 -0.9898
 6719TIP3    H220122   6.468   0.999   3.448 -0.4358 -0.2450 -0.4309
 6720TIP3   OH220123   5.062   1.602   4.527  0.5625  0.5141  0.1883
 6720TIP3    H120124   5.020   1.519   4.550  1.0058  0.1406 -0.3324
 6720TIP3    H220125   5.017   1.630   4.447 -0.4417  1.4166  1.0382
 6721TIP3   OH220126   6.399   0.228   2.082  0.0068  0.0061  0.1465
 6721TIP3    H120127   6.358   0.145   2.104 -0.3257 -0.0106 -0.5061
 6721TIP3    H220128   6.489   0.204   2.058 -0.3849 -0.3283 -1.0999
 6722TIP3   OH220129   5.175   4.252   3.061  0.0274 -0.2938 -0.4385
 6722TIP3    H120130   5.112   4.302   3.010 -0.2665  0.2213  0.4071
 6722TIP3    H220131   5.172   4.164   3.024 -1.7621 -0.4821  0.0855
 6723TIP3   OH220132   5.220   4.813   4.634 -0.3786 -0.0041  0.2328
 6723TIP3    H120133   5.172   4.882   4.589 -0.7273 -1.3017 -1.4825
 6723TIP3    H220134   5.179   4.732   4.605  0.8956 -1.0104  1.1217
 6724TIP3   OH220135   4.485   4.413   4.200  0.1042  0.4396 -0.5727
 6724TIP3    H120136   4.539   4.464   4.141  2.0182 -0.8074 -0.0104
 6724TIP3    H220137   4.446   4.345   4.145 -0.0406  0.7005 -0.7949
 6725TIP3   OH220138   6.098   2.950   2.748  0.3077 -0.1550  0.1794
 6725TIP3    H120139   6.036   2.894   2.702  0.3318 -0.1338  0.1211
 6725TIP3    H220140   6.107   2.910   2.835 -0.4065  0.2940  0.4732
 6726TIP3   OH220141   5.504   4.530   5.368  0.4238 -0.2750 -0.0299
 6726TIP3    H120142   5.413   4.560   5.371 -0.5029 -2.8260 -0.4561
 6726TIP3    H220143   5.518   4.489   5.454  2.0417  2.1476  0.9914
 6727TIP3   OH220144   6.137   3.077   3.543  0.0072 -0.3155 -0.0483
 6727TIP3    H120145   6.106   3.166   3.561 -2.3632 -1.3153  1.3001
 6727TIP3    H220146   6.162   3.079   3.451 -0.7359  1.5648 -0.2708
 6728TIP3   OH220147   6.778   4.283   1.131  0.2942 -0.3545 -0.3279
 6728TIP3    H120148   6.859   4.330   1.151 -0.2488  0.1949  0.6956
 6728TIP3    H220149   6.806   4.193   1.113  1.4123  0.4335 -2.8488
 6729TIP3   OH220150   4.881   2.612   0.192  0.9108  0.1893  0.5094
 6729TIP3    H120151   4.903   2.533   0.142  2.9441  2.1276 -1.8920
 6729TIP3    H220152   4.787   2.625   0.176  0.8061 -1.0693 -0.0234
 6730TIP3   OH220153   3.367   4.368   1.053 -0.6663 -0.3860 -0.1938
 6730TIP3    H120154   3.437   4.433   1.051 -1.6450  0.7200  0.4070
 6730TIP3    H220155   3.356   4.343   0.962 -0.5734  0.6389 -0.5055
 6731TIP3   OH220156   2.360   1.357   0.409 -0.2410  0.6343 -0.6100
 6731TIP3    H120157   2.364   1.424   0.477 -0.2624 -0.5490  0.5903
 6731TIP3    H220158   2.278   1.311   0.425 -0.4074  0.5317 -1.6539
 6732TIP3   OH220159   6.650   5.395   5.364  0.2225 -0.1981  0.1036
 6732TIP3    H120160   6.570   5.382   5.314  1.3157 -1.2075 -1.4761
 6732TIP3    H220161   6.649   5.325   5.430 -0.7937  0.6021  0.9772
 6733TIP3   OH220162   6.025   5.091   3.831  0.3153 -0.4077  0.0813
 6733TIP3    H120163   5.964   5.158   3.801  0.4512 -0.8653 -1.3100
 6733TIP3    H220164   5.980   5.050   3.905 -1.4597 -1.2237 -1.3502
 6734TIP3   OH220165   0.514   0.124   2.940  0.0835  0.0571  0.2524
 6734TIP3    H120166   0.585   0.068   2.972 -0.2450 -0.8386 -0.5540
 6734TIP3    H220167   0.442   0.064   2.925 -0.1665  0.6433 -0.9766
 6735TIP3   OH220168   2.155   6.497   3.422  0.3112 -0.3774 -0.0884
 6735TIP3    H120169   2.125   6.509   3.332  1.4517 -1.0971 -0.5722
 6735TIP3    H220170   2.098   6.555   3.473 -0.4953 -0.1210 -1.2326
 6736TIP3   OH220171   1.387   6.484   5.756  0.1577  0.1051 -0.4452
 6736TIP3    H120172   1.347   6.436   5.684 -0.0585  0.0960 -0.3189
 6736TIP3    H220173   1.459   6.428   5.785  1.7353  1.1574 -2.1734
 6737TIP3   OH220174   6.401   1.908   0.183  0.2485  0.3779 -0.4479
 6737TIP3    H120175   6.380   1.836   0.123  0.4804 -0.8395  0.8475
 6737TIP3    H220176   6.346   1.890   0.260  2.7682 -0.4001  1.2866
 6738TIP3   OH220177   3.834   0.401   5.103 -0.2090  0.5174  0.4089
 6738TIP3    H120178   3.897   0.473   5.103 -2.1251  2.3632 -1.6190
 6738TIP3    H220179   3.754   0.439   5.139 -1.4406 -0.3644 -1.2518
 6739TIP3   OH220180   5.572   5.997   5.350  0.6466  0.1549 -0.3198
 6739TIP3    H120181   5.482   5.987   5.380  1.3793  0.6466  2.2756
 6739TIP3    H220182   5.597   6.086   5.376  2.4811 -0.6424  0.8607
 6740TIP3   OH220183   6.357   2.857   1.046 -0.5239 -0.3239 -0.0934
 6740TIP3    H120184   6.329   2.813   1.126 -0.8907  0.6398  0.3281
 6740TIP3    H220185   6.276   2.894   1.010 -0.3053 -0.4648 -0.7330
 6741TIP3   OH220186   5.426   4.221   4.869 -0.4491  0.2973  1.0603
 6741TIP3    H120187   5.336   4.222   4.835 -0.8987  0.3827  2.1906
 6741TIP3    H220188   5.428   4.144   4.927  0.4083 -0.0780  0.5500
 6742TIP3   OH220189   5.661   2.540   0.551  0.0019  0.1854  0.4008
 6742TIP3    H120190   5.741   2.543   0.604  1.4185 -2.4563 -1.3324
 6742TIP3    H220191   5.693   2.543   0.460 -1.9841  0.1293 -0.3441
 6743TIP3   OH220192   0.459   4.317   1.317  0.5162  0.8909 -0.1822
 6743TIP3    H120193   0.503   4.316   1.232  0.6977  1.7024 -0.1073
 6743TIP3    H220194   0.368   4.338   1.297  0.1765 -0.6158 -0.3210
 6744TIP3   OH220195   0.986   3.774   1.607  0.7921  0.3644 -0.2150
 6744TIP3    H120196   0.991   3.823   1.689  0.5168  0.6235 -0.3495
 6744TIP3    H220197   0.941   3.834   1.547  1.4142  0.3574 -0.6918
 6745TIP3   OH220198   5.782   4.745   2.636  0.4871  0.3770  0.1851
 6745TIP3    H120199   5.820   4.710   2.555  0.6824  0.2517  0.3303
 6745TIP3    H220200   5.688   4.751   2.618  0.4711 -0.1038  0.1160
 6746TIP3   OH220201   5.377   2.803   2.996  0.1879  0.1905  0.2997
 6746TIP3    H120202   5.324   2.735   3.036 -0.4488  1.6914  2.1840
 6746TIP3    H220203   5.466   2.785   3.027  0.0634  0.0586  0.5851
 6747TIP3   OH220204   5.970   3.151   0.672  0.5777 -0.0691  0.3352
 6747TIP3    H120205   5.964   3.055   0.674  2.2251 -0.2831 -1.5693
 6747TIP3    H220206   6.031   3.169   0.600  1.2513  2.3758  1.4314
 6748TIP3   OH220207   5.232   3.250   2.951 -0.1777 -0.4487 -0.5551
 6748TIP3    H120208   5.318   3.207   2.953  1.2071  2.0927  1.4485
 6748TIP3    H220209   5.178   3.197   3.011 -0.0897 -2.0807 -1.8399
 6749TIP3   OH220210   4.226   4.098   2.447 -0.3162 -0.0511 -0.1720
 6749TIP3    H120211   4.257   4.099   2.537 -0.8565 -1.3094  0.0622
 6749TIP3    H220212   4.206   4.189   2.426  1.3627  0.4705  0.4081
 6750TIP3   OH220213   3.999   0.492   1.365  0.2192 -0.0589 -0.2059
 6750TIP3    H120214   4.016   0.545   1.287 -0.1549 -0.6448 -0.6965
 6750TIP3    H220215   3.935   0.543   1.415  0.6420  0.4316 -0.1565
 6751TIP3   OH220216   0.374   1.320   0.137  0.2367 -0.4163 -0.1689
 6751TIP3    H120217   0.280   1.330   0.149  0.1629 -0.6570 -0.5346
 6751TIP3    H220218   0.385   1.302   0.044  0.6745 -0.0435 -0.1909
 6752TIP3   OH220219   5.473   1.669   0.840 -0.3506  0.8597 -0.6459
 6752TIP3    H120220   5.438   1.745   0.793 -2.9497  0.3890  0.3873
 6752TIP3    H220221   5.402   1.604   0.838  1.5724 -1.3778 -0.9958
 6753TIP3   OH220222   3.890   4.929   0.746 -0.2244  0.0354 -0.0802
 6753TIP3    H120223   3.833   4.980   0.689 -1.5001  0.1998  1.2669
 6753TIP3    H220224   3.978   4.942   0.711 -0.5387  2.8501 -0.0190
 6754TIP3   OH220225   6.839   0.538   0.935  0.1248  0.1008  0.2317
 6754TIP3    H120226   6.771   0.596   0.900 -0.5087 -0.8586 -0.2007
 6754TIP3    H220227   6.800   0.499   1.013 -0.5072 -1.6912 -0.9093
 6755TIP3   OH220228   6.331   4.224   4.140  0.1496  0.1823  0.3310
 6755TIP3    H120229   6.382   4.165   4.196 -0.4557  1.0873  1.8712
 6755TIP3    H220230   6.395   4.284   4.103  0.4981 -0.1671  0.3650
 6756TIP3   OH220231   1.455   5.706   0.180 -0.2030 -0.3714 -0.2087
 6756TIP3    H120232   1.382   5.758   0.144 -0.5770 -1.4308 -1.0233
 6756TIP3    H220233   1.462   5.631   0.121  2.1159  0.1195 -0.6334
 6757TIP3   OH220234   0.406   0.033   5.029  0.3447 -0.3543  0.1352
 6757TIP3    H120235   0.347   0.033   4.954  1.3012  0.2765 -0.6321
 6757TIP3    H220236   0.486  -0.009   4.998  1.1140  0.7829  0.4791
 6758TIP3   OH220237   5.731   3.881   1.651  0.0175 -0.7290 -0.3700
 6758TIP3    H120238   5.777   3.848   1.574 -0.8509 -2.1676 -0.2977
 6758TIP3    H220239   5.724   3.806   1.710 -0.4667  0.0223  0.5728
 6759TIP3   OH220240   0.777   3.331   2.269 -0.0600 -0.4236 -0.4885
 6759TIP3    H120241   0.687   3.339   2.237 -0.2350  0.2376  0.1367
 6759TIP3    H220242   0.831   3.328   2.190 -0.6449 -1.0362 -0.8689
 6760TIP3   OH220243   2.130   0.288   2.875  0.6764  0.2430 -0.3658
 6760TIP3    H120244   2.124   0.233   2.796  2.0740  0.8030 -0.8771
 6760TIP3    H220245   2.079   0.240   2.940  1.2011 -1.2725 -1.0224
 6761TIP3   OH220246   1.695   6.600   2.558 -0.3033 -0.2936 -0.2162
 6761TIP3    H120247   1.639   6.617   2.634 -0.1213 -1.7369  0.2655
 6761TIP3    H220248   1.649   6.642   2.485 -0.9487  0.3139  0.5178
 6762TIP3   OH220249   1.156   4.312   2.959 -0.1271 -0.3642 -0.5716
 6762TIP3    H120250   1.117   4.225   2.963 -0.6154 -0.1010  0.5517
 6762TIP3    H220251   1.098   4.362   2.901 -1.0013 -0.2170  0.4071
 6763TIP3   OH220252   3.458   0.711   4.111  0.0265 -0.1112 -0.0221
 6763TIP3    H120253   3.534   0.689   4.057  0.8361  0.7369  0.7425
 6763TIP3    H220254   3.435   0.629   4.155  0.0271 -0.5445 -0.7994
 6764TIP3   OH220255   4.485   0.365   0.076  0.1859 -0.4470 -0.3564
 6764TIP3    H120256   4.573   0.395   0.053  0.3492  1.6078  2.4019
 6764TIP3    H220257   4.496   0.274   0.101  1.1010 -0.8173 -1.9713
 6765TIP3   OH220258   4.188   2.151   0.322  0.1981 -0.6840 -0.4037
 6765TIP3    H120259   4.239   2.143   0.242  0.2997 -0.4685 -0.3612
 6765TIP3    H220260   4.148   2.238   0.316  0.4349 -0.5502 -0.0906
 6766TIP3   OH220261   4.896   3.478   1.454 -0.5403  0.1865 -0.6552
 6766TIP3    H120262   4.977   3.494   1.404 -1.3649 -0.3184 -2.2073
 6766TIP3    H220263   4.836   3.546   1.425 -0.5527  0.8599  0.8553
 6767TIP3   OH220264   4.237   1.454   1.863  0.0052  0.3340  0.1567
 6767TIP3    H120265   4.308   1.462   1.799  0.7439 -0.2502  0.8639
 6767TIP3    H220266   4.215   1.545   1.885  0.8193  0.5304  0.2155
 6768TIP3   OH220267   5.613   0.489   0.951  0.8252  0.2689  0.1915
 6768TIP3    H120268   5.576   0.417   1.003  1.9760 -0.0671  0.5937
 6768TIP3    H220269   5.540   0.549   0.937  0.0715 -0.5029  0.6913
 6769TIP3   OH220270   3.169   3.757   5.345  0.0153  0.5907  0.1521
 6769TIP3    H120271   3.147   3.687   5.407  0.8100  1.7112  1.7712
 6769TIP3    H220272   3.183   3.834   5.400 -1.0173  2.1019 -1.5874
 6770TIP3   OH220273   1.871   0.482   0.864  0.2700 -0.4354  0.1104
 6770TIP3    H120274   1.895   0.531   0.785  2.1068 -1.2388  0.1397
 6770TIP3    H220275   1.892   0.391   0.844 -0.2396 -0.8075  1.1601
 6771TIP3   OH220276   3.774   2.755   1.314  0.3666  0.8277  0.0341
 6771TIP3    H120277   3.819   2.682   1.358 -0.3810  0.4723  0.2298
 6771TIP3    H220278   3.787   2.830   1.373 -0.1662  0.4803  0.6119
 6772TIP3   OH220279   3.137   3.649   2.237  0.2537 -0.0398  0.4848
 6772TIP3    H120280   3.197   3.683   2.303 -0.2992  0.1626  0.8876
 6772TIP3    H220281   3.103   3.568   2.276  0.0855 -0.0292  0.3595
 6773TIP3   OH220282   3.458   1.608   4.435 -0.1580 -0.0449 -0.2941
 6773TIP3    H120283   3.500   1.667   4.372 -0.8680  0.7919 -0.0174
 6773TIP3    H220284   3.365   1.631   4.430 -0.0029  1.8978  2.8618
 6774TIP3   OH220285   3.806   4.554   1.355  0.0568 -0.3930  0.6517
 6774TIP3    H120286   3.722   4.581   1.390 -1.0229 -0.9763 -1.3181
 6774TIP3    H220287   3.868   4.568   1.427 -1.9150 -1.2337  2.6361
 6775TIP3   OH220288   0.774   1.314   2.265  0.1463  0.2906 -0.5268
 6775TIP3    H120289   0.690   1.345   2.301  0.3791 -1.0779  1.3152
 6775TIP3    H220290   0.779   1.354   2.178 -2.4252  0.3984 -0.6951
 6776TIP3   OH220291   6.082   4.262   4.801  0.0999 -0.3306 -0.0494
 6776TIP3    H120292   6.126   4.209   4.734  0.2912  0.4775 -0.5764
 6776TIP3    H220293   6.152   4.313   4.842  0.3898 -2.5117  2.4595
 6777TIP3   OH220294   4.560   2.454   5.687  0.7267 -0.0032 -0.2204
 6777TIP3    H120295   4.576   2.366   5.722 -0.7370 -0.2235 -0.0404
 6777TIP3    H220296   4.513   2.440   5.605  3.7388  0.5287 -2.2163
 6778TIP3   OH220297   4.105   3.548   2.974 -0.2622  0.3029 -0.2221
 6778TIP3    H120298   4.194   3.575   2.994  0.4271 -1.1843 -1.1364
 6778TIP3    H220299   4.086   3.478   3.037 -1.2892  1.4672  0.8197
 6779TIP3   OH220300   6.781   3.493   0.742  0.4216 -0.4007 -0.6660
 6779TIP3    H120301   6.779   3.587   0.724  0.3553 -0.0690  0.9157
 6779TIP3    H220302   6.807   3.453   0.659  3.3527  1.1999 -0.6329
 6780TIP3   OH220303   3.751   2.786   0.775  0.4143  0.3213 -0.3210
 6780TIP3    H120304   3.794   2.769   0.858 -0.0468 -0.8749 -0.3163
 6780TIP3    H220305   3.658   2.794   0.797  0.2142 -0.6308 -0.7991
 6781TIP3   OH220306   6.945   1.740   2.526  0.1916 -0.1458 -0.0607
 6781TIP3    H120307   7.002   1.733   2.450  0.1012 -1.6692 -0.0150
 6781TIP3    H220308   6.860   1.766   2.489  0.4270  0.2372 -0.3428
 6782TIP3   OH220309   2.052   4.578   5.230  0.4902 -0.1616 -0.3328
 6782TIP3    H120310   1.965   4.613   5.209  1.2953  2.6941  0.7020
 6782TIP3    H220311   2.039   4.529   5.311 -0.2843 -0.4319 -0.6050
 6783TIP3   OH220312   3.688   3.744   3.056  0.4795  0.7904  0.4071
 6783TIP3    H120313   3.713   3.827   3.096 -0.3489  1.6943 -0.8645
 6783TIP3    H220314   3.597   3.731   3.082  0.4939  0.4493  0.3011
 6784TIP3   OH220315   4.873   1.217   4.833  0.7284 -0.1586 -0.3146
 6784TIP3    H120316   4.797   1.264   4.798 -0.1385 -0.8624  0.5404
 6784TIP3    H220317   4.836   1.136   4.869  2.2459 -1.7582 -2.1744
 6785TIP3   OH220318   4.934   1.230   5.560  0.0740 -0.4930  0.1390
 6785TIP3    H120319   4.901   1.222   5.650  1.0257 -1.1037  0.4485
 6785TIP3    H220320   4.895   1.311   5.528  1.3366  0.8615  1.8189
 6786TIP3   OH220321   0.783   4.048   1.112 -0.1777  0.3515 -0.2009
 6786TIP3    H120322   0.739   4.069   1.194  1.7299 -0.3970  1.0937
 6786TIP3    H220323   0.817   3.960   1.125 -1.2620 -0.4711 -2.4897
 6787TIP3   OH220324   2.719   6.471   2.073  0.4306  0.4053  0.0978
 6787TIP3    H120325   2.732   6.476   1.978  1.0739  1.3887  0.2260
 6787TIP3    H220326   2.635   6.425   2.083  1.0918 -1.1251 -0.8996
 6788TIP3   OH220327   0.803   6.786   1.576  0.1130  0.4338  0.5485
 6788TIP3    H120328   0.802   6.694   1.603  1.2816  0.8331  2.0553
 6788TIP3    H220329   0.865   6.789   1.503 -0.7775 -0.1400 -0.2578
 6789TIP3   OH220330   3.800   5.988   1.335  0.0136 -0.0216  0.3348
 6789TIP3    H120331   3.838   6.010   1.420  0.4994  0.2063  0.0642
 6789TIP3    H220332   3.801   6.070   1.286  2.0854 -0.6150 -0.7711
 6790TIP3   OH220333   1.907   6.054   4.028  0.2136 -0.5165  0.5880
 6790TIP3    H120334   1.927   6.139   3.987 -0.7116 -0.2625  0.6481
 6790TIP3    H220335   1.920   6.069   4.122  0.5335 -0.5853  0.5567
 6791TIP3   OH220336   5.964   6.268   5.141 -0.3790 -0.1659  0.0440
 6791TIP3    H120337   5.978   6.359   5.118  0.8787  0.0082  1.3848
 6791TIP3    H220338   5.944   6.270   5.235  1.8615 -1.4068  0.6211
 6792TIP3   OH220339   2.079   2.709   0.760 -0.8005  0.8685 -0.2671
 6792TIP3    H120340   2.094   2.718   0.666  0.0049  0.0288 -0.2314
 6792TIP3    H220341   2.065   2.615   0.774 -0.8720  0.9753  0.4583
 6793TIP3   OH220342   2.831   0.885   4.190  0.0552 -0.3809  0.5011
 6793TIP3    H120343   2.831   0.793   4.219  0.9292 -0.3607  0.6089
 6793TIP3    H220344   2.918   0.917   4.214  0.0526  0.2415 -0.2854
 6794TIP3   OH220345   0.772   3.643   5.289  0.3022 -0.0536 -0.4900
 6794TIP3    H120346   0.759   3.704   5.362 -0.1869  1.1963 -1.5913
 6794TIP3    H220347   0.810   3.565   5.330  1.3741  1.1338  0.9013
 6795TIP3   OH220348   5.871   5.556   1.162 -0.0720 -0.5174 -0.0458
 6795TIP3    H120349   5.788   5.603   1.155 -0.0801 -0.3919  0.7905
 6795TIP3    H220350   5.917   5.575   1.080 -1.7271 -2.2873 -1.4667
 6796TIP3   OH220351   4.398   0.228   2.410  0.0439  0.3547 -0.2266
 6796TIP3    H120352   4.430   0.317   2.394  0.9585  0.0967  0.1321
 6796TIP3    H220353   4.469   0.171   2.380 -0.3876 -0.2507 -0.1104
 6797TIP3   OH220354   4.008   5.595   2.568  0.4815 -0.4303 -0.2442
 6797TIP3    H120355   4.015   5.681   2.527  3.6583 -0.9176 -0.9829
 6797TIP3    H220356   3.928   5.558   2.532 -0.7533  2.0055 -0.2234
 6798TIP3   OH220357   4.440   3.316   2.689 -0.2949 -0.4707 -0.2403
 6798TIP3    H120358   4.534   3.303   2.698 -0.1364  0.5715 -0.3350
 6798TIP3    H220359   4.407   3.319   2.779 -0.1016  0.0937 -0.1860
 6799TIP3   OH220360   4.710   3.277   0.165 -0.2106  0.2949  0.4741
 6799TIP3    H120361   4.680   3.353   0.216 -0.2751  0.6877 -0.1453
 6799TIP3    H220362   4.764   3.228   0.226 -1.5229 -0.0553  1.4154
 6800TIP3   OH220363   6.292   1.224   2.272 -0.0100  0.1903 -0.2197
 6800TIP3    H120364   6.329   1.137   2.259 -0.9933 -0.2785  0.0283
 6800TIP3    H220365   6.368   1.281   2.286  0.6537 -0.5665 -0.6980
 6801TIP3   OH220366   5.725   6.167   0.461  0.0498  0.0080 -0.6451
 6801TIP3    H120367   5.716   6.170   0.365  1.1702 -0.4537 -0.7847
 6801TIP3    H220368   5.818   6.185   0.476 -0.1392  0.1569  0.3662
 6802TIP3   OH220369   6.431   4.325   2.752 -0.2232  0.1049  0.7115
 6802TIP3    H120370   6.452   4.291   2.839  0.7700 -0.6358  0.2033
 6802TIP3    H220371   6.418   4.247   2.698  1.9538  0.4791 -0.4420
 6803TIP3   OH220372   0.452   0.758   3.860 -0.7939  0.0073  0.1363
 6803TIP3    H120373   0.396   0.696   3.906  2.1016 -1.4206  2.0562
 6803TIP3    H220374   0.507   0.704   3.804  1.0283  0.8838  0.9979
 6804TIP3   OH220375   5.981   4.481   3.175 -0.2179 -0.0508 -0.0325
 6804TIP3    H120376   6.050   4.529   3.219 -0.0526  1.0640 -1.4245
 6804TIP3    H220377   5.973   4.523   3.089 -1.7820 -0.9296 -0.3706
 6805TIP3   OH220378   0.938   6.631   4.381  0.0995 -0.4056  0.0045
 6805TIP3    H120379   0.876   6.693   4.420 -0.9592 -0.9914 -0.7016
 6805TIP3    H220380   0.965   6.673   4.299 -1.4247 -1.2725 -1.0043
 6806TIP3   OH220381   1.100   3.858   3.199  0.4451 -0.0289  0.4613
 6806TIP3    H120382   1.082   3.788   3.136 -1.0327  1.1897 -0.5435
 6806TIP3    H220383   1.060   3.828   3.280 -0.3916 -0.2630 -0.0253
 6807TIP3   OH220384   6.065   6.389   4.852  0.3893 -0.1125 -0.7340
 6807TIP3    H120385   6.160   6.396   4.864  0.0692  1.1882  1.7220
 6807TIP3    H220386   6.028   6.431   4.929 -2.2289 -2.1665 -0.7251
 6808TIP3   OH220387   5.028   0.341   3.804  0.4826  0.1004 -0.1210
 6808TIP3    H120388   5.045   0.270   3.742 -0.5013  0.0379 -0.3469
 6808TIP3    H220389   4.941   0.320   3.839  0.7390  0.5052  0.7721
 6809TIP3   OH220390   1.770   4.228   4.602  0.0508 -0.0425 -0.0027
 6809TIP3    H120391   1.725   4.300   4.647  0.3684  0.5796 -0.6678
 6809TIP3    H220392   1.725   4.150   4.633  0.3793  0.3516  1.5355
 6810TIP3   OH220393   2.915   2.657   1.013  0.6092  0.7686 -0.1521
 6810TIP3    H120394   2.929   2.752   1.010  0.4836  0.7613 -1.5613
 6810TIP3    H220395   2.825   2.645   0.983  0.1781  0.2698  1.2582
 6811TIP3   OH220396   4.989   2.920   0.371  0.6382 -0.3492 -0.2225
 6811TIP3    H120397   5.076   2.898   0.339  0.7333  1.1417 -1.1291
 6811TIP3    H220398   4.937   2.933   0.291 -0.5580 -1.6567  0.2996
 6812TIP3   OH220399   2.147   3.851   3.104  0.0505 -0.0767 -0.2610
 6812TIP3    H120400   2.225   3.808   3.071 -0.6995 -0.6196 -1.3759
 6812TIP3    H220401   2.143   3.934   3.057  1.0006  0.8728  1.2317
 6813TIP3   OH220402   6.765   2.232   2.683  0.2250  0.0758  0.0865
 6813TIP3    H120403   6.747   2.325   2.665  0.5855 -0.4029 -3.3513
 6813TIP3    H220404   6.860   2.224   2.678  0.1112 -0.7291 -1.5410
 6814TIP3   OH220405   6.955   5.026   5.585  0.0415  0.1148 -0.1880
 6814TIP3    H120406   6.930   5.044   5.676 -0.5876 -2.5889  0.2414
 6814TIP3    H220407   7.041   5.068   5.576 -0.7150  2.0980  1.0008
 6815TIP3   OH220408   4.546   5.998   3.302  0.1951 -0.6503  0.7542
 6815TIP3    H120409   4.549   5.975   3.210  0.2685 -0.6545  0.7572
 6815TIP3    H220410   4.472   6.058   3.310 -0.5984 -1.6416  0.9203
 6816TIP3   OH220411   4.657   2.962   4.258  0.8232  0.5259  0.5827
 6816TIP3    H120412   4.670   2.876   4.299  0.0589  0.4165  0.6039
 6816TIP3    H220413   4.591   2.947   4.191  2.0510  0.7076 -0.7169
 6817TIP3   OH220414   4.589   4.142   5.406 -0.3063  0.1060  0.0018
 6817TIP3    H120415   4.626   4.175   5.325 -0.0689  0.4244  0.2381
 6817TIP3    H220416   4.562   4.052   5.386  1.0391 -0.2987 -0.0399
 6818TIP3   OH220417   0.544   1.429   0.737 -0.4177  0.0076 -0.0326
 6818TIP3    H120418   0.495   1.454   0.659 -1.7535 -0.6237  0.5683
 6818TIP3    H220419   0.596   1.506   0.759  1.0823 -0.2657 -2.3271
 6819TIP3   OH220420   0.219   3.156   1.877  0.3169 -0.4492 -0.3302
 6819TIP3    H120421   0.255   3.227   1.931  0.7102 -0.4540 -0.5821
 6819TIP3    H220422   0.127   3.181   1.864  0.9814  1.2778 -2.3747
 6820TIP3   OH220423   3.961   2.224   1.405 -0.0717  0.6143  0.1609
 6820TIP3    H120424   3.941   2.138   1.369  2.6854  0.0133 -0.1409
 6820TIP3    H220425   3.999   2.207   1.490  1.4589  1.4288 -0.3257
 6821TIP3   OH220426   1.287   4.820   5.744  0.5432  0.1325 -0.0981
 6821TIP3    H120427   1.299   4.797   5.652 -1.3556  1.7215 -0.8162
 6821TIP3    H220428   1.257   4.911   5.743 -2.1466 -0.5970  1.8593
 6822TIP3   OH220429   5.685   1.996   5.107  0.0595 -0.7272  0.2277
 6822TIP3    H120430   5.657   1.928   5.046  3.0996 -0.3319 -1.8483
 6822TIP3    H220431   5.621   2.066   5.095 -1.3750 -2.0138  0.1175
 6823TIP3   OH220432   4.201   3.857   3.097  0.4643  0.2918  0.4270
 6823TIP3    H120433   4.296   3.866   3.100  0.4336  0.5956  0.4278
 6823TIP3    H220434   4.167   3.939   3.131  0.1922  0.6698 -0.7286
 6824TIP3   OH220435   0.466   1.759   1.102  0.0166  0.3094 -0.7163
 6824TIP3    H120436   0.558   1.750   1.126 -0.7261 -0.8638  1.9880
 6824TIP3    H220437   0.419   1.749   1.184 -2.5476  0.9560 -2.0278
 6825TIP3   OH220438   6.134   1.529   1.105 -0.1175  0.0433 -0.6333
 6825TIP3    H120439   6.065   1.467   1.082  1.3828 -2.8145  1.8200
 6825TIP3    H220440   6.099   1.578   1.180 -1.0515  1.8981 -2.1724
 6826TIP3   OH220441   2.246   5.986   5.772  0.3820  0.0920 -0.2721
 6826TIP3    H120442   2.207   6.040   5.840  0.5638  1.0470 -0.8963
 6826TIP3    H220443   2.306   5.928   5.818 -0.0392  0.2232  0.4468
 6827TIP3   OH220444   6.311   3.843   5.606  0.1265  0.6077  0.0644
 6827TIP3    H120445   6.349   3.801   5.529  0.1861  2.0401 -0.7271
 6827TIP3    H220446   6.365   3.921   5.619  0.1904  0.3334  1.6561
 6828TIP3   OH220447   3.385   5.688  -0.004 -0.3205  0.3369 -0.3613
 6828TIP3    H120448   3.448   5.667   0.065  0.5839 -0.2232 -1.3289
 6828TIP3    H220449   3.300   5.691   0.041  0.4480  1.8526  1.1103
 6829TIP3   OH220450   4.504   5.175   1.840 -0.0519 -0.3765  0.4283
 6829TIP3    H120451   4.557   5.106   1.879  0.8064 -0.6845 -1.1977
 6829TIP3    H220452   4.421   5.132   1.819 -0.5497 -0.1883  1.9049
 6830TIP3   OH220453   3.908   1.976   1.823  0.6331 -0.7482  0.0085
 6830TIP3    H120454   3.883   2.003   1.911  1.6083  0.9035 -0.1706
 6830TIP3    H220455   3.833   1.927   1.790 -0.3903 -0.0195  1.1722
 6831TIP3   OH220456   0.933   0.486   2.464 -0.2414  0.2923 -0.2058
 6831TIP3    H120457   0.900   0.558   2.409 -1.0987 -1.2827 -1.8640
 6831TIP3    H220458   1.028   0.493   2.458 -0.3139  1.3110 -0.3071
 6832TIP3   OH220459   0.407   0.982   3.290  0.4225  0.5794 -0.2440
 6832TIP3    H120460   0.331   0.953   3.341 -0.1074 -1.0049 -1.7881
 6832TIP3    H220461   0.479   0.927   3.320 -0.0694 -0.9153 -1.6384
 6833TIP3   OH220462   4.616   3.266   5.673  0.2843 -0.4330  0.4045
 6833TIP3    H120463   4.683   3.294   5.610  0.6194  0.6733  1.2271
 6833TIP3    H220464   4.665   3.238   5.750 -0.1824  0.7785  1.1710
 6834TIP3   OH220465   1.970   0.296   1.745  0.1676  0.0589 -0.2666
 6834TIP3    H120466   2.034   0.283   1.816  1.2651  0.3690 -1.1609
 6834TIP3    H220467   1.965   0.211   1.701  1.7854  0.6133 -1.6275
 6835TIP3   OH220468   2.895   1.265   3.604 -0.3935  0.4657 -0.0652
 6835TIP3    H120469   2.807   1.291   3.578 -0.3739  0.4749 -0.1232
 6835TIP3    H220470   2.909   1.306   3.689  0.5939  2.7610 -1.2510
 6836TIP3   OH220471   5.587   0.896   5.450  0.1856  0.1110  0.3604
 6836TIP3    H120472   5.565   0.805   5.472 -0.2240  0.3222  0.8525
 6836TIP3    H220473   5.624   0.891   5.362 -0.7191 -0.4194 -0.0086
 6837TIP3   OH220474   4.733   0.863   4.780 -0.3489  0.1264 -0.0642
 6837TIP3    H120475   4.807   0.859   4.720  0.3350 -0.7189  0.8055
 6837TIP3    H220476   4.657   0.880   4.724  0.4195  0.4343 -1.0296
 6838TIP3   OH220477   4.962   2.429   1.398  0.5488 -0.4413 -0.1210
 6838TIP3    H120478   5.032   2.445   1.462 -1.0101  1.9520  1.1236
 6838TIP3    H220479   4.894   2.383   1.447  0.3416 -0.8318 -0.7579
 6839TIP3   OH220480   5.738   4.036   3.873  0.0695  0.2789  0.5078
 6839TIP3    H120481   5.763   3.956   3.827 -0.1961 -0.3264  1.3955
 6839TIP3    H220482   5.656   4.063   3.831  0.6486  0.6449 -0.4398
 6840TIP3   OH220483   4.382   4.548   1.321  0.1139  0.0184  0.7868
 6840TIP3    H120484   4.459   4.557   1.377  0.5573 -0.6175  0.3054
 6840TIP3    H220485   4.402   4.472   1.265 -0.5135  0.3422  0.0999
 6841TIP3   OH220486   3.811   0.525   3.716 -0.3045  1.0140 -0.1869
 6841TIP3    H120487   3.889   0.472   3.734  1.0433  2.8379 -0.3389
 6841TIP3    H220488   3.769   0.481   3.642  0.8713  0.2665 -0.4460
 6842TIP3   OH220489   5.243   3.681   4.241 -0.3034  0.0790 -0.5745
 6842TIP3    H120490   5.149   3.667   4.252 -0.3588 -0.1103 -1.2304
 6842TIP3    H220491   5.282   3.648   4.322 -0.9466  2.0597  0.6099
 6843TIP3   OH220492   4.047   4.473   5.182 -0.8947  0.2164  0.0295
 6843TIP3    H120493   4.032   4.419   5.259  2.3053 -1.2316 -0.2094
 6843TIP3    H220494   3.989   4.437   5.115 -3.0093  0.8820  1.4071
 6844TIP3   OH220495   1.711   0.632   0.630  0.6411  0.0584 -0.0088
 6844TIP3    H120496   1.753   0.690   0.567 -0.5952  0.6866 -0.2786
 6844TIP3    H220497   1.683   0.690   0.701 -0.6978 -0.1555 -0.3254
 6845TIP3   OH220498   1.789   4.708   4.044 -0.1467 -0.1251 -0.6221
 6845TIP3    H120499   1.718   4.772   4.040 -0.2014 -0.0720  0.8120
 6845TIP3    H220500   1.851   4.745   4.107  0.0017 -1.2965 -0.0530
 6846TIP3   OH220501   4.585   3.263   4.094 -0.2925 -0.2851 -0.1295
 6846TIP3    H120502   4.602   3.249   4.001  0.4706 -0.9216  0.1000
 6846TIP3    H220503   4.489   3.263   4.101 -0.3523 -0.6061 -0.8465
 6847TIP3   OH220504   2.515   3.069   2.665 -0.1062 -0.4365 -0.4339
 6847TIP3    H120505   2.504   3.131   2.737 -1.3322 -1.6987  0.5083
 6847TIP3    H220506   2.590   3.103   2.616 -0.4138  1.4905  0.3406
 6848TIP3   OH220507   1.207   2.610   4.584  0.1345  0.0100 -0.5635
 6848TIP3    H120508   1.203   2.705   4.581  2.1279  0.1284 -0.7918
 6848TIP3    H220509   1.115   2.582   4.582 -0.5797  1.9469  1.1930
 6849TIP3   OH220510   1.651   2.623   0.772 -0.5707  0.3461 -0.5443
 6849TIP3    H120511   1.713   2.573   0.826 -0.0134  1.2317 -0.3425
 6849TIP3    H220512   1.705   2.691   0.732 -1.0487 -0.0820 -1.9494
 6850TIP3   OH220513   5.966   0.130   4.319 -0.1613 -0.0806  0.8530
 6850TIP3    H120514   5.964   0.132   4.415 -1.7676 -1.6299  0.9051
 6850TIP3    H220515   5.884   0.171   4.292 -0.3421 -0.8469  0.1970
 6851TIP3   OH220516   6.652   3.424   5.697 -0.0427 -0.3400  0.3391
 6851TIP3    H120517   6.684   3.469   5.618 -0.1768  1.5189  1.2785
 6851TIP3    H220518   6.673   3.332   5.682 -1.1035 -0.2362 -2.3694
 6852TIP3   OH220519   3.790   0.289   4.040  0.1166  0.4923  1.0555
 6852TIP3    H120520   3.723   0.255   4.099  0.1763 -0.2656  0.7123
 6852TIP3    H220521   3.760   0.262   3.953  0.8751  0.1213  0.9017
 6853TIP3   OH220522   2.275   4.404   5.390  0.1540  0.2985  0.0283
 6853TIP3    H120523   2.275   4.458   5.469  0.7668 -0.9376  0.9010
 6853TIP3    H220524   2.196   4.430   5.343 -0.4102  0.7907  1.2159
 6854TIP3   OH220525   0.531   0.415   4.449 -0.2033 -0.4500  0.0379
 6854TIP3    H120526   0.447   0.391   4.490  0.5278 -0.0331  1.9050
 6854TIP3    H220527   0.507   0.479   4.382 -1.4601 -0.9509 -0.0208
 6855TIP3   OH220528   4.395   2.646   4.710 -0.1331  0.2380  0.2629
 6855TIP3    H120529   4.312   2.646   4.662 -0.5165  0.1318  0.9177
 6855TIP3    H220530   4.377   2.698   4.788  0.0533 -0.8162  1.0214
 6856TIP3   OH220531   2.780   5.488   2.117 -0.1217  0.3520  0.4638
 6856TIP3    H120532   2.828   5.405   2.120  2.9313  1.8907 -0.8742
 6856TIP3    H220533   2.694   5.465   2.083  1.2191 -2.0798 -1.6257
 6857TIP3   OH220534   6.901   3.032   4.289 -0.2494  0.1305 -0.0077
 6857TIP3    H120535   6.871   3.022   4.198 -0.4466  0.2367  0.0450
 6857TIP3    H220536   6.845   2.973   4.340 -0.0023 -0.0803  0.0172
 6858TIP3   OH220537   1.943   3.682   3.169  0.1634 -0.4682  0.3969
 6858TIP3    H120538   2.032   3.715   3.164 -0.0763  0.0149 -1.8046
 6858TIP3    H220539   1.934   3.625   3.092 -1.3586 -0.6720  0.6832
 6859TIP3   OH220540   1.234   0.432   0.733  0.1369  0.0842  0.1749
 6859TIP3    H120541   1.182   0.491   0.678  0.1133  0.5143  0.6461
 6859TIP3    H220542   1.308   0.486   0.762  0.8612 -0.5300 -0.5038
 6860TIP3   OH220543   4.740   4.648   0.735 -0.5092 -0.0737  0.3146
 6860TIP3    H120544   4.829   4.612   0.733 -0.2793  0.4472  0.9898
 6860TIP3    H220545   4.726   4.674   0.826 -0.9437  0.8677 -0.0072
 6861TIP3   OH220546   3.508   4.088   5.422  0.1562  0.1642  0.8710
 6861TIP3    H120547   3.536   4.019   5.361  1.1435 -0.2395  1.7431
 6861TIP3    H220548   3.577   4.154   5.416 -0.6159  0.9255  0.2918
 6862TIP3   OH220549   3.694   4.297   5.376  0.8575 -0.3657 -0.5215
 6862TIP3    H120550   3.789   4.307   5.383  0.9594 -0.1572 -1.9611
 6862TIP3    H220551   3.666   4.364   5.314 -0.1953 -0.6144 -0.3481
 6863TIP3   OH220552   0.119   1.265   0.248  0.1538 -0.5208 -0.4987
 6863TIP3    H120553   0.037   1.238   0.290  0.4597 -0.0270  0.4601
 6863TIP3    H220554   0.175   1.187   0.253  1.1041  0.2216  2.4306
 6864TIP3   OH220555   6.316   1.812   1.512 -0.2766 -0.1048  0.0084
 6864TIP3    H120556   6.320   1.832   1.418  0.1136 -1.8901 -0.4022
 6864TIP3    H220557   6.360   1.885   1.554 -1.8288  1.5128 -1.0492
 6865TIP3   OH220558   1.267   4.364   0.895  0.4119  0.0737  0.2368
 6865TIP3    H120559   1.264   4.366   0.799  0.4922 -0.5795  0.2199
 6865TIP3    H220560   1.209   4.293   0.920 -0.0426  0.5969  0.7020
 6866TIP3   OH220561   5.160   6.645   4.754  0.7973 -0.7010  0.1445
 6866TIP3    H120562   5.149   6.571   4.814 -0.4778 -0.5913  0.0858
 6866TIP3    H220563   5.070   6.674   4.735  1.2829  1.2835  0.6776
 6867TIP3   OH220564   2.471   5.438   0.572  0.3109  0.3382  0.2455
 6867TIP3    H120565   2.378   5.428   0.591  0.2406 -2.2239 -1.0454
 6867TIP3    H220566   2.487   5.532   0.578 -2.8314  1.1020 -1.5105
 6868TIP3   OH220567   5.365   3.169   2.577  0.4355 -0.0867  0.1289
 6868TIP3    H120568   5.290   3.113   2.597  0.5870 -0.1954  0.4015
 6868TIP3    H220569   5.410   3.180   2.661  0.2561  0.6678  0.1306
 6869TIP3   OH220570   2.274   5.531   1.843  0.0821 -0.2082 -0.1338
 6869TIP3    H120571   2.294   5.561   1.932  0.8518  0.5795 -0.5569
 6869TIP3    H220572   2.326   5.588   1.787 -2.5174  1.1914 -1.2553
 6870TIP3   OH220573   0.965   3.565   1.426 -0.5807 -0.2515 -0.0776
 6870TIP3    H120574   0.988   3.623   1.498 -2.8731 -1.0326  1.3549
 6870TIP3    H220575   1.028   3.588   1.357 -0.0278  2.3921  1.1705
 6871TIP3   OH220576   5.016   5.971   5.154 -0.1090  0.2210 -0.6223
 6871TIP3    H120577   4.979   5.928   5.232 -0.6019 -0.4600 -1.2199
 6871TIP3    H220578   5.002   5.908   5.083  2.5226 -0.2169 -0.8325
 6872TIP3   OH220579   7.094   4.547   0.866  0.6769 -0.0746  0.1434
 6872TIP3    H120580   7.108   4.602   0.789 -0.8453  0.3115  0.1138
 6872TIP3    H220581   7.090   4.458   0.831 -0.0544  0.1036 -0.2454
 6873TIP3   OH220582   2.979   1.086   1.002 -0.2121 -0.1788 -0.6358
 6873TIP3    H120583   2.923   1.009   0.995  0.4881 -0.6632 -1.0461
 6873TIP3    H220584   2.998   1.109   0.911  2.5307 -1.7344 -0.5696
 6874TIP3   OH220585   1.326   0.184   4.420  0.4406  0.3175 -0.7708
 6874TIP3    H120586   1.233   0.169   4.400  0.0498  1.3551  0.1076
 6874TIP3    H220587   1.340   0.276   4.398  0.4777  0.9712  1.6902
 6875TIP3   OH220588   6.930   4.351   1.480 -1.1075  0.1217 -0.1159
 6875TIP3    H120589   6.878   4.278   1.513  0.9388 -1.0515  0.7070
 6875TIP3    H220590   6.922   4.419   1.547 -0.3804 -0.6397  0.7647
 6876TIP3   OH220591   2.472   4.721   0.250 -0.5733 -0.7356 -0.0141
 6876TIP3    H120592   2.428   4.730   0.165  0.8790  0.6696 -0.6624
 6876TIP3    H220593   2.402   4.731   0.314 -1.0997  3.3912 -0.9667
 6877TIP3   OH220594   4.381   6.092   4.059 -0.0882 -0.4248 -0.4101
 6877TIP3    H120595   4.391   6.065   4.150 -0.0144 -1.9200 -0.8401
 6877TIP3    H220596   4.342   6.180   4.064 -3.6189 -1.9014  1.0406
 6878TIP3   OH220597   0.563   1.350   3.918  0.8011 -0.1644 -0.5857
 6878TIP3    H120598   0.476   1.382   3.942  1.1793  1.5420 -1.3365
 6878TIP3    H220599   0.613   1.351   3.999  0.0563 -1.4282 -0.0948
 6879TIP3   OH220600   0.170   2.357   4.195 -0.1697 -0.0102  0.4561
 6879TIP3    H120601   0.157   2.423   4.262  0.0536  1.8933 -1.2854
 6879TIP3    H220602   0.099   2.293   4.210 -0.3929  0.5951  2.1744
 6880TIP3   OH220603   4.446   3.090   0.568 -0.5977 -0.1286 -0.2115
 6880TIP3    H120604   4.495   3.051   0.495 -0.6830 -1.3941  0.3827
 6880TIP3    H220605   4.412   3.015   0.617 -2.0728  0.7102  0.1125
 6881TIP3   OH220606   5.981   1.654   3.318  0.1532 -0.1291  0.2203
 6881TIP3    H120607   5.949   1.569   3.348 -1.2271  0.1308 -0.4400
 6881TIP3    H220608   5.925   1.718   3.362  1.1527  0.4607  0.6843
 6882TIP3   OH220609   6.467   6.518   3.563  0.1223 -0.6252 -0.2351
 6882TIP3    H120610   6.452   6.492   3.472  0.0618 -0.5134 -0.2578
 6882TIP3    H220611   6.488   6.611   3.558  0.3356 -0.6688 -0.1540
 6883TIP3   OH220612   2.978   2.599   4.766  0.9308 -0.0597 -0.0589
 6883TIP3    H120613   2.991   2.530   4.832 -0.1968  0.7079  0.9960
 6883TIP3    H220614   3.053   2.657   4.778  0.4927  0.3319  0.9031
 6884TIP3   OH220615   5.839   3.305   4.193 -0.1843 -0.5287  0.1910
 6884TIP3    H120616   5.762   3.277   4.143 -1.1952 -0.3233  1.5660
 6884TIP3    H220617   5.867   3.386   4.150  0.6890 -1.7481 -1.7096
 6885TIP3   OH220618   4.116   2.558   3.450 -0.2707 -0.0241 -0.1336
 6885TIP3    H120619   4.110   2.518   3.364 -0.3659  1.1019 -0.6739
 6885TIP3    H220620   4.033   2.536   3.493 -0.9599  0.8525 -0.9897
 6886TIP3   OH220621   6.284   5.658   3.989  0.0672 -0.0615  0.3904
 6886TIP3    H120622   6.202   5.608   3.991  1.0443 -1.7519  2.4261
 6886TIP3    H220623   6.337   5.613   3.924 -0.6425  1.1759 -1.1004
 6887TIP3   OH220624   3.872   5.839   2.390  0.1873 -0.3965 -0.0969
 6887TIP3    H120625   3.782   5.814   2.413 -1.0504  2.5038 -1.3132
 6887TIP3    H220626   3.910   5.869   2.472 -0.4545 -0.2892  0.1662
 6888TIP3   OH220627   5.810   3.707   5.725  0.4604  0.0573  0.1195
 6888TIP3    H120628   5.791   3.614   5.711 -0.9575  0.3947 -0.4414
 6888TIP3    H220629   5.902   3.716   5.703  0.4045 -1.0594 -0.6976
 6889TIP3   OH220630   3.010   0.736   5.366 -0.0380 -0.3047 -0.0555
 6889TIP3    H120631   2.970   0.731   5.280 -1.4575 -0.1198  0.5611
 6889TIP3    H220632   3.100   0.765   5.350 -0.3236 -0.1550 -1.4503
 6890TIP3   OH220633   0.059   4.266   4.813  0.5860 -0.1459 -0.7577
 6890TIP3    H120634   0.068   4.278   4.719  1.7940  1.6810 -0.4742
 6890TIP3    H220635  -0.035   4.266   4.829  0.3711 -0.4267 -1.9526
 6891TIP3   OH220636   4.683   3.869   0.824 -0.4314  0.1988  0.4732
 6891TIP3    H120637   4.697   3.909   0.739 -0.7227 -1.8055 -0.5697
 6891TIP3    H220638   4.722   3.930   0.886  1.2005  0.9626 -1.2173
 6892TIP3   OH220639   2.231   1.194   3.415  0.0145  0.6215 -0.3456
 6892TIP3    H120640   2.211   1.151   3.332 -0.5920 -0.2811  0.2539
 6892TIP3    H220641   2.172   1.269   3.418 -1.4638 -0.5115  0.1827
 6893TIP3   OH220642   2.558   4.891   1.524  0.6846 -0.1612 -0.4243
 6893TIP3    H120643   2.581   4.840   1.446 -1.2814 -1.1917 -0.3785
 6893TIP3    H220644   2.467   4.870   1.541  0.8598  0.5882  1.7675
 6894TIP3   OH220645   1.164   0.108   5.706 -0.3571 -0.1154 -0.1757
 6894TIP3    H120646   1.118   0.105   5.621  0.9623  0.2538 -0.9263
 6894TIP3    H220647   1.234   0.171   5.693  0.1628 -0.4237  1.0587
 6895TIP3   OH220648   0.103   5.014   0.123 -0.3493  0.1188  0.2931
 6895TIP3    H120649   0.165   4.971   0.183 -0.4724  0.9872  1.0640
 6895TIP3    H220650   0.149   5.014   0.038 -0.7214 -2.3513 -0.0061
 6896TIP3   OH220651   6.486   2.990   0.179  0.0544 -0.0506 -0.0815
 6896TIP3    H120652   6.506   3.072   0.134 -0.1844  1.7008  2.7410
 6896TIP3    H220653   6.561   2.976   0.237 -0.0126 -1.7538 -0.3552
 6897TIP3   OH220654   4.930   0.288   1.532 -0.0636 -0.5856 -0.2681
 6897TIP3    H120655   4.912   0.238   1.612  0.7732 -1.2896 -0.4996
 6897TIP3    H220656   5.016   0.328   1.547 -1.5954  2.6341  0.7810
 6898TIP3   OH220657   7.177   2.364   3.842  1.0679 -0.0145  0.0363
 6898TIP3    H120658   7.213   2.293   3.789  1.2264 -1.0970  1.5269
 6898TIP3    H220659   7.143   2.321   3.921  1.1319  1.5543  0.9779
 6899TIP3   OH220660   5.132   2.250   5.254 -0.3650  0.3245  0.2842
 6899TIP3    H120661   5.148   2.241   5.348 -1.8701  0.3986  0.5719
 6899TIP3    H220662   5.050   2.300   5.248 -0.4978 -0.0041 -1.0625
 6900TIP3   OH220663   5.679   4.333   4.433  0.1767 -0.5772  0.4502
 6900TIP3    H120664   5.627   4.264   4.476 -1.7556  1.8592  2.3764
 6900TIP3    H220665   5.763   4.332   4.479 -0.8796  0.1565  2.5465
 6901TIP3   OH220666   1.951   6.391   0.218  0.0597 -0.1798  0.4093
 6901TIP3    H120667   1.950   6.484   0.241 -1.8760 -0.4381  1.5814
 6901TIP3    H220668   1.881   6.381   0.154  2.1803 -0.3797 -2.0219
 6902TIP3   OH220669   5.192   4.902   0.583  0.5189 -0.3364 -0.3400
 6902TIP3    H120670   5.109   4.946   0.598 -0.4454 -2.1354 -0.1400
 6902TIP3    H220671   5.245   4.965   0.534 -1.0201  0.7572 -0.6405
 6903TIP3   OH220672   1.031   2.127   4.185  0.2110  0.1640 -0.0984
 6903TIP3    H120673   0.937   2.142   4.191  0.2827  0.3586  0.7285
 6903TIP3    H220674   1.040   2.032   4.179 -0.0089  0.0717  0.8482
 6904TIP3   OH220675   1.869   3.078   3.420 -0.2539 -0.0426  0.4375
 6904TIP3    H120676   1.860   2.984   3.440  1.3578  0.1677  2.4576
 6904TIP3    H220677   1.953   3.085   3.375 -0.3649  0.4514  0.3053
 6905TIP3   OH220678   0.149   3.545   3.482  0.2431 -0.1939 -0.1214
 6905TIP3    H120679   0.186   3.487   3.416 -1.3547 -1.5967  0.1383
 6905TIP3    H220680   0.171   3.503   3.565  0.1547  0.2639  0.1387
 6906TIP3   OH220681   5.650   1.852   5.666  0.6101 -0.2407 -0.0439
 6906TIP3    H120682   5.730   1.817   5.705  0.3745 -0.5316  0.1803
 6906TIP3    H220683   5.581   1.792   5.695  0.7040 -1.6925 -2.5960
 6907TIP3   OH220684   1.299   0.120   1.594 -0.0084 -0.5225 -0.3667
 6907TIP3    H120685   1.379   0.117   1.645 -0.8312  0.2847  1.0381
 6907TIP3    H220686   1.229   0.115   1.659 -1.1076  1.5810 -1.3067
 6908TIP3   OH220687   1.060   3.955   3.693  0.1301 -0.1166 -0.2550
 6908TIP3    H120688   1.081   4.005   3.614  0.5979  1.7962  1.0054
 6908TIP3    H220689   1.079   4.015   3.765 -0.4969 -1.7160  1.3215
 6909TIP3   OH220690   6.209   2.089   1.454  0.1658 -0.6229  0.1787
 6909TIP3    H120691   6.244   2.111   1.541  1.7285  0.5505 -0.7018
 6909TIP3    H220692   6.278   2.115   1.393 -1.2626 -0.5705 -1.4900
 6910TIP3   OH220693   6.073   6.566   0.319  0.3673  0.3708 -0.0515
 6910TIP3    H120694   6.002   6.611   0.366 -1.1122 -1.1195 -0.7374
 6910TIP3    H220695   6.066   6.598   0.229  2.0008  1.8207  0.2816
 6911TIP3   OH220696   6.013   1.024   4.127  0.0681  0.9036 -0.0249
 6911TIP3    H120697   5.973   0.995   4.210 -0.1747  1.3490  0.0147
 6911TIP3    H220698   6.005   1.119   4.129  0.5294  0.9470 -0.3287
 6912TIP3   OH220699   6.848   6.067   4.736 -0.5209  0.1618  0.1688
 6912TIP3    H120700   6.754   6.051   4.740 -0.2341 -1.6489  0.3923
 6912TIP3    H220701   6.857   6.162   4.745 -2.2794  0.2820  0.9433
 6913TIP3   OH220702   7.027   3.825   1.919 -0.1301 -0.1115 -0.5045
 6913TIP3    H120703   7.001   3.736   1.943  1.6711 -0.9643 -1.5100
 6913TIP3    H220704   6.945   3.875   1.922 -1.6138 -2.2450 -1.9666
 6914TIP3   OH220705   4.476   5.696   5.234 -0.0965  0.1223  0.2149
 6914TIP3    H120706   4.415   5.655   5.173  1.5323 -2.1317  0.0064
 6914TIP3    H220707   4.464   5.648   5.316  0.2104  0.7841  0.6545
 6915TIP3   OH220708   5.897   2.376   0.951  0.1294 -0.1906  0.2066
 6915TIP3    H120709   5.851   2.406   0.873 -0.3575 -0.6716  0.3024
 6915TIP3    H220710   5.986   2.410   0.941 -0.4143  1.3515  0.3545
 6916TIP3   OH220711   3.865   1.956   1.347  0.2219  0.0491 -0.1456
 6916TIP3    H120712   3.845   1.868   1.380 -0.0944  0.1407 -0.0907
 6916TIP3    H220713   3.780   1.999   1.340  0.1957 -0.1977 -1.7535
 6917TIP3   OH220714   3.296   1.441   0.209 -0.1729 -0.2374  0.1730
 6917TIP3    H120715   3.253   1.368   0.254 -0.5877 -0.6152 -0.8235
 6917TIP3    H220716   3.231   1.473   0.147  1.1175 -1.1637 -1.7500
 6918TIP3   OH220717   1.375   4.967   1.249  0.5233  0.2666 -0.1338
 6918TIP3    H120718   1.353   5.019   1.327  2.1685  0.6928  0.0781
 6918TIP3    H220719   1.353   5.024   1.175 -1.8134 -0.4390 -0.0649
 6919TIP3   OH220720   1.044   2.859   3.791 -0.4674 -0.0004  0.5749
 6919TIP3    H120721   1.127   2.886   3.751 -0.5361 -0.9101 -0.2480
 6919TIP3    H220722   1.048   2.763   3.790 -1.6337 -0.0661  0.2733
 6920TIP3   OH220723   4.856   5.866   0.929  0.1934 -0.3547  0.0590
 6920TIP3    H120724   4.918   5.866   1.002 -1.2264  1.0858  1.3445
 6920TIP3    H220725   4.851   5.957   0.901 -1.7029 -0.3276  0.3654
 6921TIP3   OH220726   2.108   3.890   3.443  0.0537 -0.3033  0.3492
 6921TIP3    H120727   2.096   3.967   3.499 -0.4869 -0.2490  0.1578
 6921TIP3    H220728   2.031   3.888   3.387  0.1638 -0.8716  0.2106
 6922TIP3   OH220729   0.973   2.741   4.657 -0.1597 -0.1541  0.3836
 6922TIP3    H120730   0.913   2.721   4.586  2.0995 -2.4530 -1.0431
 6922TIP3    H220731   0.976   2.837   4.660 -1.4931  0.0032 -1.5444
 6923TIP3   OH220732   5.353   4.604   3.607 -0.2237  0.4132 -0.0653
 6923TIP3    H120733   5.363   4.607   3.702 -0.0452  1.5106 -0.1061
 6923TIP3    H220734   5.417   4.668   3.574 -0.9700  0.7717 -0.8602
 6924TIP3   OH220735   5.928   5.008   5.000 -0.0262  0.4303 -0.5064
 6924TIP3    H120736   5.984   4.942   4.959 -0.7069 -0.6920  0.2963
 6924TIP3    H220737   5.919   4.979   5.091 -2.5660  0.0480 -0.7815
 6925TIP3   OH220738   3.904   0.935   2.486  0.1922 -0.9118 -0.0872
 6925TIP3    H120739   3.890   1.023   2.452 -1.2792 -0.4133  1.6615
 6925TIP3    H220740   3.855   0.878   2.426 -0.8569 -0.2564  0.1280
 6926TIP3   OH220741   1.712   4.891   3.566 -0.0983 -0.2993 -0.6614
 6926TIP3    H120742   1.732   4.842   3.645 -0.1248 -0.6474 -0.8699
 6926TIP3    H220743   1.737   4.833   3.494  0.2479  0.1475 -0.9096
 6927TIP3   OH220744   0.119   3.533   4.561  0.3429  0.5350  1.1280
 6927TIP3    H120745   0.062   3.540   4.485  0.7462  2.5399  0.9601
 6927TIP3    H220746   0.203   3.503   4.525  0.4458  1.1834  0.8166
 6928TIP3   OH220747   0.177   4.854   2.846 -0.0907 -0.2022  0.3283
 6928TIP3    H120748   0.209   4.907   2.919  1.2914  2.0173 -1.7501
 6928TIP3    H220749   0.253   4.801   2.821 -0.0301  0.2630 -0.5056
 6929TIP3   OH220750   4.229   1.402   1.304  0.5319  0.0695  0.2367
 6929TIP3    H120751   4.192   1.319   1.272 -0.1260  0.2116  0.6005
 6929TIP3    H220752   4.179   1.470   1.259  2.0225  0.3023 -1.1467
 6930TIP3   OH220753   7.002   0.605   2.758  0.4215  0.2032 -0.5430
 6930TIP3    H120754   6.991   0.698   2.777  1.3942  0.3353 -0.5592
 6930TIP3    H220755   7.092   0.598   2.724 -0.0374 -0.5609 -1.6713
 6931TIP3   OH220756   1.468   5.410   0.075  0.2824  0.1076 -0.6458
 6931TIP3    H120757   1.455   5.356   0.152  2.0249 -0.5163 -0.7454
 6931TIP3    H220758   1.380   5.426   0.041 -0.4308 -0.4921  0.8525
 6932TIP3   OH220759   0.884   5.939   2.184 -0.1342  0.2114  0.4137
 6932TIP3    H120760   0.897   6.034   2.186  3.5621 -0.1207 -0.3771
 6932TIP3    H220761   0.942   5.905   2.252 -2.3291 -1.5284  1.5655
 6933TIP3   OH220762   1.552   6.192   4.033 -0.6640  0.1540 -0.4437
 6933TIP3    H120763   1.500   6.114   4.051  0.5244 -0.8813 -1.2552
 6933TIP3    H220764   1.615   6.163   3.966 -0.2385  1.8340 -0.8072
 6934TIP3   OH220765   5.548   3.790   5.672 -0.4817  0.7386  0.3564
 6934TIP3    H120766   5.514   3.720   5.728  1.3324  0.2454  0.8936
 6934TIP3    H220767   5.641   3.770   5.663 -0.1628  2.4631 -0.4341
 6935TIP3   OH220768   3.797   0.075   4.583  0.6301  0.0802  0.2742
 6935TIP3    H120769   3.775   0.057   4.492 -0.1263  0.0813  0.4515
 6935TIP3    H220770   3.794  -0.011   4.626 -1.4103  0.3423  0.7870
 6936TIP3   OH220771   3.224   0.262   3.250 -0.9230 -0.2271  0.0107
 6936TIP3    H120772   3.286   0.266   3.323 -2.5308  1.1934  1.4179
 6936TIP3    H220773   3.197   0.170   3.246  0.2883 -0.6077  0.2153
 6937TIP3   OH220774   1.482   2.428   1.646  0.3915 -0.2564  0.0282
 6937TIP3    H120775   1.430   2.391   1.718  1.2244  0.0536  0.8205
 6937TIP3    H220776   1.564   2.380   1.650  1.2792  1.2316  0.7043
 6938TIP3   OH220777   0.977   3.583   4.814 -0.3483 -0.4102  0.2619
 6938TIP3    H120778   1.012   3.609   4.899  1.2770 -0.2301 -0.4133
 6938TIP3    H220779   0.929   3.660   4.783 -0.2411 -0.1818  0.6573
 6939TIP3   OH220780   2.282   0.363   1.684 -0.0618 -0.3009  0.5370
 6939TIP3    H120781   2.239   0.277   1.693 -1.1964  0.3855  2.1225
 6939TIP3    H220782   2.258   0.393   1.596  1.4962 -2.1560 -0.6158
 6940TIP3   OH220783   1.738   4.329   3.297  0.1596 -0.3515 -0.4524
 6940TIP3    H120784   1.803   4.391   3.330 -1.3835  1.5717 -0.8583
 6940TIP3    H220785   1.781   4.288   3.222  1.1146  0.4681 -0.3770
 6941TIP3   OH220786   6.763   6.339   1.821  0.0572 -0.5113 -0.2335
 6941TIP3    H120787   6.804   6.404   1.765 -0.4636 -0.9575 -1.1562
 6941TIP3    H220788   6.703   6.291   1.763 -2.5378  0.7501  1.2068
 6942TIP3   OH220789   1.954   5.683   4.012  0.8627 -0.1718 -0.1342
 6942TIP3    H120790   1.936   5.757   3.954  1.2801 -0.5201 -0.7292
 6942TIP3    H220791   2.000   5.720   4.087  0.8480  0.2051 -0.3127
 6943TIP3   OH220792   4.922   4.826   1.482 -0.1523 -0.1945  0.2476
 6943TIP3    H120793   4.875   4.899   1.522  0.7467  0.3209  0.3799
 6943TIP3    H220794   4.991   4.866   1.429 -0.2770 -0.9208 -0.4917
 6944TIP3   OH220795   0.115   5.040   5.203 -0.1499 -0.0129 -0.8424
 6944TIP3    H120796   0.071   4.998   5.130 -1.2955  0.8501 -0.6756
 6944TIP3    H220797   0.078   5.129   5.206 -1.2389 -0.4586  1.6545
 6945TIP3   OH220798   4.410   0.478   1.493  0.1964 -1.1723 -0.0197
 6945TIP3    H120799   4.348   0.447   1.427  1.6287 -1.0035 -1.5095
 6945TIP3    H220800   4.487   0.422   1.482  1.7113  0.9339 -0.7515
 6946TIP3   OH220801   3.054   2.912   0.364  0.3020 -0.7432  0.3119
 6946TIP3    H120802   2.967   2.943   0.339  0.8886  1.4675  0.7902
 6946TIP3    H220803   3.074   2.844   0.301 -1.3160 -0.5044 -0.5104
 6947TIP3   OH220804   1.825   1.189   5.342 -0.3767  0.0172 -0.1451
 6947TIP3    H120805   1.817   1.167   5.249 -1.1152  1.6868 -0.5149
 6947TIP3    H220806   1.905   1.240   5.348 -0.1345 -0.3983  0.2128
 6948TIP3   OH220807   2.907   0.520   3.757  0.1820 -0.3009 -0.2296
 6948TIP3    H120808   2.921   0.425   3.761  0.5147 -0.3074 -1.2945
 6948TIP3    H220809   2.907   0.540   3.663 -0.7011  0.6342 -0.0447
 6949TIP3   OH220810   4.126   1.193   1.694 -0.1178 -0.2914 -0.0349
 6949TIP3    H120811   4.185   1.228   1.760  0.6436 -0.0284 -0.8427
 6949TIP3    H220812   4.177   1.193   1.613 -1.4007  0.4999 -0.8857
 6950TIP3   OH220813   1.335   4.329   2.654 -0.4637 -0.1267 -0.3292
 6950TIP3    H120814   1.243   4.312   2.633 -0.0619 -1.2046 -1.2912
 6950TIP3    H220815   1.340   4.425   2.663 -1.7331 -0.0823  0.0743
 6951TIP3   OH220816   5.731   0.356   0.373  0.2447 -0.0270  0.2920
 6951TIP3    H120817   5.660   0.331   0.432  0.6959 -0.2222  0.7517
 6951TIP3    H220818   5.810   0.353   0.426  0.5842  0.3500 -0.1755
 6952TIP3   OH220819   0.165   3.558   1.772 -0.5138  0.6475  0.1238
 6952TIP3    H120820   0.230   3.612   1.726 -0.0173  0.2623  0.3677
 6952TIP3    H220821   0.209   3.531   1.852 -0.8428  0.0659  0.1102
 6953TIP3   OH220822   6.197   5.508   2.969 -0.6527 -0.0387  0.0545
 6953TIP3    H120823   6.160   5.471   3.049 -3.1581  2.6972  0.3066
 6953TIP3    H220824   6.221   5.598   2.993  0.5039  0.1996 -1.7773
 6954TIP3   OH220825   0.268   4.075   1.067  0.2812  0.0387  0.0341
 6954TIP3    H120826   0.291   4.056   0.976 -0.1839 -1.8502  0.2726
 6954TIP3    H220827   0.340   4.038   1.117 -0.0357  0.0228  0.4799
 6955TIP3   OH220828   6.905   0.883   2.220 -0.6300  0.0207  0.2762
 6955TIP3    H120829   6.935   0.873   2.130  1.8997 -1.4798  1.1836
 6955TIP3    H220830   6.903   0.978   2.234  2.1207  0.2940 -0.4792
 6956TIP3   OH220831   1.950   6.716   2.895 -0.1189  0.2522  0.0399
 6956TIP3    H120832   2.045   6.721   2.886 -0.3170  1.9208 -1.6693
 6956TIP3    H220833   1.922   6.662   2.821 -0.4334 -1.6487  1.4656
 6957TIP3   OH220834   4.655   4.986   1.332  0.1837 -0.0008  0.3875
 6957TIP3    H120835   4.724   5.033   1.379 -0.4122  0.6085  0.6763
 6957TIP3    H220836   4.690   4.898   1.319  1.7104  0.7440 -0.9789
 6958TIP3   OH220837   5.044   4.688   4.117 -0.5247 -0.3451  0.1318
 6958TIP3    H120838   5.011   4.607   4.156 -1.1134  0.2621  0.9454
 6958TIP3    H220839   4.965   4.734   4.089 -0.1504 -0.3977 -1.0533
 6959TIP3   OH220840   3.552   3.751   0.661  0.5935  0.0749 -0.7090
 6959TIP3    H120841   3.502   3.795   0.592 -0.9880  0.1007  0.4109
 6959TIP3    H220842   3.543   3.658   0.641  0.8680  0.1149 -1.0244
 6960TIP3   OH220843   0.215   6.269   0.039  0.3953 -0.0143 -0.3134
 6960TIP3    H120844   0.154   6.216   0.089  0.4679 -1.3835 -1.6253
 6960TIP3    H220845   0.211   6.235  -0.050  0.5432  2.1091 -1.2077
 6961TIP3   OH220846   4.718   5.329   1.829  0.3019  0.3768 -0.6072
 6961TIP3    H120847   4.706   5.375   1.746 -1.2979 -0.1218 -0.6826
 6961TIP3    H220848   4.646   5.266   1.833  0.1240  0.6333  1.3240
 6962TIP3   OH220849   0.118   3.535   1.087 -0.1988  0.3414  0.4134
 6962TIP3    H120850   0.067   3.566   1.163  2.1143  1.9855  1.4390
 6962TIP3    H220851   0.140   3.444   1.108 -0.0638  0.6038  1.4834
 6963TIP3   OH220852   6.774   0.817   3.517 -0.1672  0.3223  0.3904
 6963TIP3    H120853   6.843   0.859   3.569  1.3098 -1.1769 -0.2476
 6963TIP3    H220854   6.815   0.800   3.432 -1.8963  0.9118 -0.5954
 6964TIP3   OH220855   0.816   5.893   2.761  0.2636  0.4445 -0.3699
 6964TIP3    H120856   0.724   5.865   2.762  0.2596  0.4475  0.2597
 6964TIP3    H220857   0.851   5.858   2.843  1.3607 -1.2979 -1.5220
 6965TIP3   OH220858   4.923   6.363   1.493 -0.0948 -0.5188  0.2336
 6965TIP3    H120859   4.976   6.321   1.425 -1.7668 -3.3277  0.5129
 6965TIP3    H220860   4.961   6.332   1.575 -0.6514 -0.5776  0.4746
 6966TIP3   OH220861   6.146   0.611   0.291  0.0139  0.1967  0.8840
 6966TIP3    H120862   6.103   0.696   0.299  0.6814  0.6568 -0.2860
 6966TIP3    H220863   6.098   0.566   0.222 -0.1952 -0.3096  1.3465
 6967TIP3   OH220864   4.145   5.646   0.514  0.2916  0.1167  0.4688
 6967TIP3    H120865   4.193   5.725   0.538 -1.0339  0.6084  1.6331
 6967TIP3    H220866   4.136   5.597   0.596  0.2883 -0.7955 -0.0616
 6968TIP3   OH220867   5.857   1.957   1.801  0.3470  0.1254  0.1933
 6968TIP3    H120868   5.951   1.964   1.815  0.0988 -0.2319  2.2091
 6968TIP3    H220869   5.846   1.874   1.756  0.9495 -0.0785  0.4091
 6969TIP3   OH220870   4.141   0.677   0.901 -0.0030 -0.4763  0.4631
 6969TIP3    H120871   4.169   0.712   0.816  1.9712 -1.5924  0.5906
 6969TIP3    H220872   4.165   0.585   0.898  0.1348 -0.5312  2.2523
 6970TIP3   OH220873   4.868   6.631   0.294  0.1719  0.4841 -0.2489
 6970TIP3    H120874   4.926   6.613   0.367 -0.1785  0.4043  0.0084
 6970TIP3    H220875   4.781   6.634   0.332 -0.0870 -0.2504 -0.7745
 6971TIP3   OH220876   2.039   6.280   5.064  0.2226 -0.4103  0.3136
 6971TIP3    H120877   1.964   6.336   5.086  0.9328  0.7349 -0.1024
 6971TIP3    H220878   2.030   6.204   5.123 -1.9559 -0.9478 -0.6009
 6972TIP3   OH220879   2.242   5.821   0.476 -0.0553 -0.1472  0.1976
 6972TIP3    H120880   2.271   5.856   0.392  0.6544 -0.0106  0.4961
 6972TIP3    H220881   2.229   5.728   0.459  1.6208 -0.4331  0.3165
 6973TIP3   OH220882   4.860   3.681   2.152  0.3596 -0.0877  0.6464
 6973TIP3    H120883   4.785   3.651   2.203  1.3939 -0.4303  2.0400
 6973TIP3    H220884   4.897   3.601   2.115 -0.1099  0.1115 -0.2937
 6974TIP3   OH220885   2.203   4.024   5.467 -0.1530  0.4728  0.0385
 6974TIP3    H120886   2.295   4.047   5.454 -0.3332  1.3099  0.2060
 6974TIP3    H220887   2.194   4.011   5.562 -0.8001  3.1835  0.4377
 6975TIP3   OH220888   3.437   3.513   5.309 -0.2284 -0.4259 -0.1051
 6975TIP3    H120889   3.403   3.517   5.399  2.1253 -0.7418  0.8598
 6975TIP3    H220890   3.389   3.440   5.269 -2.1869  0.4709  0.4517
 6976TIP3   OH220891   6.449   6.450   1.578 -0.5323  0.2111  0.3184
 6976TIP3    H120892   6.422   6.523   1.523  0.4478  0.3156 -0.0488
 6976TIP3    H220893   6.488   6.492   1.656 -2.2195  0.0691  1.2822
 6977TIP3   OH220894   6.168   3.351   1.428  0.1076  0.0109  0.1119
 6977TIP3    H120895   6.161   3.293   1.504  0.3171 -1.1383 -0.7071
 6977TIP3    H220896   6.100   3.417   1.442 -2.8980 -2.6303 -0.7212
 6978TIP3   OH220897   2.282   2.435   3.280  0.5143 -0.2553  0.0289
 6978TIP3    H120898   2.305   2.457   3.371  1.4000  0.9235 -0.4560
 6978TIP3    H220899   2.366   2.411   3.240  0.0612 -1.2142 -0.3862
 6979TIP3   OH220900   0.934   3.892   2.638 -0.0200  0.0291 -0.1809
 6979TIP3    H120901   0.935   3.803   2.672 -3.4932 -0.2940 -0.5869
 6979TIP3    H220902   1.017   3.900   2.589  1.2196 -2.2773  1.3615
 6980TIP3   OH220903   5.220   2.258   5.009 -0.4488  0.2902 -0.5167
 6980TIP3    H120904   5.142   2.276   4.957  0.0373  2.0640 -0.6745
 6980TIP3    H220905   5.187   2.240   5.097 -1.0356  1.3897 -0.4958
 6981TIP3   OH220906   5.107   2.676   4.404  0.3742 -0.1388 -0.0093
 6981TIP3    H120907   5.164   2.632   4.342  0.1431  0.1217 -0.4110
 6981TIP3    H220908   5.020   2.637   4.390  0.6612 -1.3813  1.4174
 6982TIP3   OH220909   1.235   2.201   3.613 -0.0903  0.3635 -0.1816
 6982TIP3    H120910   1.308   2.213   3.674 -0.0240  1.6707 -0.4973
 6982TIP3    H220911   1.161   2.245   3.655  0.2252  2.2422 -1.5054
 6983TIP3   OH220912   2.077   1.418   3.475 -0.4400  0.1729  0.7105
 6983TIP3    H120913   2.112   1.491   3.526  0.4428 -1.0300  1.8960
 6983TIP3    H220914   2.025   1.368   3.538 -2.1401  0.4707 -0.4013
 6984TIP3   OH220915   5.681   0.347   2.300 -0.2455  0.1433  0.2857
 6984TIP3    H120916   5.674   0.336   2.205 -0.4119 -0.2619  0.3438
 6984TIP3    H220917   5.591   0.366   2.329 -0.1276  0.6933  0.3133
 6985TIP3   OH220918   4.076   2.599   1.150 -0.1078  0.2271  0.5368
 6985TIP3    H120919   4.138   2.531   1.179  0.0805 -1.3244 -3.0360
 6985TIP3    H220920   3.991   2.555   1.152 -0.1931  0.3342 -0.3950
 6986TIP3   OH220921   5.452   5.935   1.477  0.0321  0.0609 -0.3241
 6986TIP3    H120922   5.529   5.970   1.521  0.3056  0.8392 -1.3831
 6986TIP3    H220923   5.487   5.892   1.399 -0.3317 -2.2461  0.7045
 6987TIP3   OH220924   5.473   3.645   2.314  0.4569 -0.1052  0.8466
 6987TIP3    H120925   5.412   3.698   2.365  1.3342  2.8165 -0.9187
 6987TIP3    H220926   5.559   3.682   2.333  1.0173 -0.2791 -1.1217
 6988TIP3   OH220927   2.367   2.634   2.921 -1.0879 -0.3636  0.4213
 6988TIP3    H120928   2.315   2.570   2.969 -0.2559 -0.2792  1.4836
 6988TIP3    H220929   2.406   2.690   2.989 -0.1913  0.0157 -0.3681
 6989TIP3   OH220930   4.672   4.285   4.418 -0.4240 -0.5210 -0.1363
 6989TIP3    H120931   4.601   4.316   4.362 -1.0189 -0.5776  0.5666
 6989TIP3    H220932   4.750   4.292   4.364 -0.6352  1.5278 -0.2499
 6990TIP3   OH220933   3.548   4.987   2.383 -0.3394 -0.1699 -0.0940
 6990TIP3    H120934   3.479   5.036   2.337 -0.0429  0.9699  0.6289
 6990TIP3    H220935   3.629   5.031   2.357 -0.0549 -0.3614  0.4653
 6991TIP3   OH220936   3.907   5.533   2.806  0.3901 -0.0609 -0.3287
 6991TIP3    H120937   3.930   5.587   2.882 -1.1145  1.5747 -0.9695
 6991TIP3    H220938   3.952   5.573   2.733 -1.5777  1.0954 -0.9964
 6992TIP3   OH220939   2.252   1.502   4.710  0.5495 -0.0772  0.1408
 6992TIP3    H120940   2.178   1.493   4.650 -0.1341 -0.4648  1.0247
 6992TIP3    H220941   2.329   1.489   4.655 -0.0422  0.2472 -0.7767
 6993TIP3   OH220942   1.669   1.582   5.376  0.2476 -0.2819 -0.0841
 6993TIP3    H120943   1.762   1.563   5.373  0.8355  2.3534 -1.2315
 6993TIP3    H220944   1.659   1.639   5.453 -0.3235 -0.1086 -0.2838
 6994TIP3   OH220945   0.461   3.005   0.223  0.7088  0.1822  0.7034
 6994TIP3    H120946   0.543   3.049   0.244  0.1663  0.9007  1.3424
 6994TIP3    H220947   0.484   2.947   0.149  2.2993 -1.2700  2.2339
 6995TIP3   OH220948   3.983   3.884   4.236 -0.7963 -0.3327 -0.3273
 6995TIP3    H120949   3.897   3.919   4.213 -0.4187  1.1977  0.4579
 6995TIP3    H220950   3.967   3.793   4.260 -2.4288  0.2883  1.1230
 6996TIP3   OH220951   6.209   2.444   1.291 -0.3475  0.1934  0.2190
 6996TIP3    H120952   6.283   2.491   1.255  0.7562 -2.2186 -0.8559
 6996TIP3    H220953   6.227   2.439   1.385 -0.1983  1.3382  0.2646
 6997TIP3   OH220954   5.284   6.499   5.597 -0.3746 -0.3262  0.2140
 6997TIP3    H120955   5.202   6.537   5.564  0.5461  1.5154 -0.0931
 6997TIP3    H220956   5.261   6.409   5.621 -2.3547 -0.0171 -0.3455
 6998TIP3   OH220957   3.956   3.669   1.449 -0.2433  0.2542 -0.1376
 6998TIP3    H120958   3.988   3.586   1.485  1.2182  1.5260  1.6683
 6998TIP3    H220959   3.891   3.643   1.384  0.5048 -2.3124  0.0259
 6999TIP3   OH220960   1.742   2.661   1.755 -0.2065  0.0458 -0.1195
 6999TIP3    H120961   1.669   2.614   1.796  0.1668 -0.7655 -0.3604
 6999TIP3    H220962   1.812   2.596   1.752 -0.3451 -0.0755 -2.4262
 7000TIP3   OH220963   5.157   4.395   5.394 -0.0042  0.0664 -0.2116
 7000TIP3    H120964   5.213   4.460   5.351  0.8104 -0.5693 -0.1396
 7000TIP3    H220965   5.181   4.312   5.353 -0.3461 -0.3264  0.3744
 7001TIP3   OH220966   4.579   2.540   0.033  0.0086 -0.3124  0.4619
 7001TIP3    H120967   4.635   2.564  -0.040 -0.7241  1.5299  0.4542
 7001TIP3    H220968   4.497   2.588   0.017 -0.6190 -0.8866  1.8142
 7002TIP3   OH220969   5.877   6.746   5.185  0.1142  0.3156  0.0432
 7002TIP3    H120970   5.820   6.789   5.121  1.7419  2.5680 -0.0045
 7002TIP3    H220971   5.856   6.788   5.268  0.1317 -0.4512  0.4425
 7003TIP3   OH220972   7.190   2.342   0.994  0.8176  0.1382 -0.1278
 7003TIP3    H120973   7.271   2.345   0.942 -0.4939  1.0599 -2.2450
 7003TIP3    H220974   7.123   2.315   0.933 -0.7644  0.8766  1.2046
 7004TIP3   OH220975   6.293   0.619   3.174 -0.3758  0.2293  0.4641
 7004TIP3    H120976   6.346   0.611   3.254 -0.9529 -1.2284  0.7373
 7004TIP3    H220977   6.357   0.629   3.104  0.2832 -1.1701  0.8244
 7005TIP3   OH220978   5.647   5.676   2.187  0.0659  0.1856 -0.3569
 7005TIP3    H120979   5.554   5.697   2.190 -0.9313 -3.5022  0.2340
 7005TIP3    H220980   5.672   5.687   2.095 -1.9328 -1.8967 -1.2471
 7006TIP3   OH220981   1.516   6.291   4.805 -0.2840 -0.3616  0.4166
 7006TIP3    H120982   1.454   6.324   4.869  0.2538  1.2697  0.1484
 7006TIP3    H220983   1.480   6.207   4.777 -2.6453  0.7491 -0.0936
 7007TIP3   OH220984   3.051   6.688   1.712 -0.1470 -0.4413 -0.5479
 7007TIP3    H120985   3.129   6.723   1.669 -0.1850  0.3224 -0.0117
 7007TIP3    H220986   2.996   6.765   1.729 -0.8527 -0.9248 -0.5881
 7008TIP3   OH220987   3.119   6.399   4.094  0.3078 -0.3908 -0.3223
 7008TIP3    H120988   3.104   6.468   4.159  0.3320 -1.0779  0.4355
 7008TIP3    H220989   3.201   6.357   4.122 -0.0653 -1.1683 -0.3566
 7009TIP3   OH220990   4.245   6.719   4.544 -0.5375  0.1646 -0.0260
 7009TIP3    H120991   4.291   6.674   4.615  1.3609 -0.6345 -1.6731
 7009TIP3    H220992   4.278   6.809   4.547 -2.5995  0.9588  1.8025
 7010TIP3   OH220993   1.353   1.307   1.891  0.2054 -0.4657  0.2549
 7010TIP3    H120994   1.417   1.289   1.961  1.0470 -1.0947 -0.6388
 7010TIP3    H220995   1.270   1.318   1.937  0.8869  0.0522  1.4326
 7011TIP3   OH220996   3.963   2.275   4.860 -0.3641  0.1187  0.5844
 7011TIP3    H120997   3.990   2.364   4.883 -0.5304  0.5664 -0.8694
 7011TIP3    H220998   3.956   2.276   4.765 -2.4489 -0.8366  0.6680
 7012TIP3   OH220999   4.765   0.747   3.358  0.0272 -0.6735  0.1765
 7012TIP3    H121000   4.827   0.674   3.359  2.1836  1.0150 -0.9003
 7012TIP3    H221001   4.802   0.811   3.419 -0.9345  0.1676 -0.1009
 7013TIP3   OH221002   2.587   3.306   4.904 -0.1195  0.2697 -0.2858
 7013TIP3    H121003   2.538   3.303   4.986  0.5167  1.3232  0.1614
 7013TIP3    H221004   2.555   3.231   4.854  1.0247 -1.6989  1.7798
 7014TIP3   OH221005   4.204   1.958   0.812 -0.7081 -0.0886 -0.5024
 7014TIP3    H121006   4.155   2.039   0.822 -1.8664 -0.6905 -1.1550
 7014TIP3    H221007   4.260   1.972   0.736  1.4491  1.1987  1.1817
 7015TIP3   OH221008   3.427   3.636   2.067 -0.2959 -0.1963  0.1878
 7015TIP3    H121009   3.361   3.582   2.112 -1.1789 -0.5286 -1.4553
 7015TIP3    H221010   3.397   3.641   1.977  0.5773  1.8386 -0.0307
 7016TIP3   OH221011   4.775   1.866   5.743  0.2869 -0.1028 -0.1774
 7016TIP3    H121012   4.798   1.949   5.785  1.0662 -0.0538 -0.6846
 7016TIP3    H221013   4.686   1.848   5.774  1.9555 -1.9056  4.4964
 7017TIP3   OH221014   6.789   0.500   1.882 -0.4620 -0.2211  0.1879
 7017TIP3    H121015   6.878   0.533   1.897 -0.7795  1.2339 -0.8837
 7017TIP3    H221016   6.735   0.579   1.881 -1.8386 -1.1045  1.1040
 7018TIP3   OH221017   4.595   5.838   4.735  0.2699  0.3974 -0.5323
 7018TIP3    H121018   4.619   5.807   4.822 -1.1189 -2.4743 -1.0428
 7018TIP3    H221019   4.666   5.807   4.678  0.6586  1.3556 -0.5801
 7019TIP3   OH221020   1.993   1.092   4.623 -0.2432 -0.0599  0.1697
 7019TIP3    H121021   2.047   1.031   4.573  0.0401 -0.2337  0.6753
 7019TIP3    H221022   2.012   1.178   4.585 -0.8478 -0.3187 -0.7203
 7020TIP3   OH221023   1.570   3.195   3.705  0.0069 -0.1132 -0.3863
 7020TIP3    H121024   1.539   3.228   3.621 -0.4012  0.1180 -0.1484
 7020TIP3    H221025   1.495   3.148   3.742 -0.0084  0.2735  0.0999
 7021TIP3   OH221026   5.420   5.681   1.325 -0.2733  0.0422 -0.1809
 7021TIP3    H121027   5.449   5.693   1.235 -0.9172  2.0045 -0.1605
 7021TIP3    H221028   5.461   5.599   1.352  0.0447 -0.5232 -2.1937
 7022TIP3   OH221029   3.710   3.932   3.298 -0.0282  0.2005  0.1293
 7022TIP3    H121030   3.644   3.998   3.277 -0.5440  1.2264  4.1521
 7022TIP3    H221031   3.664   3.869   3.355  2.1722  0.6501  2.5997
 7023TIP3   OH221032   1.917   1.615   5.048  0.6544  0.2103 -0.3716
 7023TIP3    H121033   1.957   1.529   5.055  1.8013  0.7991  0.5614
 7023TIP3    H221034   1.823   1.597   5.039  0.8275 -1.1123  0.2422
 7024TIP3   OH221035   3.635  -0.010   2.908 -0.2490  0.3234 -0.5505
 7024TIP3    H121036   3.686   0.026   2.981 -0.1344  1.5831 -1.2211
 7024TIP3    H221037   3.546   0.021   2.923 -0.9429 -2.0069  0.7087
 7025TIP3   OH221038   6.564   6.043   5.448  0.3547  0.7633  0.4644
 7025TIP3    H121039   6.653   6.034   5.481  1.0017  1.1822 -1.0566
 7025TIP3    H221040   6.513   6.077   5.522  1.2690 -0.2094  1.5777
 7026TIP3   OH221041   2.059   2.438   0.845  0.2403  0.2474 -0.1022
 7026TIP3    H121042   2.052   2.343   0.857 -0.0703  0.1759 -0.8333
 7026TIP3    H221043   2.138   2.462   0.895 -1.3044  0.0795  2.6232
 7027TIP3   OH221044   6.461   1.671   3.140 -0.3935 -0.5079 -0.3239
 7027TIP3    H121045   6.435   1.631   3.223 -1.7325 -0.5113 -0.7318
 7027TIP3    H221046   6.471   1.764   3.160 -0.6530 -0.5180 -0.1442
 7028TIP3   OH221047   2.555   0.719   1.571 -0.1371  0.0585 -0.0223
 7028TIP3    H121048   2.633   0.758   1.610  0.8702  1.1168 -2.8069
 7028TIP3    H221049   2.506   0.683   1.645  1.5320  1.9372  2.1368
 7029TIP3   OH221050   6.067  -0.015   4.930  0.2340  0.3280  0.5175
 7029TIP3    H121051   6.042   0.074   4.958  0.2978  0.1542  1.1368
 7029TIP3    H221052   6.005  -0.036   4.860 -0.9981  0.1467  1.6186
 7030TIP3   OH221053   3.421   6.426   0.840 -0.4714  0.0941  0.2993
 7030TIP3    H121054   3.483   6.357   0.816 -0.1155  1.5242 -3.5766
 7030TIP3    H221055   3.340   6.402   0.797 -1.1805  0.7567  1.2135
 7031TIP3   OH221056   1.916   2.249   5.131 -0.2025 -0.0291  0.1926
 7031TIP3    H121057   1.961   2.300   5.063  2.4546 -2.1357  0.1957
 7031TIP3    H221058   1.870   2.180   5.083 -0.7601  0.2043  0.3871
 7032TIP3   OH221059   3.919   6.432   5.149 -0.3818  0.9339 -0.0612
 7032TIP3    H121060   3.980   6.460   5.217 -0.0061  1.7956 -0.7298
 7032TIP3    H221061   3.961   6.355   5.110 -0.9093  0.0322  1.0818
 7033TIP3   OH221062   7.065   4.978   2.957  0.0132 -0.2848  0.3417
 7033TIP3    H121063   7.104   4.946   3.038 -0.9189  1.3324  1.4972
 7033TIP3    H221064   7.106   5.063   2.942  1.6562 -1.3985 -2.0485
 7034TIP3   OH221065   4.917   2.709   2.327 -0.7582 -0.2478  0.2915
 7034TIP3    H121066   4.953   2.694   2.415 -3.5230  1.3632  1.8178
 7034TIP3    H221067   4.833   2.664   2.328 -1.0848  0.2791 -1.3673
 7035TIP3   OH221068   4.415   0.484   2.895 -0.2373 -0.1068 -0.3964
 7035TIP3    H121069   4.418   0.509   2.802 -0.0106 -0.7411 -0.5695
 7035TIP3    H221070   4.321   0.478   2.915 -0.3004  1.1201 -0.2693
 7036TIP3   OH221071   1.057   4.967   5.102 -0.2516 -0.2015 -0.0045
 7036TIP3    H121072   0.968   4.936   5.087 -1.0482  1.8885  0.0789
 7036TIP3    H221073   1.110   4.922   5.036 -1.3453 -1.4928 -0.0385
 7037TIP3   OH221074   0.558   6.523   1.770 -0.4642  0.4466  0.3430
 7037TIP3    H121075   0.510   6.566   1.699 -0.3472 -2.4937 -1.6776
 7037TIP3    H221076   0.490   6.482   1.823 -0.3996 -0.3800 -0.2014
 7038TIP3   OH221077   4.596   2.830   2.379 -0.4618  0.5963 -0.6088
 7038TIP3    H121078   4.631   2.755   2.427 -0.0435  2.4456  2.1846
 7038TIP3    H221079   4.502   2.811   2.371 -0.8953  0.8860  2.5233
 7039TIP3   OH221080   1.646   1.398   4.989  0.2074 -0.0869 -0.1895
 7039TIP3    H121081   1.597   1.424   5.067  1.3028  0.0137  0.4950
 7039TIP3    H221082   1.697   1.322   5.018  0.1375 -0.4456 -0.9962
 7040TIP3   OH221083   4.444   2.481   3.797  0.1240 -0.1050  0.2484
 7040TIP3    H121084   4.438   2.386   3.795  0.1425 -0.1033 -1.3771
 7040TIP3    H221085   4.444   2.507   3.704  0.5568  1.4397  0.6483
 7041TIP3   OH221086   2.066   3.753   5.155 -0.7084  0.4079 -0.3298
 7041TIP3    H121087   2.088   3.662   5.139 -1.2555  0.2285 -0.0779
 7041TIP3    H221088   2.098   3.800   5.078 -1.3436 -0.1350 -0.9328
 7042TIP3   OH221089   4.753   1.687   0.687  0.0932 -0.0319 -0.1331
 7042TIP3    H121090   4.724   1.693   0.778 -0.3206 -1.3222 -0.1578
 7042TIP3    H221091   4.701   1.753   0.641 -0.9129 -0.5130  0.2848
 7043TIP3   OH221092   3.834   6.240   1.220 -0.0806 -0.2670 -0.2080
 7043TIP3    H121093   3.837   6.240   1.124  0.7406  0.6355 -0.1922
 7043TIP3    H221094   3.888   6.315   1.246 -0.7419 -0.1737  0.9497
 7044TIP3   OH221095   3.954   5.119   1.541 -0.0328 -0.3045  0.5963
 7044TIP3    H121096   3.937   5.173   1.463  1.3157 -1.2172 -0.3846
 7044TIP3    H221097   4.015   5.052   1.510  0.3639 -0.8243  2.4043
 7045TIP3   OH221098   2.446   1.722   0.363  1.0166 -0.2925  0.5787
 7045TIP3    H121099   2.464   1.636   0.324 -1.1360  0.3176 -2.1408
 7045TIP3    H221100   2.473   1.785   0.296  0.6661  1.0442  1.6460
 7046TIP3   OH221101   6.842   6.154   2.227  0.4410 -0.5155 -0.2943
 7046TIP3    H121102   6.803   6.086   2.172  0.1918 -0.1960 -0.5174
 7046TIP3    H221103   6.768   6.206   2.258  0.7556  0.8411 -1.7064
 7047TIP3   OH221104   3.840   0.038   2.423  0.3321 -0.5306  0.2877
 7047TIP3    H121105   3.820  -0.054   2.406  0.2020 -0.8827  2.1657
 7047TIP3    H221106   3.774   0.066   2.487  0.4617  0.8428 -0.1364
 7048TIP3   OH221107   5.999   5.437   1.353  0.0725 -0.0185  0.8641
 7048TIP3    H121108   5.934   5.466   1.289  1.7085 -0.4111 -1.0747
 7048TIP3    H221109   6.060   5.510   1.361  0.2452 -0.2223  1.5023
 7049TIP3   OH221110   2.771   3.746   4.564  0.7051  0.5520 -0.4990
 7049TIP3    H121111   2.845   3.716   4.615 -0.5905 -0.2700  0.9931
 7049TIP3    H221112   2.701   3.683   4.584  0.0803  0.2551 -3.1949
 7050TIP3   OH221113   6.572   5.842   4.939 -0.1072 -1.2764  0.3807
 7050TIP3    H121114   6.517   5.782   4.989 -0.4731  0.4754  2.2022
 7050TIP3    H221115   6.638   5.872   5.002  1.3257 -1.2906 -1.0403
 7051TIP3   OH221116   3.945   0.751   5.101  0.1848  0.5517 -0.0779
 7051TIP3    H121117   4.038   0.729   5.090  0.2134  0.3834  0.4783
 7051TIP3    H221118   3.945   0.842   5.129  0.2402  0.2440  0.9507
 7052TIP3   OH221119   3.417   2.688   1.880 -0.0476 -0.1140 -0.6864
 7052TIP3    H121120   3.486   2.660   1.819  0.1623 -0.7865 -0.1558
 7052TIP3    H221121   3.438   2.642   1.962 -0.3561  0.7291 -0.1238
 7053TIP3   OH221122   6.039   1.602   0.650  0.5780 -0.1064  0.6324
 7053TIP3    H121123   6.118   1.596   0.704  1.7551  1.5912 -0.8107
 7053TIP3    H221124   6.022   1.696   0.641 -1.4772 -0.4174  0.6638
 7054TIP3   OH221125   3.176   4.773   4.922 -0.2019 -0.2204  0.3435
 7054TIP3    H121126   3.185   4.838   4.991  1.3441  0.2650 -0.2771
 7054TIP3    H221127   3.219   4.813   4.846 -1.6848 -0.8176 -0.8574
 7055TIP3   OH221128   2.069   4.062   5.029 -0.2171 -0.0647 -0.2375
 7055TIP3    H121129   2.031   4.090   5.113 -1.3219 -0.3344 -0.6337
 7055TIP3    H221130   2.050   4.135   4.969  1.3894  0.5431 -0.0509
 7056TIP3   OH221131   6.892   0.136   0.505 -0.3891 -0.1562 -0.3808
 7056TIP3    H121132   6.931   0.161   0.421  0.1884  2.4467  0.5692
 7056TIP3    H221133   6.880   0.219   0.552  0.5094 -1.5970  2.6425
 7057TIP3   OH221134   6.138   2.828   2.236 -0.0529 -0.0918 -0.4326
 7057TIP3    H121135   6.103   2.911   2.203  1.5900 -0.4027 -3.4178
 7057TIP3    H221136   6.222   2.852   2.275 -0.8769 -0.0627  1.4341
 7058TIP3   OH221137   5.965   0.795   2.142  0.1522  0.5552 -0.2332
 7058TIP3    H121138   5.938   0.882   2.113  3.1235  1.1550 -1.6495
 7058TIP3    H221139   6.045   0.811   2.191  0.7117 -1.3599 -0.4556
 7059TIP3   OH221140   3.828   6.494   4.452 -0.0799  0.0013  0.1498
 7059TIP3    H121141   3.897   6.554   4.422  0.4561 -0.4079  0.5528
 7059TIP3    H221142   3.759   6.552   4.484  0.6146  0.4166  0.9479
 7060TIP3   OH221143   5.768   3.044   1.523  0.3417  0.2175 -0.0778
 7060TIP3    H121144   5.809   3.039   1.437 -0.7190 -1.1005 -0.5530
 7060TIP3    H221145   5.706   2.970   1.524  0.1599  0.3495  1.7167
 7061TIP3   OH221146   5.121   4.260   3.331 -0.1821  0.5392 -0.3068
 7061TIP3    H121147   5.135   4.351   3.355 -1.6550  0.8525 -0.5249
 7061TIP3    H221148   5.138   4.257   3.237  1.1253  0.2943 -0.0771
 7062TIP3   OH221149   3.020   4.153   5.670 -0.1177 -0.3943  0.2981
 7062TIP3    H121150   2.983   4.178   5.586 -1.7713  2.1602  1.6355
 7062TIP3    H221151   3.062   4.233   5.703 -0.4392 -0.9901  2.3306
 7063TIP3   OH221152   1.910   0.469   1.555 -0.2095 -0.8447 -0.3939
 7063TIP3    H121153   1.984   0.528   1.538 -0.7339  0.2673  0.9905
 7063TIP3    H221154   1.950   0.393   1.598  0.2998 -0.9046 -0.9545
 7064TIP3   OH221155   1.621   3.404   5.279 -0.5739  0.1958  0.4703
 7064TIP3    H121156   1.594   3.493   5.303  0.6365 -0.2056  3.9993
 7064TIP3    H221157   1.541   3.360   5.255 -1.3240  1.9985 -0.5437
 7065TIP3   OH221158   3.500   3.384   4.627  0.2480 -0.3024  0.5605
 7065TIP3    H121159   3.485   3.358   4.536  1.0142  0.0119  0.3308
 7065TIP3    H221160   3.463   3.314   4.679 -3.9757  1.3449  0.1625
 7066TIP3   OH221161   5.022   0.857   1.199  0.0532 -0.4414  0.5178
 7066TIP3    H121162   5.058   0.824   1.281  0.9685 -1.4684 -0.2608
 7066TIP3    H221163   4.952   0.795   1.177  0.7540 -1.0151 -0.1707
 7067TIP3   OH221164   4.577   4.559   3.052  0.4819  0.0552 -0.6664
 7067TIP3    H121165   4.653   4.517   3.011  0.0712 -1.2080 -0.1803
 7067TIP3    H221166   4.603   4.569   3.144  0.1062 -0.2653 -0.5264
 7068TIP3   OH221167   0.588   3.799   1.940 -0.3501 -0.0657 -0.0662
 7068TIP3    H121168   0.659   3.852   1.904  0.7736 -2.3790 -1.4594
 7068TIP3    H221169   0.631   3.736   1.998 -1.3535 -0.8402 -0.1325
 7069TIP3   OH221170   3.131   5.533   2.905 -0.0923 -0.4003  0.0332
 7069TIP3    H121171   3.077   5.522   2.827 -0.2070  0.8878 -0.0969
 7069TIP3    H221172   3.219   5.506   2.876  0.2086  1.5149 -1.0611
 7070TIP3   OH221173   3.277   4.034   5.545  0.7060  0.2097  0.3919
 7070TIP3    H121174   3.353   4.046   5.488  0.6445  0.8229  0.4342
 7070TIP3    H221175   3.314   4.010   5.630  1.0006  2.6194  1.0177
 7071TIP3   OH221176   0.712   3.480   4.475 -0.8322 -0.1847  0.2693
 7071TIP3    H121177   0.740   3.402   4.522 -0.0252 -0.9525 -1.3874
 7071TIP3    H221178   0.792   3.531   4.463 -0.9598 -0.1444 -0.4841
 7072TIP3   OH221179   4.768   2.853   2.708 -0.9472  0.0093  0.3664
 7072TIP3    H121180   4.775   2.858   2.803 -1.0503  3.0875  0.3039
 7072TIP3    H221181   4.699   2.915   2.685 -0.1709  0.1789 -1.7945
 7073TIP3   OH221182   4.177   4.999   5.580  0.2070  0.1722 -0.4206
 7073TIP3    H121183   4.243   4.949   5.532  1.1049 -0.2394  1.1809
 7073TIP3    H221184   4.143   4.938   5.646  0.8350  1.4137  1.1364
 7074TIP3   OH221185   1.744   0.010   3.212 -0.0866  0.1289  0.1919
 7074TIP3    H121186   1.661   0.007   3.164 -0.4358 -2.3839  0.7834
 7074TIP3    H221187   1.720  -0.015   3.301  1.3530 -1.4619  0.1950
 7075TIP3   OH221188   6.388   3.694   1.318  0.0006  0.0564 -0.6666
 7075TIP3    H121189   6.424   3.624   1.264 -0.3238 -0.0355 -0.7630
 7075TIP3    H221190   6.387   3.771   1.260 -2.1789 -0.4914 -1.4394
 7076TIP3   OH221191   6.586   2.986   3.878  0.1698 -0.3026  0.2300
 7076TIP3    H121192   6.655   3.023   3.822  1.4890 -1.5166  0.9887
 7076TIP3    H221193   6.518   3.053   3.878  1.0791  0.6981 -1.0308
 7077TIP3   OH221194   2.557   4.719   1.273  0.6660 -0.2375 -0.2192
 7077TIP3    H121195   2.651   4.710   1.291  0.8729  0.6720 -0.7903
 7077TIP3    H221196   2.548   4.805   1.231 -0.3940 -0.4080 -0.3785
 7078TIP3   OH221197   0.744   4.552   0.041  0.0113 -0.1155  0.0179
 7078TIP3    H121198   0.663   4.520   0.080 -0.1926  2.3541  1.8792
 7078TIP3    H221199   0.718   4.595  -0.040 -0.3257 -0.5431 -0.1023
 7079TIP3   OH221200   4.548   3.409   2.449 -0.0133  0.3137  0.2090
 7079TIP3    H121201   4.636   3.416   2.486  0.4841 -1.5813 -0.4723
 7079TIP3    H221202   4.493   3.386   2.524  0.0498  1.5797  0.6535
 7080TIP3   OH221203   3.317   3.673   4.102  0.2380  0.3660 -0.5515
 7080TIP3    H121204   3.260   3.622   4.161 -0.3341  1.2187 -0.3420
 7080TIP3    H221205   3.260   3.742   4.068  1.0731  1.0456 -0.5987
 7081TIP3   OH221206   2.440   0.666   0.022 -0.5452  0.2028 -0.2364
 7081TIP3    H121207   2.406   0.604  -0.042 -2.0188 -0.0046  0.6920
 7081TIP3    H221208   2.383   0.656   0.098  1.9941 -0.6103  1.7199
 7082TIP3   OH221209   7.153   2.792   0.728 -0.1576 -0.3767  0.0586
 7082TIP3    H121210   7.222   2.818   0.789  2.5207 -2.8448 -1.7203
 7082TIP3    H221211   7.097   2.733   0.779  0.1605  0.0622  0.9492
 7083TIP3   OH221212   1.669   1.709   3.378  0.2384 -1.0012  0.2374
 7083TIP3    H121213   1.596   1.721   3.439 -1.3930 -0.1352 -1.7606
 7083TIP3    H221214   1.631   1.726   3.292  2.3046 -2.7486 -1.1082
 7084TIP3   OH221215   5.352   6.265   4.361 -0.6716 -0.4463 -0.5897
 7084TIP3    H121216   5.333   6.260   4.267  0.5008 -0.3567 -0.8502
 7084TIP3    H221217   5.399   6.184   4.381 -0.1815 -0.0956 -0.2699
 7085TIP3   OH221218   4.199   5.475   2.695  0.2846 -0.0040 -0.0517
 7085TIP3    H121219   4.289   5.488   2.663  0.1714  1.0721  0.0211
 7085TIP3    H221220   4.147   5.539   2.645 -0.5716 -1.1017 -0.6089
 7086TIP3   OH221221   2.083   6.316   4.255 -1.1612 -0.0920 -0.2221
 7086TIP3    H121222   2.001   6.295   4.210 -1.6982  0.7666  0.3066
 7086TIP3    H221223   2.131   6.370   4.193 -1.8635  1.0177  0.1559
 7087TIP3   OH221224   2.428   3.450   3.684 -0.4051  0.7430 -0.1897
 7087TIP3    H121225   2.345   3.408   3.706 -0.5087  0.1517 -1.6023
 7087TIP3    H221226   2.403   3.529   3.635 -0.1578  1.2632  0.5071
 7088TIP3   OH221227   1.329   1.412   0.877 -0.2456  0.1498 -0.0632
 7088TIP3    H121228   1.416   1.398   0.914 -0.9452 -0.3934  1.4426
 7088TIP3    H221229   1.340   1.401   0.783  1.3281  0.1972  0.1029
 7089TIP3   OH221230   1.143   2.011   3.417 -0.1881 -0.0461  0.1683
 7089TIP3    H121231   1.222   2.012   3.363  0.1489 -1.7464  0.5580
 7089TIP3    H221232   1.165   2.067   3.492 -0.1481  1.1830 -0.7440
 7090TIP3   OH221233   4.573   4.341   3.847  0.3434  0.4038 -0.1343
 7090TIP3    H121234   4.639   4.366   3.912  1.0005  1.1633 -1.0457
 7090TIP3    H221235   4.506   4.408   3.853 -0.3432 -0.3389  0.7548
 7091TIP3   OH221236   1.067   2.915   1.094 -0.6046  0.1594  0.3920
 7091TIP3    H121237   1.112   2.875   1.168  1.5913  0.3051 -0.7706
 7091TIP3    H221238   1.119   2.889   1.018 -2.6926  0.1316 -1.1053
 7092TIP3   OH221239   0.471   2.003   2.497  0.3175  0.1044 -0.0583
 7092TIP3    H121240   0.429   2.078   2.538  0.1467 -0.3453  0.5963
 7092TIP3    H221241   0.563   2.029   2.489  1.0490 -0.9633  3.5218
 7093TIP3   OH221242   0.597   1.451   2.466 -0.0487  0.6281  0.5360
 7093TIP3    H121243   0.604   1.369   2.515 -0.4685  0.6792  0.6867
 7093TIP3    H221244   0.520   1.494   2.502 -0.0015  0.9563  0.2544
 7094TIP3   OH221245   2.086   0.943   2.505 -0.3294 -0.4602 -0.4452
 7094TIP3    H121246   2.050   0.866   2.459 -1.9917 -0.2754  0.4674
 7094TIP3    H221247   2.143   0.906   2.572 -0.8877 -0.9056 -0.2036
 7095TIP3   OH221248   2.445   3.467   0.033  0.5999  0.4870  0.0938
 7095TIP3    H121249   2.431   3.461   0.127  0.1796 -0.4373 -0.0113
 7095TIP3    H221250   2.484   3.553   0.019 -1.3389  1.5384  0.8735
 7096TIP3   OH221251   2.252   6.570   0.560 -0.2946  0.2553 -0.5968
 7096TIP3    H121252   2.238   6.540   0.471  3.1686 -0.2527 -1.1317
 7096TIP3    H221253   2.327   6.519   0.591 -1.5907  0.1536  2.7896
 7097TIP3   OH221254   2.289   2.887   0.120  0.3002 -0.2869  0.5085
 7097TIP3    H121255   2.288   2.825   0.047  0.4886 -0.4511  0.6472
 7097TIP3    H221256   2.334   2.964   0.085 -1.0193  0.2707 -0.0702
 7098TIP3   OH221257   1.958   0.021   2.337  0.1666  0.0094 -0.5662
 7098TIP3    H121258   1.902  -0.027   2.398  1.1690 -1.2017 -0.5659
 7098TIP3    H221259   1.904   0.034   2.260 -1.1608  1.6440  0.5635
 7099TIP3   OH221260   1.111   4.839   3.772  0.8638 -0.0179  0.3623
 7099TIP3    H121261   1.017   4.844   3.784  0.9214  0.1041  0.7882
 7099TIP3    H221262   1.131   4.746   3.767  0.3937 -0.0403 -2.4841
 7100TIP3   OH221263   5.572   1.749   1.136  0.4257  0.5926  0.0317
 7100TIP3    H121264   5.620   1.674   1.171 -1.1471 -0.1413  0.7323
 7100TIP3    H221265   5.539   1.718   1.051 -1.0511  0.0739  0.7468
 7101TIP3   OH221266   7.180   1.996   2.556 -0.5160  0.3127 -0.1715
 7101TIP3    H121267   7.257   1.954   2.518 -0.9626 -0.2510 -0.4845
 7101TIP3    H221268   7.110   1.977   2.493 -1.5235 -1.5408  1.3888
 7102TIP3   OH221269   5.319   4.497   1.784 -0.2292  0.5513  0.6834
 7102TIP3    H121270   5.368   4.460   1.857 -0.8676  0.1986  0.9454
 7102TIP3    H221271   5.233   4.519   1.822 -0.1112  1.6428  0.3682
 7103TIP3   OH221272   3.697   0.344   1.200  0.6244 -0.4731 -0.5203
 7103TIP3    H121273   3.709   0.428   1.244 -1.8723 -0.7067  0.8102
 7103TIP3    H221274   3.667   0.367   1.113 -0.3633  0.0541 -0.0591
 7104TIP3   OH221275   3.103   3.863   0.438  0.4390  0.1230  0.0140
 7104TIP3    H121276   3.114   3.912   0.357  1.3476 -1.0833 -0.6410
 7104TIP3    H221277   3.137   3.776   0.417 -2.0101 -1.1190  0.7976
 7105TIP3   OH221278   3.087   2.950   5.195  0.1276  0.0549  0.4213
 7105TIP3    H121279   3.049   2.949   5.283  2.8928 -1.2068  1.7157
 7105TIP3    H221280   3.091   2.858   5.170  2.2244  0.1120  0.3772
 7106TIP3   OH221281   7.090   5.177   4.598 -0.7388  0.7797 -0.3887
 7106TIP3    H121282   7.139   5.248   4.558 -0.2511  1.7252  1.7144
 7106TIP3    H221283   7.076   5.206   4.689 -2.8691 -0.6381 -0.1877
 7107TIP3   OH221284   6.458   5.612   5.052 -0.1581 -0.2408  0.1882
 7107TIP3    H121285   6.376   5.615   5.100 -0.1528 -1.9704  0.3539
 7107TIP3    H221286   6.433   5.624   4.960 -0.4224  0.6226  0.3630
 7108TIP3   OH221287   3.829   2.178   0.929  0.1149 -0.3324  0.1513
 7108TIP3    H121288   3.833   2.087   0.957  1.9520  0.1212  1.5352
 7108TIP3    H221289   3.894   2.184   0.859 -1.3334 -0.4579 -1.2692
 7109TIP3   OH221290   3.123   1.844   0.441 -0.1267 -0.6964 -0.4076
 7109TIP3    H121291   3.167   1.927   0.427  0.6846 -1.0455 -0.0201
 7109TIP3    H221292   3.082   1.853   0.527  0.0799 -0.7394 -0.3026
 7110TIP3   OH221293   1.013   4.673   5.097 -0.4316 -0.2214 -0.7139
 7110TIP3    H121294   1.060   4.647   5.176 -0.3117 -0.3086 -0.8148
 7110TIP3    H221295   0.948   4.736   5.128 -0.9487 -0.8873 -0.4244
 7111TIP3   OH221296   5.507   6.312   1.124  0.1073  0.0986  0.3950
 7111TIP3    H121297   5.432   6.364   1.155 -1.3265 -1.2881 -0.5463
 7111TIP3    H221298   5.528   6.350   1.038 -0.5600 -0.4495 -0.0296
 7112TIP3   OH221299   6.734   3.187   3.161 -0.0526 -0.5222 -0.3805
 7112TIP3    H121300   6.777   3.240   3.095  0.9797  0.6412  1.1531
 7112TIP3    H221301   6.642   3.213   3.156  0.2768  0.7187 -0.3117
 7113TIP3   OH221302   4.523   1.837   4.655 -0.0690  0.4594 -0.1573
 7113TIP3    H121303   4.616   1.840   4.631 -0.0860 -1.0614 -0.5859
 7113TIP3    H221304   4.486   1.772   4.595 -1.3073  0.6746  0.3466
 7114TIP3   OH221305   5.602   2.646   4.773  0.1611  0.8275  0.2846
 7114TIP3    H121306   5.553   2.728   4.786  1.0760  1.0869  2.5864
 7114TIP3    H221307   5.561   2.584   4.833  1.2069  0.4084  0.5811
 7115TIP3   OH221308   5.119   5.552   0.291  0.2315 -0.1346  0.0587
 7115TIP3    H121309   5.123   5.569   0.197 -0.6845  1.4639  0.2806
 7115TIP3    H221310   5.047   5.490   0.302 -2.7789  3.0457  0.0358
 7116TIP3   OH221311   1.860   4.267   5.675  0.4099  0.1982 -0.1304
 7116TIP3    H121312   1.804   4.282   5.752  0.5544  0.9509 -0.1634
 7116TIP3    H221313   1.804   4.289   5.601  1.7125  4.5521 -0.0857
 7117TIP3   OH221314   3.524   2.642   1.429 -0.4221 -0.1740  0.2864
 7117TIP3    H121315   3.604   2.687   1.400 -0.2293 -1.2679 -1.0014
 7117TIP3    H221316   3.498   2.591   1.353 -1.6617 -0.7993  1.1167
 7118TIP3   OH221317   6.390   6.491   0.178  0.6364  1.2972  0.7465
 7118TIP3    H121318   6.330   6.526   0.112  0.4656  0.4426  0.4289
 7118TIP3    H221319   6.375   6.544   0.255  0.3377  1.8703  0.3013
 7119TIP3   OH221320  -0.003   4.923   4.648 -0.1932  0.2254 -0.4939
 7119TIP3    H121321  -0.024   5.014   4.631  1.8773  1.4497  2.5169
 7119TIP3    H221322   0.089   4.924   4.673 -0.4435 -2.4822  0.9457
 7120TIP3   OH221323   5.155   5.320   3.208  0.3917  0.6725 -0.3444
 7120TIP3    H121324   5.176   5.237   3.252  0.9608  0.8571 -0.2645
 7120TIP3    H221325   5.060   5.317   3.198  0.2002  0.7539  1.1725
 7121TIP3   OH221326   1.659   0.598   4.612  0.0285 -0.2659 -0.3641
 7121TIP3    H121327   1.585   0.537   4.619  0.3613 -0.8126 -1.3660
 7121TIP3    H221328   1.655   0.630   4.522 -0.9924  2.3392  0.5353
 7122TIP3   OH221329   5.114   0.879   1.573 -0.0492 -0.5823  0.5829
 7122TIP3    H121330   5.089   0.802   1.520 -0.8537 -0.2682  0.4863
 7122TIP3    H221331   5.185   0.920   1.523  0.4682 -1.3235  0.6924
 7123TIP3   OH221332   1.983   3.706   5.735  0.1987 -0.1575 -0.5678
 7123TIP3    H121333   2.020   3.719   5.647 -1.1677 -0.8493 -1.2899
 7123TIP3    H221334   1.978   3.794   5.773  0.9452  0.1331 -1.1205
 7124TIP3   OH221335   1.577   0.377   3.564  0.7319 -0.2092  0.3500
 7124TIP3    H121336   1.656   0.367   3.617  0.3527 -3.1268  0.5546
 7124TIP3    H221337   1.605   0.357   3.475  0.2985 -0.9421  0.3751
 7125TIP3   OH221338   0.872   1.861   4.047  0.0430  0.1860  0.1834
 7125TIP3    H121339   0.812   1.932   4.024 -0.0111 -0.1581 -0.7796
 7125TIP3    H221340   0.946   1.872   3.988 -0.7723 -1.6228 -1.2748
 7126TIP3   OH221341   3.696   3.575   5.404 -0.0689  0.2395 -0.3024
 7126TIP3    H121342   3.609   3.570   5.365  0.3363 -2.8404 -1.0160
 7126TIP3    H221343   3.746   3.505   5.362  1.7325 -0.3305  2.5041
 7127TIP3   OH221344   2.756   6.529   1.805 -0.1838 -0.1764  0.2570
 7127TIP3    H121345   2.751   6.593   1.734 -0.1819 -1.6813 -1.1616
 7127TIP3    H221346   2.846   6.496   1.801 -0.6587 -1.4783 -0.1864
 7128TIP3   OH221347   4.107   3.445   2.074 -0.3990 -0.0266  0.5180
 7128TIP3    H121348   4.087   3.381   2.142 -2.9100 -0.6491 -0.6866
 7128TIP3    H221349   4.079   3.529   2.111 -0.6890 -0.1966  0.6845
 7129TIP3   OH221350   5.051   3.097   3.126 -0.0322  0.1010  0.1856
 7129TIP3    H121351   5.117   3.115   3.194  0.6865 -0.3527 -0.3799
 7129TIP3    H221352   4.974   3.068   3.175  0.3988  0.0097  0.8269
 7130TIP3   OH221353   3.822   0.299   3.293  0.3026  0.1264 -0.2028
 7130TIP3    H121354   3.860   0.358   3.358 -1.1682  0.9616 -0.0522
 7130TIP3    H221355   3.733   0.331   3.281 -0.4596 -1.9020 -0.3518
 7131TIP3   OH221356   4.103   6.600   4.090  0.2740 -0.1256 -0.1426
 7131TIP3    H121357   4.013   6.572   4.078  0.4269 -0.3241 -0.9462
 7131TIP3    H221358   4.119   6.592   4.184  0.0367 -1.9251 -0.2083
 7132TIP3   OH221359   3.862   0.352   1.880  0.2205 -0.1107  0.3105
 7132TIP3    H121360   3.890   0.359   1.789  0.4086 -1.8183  0.1978
 7132TIP3    H221361   3.942   0.365   1.931  0.7123 -1.9259  0.0920
 7133TIP3   OH221362   2.203   5.739   5.132  0.5310  0.1600 -0.5040
 7133TIP3    H121363   2.285   5.691   5.123 -0.5296 -2.2440  1.4925
 7133TIP3    H221364   2.212   5.787   5.215 -0.3859 -0.8940  0.2376
 7134TIP3   OH221365   2.149   5.161   4.596 -0.9046  0.0725 -0.2882
 7134TIP3    H121366   2.203   5.201   4.664  2.3025  0.9532 -3.0993
 7134TIP3    H221367   2.130   5.073   4.628  3.5244 -0.8420  0.3708
 7135TIP3   OH221368   0.409   5.765   4.319  0.5445 -0.4392  0.5472
 7135TIP3    H121369   0.433   5.839   4.375 -0.4498  0.3001  0.0406
 7135TIP3    H221370   0.427   5.795   4.230 -1.5573 -0.0648  0.1888
 7136TIP3   OH221371   1.284   0.864   1.429  0.5031  0.4124 -0.1841
 7136TIP3    H121372   1.372   0.900   1.423  0.4345  1.0333  1.7085
 7136TIP3    H221373   1.229   0.927   1.382  0.8439  0.9750  0.1569
 7137TIP3   OH221374   3.814   0.616   2.050  0.5727 -0.4020 -0.0558
 7137TIP3    H121375   3.903   0.597   2.020  0.1951 -1.0075 -0.8430
 7137TIP3    H221376   3.824   0.634   2.143  1.9710  2.7875 -0.6878
 7138TIP3   OH221377   1.238   3.238   5.835 -0.1233 -0.0244  0.0366
 7138TIP3    H121378   1.261   3.146   5.844  0.8994  0.2534  0.4380
 7138TIP3    H221379   1.322   3.282   5.822 -0.3185  1.0936  2.0440
 7139TIP3   OH221380   1.905   3.652   3.909 -0.0998 -0.1478  0.1046
 7139TIP3    H121381   1.860   3.569   3.918 -0.2613 -0.0265  0.4468
 7139TIP3    H221382   1.995   3.635   3.938 -0.7106  0.3337  2.5438
 7140TIP3   OH221383   7.128   5.762   0.271  0.2194 -0.2827  0.4679
 7140TIP3    H121384   7.144   5.696   0.338 -1.5004 -1.4188 -0.1682
 7140TIP3    H221385   7.037   5.748   0.245  0.8438  0.0522 -2.1789
 7141TIP3   OH221386   3.253   1.113   3.246 -0.3264  0.0037  0.1002
 7141TIP3    H121387   3.282   1.108   3.338  1.6740  0.9959 -0.4136
 7141TIP3    H221388   3.231   1.205   3.233 -1.0707 -0.2289 -0.2916
 7142TIP3   OH221389   3.000   1.976   4.407  0.1761  0.2792  0.0633
 7142TIP3    H121390   3.043   1.935   4.481  1.9728  0.8461 -0.6102
 7142TIP3    H221391   3.031   2.067   4.409  2.5010 -0.2992 -2.8769
 7143TIP3   OH221392   5.468   6.104   3.649 -0.1358  0.2180 -0.3887
 7143TIP3    H121393   5.520   6.163   3.595  0.3565 -0.2976 -0.4817
 7143TIP3    H221394   5.501   6.117   3.738 -0.5685  0.6607 -0.2902
 7144TIP3   OH221395   0.443   1.686   5.791  0.6080  0.7802  0.4599
 7144TIP3    H121396   0.440   1.782   5.790  1.4118  0.8570  1.7861
 7144TIP3    H221397   0.355   1.659   5.818 -0.5235  0.9753 -2.6794
 7145TIP3   OH221398   0.265   5.498   1.909  0.2130 -0.3349  0.1461
 7145TIP3    H121399   0.323   5.428   1.881  1.5962  1.0273 -0.5243
 7145TIP3    H221400   0.309   5.537   1.985 -0.5522 -0.1871  0.5253
 7146TIP3   OH221401   6.860   0.287   1.737 -0.3981  0.0337  0.0882
 7146TIP3    H121402   6.922   0.236   1.788  0.3573  1.5218  0.7280
 7146TIP3    H221403   6.824   0.351   1.800 -1.4112  0.2117 -0.6405
 7147TIP3   OH221404   0.751   1.892   0.663  0.1255 -0.4038 -0.2258
 7147TIP3    H121405   0.675   1.883   0.605 -0.9109 -0.6470  1.1278
 7147TIP3    H221406   0.737   1.975   0.709  1.7551  0.5951 -1.4292
 7148TIP3   OH221407   2.274   0.350   5.124  0.0866  0.1837  0.1048
 7148TIP3    H121408   2.322   0.424   5.089  0.5405  0.6662  1.6575
 7148TIP3    H221409   2.335   0.276   5.116 -0.4555 -0.1227 -1.6666
 7149TIP3   OH221410   4.654   4.995   3.921  0.8323  0.1390 -0.3363
 7149TIP3    H121411   4.602   4.976   3.843  1.4348 -0.9138 -0.5074
 7149TIP3    H221412   4.689   5.082   3.906 -2.0229  1.5495  0.4425
 7150TIP3   OH221413   6.398   6.680   1.453 -0.3016 -0.1712  0.1859
 7150TIP3    H121414   6.330   6.700   1.388  0.7382  1.3923 -0.4866
 7150TIP3    H221415   6.438   6.765   1.472  1.1342 -0.9796  0.9373
 7151TIP3   OH221416   4.843   3.793   3.880  0.0825  0.3729 -0.5235
 7151TIP3    H121417   4.919   3.850   3.870  1.4000 -1.4549 -1.6438
 7151TIP3    H221418   4.868   3.733   3.951 -0.4492 -0.0302 -0.6727
 7152TIP3   OH221419   4.876   2.219   0.265  0.1725 -0.4964 -0.2078
 7152TIP3    H121420   4.797   2.260   0.230  1.2846  2.0777  0.0958
 7152TIP3    H221421   4.946   2.280   0.245  1.9662 -2.2110  0.4499
 7153TIP3   OH221422   4.407   0.163   3.044  0.0185  0.1585  0.3353
 7153TIP3    H121423   4.460   0.239   3.019  1.2236 -0.2755  1.4532
 7153TIP3    H221424   4.423   0.098   2.976  1.1919 -0.0685  0.8009
 7154TIP3   OH221425   4.426   1.750   4.903  0.6950 -0.6029 -0.2426
 7154TIP3    H121426   4.507   1.721   4.946  0.2965  0.3470  1.2089
 7154TIP3    H221427   4.456   1.790   4.821  1.4767 -2.3756 -0.8697
 7155TIP3   OH221428   7.024   5.971   2.604  0.1774  0.7270  0.3257
 7155TIP3    H121429   6.963   5.902   2.629  0.5831 -1.3128 -3.6561
 7155TIP3    H221430   6.971   6.050   2.602 -1.0661 -0.0117  1.7614
 7156TIP3   OH221431   5.286   6.773   3.240  0.4846  0.0110  0.0140
 7156TIP3    H121432   5.230   6.812   3.307 -0.2967 -0.0544 -0.5852
 7156TIP3    H221433   5.367   6.750   3.286 -1.1273 -2.8644  1.6876
 7157TIP3   OH221434   1.125   4.833   1.264 -0.1886 -0.2989  0.5442
 7157TIP3    H121435   1.216   4.862   1.256  0.0187 -0.6499  1.4790
 7157TIP3    H221436   1.088   4.844   1.176 -0.0139  2.3492  0.7388
 7158TIP3   OH221437   2.523   1.716   0.875  0.5469  0.4065  0.2036
 7158TIP3    H121438   2.484   1.628   0.874 -1.6398  1.0750  4.7037
 7158TIP3    H221439   2.479   1.762   0.804 -1.0282 -1.1414  0.0900
 7159TIP3   OH221440   1.512   0.656   3.559  0.3220  0.0559  0.3119
 7159TIP3    H121441   1.519   0.565   3.589  2.2366  0.3853  0.9409
 7159TIP3    H221442   1.602   0.684   3.543 -0.1574  2.1463  0.9820
 7160TIP3   OH221443   2.396   1.383   3.097  0.6753 -0.1117 -0.0269
 7160TIP3    H121444   2.333   1.364   3.028 -0.2019 -0.4218  0.8276
 7160TIP3    H221445   2.347   1.436   3.160  0.9265 -1.2257  1.1664
 7161TIP3   OH221446   3.024   6.558   3.676 -0.1183  0.1188  0.2101
 7161TIP3    H121447   3.102   6.515   3.712  0.2085  0.0656 -0.5298
 7161TIP3    H221448   3.024   6.533   3.583 -1.5213 -0.6067  0.3803
 7162TIP3   OH221449   0.231   3.264   1.060 -0.2086 -0.1259  0.0924
 7162TIP3    H121450   0.305   3.265   0.999 -1.8238  1.2864 -1.9637
 7162TIP3    H221451   0.220   3.171   1.083  0.7853 -0.6205 -1.3141
 7163TIP3   OH221452   6.057   5.264   1.556 -0.1945  0.1522  0.0449
 7163TIP3    H121453   5.982   5.206   1.543 -1.0836  1.2848 -0.0347
 7163TIP3    H221454   6.037   5.340   1.501  0.0019  1.3955  1.6564
 7164TIP3   OH221455   5.211   1.882   3.091 -0.3478 -0.8357 -0.0572
 7164TIP3    H121456   5.261   1.805   3.062  0.3150  0.3779 -2.4230
 7164TIP3    H221457   5.144   1.894   3.023  0.5808  1.5574 -0.6507
 7165TIP3   OH221458   1.150   2.533   0.858 -0.2395  0.4006  0.3273
 7165TIP3    H121459   1.113   2.599   0.800 -0.4135 -2.6337 -3.4885
 7165TIP3    H221460   1.244   2.551   0.859 -0.0800  0.0342 -1.8700
 7166TIP3   OH221461   4.689   1.165   0.557  0.3562 -0.0638 -0.3465
 7166TIP3    H121462   4.753   1.116   0.505  0.1794 -0.2580 -0.3822
 7166TIP3    H221463   4.720   1.255   0.555  0.4652 -0.1078 -0.6095
 7167TIP3   OH221464   5.997   5.262   3.225  0.1130 -0.3393 -0.2174
 7167TIP3    H121465   6.056   5.235   3.296 -0.8658  1.5709  1.4148
 7167TIP3    H221466   6.034   5.221   3.147  1.7956 -1.7455  1.2238
 7168TIP3   OH221467   4.572   5.444   5.775 -0.7785  0.2785  0.3347
 7168TIP3    H121468   4.560   5.349   5.767 -1.0317  0.2626  0.9091
 7168TIP3    H221469   4.574   5.460   5.869  1.0653  0.6231  0.2717
 7169TIP3   OH221470   6.463   0.345   4.925 -0.0506  0.0660  0.7787
 7169TIP3    H121471   6.438   0.346   5.017  1.5627 -1.2989  1.2772
 7169TIP3    H221472   6.552   0.311   4.924  0.6619  1.7456 -1.1568
 7170TIP3   OH221473   2.677   5.138   3.595 -0.2618 -0.3860 -0.0417
 7170TIP3    H121474   2.722   5.122   3.678  2.9401 -0.9093 -1.7014
 7170TIP3    H221475   2.649   5.229   3.601 -0.6442 -0.5778  1.8176
 7171TIP3   OH221476   5.842   1.008   5.811 -0.1130 -0.0264 -0.1633
 7171TIP3    H121477   5.799   1.050   5.736  0.7755 -0.2052 -0.7907
 7171TIP3    H221478   5.772   0.960   5.855 -0.8751  1.0186 -0.2035
 7172TIP3   OH221479   4.520   5.598   5.541 -0.7894 -1.0325 -0.5758
 7172TIP3    H121480   4.608   5.595   5.503 -1.0115 -0.3828 -1.1683
 7172TIP3    H221481   4.531   5.569   5.631  0.3065  0.5628 -0.1600
 7173TIP3   OH221482   3.098   0.593   2.082  0.2585 -0.3996 -0.0093
 7173TIP3    H121483   3.153   0.610   2.006  0.5912 -1.5425 -0.0433
 7173TIP3    H221484   3.132   0.651   2.150  0.7386 -0.2501 -0.3743
 7174TIP3   OH221485   4.612   3.578   1.699  0.1205 -0.0646 -0.1217
 7174TIP3    H121486   4.677   3.584   1.769 -1.4642 -1.4249  1.5398
 7174TIP3    H221487   4.617   3.487   1.669 -1.1862 -0.2768  0.2395
 7175TIP3   OH221488   4.840   5.035   2.998  0.4095 -0.3145  0.5130
 7175TIP3    H121489   4.916   4.982   2.971 -0.5681 -0.6298 -1.8879
 7175TIP3    H221490   4.765   4.976   2.990 -0.3105  0.4879  1.1368
 7176TIP3   OH221491   4.147   2.985   0.286  0.3262  0.3324 -0.7897
 7176TIP3    H121492   4.192   2.920   0.339  0.1741  0.5854 -0.3419
 7176TIP3    H221493   4.216   3.046   0.258  0.1266  1.3632  0.8335
 7177TIP3   OH221494   3.143   0.718   5.785 -0.3998  0.3035 -0.1467
 7177TIP3    H121495   3.112   0.760   5.865 -0.9704  0.2609 -0.3364
 7177TIP3    H221496   3.065   0.715   5.728  0.0126  0.3953 -0.7256
 7178TIP3   OH221497   6.604   0.431   0.787 -0.2572  0.5210  0.9580
 7178TIP3    H121498   6.573   0.417   0.876 -2.0437 -1.1526  0.1522
 7178TIP3    H221499   6.546   0.498   0.751  0.3355  1.0537  0.9857
 7179TIP3   OH221500   0.292   3.372   3.651  0.3048  0.3023 -0.2950
 7179TIP3    H121501   0.344   3.322   3.588  0.9005  1.6228 -0.8952
 7179TIP3    H221502   0.258   3.307   3.711  0.6435 -0.8729 -1.3401
 7180TIP3   OH221503   2.003   0.611   3.480 -0.2853  0.2277  0.1827
 7180TIP3    H121504   2.050   0.568   3.408  0.2634  2.5905 -0.9773
 7180TIP3    H221505   2.072   0.639   3.540 -0.4471  1.0075  0.0184
 7181TIP3   OH221506   1.338   5.502   5.212 -0.2535  0.4136  0.2565
 7181TIP3    H121507   1.333   5.411   5.185  2.2849  0.2442  0.0832
 7181TIP3    H221508   1.401   5.502   5.284  1.5428  2.2390 -1.1741
 7182TIP3   OH221509   2.671   3.482   2.146  0.4529 -0.2036 -0.0136
 7182TIP3    H121510   2.671   3.439   2.060  0.6138 -1.0105  0.3823
 7182TIP3    H221511   2.762   3.509   2.159  0.3718  0.1815 -0.2165
 7183TIP3   OH221512   5.209   4.561   2.680  0.6750 -0.1698 -0.1068
 7183TIP3    H121513   5.248   4.555   2.593  1.2155  0.3196  0.0959
 7183TIP3    H221514   5.192   4.470   2.705  0.5349 -0.3124 -0.7108
 7184TIP3   OH221515   0.584   2.869   0.025 -0.8072 -0.2151  0.0814
 7184TIP3    H121516   0.622   2.785   0.052  0.2970  0.2575  0.0563
 7184TIP3    H221517   0.567   2.858  -0.068 -4.9505 -1.9729  0.8200
 7185TIP3   OH221518   1.126   0.048   1.369 -0.0464 -0.1369  0.1404
 7185TIP3    H121519   1.168   0.131   1.347  0.1417 -0.3508 -0.3187
 7185TIP3    H221520   1.179   0.012   1.440 -0.1526  0.1489  0.3697
 7186TIP3   OH221521   0.983   6.091   5.413 -0.0407  0.1503 -0.5960
 7186TIP3    H121522   0.976   6.166   5.472 -0.5351 -0.1836 -0.2158
 7186TIP3    H221523   0.896   6.051   5.415 -0.1679  0.3114 -1.7992
 7187TIP3   OH221524   0.980   0.017   3.566 -0.7499 -0.8553 -0.2998
 7187TIP3    H121525   0.922   0.085   3.602  0.3734 -0.4465  0.8500
 7187TIP3    H221526   0.923  -0.058   3.551 -1.5422 -0.5693  1.0890
 7188TIP3   OH221527   2.240   5.284   2.470  0.2059  0.2864  0.1685
 7188TIP3    H121528   2.295   5.210   2.498 -1.3762 -1.1577 -0.3633
 7188TIP3    H221529   2.150   5.252   2.481 -0.5219  2.1497 -0.1030
 7189TIP3   OH221530   0.081   2.207   1.214  0.3224  0.4424 -0.7707
 7189TIP3    H121531   0.079   2.264   1.290 -3.2678 -1.7334  1.0239
 7189TIP3    H221532   0.038   2.258   1.145 -2.6609  0.2089  0.7474
 7190TIP3   OH221533   1.433   0.185   4.015  0.5470 -0.2841 -0.3857
 7190TIP3    H121534   1.379   0.120   4.061 -0.3433  0.3320 -0.5514
 7190TIP3    H221535   1.382   0.207   3.937 -0.3303  2.3958  0.8497
 7191TIP3   OH221536   6.407   2.622   3.022  0.1461 -0.5168  0.0307
 7191TIP3    H121537   6.318   2.645   3.047 -0.1396 -0.9072 -0.5903
 7191TIP3    H221538   6.402   2.529   2.999  0.6878 -0.5154 -0.1040
 7192TIP3   OH221539   2.748   4.482   5.113 -0.2151 -0.5234  0.2886
 7192TIP3    H121540   2.777   4.466   5.203  0.6269  1.6634  0.4509
 7192TIP3    H221541   2.822   4.524   5.071 -1.5175  0.9260 -0.6620
 7193TIP3   OH221542   2.558   4.913   2.429 -0.7471  0.4583  0.3163
 7193TIP3    H121543   2.598   4.834   2.392 -0.4502  0.1910  1.1808
 7193TIP3    H221544   2.628   4.978   2.428  0.1511 -0.3245  2.8613
 7194TIP3   OH221545   6.998   2.919   1.005 -0.0306 -0.2037  0.5208
 7194TIP3    H121546   7.049   2.999   1.017  3.1359 -2.2522  2.3097
 7194TIP3    H221547   6.933   2.920   1.075  1.0960  0.0619  1.5877
 7195TIP3   OH221548   0.432   0.597   5.557  0.2660 -0.3727 -0.5981
 7195TIP3    H121549   0.448   0.675   5.609  1.4528  0.2537 -1.8153
 7195TIP3    H221550   0.337   0.592   5.549  0.1050  0.0323  0.8056
 7196TIP3   OH221551   6.919   5.164   4.119 -0.2882  0.3172  0.2247
 7196TIP3    H121552   6.991   5.112   4.156  0.8168  0.9771 -0.9122
 7196TIP3    H221553   6.913   5.134   4.029 -1.2649  0.4754  0.2358
 7197TIP3   OH221554   6.860   0.329   4.017  0.3374 -0.0407 -0.1070
 7197TIP3    H121555   6.870   0.413   3.971  0.4896  0.5628  0.9649
 7197TIP3    H221556   6.932   0.275   3.985  0.1019  0.1518 -0.9818
 7198TIP3   OH221557   0.126   4.085   0.574 -0.0111  0.1421  0.1590
 7198TIP3    H121558   0.120   4.086   0.669  0.6555  0.3403  0.2008
 7198TIP3    H221559   0.036   4.067   0.545 -0.2381  0.1796  0.8165
 7199TIP3   OH221560   6.958   6.541   5.871  0.1190 -0.3946 -0.4797
 7199TIP3    H121561   7.012   6.600   5.924 -2.2542  2.1299 -0.6971
 7199TIP3    H221562   6.999   6.541   5.785  0.0181  1.1562 -0.5377
 7200TIP3   OH221563   3.873   2.769   2.476 -0.2770  0.3472 -0.1625
 7200TIP3    H121564   3.922   2.692   2.448 -2.4297 -0.6042 -1.5833
 7200TIP3    H221565   3.847   2.749   2.566  0.9720  0.3841  0.2161
 7201TIP3   OH221566   2.825   5.189   1.731  0.6564 -0.3342 -0.0277
 7201TIP3    H121567   2.776   5.132   1.790 -0.5995 -0.3626 -1.0445
 7201TIP3    H221568   2.917   5.170   1.750  0.3350 -3.4753 -1.0116
 7202TIP3   OH221569   4.166   1.634   4.624  0.1971 -0.0409 -0.2742
 7202TIP3    H121570   4.111   1.697   4.577 -0.4670 -1.4035 -1.3928
 7202TIP3    H221571   4.105   1.566   4.652  1.0173 -0.5813  0.2151
 7203TIP3   OH221572   5.193   1.966   2.444  0.1813  0.2925 -0.0693
 7203TIP3    H121573   5.278   2.010   2.437  0.3523 -0.0718 -0.2581
 7203TIP3    H221574   5.214   1.874   2.460 -0.1723  0.0261 -1.0920
 7204TIP3   OH221575   2.716   2.580   4.882 -0.6118 -0.7117 -0.1625
 7204TIP3    H121576   2.802   2.598   4.843 -1.1739  0.2413 -1.0136
 7204TIP3    H221577   2.736   2.534   4.963  0.6543 -1.7475 -1.0124
 7205TIP3   OH221578   0.742   0.441   3.758  0.1101 -0.1769 -0.1122
 7205TIP3    H121579   0.739   0.494   3.838  0.2983 -0.7266  0.2649
 7205TIP3    H221580   0.724   0.352   3.788  0.2451 -0.3968 -0.6779
 7206TIP3   OH221581   4.062   6.503   0.271  0.1755  0.0208 -0.2283
 7206TIP3    H121582   3.977   6.485   0.231  0.0212  1.9514 -0.8543
 7206TIP3    H221583   4.041   6.538   0.358  0.3800 -0.4150  0.0011
 7207TIP3   OH221584   3.006   1.428   1.311  0.0628 -0.0664 -0.1604
 7207TIP3    H121585   2.916   1.396   1.310 -0.6227  1.6947  0.4039
 7207TIP3    H221586   3.035   1.416   1.401 -0.6942  1.9982  0.4321
 7208TIP3   OH221587   2.516   4.210   4.950  0.5758 -0.4998 -0.5494
 7208TIP3    H121588   2.485   4.257   4.873  0.1988 -1.2844 -0.8864
 7208TIP3    H221589   2.530   4.120   4.920  0.3509 -0.8377  0.3054
 7209TIP3   OH221590   5.321   4.001   3.242 -0.3978  0.3997  0.4428
 7209TIP3    H121591   5.262   4.070   3.212  0.4183  1.3156  0.9107
 7209TIP3    H221592   5.320   4.008   3.338 -1.5142 -1.2679  0.6028
 7210TIP3   OH221593   7.057   2.144   3.641 -0.4559 -0.1136 -0.3373
 7210TIP3    H121594   7.123   2.087   3.603  0.2660 -0.1449  0.9233
 7210TIP3    H221595   7.001   2.086   3.692 -0.1966  0.1982  0.3051
 7211TIP3   OH221596   6.972   3.469   1.531 -0.1032  0.2945  0.2985
 7211TIP3    H121597   6.925   3.450   1.450 -1.8698  0.8327  1.1537
 7211TIP3    H221598   6.909   3.449   1.600  1.8544 -1.6687  1.6500
 7212TIP3   OH221599   1.210   5.861   2.852 -0.3386 -0.0749  0.4686
 7212TIP3    H121600   1.254   5.921   2.912  2.3324 -0.3449 -1.0904
 7212TIP3    H221601   1.161   5.918   2.793 -1.3330  0.2820  1.5881
 7213TIP3   OH221602   5.899   3.780   0.292  0.1924  0.5689  0.2859
 7213TIP3    H121603   5.836   3.747   0.228  1.7684 -0.5532 -0.7496
 7213TIP3    H221604   5.884   3.875   0.294  0.2793  0.6748 -1.9613
 7214TIP3   OH221605   0.917   5.562   3.634  0.4991 -0.0241 -0.9352
 7214TIP3    H121606   0.897   5.650   3.601 -0.2261  0.2407  0.1812
 7214TIP3    H221607   1.008   5.567   3.663 -0.2888  1.1576  1.5683
 7215TIP3   OH221608   5.221   3.195   0.960  0.1505  0.3978  0.2900
 7215TIP3    H121609   5.173   3.218   1.039  0.2711  0.7461  0.2638
 7215TIP3    H221610   5.243   3.102   0.972  0.0899  0.4234  0.6216
 7216TIP3   OH221611   1.909   0.311   2.113  0.5102  0.3312 -0.2633
 7216TIP3    H121612   1.825   0.275   2.087  0.1084  0.7155  0.4703
 7216TIP3    H221613   1.969   0.284   2.044 -0.1981 -0.0009 -0.7604
 7217TIP3   OH221614   4.184   1.367   3.975 -0.2992 -0.2407  0.6115
 7217TIP3    H121615   4.150   1.451   4.005  2.9070  1.9485 -1.3026
 7217TIP3    H221616   4.207   1.381   3.883  1.4931 -2.8141  0.5595
 7218TIP3   OH221617   2.071   3.468   5.166 -0.0253 -0.0081 -0.1346
 7218TIP3    H121618   2.091   3.442   5.076  2.9060  2.2537 -0.2761
 7218TIP3    H221619   1.997   3.412   5.191  0.3875 -2.1783 -3.1944
 7219TIP3   OH221620   4.105   1.155   3.566 -0.1333  0.1720  0.1378
 7219TIP3    H121621   4.096   1.063   3.593 -0.9682 -0.5345 -2.3058
 7219TIP3    H221622   4.182   1.157   3.510  1.0684  1.4253  1.7502
 7220TIP3   OH221623   3.380   4.020   1.978  0.1326  0.3693  0.0059
 7220TIP3    H121624   3.412   4.035   2.067 -0.8401  1.5926  0.1743
 7220TIP3    H221625   3.287   4.001   1.989  0.2422 -0.6145 -0.6734
 7221TIP3   OH221626   5.235   5.264   0.084  0.5476  0.0766 -0.6221
 7221TIP3    H121627   5.149   5.304   0.100  0.3452 -1.1553  1.9374
 7221TIP3    H221628   5.296   5.338   0.087 -0.1524  0.6506  0.6649
 7222TIP3   OH221629   5.040   6.670   0.751 -0.3018 -0.7320  0.2003
 7222TIP3    H121630   4.959   6.713   0.779 -0.6633 -2.3206  1.7826
 7222TIP3    H221631   5.104   6.741   0.745 -2.2730  1.0131 -3.5927
 7223TIP3   OH221632   2.718   5.496   2.862  0.7345  0.2790 -0.6379
 7223TIP3    H121633   2.731   5.498   2.957  0.4297 -2.1578 -0.4861
 7223TIP3    H221634   2.654   5.565   2.845  0.5869  0.5802  0.9511
 7224TIP3   OH221635   3.411   5.792   3.119  0.1422 -0.2001 -0.2636
 7224TIP3    H121636   3.437   5.793   3.027 -0.2075 -1.0393 -0.3818
 7224TIP3    H221637   3.482   5.746   3.164 -0.3864 -1.1536 -0.3613
 7225TIP3   OH221638   3.164   2.306   2.655  0.5711  0.1206  0.2881
 7225TIP3    H121639   3.234   2.260   2.702 -0.1512 -0.3333  0.9414
 7225TIP3    H221640   3.172   2.397   2.685  0.1249 -0.1614  1.3189
 7226TIP3   OH221641   3.333   3.572   5.576  0.5184 -0.7668 -0.0766
 7226TIP3    H121642   3.263   3.521   5.535  0.4350 -1.1840  0.5723
 7226TIP3    H221643   3.302   3.588   5.665  0.8333 -0.1332 -0.0718
 7227TIP3   OH221644   3.859   5.545   5.820  0.0941 -0.3063 -0.1034
 7227TIP3    H121645   3.871   5.521   5.912 -0.2266 -2.3116 -0.5305
 7227TIP3    H221646   3.921   5.490   5.772  1.7051  2.1283 -1.0014
 7228TIP3   OH221647   2.769   3.530   1.166  0.0894 -0.1684 -0.0657
 7228TIP3    H121648   2.730   3.506   1.082  2.0681 -1.9626 -0.5476
 7228TIP3    H221649   2.772   3.448   1.215  0.1819  0.6001  1.2660
 7229TIP3   OH221650   5.169   3.257   0.619  0.1080 -0.3078  0.6263
 7229TIP3    H121651   5.093   3.233   0.672 -0.9744 -0.3920 -0.9128
 7229TIP3    H221652   5.242   3.210   0.660 -0.5893 -0.0126  2.2950
 7230TIP3   OH221653   0.196   2.788   3.614 -0.6215 -0.1702  0.0483
 7230TIP3    H121654   0.174   2.739   3.535 -0.0092 -3.2033  1.5984
 7230TIP3    H221655   0.259   2.733   3.660 -0.5375  1.7061  2.4216
 7231TIP3   OH221656   6.748   3.900   1.277 -0.4270 -0.3494 -0.3980
 7231TIP3    H121657   6.748   3.827   1.215 -2.1646  0.1702 -1.0617
 7231TIP3    H221658   6.840   3.912   1.301 -0.0573 -2.3878 -0.6903
 7232TIP3   OH221659   0.700   6.205   5.401  0.1374 -0.0399  0.5574
 7232TIP3    H121660   0.767   6.267   5.373  0.6614  0.5691  2.9917
 7232TIP3    H221661   0.683   6.226   5.493  0.7141 -3.7823  1.6923
 7233TIP3   OH221662   0.362   1.423   4.633 -0.0200  0.1021  0.3366
 7233TIP3    H121663   0.420   1.451   4.562  0.6174  0.6725  1.0621
 7233TIP3    H221664   0.285   1.389   4.588  0.9496 -0.8666 -0.6680
 7234TIP3   OH221665   4.205   0.055   5.791  0.0120  0.4615 -0.2564
 7234TIP3    H121666   4.190   0.150   5.790  1.0768  0.6553 -1.0878
 7234TIP3    H221667   4.125   0.017   5.755 -0.3418  1.0711 -0.1245
 7235TIP3   OH221668   0.829   0.833   2.065  0.0792  0.2462 -0.0202
 7235TIP3    H121669   0.751   0.792   2.104 -0.8354  0.4114 -1.5993
 7235TIP3    H221670   0.795   0.909   2.018  1.3016  0.7159 -0.1739
 7236TIP3   OH221671   0.635   2.332   5.584  0.2439  0.6084 -0.2699
 7236TIP3    H121672   0.645   2.266   5.515  0.0589 -1.5066  1.5923
 7236TIP3    H221673   0.711   2.389   5.574  0.4564  0.1064 -1.9114
 7237TIP3   OH221674   4.935   4.032   3.399  0.2247 -0.3935 -0.6908
 7237TIP3    H121675   5.011   4.085   3.376  0.3333 -1.1979 -2.3063
 7237TIP3    H221676   4.913   3.985   3.319  0.0578 -2.7021  0.6269
 7238TIP3   OH221677   2.001   3.083   5.326 -0.1791  0.6585  0.0922
 7238TIP3    H121678   1.955   3.167   5.320 -0.7776  0.3646  0.3681
 7238TIP3    H221679   1.961   3.040   5.402  0.2061  0.1770  0.0281
 7239TIP3   OH221680   4.493   6.159   0.470 -0.0089 -0.8858 -0.4272
 7239TIP3    H121681   4.543   6.084   0.437  0.9821 -1.0963  1.3753
 7239TIP3    H221682   4.403   6.126   0.477  0.0356 -1.2747 -1.4523
 7240TIP3   OH221683   6.695   6.281   3.894 -0.1480 -0.4090  0.2623
 7240TIP3    H121684   6.744   6.316   3.819 -0.2934 -0.5183  0.1155
 7240TIP3    H221685   6.603   6.298   3.872 -0.1410  0.7655  1.0143
 7241TIP3   OH221686   1.568   5.138   3.025  0.3100 -0.3620 -0.5387
 7241TIP3    H121687   1.608   5.179   2.949 -0.0916 -0.4327 -0.7883
 7241TIP3    H221688   1.476   5.164   3.021  0.1760 -0.8071 -0.3755
 7242TIP3   OH221689   2.708   5.651   4.439 -0.2780 -0.0145 -0.7388
 7242TIP3    H121690   2.669   5.572   4.402 -0.2938  0.2897 -1.3914
 7242TIP3    H221691   2.747   5.696   4.364 -0.2400  0.5783 -0.3706
 7243TIP3   OH221692   3.065   4.742   4.647  0.1916  0.3286 -0.1120
 7243TIP3    H121693   3.146   4.785   4.676 -0.2286  0.7674  0.4258
 7243TIP3    H221694   3.094   4.657   4.613  0.6564 -0.6331  2.4257
 7244TIP3   OH221695   2.200   5.849   4.649  0.3366  0.0054 -0.2256
 7244TIP3    H121696   2.195   5.778   4.585  1.2229 -0.1442 -0.1481
 7244TIP3    H221697   2.135   5.828   4.715 -0.7350  0.2626 -1.1693
 7245TIP3   OH221698   3.659   4.796   3.936 -0.0783 -0.0889 -0.0323
 7245TIP3    H121699   3.617   4.759   4.013 -0.4642 -1.8391 -1.0448
 7245TIP3    H221700   3.588   4.812   3.874  0.4311 -0.5938 -0.7717
 7246TIP3   OH221701   1.809   6.488   4.578  0.1236 -0.5816 -0.1595
 7246TIP3    H121702   1.724   6.483   4.622  0.0006  1.5765 -0.0307
 7246TIP3    H221703   1.869   6.440   4.635 -0.7632 -1.0632  0.3829
 7247TIP3   OH221704   4.099   2.288   0.546 -0.1742 -0.5743 -0.6855
 7247TIP3    H121705   4.160   2.357   0.571 -1.3821 -0.0656  1.0354
 7247TIP3    H221706   4.142   2.207   0.575  0.2185 -0.3351 -0.5840
 7248TIP3   OH221707   3.633   3.659   2.509  0.5611  0.0159  0.2147
 7248TIP3    H121708   3.690   3.723   2.551 -1.6618  1.8742  0.5629
 7248TIP3    H221709   3.601   3.703   2.430 -1.2200 -0.5248  0.5961
 7249TIP3   OH221710   3.424   1.944   1.527  0.0738 -0.3391  0.1573
 7249TIP3    H121711   3.461   1.899   1.450 -0.7181  0.0965 -0.4962
 7249TIP3    H221712   3.330   1.945   1.511 -0.0478  0.2649  0.8661
 7250TIP3   OH221713   3.314   2.850   2.696 -0.2614 -0.1557  0.1190
 7250TIP3    H121714   3.374   2.923   2.690  1.4474 -1.3433  1.7780
 7250TIP3    H221715   3.239   2.876   2.641  0.9316  2.1276 -0.5490
 7251TIP3   OH221716   2.578   1.830   3.899 -0.2902  0.3100 -0.5235
 7251TIP3    H121717   2.649   1.849   3.961 -1.4023  0.1498  0.8562
 7251TIP3    H221718   2.617   1.845   3.813  2.2557 -2.3246 -0.0207
 7252TIP3   OH221719   2.844   3.397   5.443  0.3478  0.3172  0.0304
 7252TIP3    H121720   2.756   3.436   5.446 -0.0399 -0.4575 -0.6590
 7252TIP3    H221721   2.851   3.362   5.354  1.4525  0.5810  0.0040
 7253TIP3   OH221722   3.653   0.098   4.238 -0.3312 -0.5022 -0.0440
 7253TIP3    H121723   3.694   0.038   4.300  2.8157  0.7474 -0.7254
 7253TIP3    H221724   3.658   0.184   4.280 -0.9927 -0.0931 -0.7596
 7254TIP3   OH221725   2.611   3.640   1.839 -0.1558  0.3126 -0.1647
 7254TIP3    H121726   2.623   3.724   1.884  0.7372 -0.0019  0.2200
 7254TIP3    H221727   2.527   3.608   1.871  0.4771  0.0719  1.3520
 7255TIP3   OH221728   6.120   2.925   1.685  0.5346 -0.3560  0.4855
 7255TIP3    H121729   6.083   2.926   1.773 -0.7673  0.1626 -0.0517
 7255TIP3    H221730   6.099   2.839   1.650  0.7887 -0.4508  0.5590
 7256TIP3   OH221731   4.111   0.699   0.048 -0.2168  0.1814 -0.8714
 7256TIP3    H121732   4.100   0.686  -0.047 -0.3200 -1.6284 -0.6435
 7256TIP3    H221733   4.091   0.792   0.061 -0.7947  0.3420 -2.5399
 7257TIP3   OH221734   0.740   0.488   0.754 -0.5332 -0.3294  0.0258
 7257TIP3    H121735   0.771   0.434   0.681 -0.9271 -0.7226  0.1453
 7257TIP3    H221736   0.652   0.515   0.728 -0.1536  0.6845 -0.2598
 7258TIP3   OH221737   6.210   1.769   0.405  0.1242 -0.2204  0.2511
 7258TIP3    H121738   6.209   1.684   0.360 -0.7408  0.1177 -0.3818
 7258TIP3    H221739   6.139   1.819   0.365  2.2793  1.8183 -1.3086
 7259TIP3   OH221740   0.353   2.354   5.531 -0.2089  0.6992 -0.0544
 7259TIP3    H121741   0.307   2.332   5.612 -0.9485 -1.3980 -0.9654
 7259TIP3    H221742   0.444   2.330   5.548 -0.3935  0.0943  0.1253
 7260TIP3   OH221743   5.626   3.682   3.246 -0.7346 -0.0755 -0.1276
 7260TIP3    H121744   5.636   3.776   3.232 -1.5711  0.1283  0.5382
 7260TIP3    H221745   5.707   3.643   3.213 -0.1026  0.9453  0.2007
 7261TIP3   OH221746   1.511   0.745   2.743 -0.0154  0.2283  0.0833
 7261TIP3    H121747   1.511   0.836   2.773 -0.8353  0.2584  0.0338
 7261TIP3    H221748   1.603   0.723   2.731  0.2161  0.8673  0.6475
 7262TIP3   OH221749   0.372   0.087   3.519 -0.0715  0.3627  0.2823
 7262TIP3    H121750   0.445   0.034   3.551 -0.4759  0.4923  1.4636
 7262TIP3    H221751   0.295   0.032   3.530 -0.1675  0.2113 -0.9942
 7263TIP3   OH221752   2.077   3.051   2.000 -0.3686 -0.5458 -0.2813
 7263TIP3    H121753   2.011   3.052   2.069 -1.1262 -1.2427 -0.9658
 7263TIP3    H221754   2.158   3.026   2.045 -0.5009  0.5733  0.6157
 7264TIP3   OH221755   2.793   4.474   2.107  0.6688  0.0010  0.0796
 7264TIP3    H121756   2.839   4.461   2.024  0.4976 -1.3748  0.1785
 7264TIP3    H221757   2.705   4.439   2.091  0.7346 -0.5610  0.9452
 7265TIP3   OH221758   0.478   4.654   4.052 -0.0217 -0.5537  0.6960
 7265TIP3    H121759   0.492   4.665   4.146  1.2434 -0.4484  0.5159
 7265TIP3    H221760   0.415   4.721   4.029  1.2494  0.8501  1.1198
 7266TIP3   OH221761   3.228   5.333   2.095 -0.0707 -0.3610 -0.4468
 7266TIP3    H121762   3.170   5.264   2.064 -0.0622 -0.1021 -1.0610
 7266TIP3    H221763   3.169   5.407   2.114 -0.1978 -0.8334  1.1576
 7267TIP3   OH221764   3.948   6.433   1.959  0.2530  0.4819  0.0339
 7267TIP3    H121765   3.996   6.436   1.876  0.2392 -1.4973 -0.0980
 7267TIP3    H221766   3.856   6.444   1.934 -0.0552 -2.5713 -0.6234
 7268TIP3   OH221767   5.315   5.290   1.708  0.1670  0.4154  0.3521
 7268TIP3    H121768   5.325   5.336   1.625  0.7765  3.5753  2.0154
 7268TIP3    H221769   5.267   5.352   1.764 -0.5542 -1.7317  2.2635
 7269TIP3   OH221770   4.303   2.991   1.082 -0.8004  0.0220  0.4398
 7269TIP3    H121771   4.366   3.013   1.151  1.3223 -0.9586 -1.0932
 7269TIP3    H221772   4.273   3.075   1.049 -0.3174  0.5060  1.2084
 7270TIP3   OH221773   0.241   5.975   3.081  0.1982  0.0823 -0.0783
 7270TIP3    H121774   0.252   6.054   3.134 -1.1160  0.4012 -0.2303
 7270TIP3    H221775   0.279   5.905   3.134  0.7488  0.7098  0.3726
 7271TIP3   OH221776   1.023   3.322   2.441 -0.0996 -0.0123  0.5932
 7271TIP3    H121777   1.051   3.231   2.449 -0.4207 -0.8707 -4.8012
 7271TIP3    H221778   0.936   3.317   2.401 -0.3641  2.6782  0.6408
 7272TIP3   OH221779   3.861   2.524   0.896  0.5732 -0.2718 -0.2031
 7272TIP3    H121780   3.839   2.458   0.962 -1.8694  1.9056  1.3306
 7272TIP3    H221781   3.821   2.492   0.815  1.0527 -1.5555  0.0496
 7273TIP3   OH221782   1.819   5.938   4.564 -0.1925  0.1538 -0.0748
 7273TIP3    H121783   1.868   5.862   4.597  0.0820  0.3280 -0.0788
 7273TIP3    H221784   1.734   5.933   4.608 -0.3301 -0.3905 -0.3929
 7274TIP3   OH221785   3.153   2.042   2.359  0.0580 -0.2053  0.0503
 7274TIP3    H121786   3.204   2.020   2.282  2.7272 -2.0283  2.1378
 7274TIP3    H221787   3.081   1.979   2.359 -0.1168 -0.0186 -1.0334
 7275TIP3   OH221788   4.301   6.734   1.222  0.3767  0.4303 -0.0075
 7275TIP3    H121789   4.375   6.779   1.183 -0.2921 -0.1588 -2.0549
 7275TIP3    H221790   4.224   6.769   1.177 -0.3777 -0.7682  0.2934
 7276TIP3   OH221791   2.906   5.997   2.075  0.3975 -0.4760 -0.1763
 7276TIP3    H121792   2.934   6.057   2.006  0.6089 -1.3426 -0.8618
 7276TIP3    H221793   2.945   6.033   2.155  0.3818  0.3831 -0.5413
 7277TIP3   OH221794   4.755   0.436   3.465  0.1365  0.1640  0.2396
 7277TIP3    H121795   4.804   0.354   3.468 -1.0875 -0.6074  0.2240
 7277TIP3    H221796   4.739   0.458   3.557 -0.6696 -0.3551  0.2387
 7278TIP3   OH221797   2.743   1.659   0.088 -0.6712  0.0436 -0.1026
 7278TIP3    H121798   2.791   1.676   0.168  0.8301 -0.2129 -0.9143
 7278TIP3    H221799   2.692   1.739   0.074  2.2760  1.9356 -1.0823
 7279TIP3   OH221800   4.628   6.445   3.357  0.2670  0.6775  0.1535
 7279TIP3    H121801   4.664   6.366   3.396  0.5208  0.5549 -0.3238
 7279TIP3    H221802   4.656   6.442   3.265 -0.6542  0.7600 -0.1419
 7280TIP3   OH221803   7.041   3.371   5.529 -0.0846 -0.0498  0.1271
 7280TIP3    H121804   6.957   3.387   5.486 -0.2044 -1.5190 -0.2237
 7280TIP3    H221805   7.024   3.389   5.622 -0.1687  1.8532 -0.2134
 7281TIP3   OH221806   5.294   2.916   0.647 -0.0949 -0.2268 -0.5522
 7281TIP3    H121807   5.215   2.865   0.630 -0.8346  0.0553  1.7512
 7281TIP3    H221808   5.293   2.933   0.741  1.6679  1.5225 -0.7706
 7282TIP3   OH221809   3.644   0.429   3.513 -0.2788 -0.1211  0.0941
 7282TIP3    H121810   3.592   0.442   3.592  1.1677  1.9301  0.7915
 7282TIP3    H221811   3.584   0.446   3.441 -1.4587 -1.4280  0.7104
 7283TIP3   OH221812   2.215   5.132   3.464 -0.5370  0.3514  0.3072
 7283TIP3    H121813   2.303   5.097   3.475 -0.0108  1.1879 -1.0580
 7283TIP3    H221814   2.180   5.087   3.387 -0.8943  0.8092  0.1959
 7284TIP3   OH221815   0.565   5.553   1.763  0.7100  0.2801 -0.4254
 7284TIP3    H121816   0.656   5.523   1.763  0.5482 -0.3730 -2.3798
 7284TIP3    H221817   0.515   5.477   1.736 -0.4918  0.5223  1.0208
 7285TIP3   OH221818   7.202   4.246   4.013  0.0909 -0.4019  0.6555
 7285TIP3    H121819   7.118   4.248   3.967  1.2303  1.4594 -1.5765
 7285TIP3    H221820   7.261   4.201   3.952  1.3431  0.8879  0.8663
 7286TIP3   OH221821   1.368   3.864   1.798  0.1964 -0.1241  0.7911
 7286TIP3    H121822   1.331   3.937   1.748  1.8620  1.2728  1.4933
 7286TIP3    H221823   1.321   3.866   1.882  0.6020  0.5211  1.0137
 7287TIP3   OH221824   4.891   0.994   2.163 -0.3613 -0.1807 -0.2365
 7287TIP3    H121825   4.846   0.996   2.079  0.5007  1.3114 -0.7118
 7287TIP3    H221826   4.970   0.942   2.148  0.7855  1.6474 -0.9566
 7288TIP3   OH221827   5.086   5.968   0.222  0.0354 -0.0656  0.2668
 7288TIP3    H121828   5.101   5.883   0.180  0.8815  0.4288 -0.4504
 7288TIP3    H221829   5.026   6.014   0.163  0.6602  0.3564 -0.0392
 7289TIP3   OH221830   0.290   1.539   2.914  0.1297 -0.5805  0.4231
 7289TIP3    H121831   0.252   1.508   2.832 -0.6093  0.9492  0.1601
 7289TIP3    H221832   0.376   1.497   2.918  0.4221 -0.2340 -1.4274
 7290TIP3   OH221833   2.911   3.600   2.068  0.0411 -0.2292 -0.5073
 7290TIP3    H121834   3.001   3.609   2.099  0.5784 -0.5922 -1.8664
 7290TIP3    H221835   2.868   3.682   2.093  0.6938 -0.1419  0.3409
 7291TIP3   OH221836   2.497   0.645   2.017 -0.5084  0.2080  0.0014
 7291TIP3    H121837   2.475   0.654   1.924  0.2793  1.9568 -0.0643
 7291TIP3    H221838   2.516   0.552   2.029  0.6258  0.1584 -1.8873
 7292TIP3   OH221839   0.391   6.418   4.578  0.3890  0.0511  0.2141
 7292TIP3    H121840   0.326   6.368   4.529  0.4836  1.5874 -1.5749
 7292TIP3    H221841   0.347   6.440   4.661 -1.5486  1.3616 -1.0907
 7293TIP3   OH221842   5.067   3.066   3.449 -0.1994 -0.3199  0.7268
 7293TIP3    H121843   4.983   3.105   3.471 -0.5751 -0.9473  0.4523
 7293TIP3    H221844   5.130   3.137   3.457 -1.3261  1.4761 -3.4913
 7294TIP3   OH221845   5.912   4.093   1.949  0.8306 -0.3082 -0.6613
 7294TIP3    H121846   5.914   4.153   2.024  0.9677  0.2366 -1.0875
 7294TIP3    H221847   5.996   4.048   1.951  0.4007 -1.0950  0.1372
 7295TIP3   OH221848   0.076   5.715   1.779  0.0469  0.2037 -0.0531
 7295TIP3    H121849   0.022   5.765   1.841  1.5804  0.0153  1.5334
 7295TIP3    H221850   0.122   5.652   1.834  2.7089  1.0805 -1.0898
 7296TIP3   OH221851   3.124   5.605   4.807 -0.0826 -0.2417  0.2829
 7296TIP3    H121852   3.081   5.521   4.790 -0.0107 -0.4779  1.2127
 7296TIP3    H221853   3.214   5.582   4.832  0.7927  0.2726 -2.1165
 7297TIP3   OH221854   7.162   4.208   4.535 -0.3303  0.0693  0.1060
 7297TIP3    H121855   7.173   4.225   4.441  0.6419 -0.8290  0.0499
 7297TIP3    H221856   7.114   4.285   4.567 -3.1226 -0.8114 -1.6011
 7298TIP3   OH221857   1.303   2.188   4.194  0.5484  0.2322  0.3037
 7298TIP3    H121858   1.242   2.260   4.212 -0.5404 -1.0916  2.3915
 7298TIP3    H221859   1.247   2.117   4.163  1.6251  0.2590 -1.8764
 7299TIP3   OH221860   3.712   5.345   2.155 -0.0036  0.0529  0.5520
 7299TIP3    H121861   3.780   5.410   2.172  0.3570 -0.5929  1.6445
 7299TIP3    H221862   3.712   5.289   2.232 -1.3633 -0.3284  0.3060
 7300TIP3   OH221863   7.038   2.918   1.841  0.0066  0.6284 -0.1896
 7300TIP3    H121864   7.050   2.971   1.919  0.7731  1.5243 -0.8844
 7300TIP3    H221865   6.991   2.975   1.780 -1.5305 -0.4234 -0.0285
 7301TIP3   OH221866   6.003   4.884   2.226 -0.7264  0.1984  0.0368
 7301TIP3    H121867   6.072   4.951   2.225  1.0261 -1.4741 -2.7002
 7301TIP3    H221868   5.993   4.859   2.134 -0.4769 -4.0339  0.9817
 7302TIP3   OH221869   4.245   6.354   2.739 -0.1378 -0.2863 -0.6767
 7302TIP3    H121870   4.262   6.262   2.762 -0.7677 -0.3782 -0.5707
 7302TIP3    H221871   4.327   6.384   2.700  1.3137  0.0789  2.3207
 7303TIP3   OH221872   4.893   1.921   0.039 -0.0800  0.1783 -0.0471
 7303TIP3    H121873   4.798   1.909   0.032  0.1774 -1.7904 -0.7143
 7303TIP3    H221874   4.919   1.958  -0.045 -0.1423 -0.0856 -0.1816
 7304TIP3   OH221875   3.269   5.742   2.554  0.1139 -0.0447  0.4691
 7304TIP3    H121876   3.301   5.808   2.616  1.3987  1.9181 -2.1051
 7304TIP3    H221877   3.204   5.789   2.501  1.1193 -0.7501 -1.4843
 7305TIP3   OH221878   3.105   3.508   5.441  0.3634  0.6022 -0.2509
 7305TIP3    H121879   3.011   3.512   5.456  0.2869 -0.4824 -0.4172
 7305TIP3    H221880   3.117   3.436   5.380  1.4274 -0.1922  0.8403
 7306TIP3   OH221881   5.110   5.080   5.490  0.6371  0.4751 -0.3481
 7306TIP3    H121882   5.124   4.986   5.502 -2.0435 -0.1217 -1.2068
 7306TIP3    H221883   5.111   5.093   5.396 -0.3426  1.0275 -0.2984
 7307TIP3   OH221884   5.966   6.722   3.766  0.2428 -0.2522 -0.1751
 7307TIP3    H121885   6.057   6.746   3.745  0.6135 -0.7703  0.7993
 7307TIP3    H221886   5.914   6.772   3.703  1.0420  2.1607  0.9439
 7308TIP3   OH221887   5.633   6.061   1.648 -0.1565  0.1703 -0.3071
 7308TIP3    H121888   5.676   6.045   1.732 -0.4958 -0.8788 -0.3210
 7308TIP3    H221889   5.582   6.140   1.662  0.7353  0.6911  0.0991
 7309TIP3   OH221890   7.123   4.817   4.095 -0.6840 -0.1454 -0.0992
 7309TIP3    H121891   7.097   4.844   4.183  0.6965 -0.6588  0.4918
 7309TIP3    H221892   7.088   4.728   4.085  0.0883 -0.5110  0.3701
 7310TIP3   OH221893   4.844   5.031   3.341  0.2066  0.1352  0.4432
 7310TIP3    H121894   4.835   5.066   3.430 -0.0407 -1.8180  1.2361
 7310TIP3    H221895   4.866   5.107   3.288 -0.0640  1.4361  2.0980
 7311TIP3   OH221896   5.332   2.870   0.937 -0.2915  0.4255 -0.1289
 7311TIP3    H121897   5.371   2.842   1.019  1.0218  0.9182 -0.5528
 7311TIP3    H221898   5.304   2.790   0.894  0.5416  0.0241  0.0640
 7312TIP3   OH221899   2.202   3.925   0.001 -0.1520  0.0657 -0.4272
 7312TIP3    H121900   2.111   3.949  -0.015  0.0142  0.3540 -0.9874
 7312TIP3    H221901   2.198   3.856   0.068 -0.5641  2.5128  2.2504
 7313TIP3   OH221902   5.841   4.515   2.002  0.1352 -0.1435 -0.0556
 7313TIP3    H121903   5.782   4.464   1.946 -0.1505 -1.0026  0.9975
 7313TIP3    H221904   5.898   4.450   2.042  0.6339  0.5051  0.3017
 7314TIP3   OH221905   3.820   6.629   4.067 -0.1251 -0.4364  0.3379
 7314TIP3    H121906   3.800   6.541   4.034  0.2441 -0.2932 -0.2930
 7314TIP3    H221907   3.847   6.678   3.989 -1.8552  0.7037  0.4001
 7315TIP3   OH221908   2.362   1.118   4.744  0.0316  0.9676 -0.1197
 7315TIP3    H121909   2.376   1.157   4.658 -0.2168  2.7550  0.6037
 7315TIP3    H221910   2.404   1.179   4.805  1.1229 -0.7852  0.9828
 7316TIP3   OH221911   3.373   0.452   4.284 -0.2638  0.1436  1.0864
 7316TIP3    H121912   3.320   0.409   4.351  0.5871  0.7853  2.1924
 7316TIP3    H221913   3.344   0.412   4.202 -2.1017  0.1128  1.7031
 7317TIP3   OH221914   1.506   5.663   5.021  0.7179 -0.1261  0.2145
 7317TIP3    H121915   1.600   5.660   5.035  0.8516  1.0239 -0.3073
 7317TIP3    H221916   1.471   5.595   5.079  1.9189 -1.1327 -0.2061
 7318TIP3   OH221917   3.335   5.464   3.456  0.1106  0.7984 -0.4253
 7318TIP3    H121918   3.386   5.542   3.435  0.7610  0.0773 -1.6721
 7318TIP3    H221919   3.307   5.430   3.371  1.8070 -1.5794 -0.1313
 7319TIP3   OH221920   4.620   2.603   5.343  0.3665  0.0964 -0.3075
 7319TIP3    H121921   4.589   2.522   5.304 -1.1047  0.5977 -0.2363
 7319TIP3    H221922   4.595   2.671   5.280  0.2145  0.6446  0.3304
 7320TIP3   OH221923   6.267   6.475   0.925 -0.0857 -0.3481 -0.3254
 7320TIP3    H121924   6.308   6.500   1.008 -0.8363  0.2564 -0.1312
 7320TIP3    H221925   6.317   6.398   0.897 -0.5005 -1.2597  1.2440
 7321TIP3   OH221926   0.375   0.975   1.272 -0.2009 -0.1084 -0.0823
 7321TIP3    H121927   0.295   0.961   1.221  0.2134 -0.8389 -0.5444
 7321TIP3    H221928   0.389   0.891   1.317  1.3747 -0.6665 -1.5236
 7322TIP3   OH221929   0.043   0.947   2.172  0.3964  0.2730 -0.2301
 7322TIP3    H121930   0.076   0.863   2.139 -0.0846 -0.1569  0.3501
 7322TIP3    H221931   0.061   1.009   2.102 -2.5123 -0.9935 -2.3062
 7323TIP3   OH221932   2.622   3.977   4.736 -0.0922 -0.1875  0.2568
 7323TIP3    H121933   2.538   3.934   4.718  0.9985 -1.8477 -1.2348
 7323TIP3    H221934   2.652   3.937   4.817 -0.9413  0.7818  1.0735
 7324TIP3   OH221935   6.479   4.887   5.294 -0.3904  0.3703  0.3845
 7324TIP3    H121936   6.459   4.795   5.309 -2.9518  0.6946 -0.4844
 7324TIP3    H221937   6.552   4.887   5.233 -0.8160 -1.1011 -0.1664
 7325TIP3   OH221938   4.703   0.102   2.357  0.1516  0.2794  0.0712
 7325TIP3    H121939   4.773   0.144   2.407  0.1602  0.1403  0.1759
 7325TIP3    H221940   4.744   0.024   2.319 -0.2793 -0.5122  1.1943
 7326TIP3   OH221941   0.432   1.283   3.302 -0.2335  0.0650 -0.2409
 7326TIP3    H121942   0.406   1.191   3.308 -0.7963  0.1934 -0.5932
 7326TIP3    H221943   0.515   1.282   3.254 -0.1023 -0.2795 -0.0087
 7327TIP3   OH221944   1.662   3.253   3.298 -0.4728 -0.2168 -0.1824
 7327TIP3    H121945   1.741   3.262   3.351 -0.2770 -0.2919 -0.4566
 7327TIP3    H221946   1.694   3.240   3.209 -0.8002  0.7724 -0.4597
 7328TIP3   OH221947   0.764   0.568   3.998  0.6019  0.0406 -0.1193
 7328TIP3    H121948   0.712   0.641   4.030 -0.2799 -1.5430  2.4029
 7328TIP3    H221949   0.847   0.574   4.045  0.7134 -0.2694 -0.2700
 7329TIP3   OH221950   5.836   1.387   3.610  0.1784 -0.3219  0.0893
 7329TIP3    H121951   5.873   1.395   3.522 -0.5724  1.1187 -0.1307
 7329TIP3    H221952   5.886   1.318   3.651 -0.1333 -1.7689 -1.8297
 7330TIP3   OH221953   5.102   5.920   1.231  0.0428  0.1309 -0.4816
 7330TIP3    H121954   5.034   5.980   1.200 -0.3816 -0.3423 -0.4816
 7330TIP3    H221955   5.121   5.949   1.320 -0.6683 -0.1576 -0.2239
 7331TIP3   OH221956   0.590   1.948   4.350 -1.0132 -0.3668 -0.3876
 7331TIP3    H121957   0.631   1.862   4.349 -1.5332 -0.6250 -0.0301
 7331TIP3    H221958   0.496   1.930   4.363 -1.0420  0.2778  0.3942
 7332TIP3   OH221959   4.891   2.210   5.452 -0.5745  0.0896 -0.1338
 7332TIP3    H121960   4.974   2.198   5.498  0.5034  1.0104 -1.7207
 7332TIP3    H221961   4.828   2.232   5.520  0.6624  0.1590  1.0274
 7333TIP3   OH221962   5.687   3.066   1.068  0.1906  0.6237 -0.1577
 7333TIP3    H121963   5.605   3.107   1.092  0.3393  1.1955 -0.6152
 7333TIP3    H221964   5.685   3.063   0.972  1.1275  1.5431 -0.2242
 7334TIP3   OH221965   4.082   6.772   3.819 -0.5056  0.1677 -0.4128
 7334TIP3    H121966   4.086   6.765   3.914  1.5207  0.9210 -0.4042
 7334TIP3    H221967   3.994   6.807   3.801 -1.2695 -0.8849  1.0802
 7335TIP3   OH221968   1.270   6.051   3.367  0.9419 -0.3984  0.0571
 7335TIP3    H121969   1.229   5.975   3.325 -0.4317  1.5006 -2.3032
 7335TIP3    H221970   1.349   6.068   3.316 -1.2634  2.5492 -2.8787
 7336TIP3   OH221971   7.045   1.799   1.767 -0.3554  0.5516  0.0153
 7336TIP3    H121972   7.090   1.833   1.690 -0.5025 -0.4216 -0.5010
 7336TIP3    H221973   7.011   1.714   1.741  1.8049 -1.0063  1.8993
 7337TIP3   OH221974   4.646   4.924   2.541  0.1033  0.2522 -0.0679
 7337TIP3    H121975   4.712   4.986   2.509 -1.1667  0.9194 -1.5037
 7337TIP3    H221976   4.583   4.978   2.588 -0.0730 -0.2059  0.2304
 7338TIP3   OH221977   5.468   4.817   4.729  0.3347  0.1859 -0.1358
 7338TIP3    H121978   5.385   4.798   4.686  0.9037 -0.2380 -1.0749
 7338TIP3    H221979   5.509   4.731   4.742  0.5105  0.3656  0.5823
 7339TIP3   OH221980   1.374   0.368   1.858  0.6918 -0.0760 -0.2216
 7339TIP3    H121981   1.375   0.307   1.931  0.8763 -1.1325 -1.0812
 7339TIP3    H221982   1.294   0.420   1.871  0.5943 -0.4213  0.5778
 7340TIP3   OH221983   3.888   4.170   1.517 -0.3575  0.1057  0.5028
 7340TIP3    H121984   3.971   4.206   1.549 -1.7475  2.5493  1.5551
 7340TIP3    H221985   3.873   4.215   1.434  0.1355 -1.6070 -0.5765
 7341TIP3   OH221986   2.024   5.214   2.040  0.7998 -0.1053 -0.1302
 7341TIP3    H121987   2.073   5.291   2.067  0.4419  0.0942 -0.0494
 7341TIP3    H221988   2.023   5.158   2.117  1.7076 -0.5315 -0.4120
 7342TIP3   OH221989   5.696   0.439   5.726 -0.2577  0.3339 -0.0583
 7342TIP3    H121990   5.735   0.483   5.801  0.2828  1.5480 -1.0089
 7342TIP3    H221991   5.632   0.379   5.763  0.6295  0.2460  1.4081
 7343TIP3   OH221992   3.599   4.509   5.244 -0.2826 -0.6629 -0.2194
 7343TIP3    H121993   3.632   4.555   5.168  0.6720 -0.3650  0.3559
 7343TIP3    H221994   3.513   4.476   5.218 -1.0153  1.4746 -0.6220
 7344TIP3   OH221995   5.550   6.477   5.720  0.8885 -0.4653  0.9187
 7344TIP3    H121996   5.567   6.434   5.804  0.4266 -0.2190  1.1422
 7344TIP3    H221997   5.454   6.482   5.715  0.8951 -0.9755  0.1245
 7345TIP3   OH221998   5.303   0.609   0.772  0.0700 -0.1041 -0.3253
 7345TIP3    H121999   5.235   0.667   0.807 -0.4197 -0.0478 -1.3495
 7345TIP3    H222000   5.324   0.646   0.687 -0.9475 -1.9720 -1.4370
 7346TIP3   OH222001   1.945   2.475   1.535 -0.2118 -0.1240  0.3392
 7346TIP3    H122002   1.871   2.426   1.570 -0.3973  0.9987  1.6122
 7346TIP3    H222003   1.928   2.482   1.441 -1.2857 -0.6077  0.4871
 7347TIP3   OH222004   5.189   3.508   3.145  0.2057  0.0040 -0.2497
 7347TIP3    H122005   5.272   3.522   3.100 -0.2815  1.2457 -0.8135
 7347TIP3    H222006   5.202   3.429   3.197  0.7377 -1.6523 -2.7458
 7348TIP3   OH222007   3.986   2.576   1.909 -0.5807 -0.3416 -0.1972
 7348TIP3    H122008   4.042   2.638   1.862 -0.8080  0.1394  0.1603
 7348TIP3    H222009   3.992   2.495   1.859  0.6429 -0.3739 -0.0212
 7349TIP3   OH222010   3.047   3.823   5.636 -0.2370 -0.4367 -0.1102
 7349TIP3    H122011   3.086   3.910   5.626 -0.1166 -0.7333 -2.6455
 7349TIP3    H222012   2.956   3.840   5.658  0.7129  0.2584  4.3525
 7350TIP3   OH222013   5.667   6.240   3.482  0.5939  0.3114 -0.5989
 7350TIP3    H122014   5.684   6.312   3.421 -0.6689  0.7179 -0.4961
 7350TIP3    H222015   5.751   6.224   3.524  1.1684  0.9281 -1.4775
 7351TIP3   OH222016   3.163   1.228   0.363 -0.0232  0.1227 -0.0827
 7351TIP3    H122017   3.116   1.270   0.435 -0.0624 -0.7317  0.4018
 7351TIP3    H222018   3.112   1.150   0.343  1.2318 -0.8938  0.5324
 7352TIP3   OH222019   2.744   6.490   2.716  0.2255  0.0112  0.3558
 7352TIP3    H122020   2.692   6.505   2.795  1.0307  0.9566  0.7333
 7352TIP3    H222021   2.716   6.559   2.656 -2.0356 -2.0182 -1.1285
 7353TIP3   OH222022   1.469   6.135   1.449 -0.2684  0.8113 -0.1837
 7353TIP3    H122023   1.445   6.212   1.398 -1.2148 -1.1729 -2.9734
 7353TIP3    H222024   1.504   6.074   1.385  0.7207 -1.0058  1.9661
 7354TIP3   OH222025   6.982   6.354  -0.004 -0.7316 -0.9000 -0.6652
 7354TIP3    H122026   6.997   6.259  -0.004  0.2557 -0.8138  1.7681
 7354TIP3    H222027   7.068   6.392   0.015 -1.5272  0.3553  0.5657
 7355TIP3   OH222028   6.512   2.492   0.848 -0.4749  0.5204  0.6875
 7355TIP3    H122029   6.591   2.439   0.858  0.3711  1.5720 -0.1905
 7355TIP3    H222030   6.462   2.449   0.778  0.8130  1.5111 -0.9207
 7356TIP3   OH222031   2.204   5.044   5.052 -0.1349 -0.6673 -0.0964
 7356TIP3    H122032   2.187   4.959   5.011 -1.3401 -0.2389 -0.5269
 7356TIP3    H222033   2.254   5.093   4.986 -0.0857 -0.7868 -0.1478
 7357TIP3   OH222034   4.382   2.528   3.534  0.1725  0.1069  0.0914
 7357TIP3    H122035   4.301   2.537   3.483  0.4382  1.3494 -0.1420
 7357TIP3    H222036   4.436   2.468   3.482  0.5958  1.6435 -1.3404
 7358TIP3   OH222037   1.649   5.765   1.500 -0.0955  0.2211  0.1519
 7358TIP3    H122038   1.667   5.682   1.545 -2.4191 -0.5004 -0.0914
 7358TIP3    H222039   1.677   5.749   1.410 -0.6036 -0.3504  0.0862
 7359TIP3   OH222040   2.507   6.399   1.793 -0.1715 -0.3385 -0.4799
 7359TIP3    H122041   2.504   6.360   1.880 -0.8760  1.4419  0.3512
 7359TIP3    H222042   2.582   6.459   1.796  1.1128 -1.7873 -1.8384
 7360TIP3   OH222043   1.140   5.299   2.288 -0.3527  0.1942  0.4370
 7360TIP3    H122044   1.187   5.259   2.361  1.1398 -0.2116 -0.6869
 7360TIP3    H222045   1.199   5.288   2.213 -1.3544  1.5646 -0.6023
 7361TIP3   OH222046   6.541   1.092   2.099  0.0491 -0.0251  0.1856
 7361TIP3    H122047   6.585   1.091   2.014 -0.0705 -1.5392  0.0999
 7361TIP3    H222048   6.537   0.999   2.124  1.4015  0.4684  2.5206
 7362TIP3   OH222049   0.591   3.149   4.512  0.0252 -0.0689 -0.3985
 7362TIP3    H122050   0.512   3.163   4.563 -0.7839  0.8282 -1.8484
 7362TIP3    H222051   0.662   3.167   4.574 -0.8904  4.5435 -0.3678
 7363TIP3   OH222052   3.431   4.744   5.163 -0.3368  0.1545  0.1526
 7363TIP3    H122053   3.402   4.653   5.154 -1.8484  0.5805  0.5456
 7363TIP3    H222054   3.350   4.795   5.172  0.5382  1.3600  1.5971
 7364TIP3   OH222055   1.036   2.239   1.143  0.4120 -0.3223 -1.0986
 7364TIP3    H122056   1.124   2.257   1.109  0.6305  1.0336  0.0999
 7364TIP3    H222057   1.042   2.149   1.177  1.6072  0.0655 -0.2399
 7365TIP3   OH222058   4.303   3.460   1.567  0.3219  0.0768  0.2288
 7365TIP3    H122059   4.209   3.462   1.582  0.4915  1.4410  1.3792
 7365TIP3    H222060   4.325   3.367   1.561 -1.2165 -0.2310 -1.0474
 7366TIP3   OH222061   1.629   3.849   4.623  0.4855 -0.8149 -0.3711
 7366TIP3    H122062   1.552   3.823   4.573  0.4710 -0.4041 -0.5695
 7366TIP3    H222063   1.610   3.937   4.653  0.1821 -1.3317  1.0117
 7367TIP3   OH222064   2.411   5.596   1.137  0.1585 -0.3534  0.3743
 7367TIP3    H122065   2.503   5.621   1.129  0.0424 -0.1908 -0.5921
 7367TIP3    H222066   2.410   5.503   1.118  0.0549 -0.2455 -0.1518
 7368TIP3   OH222067   0.717   5.845   4.719  0.1659 -0.4617  0.4238
 7368TIP3    H122068   0.724   5.750   4.709  1.6384 -0.3740  0.4004
 7368TIP3    H222069   0.685   5.858   4.808 -1.3489 -0.9923 -0.0187
 7369TIP3   OH222070   3.147   0.189   5.617 -0.1461 -0.1643  0.0742
 7369TIP3    H122071   3.094   0.172   5.539 -0.3342 -1.1145  0.3943
 7369TIP3    H222072   3.133   0.282   5.635 -0.4571 -0.0402 -0.7602
 7370TIP3   OH222073   1.477   4.600   5.348 -0.0304  1.0166  0.3999
 7370TIP3    H122074   1.540   4.603   5.420  1.1483 -0.7445 -0.4629
 7370TIP3    H222075   1.502   4.521   5.299 -2.6282  0.5449 -0.2740
 7371TIP3   OH222076   0.228   2.852   3.934  0.1877 -0.0116  0.0600
 7371TIP3    H122077   0.324   2.853   3.928  0.1593 -0.4404 -0.5520
 7371TIP3    H222078   0.204   2.761   3.919 -0.3952  0.3353 -1.2599
 7372TIP3   OH222079   5.006   4.319   1.797 -0.0020  0.1282  0.4934
 7372TIP3    H122080   5.096   4.306   1.827  0.0348  0.4125  0.5125
 7372TIP3    H222081   4.958   4.341   1.877 -0.1123 -0.1430  0.5013
 7373TIP3   OH222082   5.286   3.344   1.720  1.0112  0.2177  0.2700
 7373TIP3    H122083   5.322   3.406   1.784 -0.4793  1.6475 -0.1946
 7373TIP3    H222084   5.202   3.318   1.758  0.6798  0.1173 -0.5134
 7374TIP3   OH222085   0.382   5.000   2.588 -0.2099  0.0135 -0.2255
 7374TIP3    H122086   0.467   4.993   2.545  0.9729  1.8267  1.6408
 7374TIP3    H222087   0.398   4.971   2.678 -1.9450 -0.9981 -0.1906
 7375TIP3   OH222088   0.961   3.046   2.184  0.6151 -0.2532 -0.3574
 7375TIP3    H122089   0.883   3.028   2.236  0.7701 -0.9393 -0.3480
 7375TIP3    H222090   0.939   3.123   2.132 -0.4206 -0.9856 -1.0452
 7376TIP3   OH222091   2.437   5.059   4.273  0.4163  0.1769 -0.0873
 7376TIP3    H122092   2.349   5.086   4.300 -0.3777 -0.4094 -1.9339
 7376TIP3    H222093   2.431   5.049   4.178  2.0059 -1.5831 -0.0658
 7377TIP3   OH222094   4.718   5.329   3.353  0.3471  0.1391  0.2540
 7377TIP3    H122095   4.629   5.363   3.345  0.2908  0.2646  1.2778
 7377TIP3    H222096   4.758   5.345   3.268 -0.4318  0.6081 -0.0270
 7378TIP3   OH222097   2.319   2.552   0.185  0.0478 -0.1349  0.6314
 7378TIP3    H122098   2.400   2.594   0.213  0.2514  0.4214 -0.7231
 7378TIP3    H222099   2.302   2.588   0.098 -1.8819  0.0562  1.0571
 7379TIP3   OH222100   6.286   1.756   3.646 -0.0154 -0.5539 -0.0757
 7379TIP3    H122101   6.289   1.727   3.737 -1.6739 -0.3645  0.0755
 7379TIP3    H222102   6.230   1.692   3.602 -1.4171  0.8065 -0.3539
 7380TIP3   OH222103   6.171   1.485   2.680 -0.5537  0.0025 -0.3184
 7380TIP3    H122104   6.076   1.497   2.691 -0.6720 -0.2695 -0.9565
 7380TIP3    H222105   6.183   1.485   2.585  0.1870  0.7218 -0.2319
 7381TIP3   OH222106   6.887   0.024   4.973 -0.2578 -0.2292  0.0034
 7381TIP3    H122107   6.822   0.082   4.933  1.6418  0.6985 -1.9921
 7381TIP3    H222108   6.946   0.084   5.019 -0.9143 -1.0842  2.0687
 7382TIP3   OH222109   5.789   0.484   4.526 -0.0529 -0.4469  0.2718
 7382TIP3    H122110   5.768   0.558   4.582  1.1182  1.6299 -1.7981
 7382TIP3    H222111   5.723   0.418   4.546 -2.0917  1.7245  1.1992
 7383TIP3   OH222112   2.332   2.337   0.363  0.5331 -0.3114 -0.2441
 7383TIP3    H122113   2.332   2.380   0.449 -0.9789  1.1988 -0.9389
 7383TIP3    H222114   2.334   2.409   0.300  1.1669 -1.3767 -1.4850
 7384TIP3   OH222115   6.805   4.626   0.767 -0.0839 -0.1776 -0.0100
 7384TIP3    H122116   6.821   4.666   0.852 -0.8599 -1.8842  0.9893
 7384TIP3    H222117   6.787   4.534   0.786 -0.5833 -0.5501 -1.9926
 7385TIP3   OH222118   4.874   2.767   3.411 -0.1192  0.3747  0.0192
 7385TIP3    H122119   4.965   2.769   3.442  0.3161  1.8049 -1.2042
 7385TIP3    H222120   4.881   2.739   3.320 -0.9731 -0.0053  0.0622
 7386TIP3   OH222121   6.449   2.706   0.652  0.0317 -0.0325  0.2048
 7386TIP3    H122122   6.462   2.648   0.726 -0.2344 -0.9430 -0.4440
 7386TIP3    H222123   6.537   2.720   0.616 -0.0794 -1.6532 -0.8111
 7387TIP3   OH222124   1.853   4.504   2.215  0.0544 -0.0619  0.3477
 7387TIP3    H122125   1.902   4.579   2.181  0.4754 -0.6224 -0.3168
 7387TIP3    H222126   1.767   4.511   2.173 -0.0455  0.2674  0.6008
 7388TIP3   OH222127   0.356   3.792   0.829  0.1404 -0.2477 -0.1951
 7388TIP3    H122128   0.264   3.799   0.856  0.0713  1.1012 -0.7068
 7388TIP3    H222129   0.397   3.739   0.898 -0.9486 -0.5936  0.2058
 7389TIP3   OH222130   0.124   2.604   5.309  0.3110 -0.4545  0.0953
 7389TIP3    H122131   0.089   2.679   5.260 -1.5016 -1.5079 -0.3277
 7389TIP3    H222132   0.175   2.555   5.244  1.2831  0.2354  0.3099
 7390TIP3   OH222133   7.072   3.209   2.682 -0.0401  0.3993  0.1413
 7390TIP3    H122134   7.030   3.273   2.740 -0.5263 -0.4493  0.7569
 7390TIP3    H222135   7.034   3.227   2.596  0.1959  1.2494  0.2007
 7391TIP3   OH222136   0.038   5.317   0.878  0.0782 -0.4645  0.0092
 7391TIP3    H122137   0.106   5.250   0.885 -1.3425 -2.1733 -1.3855
 7391TIP3    H222138   0.076   5.383   0.819  1.4900 -0.0024  1.3785
 7392TIP3   OH222139   2.936   4.555   4.274  0.4174  0.4089  0.7855
 7392TIP3    H122140   2.904   4.632   4.321  0.8813  1.3922 -0.4683
 7392TIP3    H222141   2.923   4.482   4.336 -3.0622  0.9248  0.8637
 7393TIP3   OH222142   4.312   2.697   4.156 -0.7196 -0.1150 -0.4924
 7393TIP3    H122143   4.336   2.710   4.248 -1.5442  0.6572 -0.3659
 7393TIP3    H222144   4.368   2.626   4.126  0.8849  0.8518  0.0894
 7394TIP3   OH222145   3.223   5.783   4.551 -0.0543  0.0183  0.0402
 7394TIP3    H122146   3.133   5.801   4.579 -0.5955  0.5514 -1.8924
 7394TIP3    H222147   3.276   5.844   4.602 -1.0339  1.3066 -0.4244
 7395TIP3   OH222148   0.463   3.045   1.163 -0.7152  0.1238  0.5071
 7395TIP3    H122149   0.534   2.987   1.138 -1.6526 -1.0532  0.5180
 7395TIP3    H222150   0.506   3.129   1.180  0.6082 -0.4505  0.1195
 7396TIP3   OH222151   0.839   1.580   2.386 -0.0768  0.1168  0.1704
 7396TIP3    H122152   0.801   1.668   2.396 -0.0001  0.1583  0.0994
 7396TIP3    H222153   0.764   1.521   2.393 -0.5721  0.3041 -2.3929
 7397TIP3   OH222154   6.670   4.459   2.434 -0.0833 -0.3015 -0.3827
 7397TIP3    H122155   6.709   4.472   2.348  1.1058 -2.1149 -0.1802
 7397TIP3    H222156   6.627   4.374   2.428  0.1945 -0.5573  0.8654
 7398TIP3   OH222157   3.423   5.180   2.206  0.1259 -0.4282 -0.0201
 7398TIP3    H122158   3.361   5.243   2.168 -0.1441 -0.0998  0.9332
 7398TIP3    H222159   3.385   5.095   2.188 -0.1225 -0.2676 -0.2677
 7399TIP3   OH222160   5.994   0.843   0.259  0.4047 -0.0636  0.3756
 7399TIP3    H122161   5.916   0.793   0.235  1.4756 -1.9358  0.6207
 7399TIP3    H222162   5.977   0.930   0.223 -2.7272  0.2780  2.2643
 7400TIP3   OH222163   2.855   2.624   5.825  0.2734 -0.3592  0.4311
 7400TIP3    H122164   2.933   2.664   5.865 -1.1831  2.3597  0.8087
 7400TIP3    H222165   2.826   2.559   5.889  0.8267  0.4051  1.4945
 7401TIP3   OH222166   3.415   1.700   0.827 -0.3619 -0.0801  0.0524
 7401TIP3    H122167   3.493   1.734   0.871 -1.4959  0.2499  1.8963
 7401TIP3    H222168   3.348   1.767   0.842 -1.4285 -1.0634 -0.1693
 7402TIP3   OH222169   5.750   6.018   4.618  0.3206 -0.1106  0.2414
 7402TIP3    H122170   5.808   6.059   4.683 -0.0377  1.5405 -0.4192
 7402TIP3    H222171   5.667   6.007   4.665  0.5552 -0.5192  0.5663
 7403TIP3   OH222172   1.842   3.720   5.300  0.5981  0.0587  0.5903
 7403TIP3    H122173   1.813   3.651   5.241 -1.2891  1.1038  0.2029
 7403TIP3    H222174   1.922   3.754   5.262  0.1848 -0.2562 -0.5807
 7404TIP3   OH222175   5.152   4.814   5.524  0.3899  0.1679  0.3938
 7404TIP3    H122176   5.247   4.825   5.532  0.4030  0.1419  0.2760
 7404TIP3    H222177   5.141   4.759   5.447  0.2205  1.0850 -0.2491
 7405TIP3   OH222178   7.209   1.678   4.103 -0.8522  0.2018 -0.0015
 7405TIP3    H122179   7.221   1.728   4.184  0.9012  0.3759 -0.3392
 7405TIP3    H222180   7.115   1.686   4.084 -0.9715  1.6629  1.0445
 7406TIP3   OH222181   6.265   3.995   5.183  0.2468 -0.9331 -0.0734
 7406TIP3    H122182   6.216   4.010   5.264 -0.6077 -0.9010 -0.5912
 7406TIP3    H222183   6.336   4.059   5.186 -0.8197  0.3013 -0.1786
 7407TIP3   OH222184   4.619   4.872   2.216  0.2294  0.2097  0.1069
 7407TIP3    H122185   4.611   4.817   2.294  3.1134 -0.6889 -0.1147
 7407TIP3    H222186   4.610   4.961   2.249  1.6296 -0.1408  1.5638
 7408TIP3   OH222187   2.464   3.894   4.175  0.2417  0.6732 -0.2345
 7408TIP3    H122188   2.494   3.817   4.126  0.8377  1.9877 -2.0505
 7408TIP3    H222189   2.445   3.861   4.263 -0.9766 -1.8389 -1.3436
 7409TIP3   OH222190   7.083   5.874   1.901 -0.4724  0.2662 -0.1532
 7409TIP3    H122191   7.026   5.839   1.969 -0.3331 -0.0812 -0.2105
 7409TIP3    H222192   7.071   5.969   1.905  1.0779  0.4479  1.7547
 7410TIP3   OH222193   1.799   0.870   1.065 -0.2632 -0.4746  0.2781
 7410TIP3    H122194   1.812   0.791   1.118  0.0969 -1.5591 -1.3787
 7410TIP3    H222195   1.880   0.879   1.015 -0.4181  0.8071  0.2252
 7411TIP3   OH222196   3.948   5.708   1.398  0.7420 -0.0114  0.2447
 7411TIP3    H122197   4.011   5.669   1.339 -0.1162 -0.4685 -0.3972
 7411TIP3    H222198   3.920   5.789   1.354  2.6381  1.4876  1.6452
 7412TIP3   OH222199   6.422   3.392   1.927  0.0070  0.2998  0.6145
 7412TIP3    H122200   6.476   3.364   2.002 -1.6425 -0.9610  1.4007
 7412TIP3    H222201   6.334   3.363   1.950 -0.6987  0.7299 -1.4231
 7413TIP3   OH222202   2.740   0.038   1.408  0.0862  0.5162  0.0683
 7413TIP3    H122203   2.723   0.123   1.449 -0.6076 -0.7440  2.5969
 7413TIP3    H222204   2.671   0.028   1.342 -1.7059  0.6757  1.8284
 7414TIP3   OH222205   3.691   3.574   3.442 -0.0620 -0.5910 -0.0095
 7414TIP3    H122206   3.620   3.511   3.450  0.7522 -1.6429 -0.8886
 7414TIP3    H222207   3.771   3.522   3.448  0.6386  0.4620  0.0696
 7415TIP3   OH222208   5.305   2.335   1.353  0.0615  0.0435 -0.6454
 7415TIP3    H122209   5.367   2.401   1.323 -1.5274  0.9366 -2.1686
 7415TIP3    H222210   5.312   2.336   1.448  1.9834  0.4619 -0.7505
 7416TIP3   OH222211   0.446   4.954   5.878  0.5568  0.0442 -0.7604
 7416TIP3    H122212   0.383   5.025   5.880  0.7629  0.2172  1.6864
 7416TIP3    H222213   0.404   4.886   5.826 -0.8679  0.8424 -0.6824
 7417TIP3   OH222214   3.669   0.942   1.769  0.4501 -0.3466  0.8617
 7417TIP3    H122215   3.746   0.999   1.776  0.4066 -0.4212  2.5077
 7417TIP3    H222216   3.610   0.974   1.837 -0.0062 -1.7104  1.1373
 7418TIP3   OH222217   0.154   1.865   2.063  0.5943 -0.0919 -0.2197
 7418TIP3    H122218   0.192   1.892   2.146 -2.7550  0.4176  1.3036
 7418TIP3    H222219   0.141   1.770   2.072 -0.7953  0.1252  0.3889
 7419TIP3   OH222220   1.206   2.123   1.472 -0.0985 -0.0499  0.3213
 7419TIP3    H122221   1.141   2.115   1.402 -0.7653  0.2818  0.8907
 7419TIP3    H222222   1.279   2.069   1.443 -1.3198 -1.8571  0.4759
 7420TIP3   OH222223   3.497   4.098   3.248 -0.6855  0.7414 -0.4163
 7420TIP3    H122224   3.471   4.165   3.312 -0.1437  0.4979  0.0628
 7420TIP3    H222225   3.415   4.076   3.203 -1.0823  0.9067  0.2009
 7421TIP3   OH222226   0.867   6.408   5.309  0.3821 -0.3369  0.4431
 7421TIP3    H122227   0.864   6.498   5.342  0.8879  1.0249 -2.8140
 7421TIP3    H222228   0.959   6.382   5.318  0.2430 -0.5758  1.3483
 7422TIP3   OH222229   2.915   3.039   1.364  0.1357  0.0098 -0.5168
 7422TIP3    H122230   2.986   3.037   1.299 -0.3308  0.2804 -1.0367
 7422TIP3    H222231   2.841   2.998   1.320  0.3136 -1.4429  0.4572
 7423TIP3   OH222232   3.511   0.417   3.742 -0.2928  0.5369 -0.0927
 7423TIP3    H122233   3.454   0.470   3.797 -0.8889 -0.2846  0.1020
 7423TIP3    H222234   3.546   0.349   3.800  0.2497  0.5507 -0.3918
 7424TIP3   OH222235   1.413   1.227   3.945 -0.3523 -0.0860  0.3092
 7424TIP3    H122236   1.385   1.315   3.922 -0.4465  0.7545  3.1862
 7424TIP3    H222237   1.363   1.169   3.888 -0.0325  1.6733 -1.8879
 7425TIP3   OH222238   3.116   2.946   2.533  0.1553 -0.3238  0.0617
 7425TIP3    H122239   3.116   3.040   2.551  4.5327 -0.1232  0.0993
 7425TIP3    H222240   3.146   2.939   2.442 -0.3753 -1.6982 -0.0257
 7426TIP3   OH222241   1.898   5.388   2.555  0.6094  0.2256  0.1310
 7426TIP3    H122242   1.896   5.309   2.610  2.7639 -0.6476 -0.9195
 7426TIP3    H222243   1.839   5.449   2.599  0.4093 -1.2583  2.0884
 7427TIP3   OH222244   0.766   2.132   4.224  0.1143  0.9296  0.0896
 7427TIP3    H122245   0.747   2.053   4.274 -0.8224  1.0429 -0.0689
 7427TIP3    H222246   0.697   2.136   4.158 -0.0056  2.0216  0.2663
 7428TIP3   OH222247   3.248   3.480   1.173  0.4370  0.0425 -0.1148
 7428TIP3    H122248   3.280   3.400   1.131  1.7554 -0.0481  0.9899
 7428TIP3    H222249   3.162   3.457   1.206  0.9515 -1.0666  0.5197
 7429TIP3   OH222250   5.676   4.877   4.426  0.3483 -0.2125 -0.4160
 7429TIP3    H122251   5.709   4.788   4.443 -0.8728 -0.5475  0.2925
 7429TIP3    H222252   5.668   4.917   4.513 -2.1896 -0.5601 -0.4293
 7430TIP3   OH222253   6.874   6.567   4.288 -0.0367  0.6682  0.0642
 7430TIP3    H122254   6.939   6.501   4.312 -0.3809  0.9063  1.8243
 7430TIP3    H222255   6.799   6.548   4.345 -0.5612  1.8965 -0.1922
 7431TIP3   OH222256   5.661   5.375   5.150  0.1959 -0.0783  0.4085
 7431TIP3    H122257   5.620   5.307   5.204 -1.2595  0.5031  0.0822
 7431TIP3    H222258   5.591   5.408   5.095  1.0945  1.0354 -0.1215
 7432TIP3   OH222259   5.830   0.577   0.578  0.4839 -0.2017  0.6042
 7432TIP3    H122260   5.776   0.507   0.615  0.3548  0.2859  1.3713
 7432TIP3    H222261   5.768   0.634   0.533  0.4668 -0.0943  0.7625
 7433TIP3   OH222262   1.578   3.354   0.578 -0.2612  0.3968 -0.0618
 7433TIP3    H122263   1.613   3.385   0.662  0.4522  1.1822 -0.6354
 7433TIP3    H222264   1.503   3.411   0.561 -0.2387  0.4186 -0.0887
 7434TIP3   OH222265   1.696   6.760   3.615 -0.6069 -0.0857 -0.3140
 7434TIP3    H122266   1.739   6.751   3.700 -1.8720  0.6932  0.4413
 7434TIP3    H222267   1.761   6.801   3.559 -0.0411  0.1612  0.5142
 7435TIP3   OH222268   5.478   0.351   2.482  0.7420 -0.5128 -0.7273
 7435TIP3    H122269   5.526   0.380   2.559  1.3968  1.0660 -1.6810
 7435TIP3    H222270   5.401   0.306   2.518  1.8028 -1.1880  0.8158
 7436TIP3   OH222271   0.294   4.775   3.903 -0.2274  0.1107  0.2739
 7436TIP3    H122272   0.275   4.682   3.908 -0.9955  0.2071 -0.5434
 7436TIP3    H222273   0.344   4.785   3.821 -1.7777  0.6455 -0.6425
 7437TIP3   OH222274   6.756   1.503   0.897  0.3759 -0.2553  0.1918
 7437TIP3    H122275   6.701   1.425   0.902  1.4214 -0.9446  2.9009
 7437TIP3    H222276   6.802   1.495   0.813  0.0992 -2.3025  0.1929
 7438TIP3   OH222277   3.172   4.809   3.932 -0.6342 -0.3925  0.0680
 7438TIP3    H122278   3.160   4.744   3.863 -0.0672  0.1409 -0.5494
 7438TIP3    H222279   3.188   4.757   4.011  0.2974 -1.0212 -0.5058
 7439TIP3   OH222280   4.935   4.353   4.703  0.4633 -0.7315 -0.1431
 7439TIP3    H122281   4.991   4.378   4.777 -0.1905  0.7246 -0.1161
 7439TIP3    H222282   4.997   4.323   4.636  1.2802  0.4344  0.0433
 7440TIP3   OH222283   1.998   1.822   5.698 -0.3435 -0.0418 -0.4314
 7440TIP3    H122284   1.992   1.829   5.793 -3.0540  2.0677 -0.6139
 7440TIP3    H222285   2.086   1.789   5.681  0.6045  0.5283  2.7502
 7441TIP3   OH222286   2.479   4.841   5.145  0.1321  0.0254 -0.0458
 7441TIP3    H122287   2.557   4.850   5.091  1.9312  0.0926  2.4449
 7441TIP3    H222288   2.473   4.924   5.194 -0.9525 -0.3633  0.5266
 7442TIP3   OH222289   1.158   6.665   0.546  0.1635  0.1958  0.0717
 7442TIP3    H122290   1.099   6.676   0.471 -0.2235 -0.5745  0.2556
 7442TIP3    H222291   1.118   6.595   0.598  2.4723 -2.0678 -1.0151
 7443TIP3   OH222292   0.236   2.936   2.249  0.4991 -0.5245  1.0281
 7443TIP3    H122293   0.280   3.019   2.230  0.9160 -0.7785  0.8683
 7443TIP3    H222294   0.289   2.897   2.318  0.9341 -1.1539  0.3520
 7444TIP3   OH222295   0.520   4.499   0.683 -0.3817  0.1989  0.3843
 7444TIP3    H122296   0.542   4.592   0.695  0.2396  0.5097 -2.2986
 7444TIP3    H222297   0.601   4.452   0.704 -0.5412  0.3154  1.2565
 7445TIP3   OH222298   3.766   2.579   5.397 -0.2383 -0.4032  0.1470
 7445TIP3    H122299   3.852   2.621   5.396 -0.5591  0.2637 -0.1512
 7445TIP3    H222300   3.785   2.485   5.391  0.4147 -0.1682 -2.8542
 7446TIP3   OH222301   5.541   3.726   3.585  0.0885 -0.5326  0.7058
 7446TIP3    H122302   5.611   3.749   3.646  1.1239  0.4893 -0.7865
 7446TIP3    H222303   5.585   3.716   3.501 -1.3365 -1.6059  0.0434
 7447TIP3   OH222304   0.889   1.491   4.334 -0.0172  0.0817 -0.2249
 7447TIP3    H122305   0.959   1.460   4.391 -0.3776  1.6961  1.1813
 7447TIP3    H222306   0.933   1.509   4.250  1.5929  2.2628  0.9775
 7448TIP3   OH222307   5.806   5.276   4.909 -0.5645  0.1928  0.0260
 7448TIP3    H122308   5.757   5.296   4.989  0.1818 -1.0492  0.8367
 7448TIP3    H222309   5.867   5.207   4.935  0.6387  0.6984 -1.2909
 7449TIP3   OH222310   3.401   2.404   2.430  0.4079 -0.2309 -0.1419
 7449TIP3    H122311   3.421   2.471   2.365  2.1127  0.2623  0.8270
 7449TIP3    H222312   3.333   2.443   2.484  0.1845  0.0265 -0.6020
 7450TIP3   OH222313   1.030   4.766   3.289 -0.4521 -0.2540  0.4871
 7450TIP3    H122314   1.096   4.706   3.254 -0.9027 -0.0427 -0.7667
 7450TIP3    H222315   1.079   4.825   3.346  0.4309 -0.1599 -0.3502
 7451TIP3   OH222316   2.272   6.366   5.724  0.5798  1.0174  0.3900
 7451TIP3    H122317   2.360   6.342   5.754  1.0071  1.0298 -0.7977
 7451TIP3    H222318   2.286   6.437   5.662  0.0916 -1.0349 -2.2651
 7452TIP3   OH222319   5.910   4.332   4.606  0.1507  0.0791 -0.4250
 7452TIP3    H122320   5.922   4.416   4.650 -1.0532 -0.8601  1.9177
 7452TIP3    H222321   5.954   4.269   4.664 -0.9135 -1.1466 -0.9019
 7453TIP3   OH222322   4.011   6.722   4.947  0.9566 -0.7702 -0.6958
 7453TIP3    H122323   4.069   6.767   5.008  1.0374  0.6915 -1.7927
 7453TIP3    H222324   3.991   6.788   4.881  0.0334 -1.9956 -1.6742
 7454TIP3   OH222325   1.708   2.559   3.831  0.2025  0.1957 -0.4311
 7454TIP3    H122326   1.772   2.508   3.781  0.6996 -0.0868  0.4603
 7454TIP3    H222327   1.712   2.647   3.795  1.5259  0.3222 -0.0156
 7455TIP3   OH222328   5.077   6.292   4.440 -0.1251 -0.0417  0.6423
 7455TIP3    H122329   5.031   6.212   4.466 -0.2294 -0.8571 -1.7773
 7455TIP3    H222330   5.164   6.261   4.413 -1.1287  0.0443 -3.2866
 7456TIP3   OH222331   1.213   2.735   1.620  0.2130 -0.3792 -0.1770
 7456TIP3    H122332   1.308   2.745   1.616  0.4286 -0.4658  2.7475
 7456TIP3    H222333   1.199   2.665   1.684 -1.8457  1.2256  1.2466
 7457TIP3   OH222334   5.828   3.045   2.575 -0.0289 -0.1965 -0.1359
 7457TIP3    H122335   5.802   2.978   2.638  0.1024  0.5268  0.7149
 7457TIP3    H222336   5.794   3.014   2.491  0.1255 -1.3691  0.2220
 7458TIP3   OH222337   4.171   0.217   3.183 -0.0448  0.4125 -0.3915
 7458TIP3    H122338   4.260   0.206   3.151 -0.6939 -1.4993 -1.6998
 7458TIP3    H222339   4.175   0.294   3.240  2.2464  0.8422 -1.0514
 7459TIP3   OH222340   2.368   2.778   3.428  0.5862  0.0999  0.5140
 7459TIP3    H122341   2.366   2.873   3.427  2.6336  0.2025  1.3555
 7459TIP3    H222342   2.451   2.755   3.387  1.5635 -1.1840  3.0164
 7460TIP3   OH222343   3.828   5.191   3.464 -0.1768  0.3367 -0.0965
 7460TIP3    H122344   3.922   5.179   3.450 -0.4650  0.0062 -1.9394
 7460TIP3    H222345   3.810   5.143   3.545  0.8542 -1.6673 -0.9770
 7461TIP3   OH222346   5.766   3.459   0.236  0.1350 -0.4044  0.3055
 7461TIP3    H122347   5.756   3.470   0.142  1.3090  0.4662  0.2605
 7461TIP3    H222348   5.699   3.394   0.260 -0.5059 -0.2698 -1.0306
 7462TIP3   OH222349   2.937   1.693   3.547  0.2514  0.3517 -0.2872
 7462TIP3    H122350   2.918   1.702   3.641  4.4017  1.4804  0.6669
 7462TIP3    H222351   2.942   1.598   3.533 -0.3577  0.1658  0.6605
 7463TIP3   OH222352   6.336   6.028   1.761 -0.1607 -0.4963  0.5830
 7463TIP3    H122353   6.394   6.077   1.703 -0.2476 -0.3008  0.6584
 7463TIP3    H222354   6.374   6.038   1.848  1.1745 -2.5830  0.2968
 7464TIP3   OH222355   1.200   1.025   4.239 -0.2539  0.3213  0.1672
 7464TIP3    H122356   1.282   1.052   4.280  0.2445 -0.8253 -0.0350
 7464TIP3    H222357   1.154   1.107   4.221  1.8704  1.2099 -1.8758
 7465TIP3   OH222358   2.194   3.711   4.861 -0.0084  0.4399  0.0340
 7465TIP3    H122359   2.215   3.620   4.879  1.5804  1.0098  1.2787
 7465TIP3    H222360   2.169   3.712   4.768  0.4470 -1.1653 -0.1322
 7466TIP3   OH222361   4.961   3.942   2.248  0.2488  0.0750  0.2963
 7466TIP3    H122362   5.040   3.926   2.300  4.2831  3.1990 -3.9504
 7466TIP3    H222363   4.956   3.866   2.189  1.7869  0.8812 -0.9819
 7467TIP3   OH222364   3.399   5.052   5.338  0.2060 -0.1404  0.8038
 7467TIP3    H122365   3.444   5.134   5.356 -0.3532 -0.0066  1.6708
 7467TIP3    H222366   3.416   4.998   5.414 -1.9510  0.3154  1.7019
 7468TIP3   OH222367   6.559   3.505   1.145  0.1749 -0.0768  0.4451
 7468TIP3    H122368   6.523   3.445   1.210 -0.9476  1.2545  1.1020
 7468TIP3    H222369   6.540   3.464   1.060 -2.6544  0.3810  0.7744
 7469TIP3   OH222370   4.904   6.249   5.115 -0.5155 -0.0846 -0.0735
 7469TIP3    H122371   4.938   6.164   5.145 -0.1412  0.3675  0.8305
 7469TIP3    H222372   4.820   6.227   5.074 -1.0119 -0.7711  1.2417
 7470TIP3   OH222373   5.281   2.397   2.621  0.3778  0.2435  0.4210
 7470TIP3    H122374   5.318   2.402   2.532  0.9764  0.6000  0.6883
 7470TIP3    H222375   5.275   2.488   2.650 -1.3253  0.2556  0.1466
 7471TIP3   OH222376   2.668   5.276   0.730  0.3360  0.2724  0.2435
 7471TIP3    H122377   2.610   5.203   0.750  0.0507  0.0419 -1.3605
 7471TIP3    H222378   2.612   5.339   0.684  1.1902  0.3291 -0.7505
 7472TIP3   OH222379   4.651   1.084   3.402  0.5422  0.3591  0.2245
 7472TIP3    H122380   4.733   1.091   3.451  1.2069 -2.3340 -0.3123
 7472TIP3    H222381   4.599   1.021   3.451  0.2313 -0.5334 -1.1828
 7473TIP3   OH222382   2.931   0.821   0.915 -0.5099 -0.1577 -0.2561
 7473TIP3    H122383   2.856   0.768   0.942 -0.6093 -0.9743 -2.0236
 7473TIP3    H222384   3.002   0.759   0.905  0.1016  0.4453  0.2176
 7474TIP3   OH222385   6.636   5.198   2.548  0.0074 -0.6047  0.8354
 7474TIP3    H122386   6.575   5.243   2.606  0.4918 -0.7849  1.4972
 7474TIP3    H222387   6.696   5.152   2.607 -0.1559 -1.6936  0.1764
 7475TIP3   OH222388   4.130   5.258   2.215  0.0465 -0.2667 -0.0477
 7475TIP3    H122389   4.105   5.180   2.166 -0.4725  0.3115 -0.7327
 7475TIP3    H222390   4.078   5.254   2.295  0.6591 -1.0545  0.3236
 7476TIP3   OH222391   2.159   1.085   3.154  0.3731  0.1603 -0.2665
 7476TIP3    H122392   2.114   1.163   3.121  0.2831 -0.2521 -1.1446
 7476TIP3    H222393   2.090   1.020   3.163  0.4057  0.2549  0.7256
 7477TIP3   OH222394   4.978   4.083   3.670  0.3978  0.6291  0.1684
 7477TIP3    H122395   5.032   4.022   3.721 -0.6948  0.7650  1.5726
 7477TIP3    H222396   4.972   4.043   3.583  1.2388 -0.3050  0.5157
 7478TIP3   OH222397   0.100   0.281   3.867 -0.3785  0.1460  0.0336
 7478TIP3    H122398   0.025   0.223   3.882 -0.0405 -0.9115 -1.9529
 7478TIP3    H222399   0.175   0.231   3.901 -0.3266  0.3104  0.1610
 7479TIP3   OH222400   1.465   0.722   5.839 -0.3666  0.2020  0.0465
 7479TIP3    H122401   1.463   0.632   5.806 -0.1085  0.6305 -1.2031
 7479TIP3    H222402   1.438   0.775   5.764  0.4488  1.2349  0.4608
 7480TIP3   OH222403   6.010   4.521   4.999  0.8810 -0.3882 -0.1358
 7480TIP3    H122404   5.945   4.473   4.948 -0.2341 -0.5153  1.3179
 7480TIP3    H222405   6.026   4.467   5.076  2.4403 -0.1583 -0.2627
 7481TIP3   OH222406   0.892   2.245   2.901 -0.1891 -0.1272 -0.6452
 7481TIP3    H122407   0.912   2.152   2.886  0.6430  0.2347 -2.0104
 7481TIP3    H222408   0.818   2.244   2.961  1.2466 -1.6253  1.2347
 7482TIP3   OH222409   5.448   4.643   3.261  0.5844  0.3230 -0.6895
 7482TIP3    H122410   5.387   4.570   3.277 -0.4549  1.2461 -0.2527
 7482TIP3    H222411   5.532   4.601   3.247 -0.1464 -1.0149 -1.3079
 7483TIP3   OH222412   2.491   4.578   2.869  0.1396  0.4514 -0.1659
 7483TIP3    H122413   2.485   4.588   2.774  0.2046  1.2948 -0.0899
 7483TIP3    H222414   2.584   4.592   2.888  0.2314 -0.3071 -0.0377
 7484TIP3   OH222415   5.122   0.770   4.113  0.5869 -0.3061  0.3178
 7484TIP3    H122416   5.028   0.758   4.107  0.0708  0.8887  3.6197
 7484TIP3    H222417   5.158   0.719   4.041 -2.5130 -1.4935 -0.5410
 7485TIP3   OH222418   1.117   4.517   3.216 -0.1594  0.2102  0.0361
 7485TIP3    H122419   1.160   4.446   3.264 -3.4373 -1.4240  0.7856
 7485TIP3    H222420   1.119   4.489   3.125  0.8735  0.4925 -0.0464
 7486TIP3   OH222421   2.100   4.407   0.071  0.6180 -0.1596  0.3875
 7486TIP3    H122422   2.177   4.365   0.032  0.9061 -0.1110  0.8913
 7486TIP3    H222423   2.109   4.500   0.049 -0.4546 -0.4394 -1.4528
 7487TIP3   OH222424   2.254   4.331   4.381 -0.1200  0.7443 -0.1616
 7487TIP3    H122425   2.323   4.373   4.331  0.4743 -3.0344 -2.9325
 7487TIP3    H222426   2.292   4.247   4.408 -2.9771 -0.6649 -0.1588
 7488TIP3   OH222427   5.594   1.316   4.650  0.1144 -0.1196  0.1892
 7488TIP3    H122428   5.628   1.405   4.654  1.8681 -0.5315 -2.7001
 7488TIP3    H222429   5.643   1.269   4.717 -0.4595  0.9424  1.3901
 7489TIP3   OH222430   2.550   2.000   1.450 -0.2404  0.2493  0.2448
 7489TIP3    H122431   2.536   1.907   1.432  1.1350 -0.3801  2.1065
 7489TIP3    H222432   2.471   2.028   1.495 -0.4389 -0.1574  0.1532
 7490TIP3   OH222433   7.008   2.561   2.913  0.1564 -0.2960 -0.5791
 7490TIP3    H122434   7.011   2.632   2.849  2.4631 -0.9119 -1.2382
 7490TIP3    H222435   6.957   2.597   2.985 -0.5778  1.2382 -1.7820
 7491TIP3   OH222436   5.246   1.831   1.986 -0.6240 -0.0065  0.3838
 7491TIP3    H122437   5.203   1.745   1.984  0.6861 -0.6751 -0.4954
 7491TIP3    H222438   5.180   1.890   2.024 -1.9941 -1.1402 -0.1492
 7492TIP3   OH222439   2.612   1.388   2.344  0.8582 -0.2403  0.2756
 7492TIP3    H122440   2.659   1.426   2.417 -0.3183 -0.2926  1.0910
 7492TIP3    H222441   2.592   1.299   2.371  1.7579 -0.7867 -0.7603
 7493TIP3   OH222442   2.161   4.163   1.526 -0.0597  0.5147  0.2555
 7493TIP3    H122443   2.206   4.178   1.609 -0.7092 -1.5489  1.0476
 7493TIP3    H222444   2.128   4.249   1.500  0.7662  1.3269  1.7560
 7494TIP3   OH222445   2.979   5.736   2.627 -0.0282 -0.6154 -0.2111
 7494TIP3    H122446   3.066   5.765   2.654  0.7367 -1.2532 -1.8163
 7494TIP3    H222447   2.973   5.646   2.661 -1.1612  0.2781  2.1358
 7495TIP3   OH222448   2.914   6.479   1.124  0.2613 -0.2706 -0.3711
 7495TIP3    H122449   2.864   6.423   1.184  1.4436 -1.2418 -0.2624
 7495TIP3    H222450   2.949   6.549   1.179 -0.5286  0.1357 -0.3605
 7496TIP3   OH222451   0.323   1.584   0.538 -0.5809  0.5087 -0.0104
 7496TIP3    H122452   0.333   1.575   0.443 -0.1040 -0.4652  0.1173
 7496TIP3    H222453   0.277   1.504   0.565  1.1547 -0.2704  0.8344
 7497TIP3   OH222454   5.882   0.047   2.947 -0.6128 -0.8541 -0.0887
 7497TIP3    H122455   5.920  -0.034   2.912 -1.6544 -1.2062 -0.4468
 7497TIP3    H222456   5.790   0.044   2.920 -0.3429  1.2243 -1.5418
 7498TIP3   OH222457   4.572   2.009   0.713  0.0188  0.4585  0.0987
 7498TIP3    H122458   4.630   2.061   0.657 -0.5316  2.4229  1.2752
 7498TIP3    H222459   4.589   2.041   0.801 -0.6178 -1.1510  0.8247
 7499TIP3   OH222460   2.645   6.425   5.194  0.4623 -0.8487  0.4788
 7499TIP3    H122461   2.591   6.407   5.271  2.1495 -1.8528  1.5135
 7499TIP3    H222462   2.684   6.511   5.212 -1.4060  0.3057 -0.6949
 7500TIP3   OH222463   3.864   3.994   0.437 -0.1580  0.4887  0.2596
 7500TIP3    H122464   3.911   3.952   0.365 -1.4811  1.3260 -1.1682
 7500TIP3    H222465   3.921   3.984   0.513  1.3455 -0.3299 -0.9294
 7501TIP3   OH222466   2.460   6.042   3.988 -0.1335  0.4924 -0.7087
 7501TIP3    H122467   2.480   5.987   4.063  1.7157 -0.5193 -1.8603
 7501TIP3    H222468   2.373   6.014   3.959 -0.3995  0.1443  0.3827
 7502TIP3   OH222469   1.771   3.733   4.858 -0.2248  0.3032  0.3471
 7502TIP3    H122470   1.816   3.667   4.805  0.1151  1.3906 -0.7476
 7502TIP3    H222471   1.746   3.801   4.796 -1.0796  0.9525  1.3671
 7503TIP3   OH222472   1.436   3.066   4.673  0.5654  0.4290  0.8637
 7503TIP3    H122473   1.429   3.004   4.746 -1.5309 -0.1554  0.2183
 7503TIP3    H222474   1.445   3.011   4.596  1.1959  1.0185  0.5055
 7504TIP3   OH222475   0.070   2.805   1.786 -0.1052  0.1719  0.6632
 7504TIP3    H122476   0.130   2.824   1.857 -0.9046  0.6855  1.2195
 7504TIP3    H222477  -0.015   2.838   1.816 -0.4523  0.4474 -0.5435
 7505TIP3   OH222478   4.115   3.175   3.321  0.5896  0.4518 -0.4747
 7505TIP3    H122479   4.191   3.190   3.377 -0.1195  1.2004  0.3164
 7505TIP3    H222480   4.064   3.109   3.367 -0.2025  1.3701 -0.0051
 7506TIP3   OH222481   3.389   6.726   5.386 -0.3383  0.4194  0.5777
 7506TIP3    H122482   3.359   6.673   5.312  2.6952 -1.1019  0.2975
 7506TIP3    H222483   3.355   6.680   5.463 -1.2052  0.4713  0.2448
 7507TIP3   OH222484   0.234   6.701   4.323 -0.0003  0.0137 -0.0631
 7507TIP3    H122485   0.234   6.729   4.415  1.5252  1.3186 -0.4024
 7507TIP3    H222486   0.239   6.783   4.274  0.5465 -0.7059 -1.2601
 7508TIP3   OH222487   0.842   5.229   4.548  0.6822 -0.5742  0.3594
 7508TIP3    H122488   0.819   5.239   4.640  0.1334  1.0348  0.0740
 7508TIP3    H222489   0.888   5.309   4.525  0.3881 -0.7359 -0.8989
 7509TIP3   OH222490   5.713   5.591   2.446  0.1044  0.1907  0.9770
 7509TIP3    H122491   5.803   5.619   2.425 -0.6107  1.4705 -0.5665
 7509TIP3    H222492   5.664   5.606   2.366 -1.3944 -1.0909  1.6008
 7510TIP3   OH222493   0.412   2.619   5.149  0.3282  0.2325  0.2740
 7510TIP3    H122494   0.394   2.595   5.058 -0.0143  1.4623 -0.0038
 7510TIP3    H222495   0.493   2.573   5.170  0.5109  0.0690 -0.7155
 7511TIP3   OH222496   4.762   4.251  -0.002  0.2091 -0.4962  0.6483
 7511TIP3    H122497   4.802   4.304  -0.070 -3.6759  0.8222 -0.9168
 7511TIP3    H222498   4.760   4.309   0.075  0.3302 -0.1617  0.4017
 7512TIP3   OH222499   6.746  -0.009   3.823  0.3470  0.1936  0.8747
 7512TIP3    H122500   6.774   0.082   3.828  0.4739  0.2703 -0.6976
 7512TIP3    H222501   6.652  -0.005   3.808  0.3639  0.0606  0.7353
 7513TIP3   OH222502   2.183   3.973   1.349 -0.0475  0.1117 -0.2780
 7513TIP3    H122503   2.196   4.047   1.408  1.9981 -0.1100 -0.3470
 7513TIP3    H222504   2.121   3.916   1.394  0.3265  0.6654  0.9843
 7514TIP3   OH222505   5.469   5.390   4.484 -0.1221  0.2312  0.1678
 7514TIP3    H122506   5.383   5.434   4.488 -0.0070  0.4297  0.5374
 7514TIP3    H222507   5.530   5.460   4.464  0.3628  0.6910  2.8578
 7515TIP3   OH222508   4.887   4.518   3.278  0.5346 -0.2552 -0.1070
 7515TIP3    H122509   4.954   4.459   3.312  0.7918  0.2357  0.2490
 7515TIP3    H222510   4.844   4.468   3.208  1.0603 -0.6879 -0.1275
 7516TIP3   OH222511   6.737   5.095   4.307 -0.2807 -0.2813  0.2329
 7516TIP3    H122512   6.787   5.161   4.258 -2.8844  0.9926 -0.8819
 7516TIP3    H222513   6.798   5.065   4.374  1.3100  2.7122  0.3085
 7517TIP3   OH222514   1.806   5.902   3.669  0.5391  0.1799  0.0480
 7517TIP3    H122515   1.753   5.907   3.749 -1.9387  1.0161 -1.5156
 7517TIP3    H222516   1.883   5.955   3.688 -0.1477  0.6414  1.7649
 7518TIP3   OH222517   4.226   1.859   2.125  0.6213 -0.1174  0.0770
 7518TIP3    H122518   4.292   1.928   2.134 -1.2255  1.9828 -1.3121
 7518TIP3    H222519   4.153   1.888   2.179 -0.3612 -0.7537 -0.8541
 7519TIP3   OH222520   7.170   1.003   5.831  0.0213 -0.3891  0.2232
 7519TIP3    H122521   7.136   0.959   5.754 -1.2464 -1.6967  1.4533
 7519TIP3    H222522   7.168   0.936   5.900  1.1142  0.7149  1.4048
 7520TIP3   OH222523   1.366   2.292   5.731 -0.4569 -0.5674 -0.0965
 7520TIP3    H122524   1.333   2.236   5.801 -1.1914 -0.5692 -0.4304
 7520TIP3    H222525   1.356   2.240   5.652 -1.7495  0.2306 -0.5041
 7521TIP3   OH222526   5.086   6.217   1.354  0.1289  0.0667  0.1136
 7521TIP3    H122527   5.147   6.228   1.282  0.5165  1.5041  0.6165
 7521TIP3    H222528   5.129   6.157   1.415  0.8516  0.7128  0.2482
 7522TIP3   OH222529   5.491   2.898   4.817 -0.3243 -0.4406  0.6425
 7522TIP3    H122530   5.575   2.918   4.857 -0.6928 -0.8497  1.6698
 7522TIP3    H222531   5.427   2.943   4.873 -0.7508  0.5063 -0.5633
 7523TIP3   OH222532   2.263   5.222   3.070  0.8018 -0.0999 -0.1368
 7523TIP3    H122533   2.275   5.263   2.984  0.5771  0.9737  0.3195
 7523TIP3    H222534   2.195   5.276   3.112  0.0442 -1.3314  0.2648
 7524TIP3   OH222535   2.675   3.027   0.666  0.4684 -0.0722  0.1161
 7524TIP3    H122536   2.662   3.061   0.754  2.2642 -1.2528  0.9057
 7524TIP3    H222537   2.610   2.958   0.656  1.0643 -0.7948  1.0421
 7525TIP3   OH222538   3.756   5.089   1.002  0.0076 -0.3410  0.4591
 7525TIP3    H122539   3.688   5.082   0.935  0.1785  1.5055  0.0569
 7525TIP3    H222540   3.732   5.022   1.066 -3.0207  1.1442  1.0668
 7526TIP3   OH222541   6.908   4.466   3.641 -0.2122  0.3218 -0.2352
 7526TIP3    H122542   6.829   4.438   3.593  0.9599 -2.4199 -0.7276
 7526TIP3    H222543   6.914   4.560   3.624 -1.8919  0.1094 -2.4199
 7527TIP3   OH222544   4.680   4.523   5.637 -0.1041 -0.3295  0.0650
 7527TIP3    H122545   4.648   4.433   5.642 -0.6318 -0.2418 -1.4534
 7527TIP3    H222546   4.758   4.523   5.694 -0.6433 -1.4750  0.8497
 7528TIP3   OH222547   4.279   3.934   4.273 -0.1359 -0.5348  0.1760
 7528TIP3    H122548   4.260   4.007   4.331 -1.2644 -1.2498  0.7512
 7528TIP3    H222549   4.209   3.936   4.208  0.7027 -0.1894 -0.7523
 7529TIP3   OH222550   5.209   4.277   0.937  0.4411  0.2016  0.0720
 7529TIP3    H122551   5.139   4.343   0.942 -0.4167 -0.6712 -0.1860
 7529TIP3    H222552   5.186   4.223   0.862  0.6642 -0.9130  0.7836
 7530TIP3   OH222553   0.218   2.632   1.051 -0.5704 -0.3652  0.4553
 7530TIP3    H122554   0.204   2.570   0.980  1.2781  0.3103 -0.5766
 7530TIP3    H222555   0.286   2.691   1.018  2.2651 -1.4898  3.6333
 7531TIP3   OH222556   2.393   1.900   1.077  1.0892 -0.7466 -0.1142
 7531TIP3    H122557   2.337   1.900   1.155  2.5836 -0.7930  1.0034
 7531TIP3    H222558   2.389   1.810   1.045  0.2636 -0.6678 -0.2537
 7532TIP3   OH222559   1.709   5.195   2.497  0.1804 -0.6593  0.0846
 7532TIP3    H122560   1.719   5.117   2.550 -0.9596 -0.2037  1.0198
 7532TIP3    H222561   1.799   5.223   2.478  0.6373 -0.6814  2.0136
 7533TIP3   OH222562   5.365   0.337   4.460  0.3042  0.0302 -0.2347
 7533TIP3    H122563   5.449   0.364   4.498 -0.8072  1.0073  1.6661
 7533TIP3    H222564   5.362   0.381   4.375  0.9476  1.4529  0.4484
 7534TIP3   OH222565   3.349   2.314   5.848  0.1642 -0.0129 -0.1711
 7534TIP3    H122566   3.307   2.373   5.911  1.7949  1.7531 -0.6515
 7534TIP3    H222567   3.305   2.333   5.765  0.3542  0.1738 -0.2297
 7535TIP3   OH222568   6.604   0.447   2.708  0.1582 -0.0389  0.1251
 7535TIP3    H122569   6.531   0.387   2.727  1.4225 -1.2787  1.3369
 7535TIP3    H222570   6.648   0.457   2.792  1.1959  0.9724 -0.5159
 7536TIP3   OH222571   4.326   0.449   5.523  0.9310  0.1212  0.1481
 7536TIP3    H122572   4.403   0.489   5.482  0.1080  0.7922 -0.8202
 7536TIP3    H222573   4.301   0.510   5.592  1.1622 -0.0010  0.3385
 7537TIP3   OH222574   6.415   3.906   4.616 -0.1382  0.6362 -0.6264
 7537TIP3    H122575   6.328   3.866   4.626 -0.1486  0.9032  0.3627
 7537TIP3    H222576   6.432   3.899   4.522 -1.1493  0.4110 -0.8134
 7538TIP3   OH222577   3.813   1.822   2.227 -1.0051 -0.2229 -0.3557
 7538TIP3    H122578   3.805   1.909   2.187 -0.8313  0.8537  1.7688
 7538TIP3    H222579   3.895   1.827   2.277 -1.1179 -1.5480 -0.0131
 7539TIP3   OH222580   0.654   6.038   3.482 -0.5034  0.1541  0.5209
 7539TIP3    H122581   0.652   5.977   3.556 -1.6356 -0.5689 -0.0732
 7539TIP3    H222582   0.746   6.042   3.457 -0.6286 -3.4338 -1.1010
 7540TIP3   OH222583   3.023   1.067   0.730 -0.3995  0.2928 -0.3541
 7540TIP3    H122584   2.945   1.059   0.675  0.5048  0.9866 -1.7851
 7540TIP3    H222585   3.087   1.009   0.689  0.9469  2.3132 -1.2929
 7541TIP3   OH222586   1.711   1.303   3.908  0.3172  0.2199 -0.1833
 7541TIP3    H122587   1.713   1.389   3.952 -0.1303  0.6538 -0.9932
 7541TIP3    H222588   1.620   1.275   3.916  0.1372  0.4869 -1.1617
 7542TIP3   OH222589   3.366   1.652   5.370 -0.1256 -0.1671 -0.0741
 7542TIP3    H122590   3.305   1.656   5.444 -0.2075 -0.3139 -0.1339
 7542TIP3    H222591   3.383   1.744   5.348 -0.1558 -0.1239  0.0824
 7543TIP3   OH222592   6.438   6.109   2.471  0.3156 -0.0655 -0.3752
 7543TIP3    H122593   6.457   6.017   2.453  0.1114 -0.5671  1.6501
 7543TIP3    H222594   6.351   6.107   2.511  0.6121  0.9034  0.3579
 7544TIP3   OH222595   0.709   1.987   4.759  0.0705 -0.5185  0.8212
 7544TIP3    H122596   0.656   2.058   4.795  1.4731  0.1828  1.5779
 7544TIP3    H222597   0.748   2.023   4.680 -0.6904 -1.1022  0.1531
 7545TIP3   OH222598   1.455   3.740   5.117  0.0918  0.1758  0.1401
 7545TIP3    H122599   1.514   3.709   5.185  0.9794  0.5821 -0.4392
 7545TIP3    H222600   1.457   3.835   5.124 -0.6559  0.1927  0.2487
 7546TIP3   OH222601   6.409   1.387   4.316  0.1321 -0.3372  0.5944
 7546TIP3    H122602   6.351   1.338   4.258 -0.3874  0.0227  0.8085
 7546TIP3    H222603   6.425   1.327   4.389 -0.3783 -0.2558  0.7798
 7547TIP3   OH222604   6.457   5.727   2.695  0.3144 -0.0903 -0.3368
 7547TIP3    H122605   6.384   5.669   2.676 -0.1354  0.1080  0.6942
 7547TIP3    H222606   6.534   5.670   2.694 -0.1987 -0.8645  1.3259
 7548TIP3   OH222607   6.622   3.378   2.892  0.4757 -0.5630  0.1658
 7548TIP3    H122608   6.609   3.376   2.797  0.5930 -2.0992  0.1570
 7548TIP3    H222609   6.713   3.349   2.904  0.5901  0.0065  0.7398
 7549TIP3   OH222610   1.050   5.054   2.155  0.4550  0.0906  0.4215
 7549TIP3    H122611   1.123   5.012   2.199  1.8239  1.1188 -0.7637
 7549TIP3    H222612   1.041   5.139   2.199  0.8571  0.5067 -0.2802
 7550TIP3   OH222613   6.090   2.706   0.738 -0.5259 -0.3310 -0.3611
 7550TIP3    H122614   6.137   2.705   0.654  1.1779  1.4540  0.4885
 7550TIP3    H222615   6.037   2.786   0.734 -1.1200 -0.7037 -0.0666
 7551TIP3   OH222616   5.678   4.262   0.305 -0.2496 -0.2073 -0.3817
 7551TIP3    H122617   5.597   4.213   0.291 -0.1736 -0.5108  0.2057
 7551TIP3    H222618   5.661   4.315   0.383  0.6031 -1.3930  0.6662
 7552TIP3   OH222619   1.070   2.366   3.084 -0.1247 -0.2871  0.0089
 7552TIP3    H122620   1.040   2.387   3.172 -1.8402 -0.2638 -0.5425
 7552TIP3    H222621   1.007   2.301   3.052  0.7188 -0.6271 -1.0538
 7553TIP3   OH222622   7.003   0.225   0.820  0.1992 -0.0169  0.5368
 7553TIP3    H122623   6.930   0.279   0.791  0.9791  0.6724 -0.2052
 7553TIP3    H222624   6.984   0.207   0.912  0.1244  1.9104  0.9485
 7554TIP3   OH222625   7.213   2.728   1.493 -0.6040  0.2843  0.1340
 7554TIP3    H122626   7.125   2.696   1.512 -0.7645  0.9835  0.5989
 7554TIP3    H222627   7.212   2.747   1.399  0.1301 -2.9826 -0.6699
 7555TIP3   OH222628   3.110   2.701   5.879  0.0186  0.2991  0.2633
 7555TIP3    H122629   3.135   2.609   5.873 -1.1095 -0.0196  0.2424
 7555TIP3    H222630   3.172   2.747   5.822  0.4133 -0.4757  0.0626
 7556TIP3   OH222631   6.467   6.163   4.811 -0.4976 -0.0521  0.1360
 7556TIP3    H122632   6.537   6.098   4.798 -0.8278 -0.4965  0.5424
 7556TIP3    H222633   6.484   6.200   4.897 -0.2389  0.5051 -0.1446
 7557TIP3   OH222634   2.628   1.809   2.622  0.1238 -0.2020 -0.3240
 7557TIP3    H122635   2.607   1.780   2.534 -0.7335 -0.2817 -0.1027
 7557TIP3    H222636   2.554   1.863   2.648  0.3395 -0.2252  0.3681
 7558TIP3   OH222637   4.475   4.556   5.147 -0.0025 -0.3895  0.0327
 7558TIP3    H122638   4.414   4.625   5.174  1.7610  1.4149 -0.3262
 7558TIP3    H222639   4.530   4.541   5.225 -0.6177 -1.6997  0.2301
 7559TIP3   OH222640   2.283   0.450   2.175  0.3044  0.2206  0.1268
 7559TIP3    H122641   2.257   0.539   2.149  1.0379 -0.1992 -2.2580
 7559TIP3    H222642   2.370   0.462   2.214  2.3097  0.2516 -3.8766
 7560TIP3   OH222643   5.022   5.595   0.906  0.3082  0.9501  0.7345
 7560TIP3    H122644   4.942   5.648   0.900  0.1327  0.6445  0.3375
 7560TIP3    H222645   4.997   5.510   0.870  0.9848  1.0425  0.0240
 7561TIP3   OH222646   3.133   5.224   2.394  0.2524 -0.0793  0.5980
 7561TIP3    H122647   3.148   5.318   2.386  1.2175 -0.0860  2.0073
 7561TIP3    H222648   3.117   5.194   2.305  0.1189  1.3843  0.1130
 7562TIP3   OH222649   1.555   0.346   1.642 -0.0477  0.1264 -0.0827
 7562TIP3    H122650   1.497   0.360   1.717  0.4309 -0.2255  0.3538
 7562TIP3    H222651   1.536   0.419   1.583 -0.7297  0.1711  0.1866
 7563TIP3   OH222652   2.817   0.827   1.355 -0.7102 -0.6109 -0.2283
 7563TIP3    H122653   2.753   0.843   1.285 -0.5533  2.2676  0.1613
 7563TIP3    H222654   2.897   0.870   1.324  0.2738 -1.8465  0.4878
 7564TIP3   OH222655   0.912   3.825   3.904  0.3201  0.7536 -0.0922
 7564TIP3    H122656   0.973   3.857   3.837  0.7071  0.4444  0.1102
 7564TIP3    H222657   0.872   3.905   3.939  0.0646  0.9159 -0.7308
 7565TIP3   OH222658   0.669   2.959   2.880  0.1692 -0.0931 -0.1491
 7565TIP3    H122659   0.749   2.911   2.858  0.9511  0.1750  1.9257
 7565TIP3    H222660   0.599   2.900   2.853  1.0664 -1.0776 -0.4491
 7566TIP3   OH222661   3.613   6.216   0.815 -0.2685 -1.1188 -0.1858
 7566TIP3    H122662   3.679   6.250   0.874 -1.8812  1.5232  0.2533
 7566TIP3    H222663   3.559   6.159   0.870 -1.4597  0.9272  0.8594
 7567TIP3   OH222664   6.558   5.754   3.308 -0.2334  0.3623  0.3692
 7567TIP3    H122665   6.583   5.683   3.367  1.9094 -0.3192 -1.2201
 7567TIP3    H222666   6.517   5.819   3.365  0.8161 -0.6715  2.4268
 7568TIP3   OH222667   6.711   4.883   3.407 -0.5743 -0.0844 -0.3889
 7568TIP3    H122668   6.621   4.854   3.398 -1.3926  2.3540 -0.9059
 7568TIP3    H222669   6.715   4.965   3.358  2.2659 -0.7094 -1.4179
 7569TIP3   OH222670   5.748   6.456   4.688  0.4737  0.1867 -0.3576
 7569TIP3    H122671   5.679   6.482   4.626  0.8634  0.6830 -0.5967
 7569TIP3    H222672   5.723   6.498   4.770  1.4781  1.9859 -0.9213
 7570TIP3   OH222673   4.750   5.240   3.919  0.1364  0.7356 -0.2471
 7570TIP3    H122674   4.793   5.257   4.003 -1.9477 -0.0389  1.0607
 7570TIP3    H222675   4.681   5.306   3.913 -1.6874 -1.0166  0.1736
 7571TIP3   OH222676   2.099   2.980   1.120  0.1914 -0.1473 -0.2751
 7571TIP3    H122677   2.082   3.073   1.134 -0.5100 -0.0818 -1.3985
 7571TIP3    H222678   2.088   2.940   1.206  0.0288  0.7473  0.1285
 7572TIP3   OH222679   3.012   1.129   1.700 -0.0341 -0.0370  0.4295
 7572TIP3    H122680   2.959   1.077   1.759  0.9031 -0.2030  1.1570
 7572TIP3    H222681   3.035   1.069   1.629 -3.1024  0.7834 -1.4274
 7573TIP3   OH222682   3.797   5.041   0.527  0.5646  0.4796  0.3246
 7573TIP3    H122683   3.779   4.994   0.445  0.8977  0.2671  0.3749
 7573TIP3    H222684   3.854   5.114   0.502  2.1930 -0.6410  0.6358
 7574TIP3   OH222685   1.638   5.947   2.118 -0.1345 -0.1408  0.0258
 7574TIP3    H122686   1.621   6.014   2.052  3.5015 -0.5336 -1.5380
 7574TIP3    H222687   1.656   5.868   2.067  0.4669 -1.0580  1.6097
 7575TIP3   OH222688   6.419   5.356   1.709  0.4593 -0.9916 -0.7112
 7575TIP3    H122689   6.397   5.352   1.616  1.1320 -0.8183 -0.8803
 7575TIP3    H222690   6.449   5.268   1.730 -2.4028 -1.8953  0.0551
 7576TIP3   OH222691   1.726   3.949   0.870 -0.0998  0.1305  0.0933
 7576TIP3    H122692   1.731   3.854   0.879  0.1830  0.2140  0.8234
 7576TIP3    H222693   1.719   3.982   0.959  1.3329  0.8872 -0.0477
 7577TIP3   OH222694   4.030   0.972   0.727  0.0671  0.3452  0.5667
 7577TIP3    H122695   4.118   0.968   0.764 -0.1186  0.4108  1.0289
 7577TIP3    H222696   4.037   0.926   0.643  0.4658  0.0649  0.7466
 7578TIP3   OH222697   6.204   6.672   1.228  0.4415  0.4133  0.4519
 7578TIP3    H122698   6.122   6.632   1.201  0.0987  0.0223  1.9864
 7578TIP3    H222699   6.200   6.761   1.193 -1.2880  0.8574  1.6612
 7579TIP3   OH222700   1.527   6.050   5.844 -0.1226  0.3806 -0.1137
 7579TIP3    H122701   1.567   6.058   5.931 -0.5031  0.3705  0.0645
 7579TIP3    H222702   1.588   6.095   5.785 -1.0031  2.5175  0.5110
 7580TIP3   OH222703   7.032   5.391   2.748  0.8866 -0.2696  0.1491
 7580TIP3    H122704   6.974   5.374   2.674  1.7697 -0.8357 -0.4208
 7580TIP3    H222705   7.120   5.384   2.713  1.3282  1.0889  0.8915
 7581TIP3   OH222706   0.431   6.269   0.597  0.4042  0.4188 -0.3676
 7581TIP3    H122707   0.342   6.304   0.609  0.1525 -0.4241  0.3384
 7581TIP3    H222708   0.485   6.321   0.656  0.2602  0.4906 -0.2973
 7582TIP3   OH222709   2.787   6.059   5.516 -0.8142 -0.4035  0.4018
 7582TIP3    H122710   2.711   6.048   5.458 -0.4218  0.8813 -0.4033
 7582TIP3    H222711   2.863   6.042   5.460 -0.4586  0.0058  0.7489
 7583TIP3   OH222712   4.636   4.848   5.145  0.6416  0.0417 -0.4335
 7583TIP3    H122713   4.582   4.801   5.083  0.3347 -0.3188  0.0988
 7583TIP3    H222714   4.725   4.837   5.113  0.4159  0.6411 -1.3169
 7584TIP3   OH222715   4.201   3.435   2.498  0.1841 -0.4468  0.2423
 7584TIP3    H122716   4.223   3.528   2.505 -0.7135 -0.3395  2.3770
 7584TIP3    H222717   4.280   3.390   2.528  0.6730 -0.4023 -0.9382
 7585TIP3   OH222718   3.721   6.753   2.218  0.2159  0.0628  0.6577
 7585TIP3    H122719   3.729   6.703   2.299 -0.4776 -0.1904  0.5746
 7585TIP3    H222720   3.698   6.841   2.246 -1.2631 -0.3105  0.7048
 7586TIP3   OH222721   0.538   6.767   5.688  0.0958  0.4697  0.2830
 7586TIP3    H122722   0.493   6.764   5.773  1.3640  0.0847  0.9635
 7586TIP3    H222723   0.607   6.831   5.700  0.2394  0.4625 -0.4930
 7587TIP3   OH222724   4.203   2.394   1.388 -0.1351 -0.2481  0.0823
 7587TIP3    H122725   4.253   2.350   1.457  0.0238  0.9238  0.7399
 7587TIP3    H222726   4.112   2.390   1.417 -0.0015  0.7614  0.6631
 7588TIP3   OH222727   0.741   2.123   0.229  0.1733 -0.0889  1.1940
 7588TIP3    H122728   0.808   2.117   0.297  2.6474 -0.2705 -1.0672
 7588TIP3    H222729   0.735   2.034   0.193 -1.5712 -0.1466  1.5548
 7589TIP3   OH222730   6.917   0.051   3.209 -0.0631 -0.6066 -0.0893
 7589TIP3    H122731   6.949   0.046   3.299 -0.0172 -1.1446 -0.1307
 7589TIP3    H222732   6.881  -0.036   3.191 -0.5253 -0.3535 -0.4260
 7590TIP3   OH222733   1.101   4.304   4.439  0.3556 -0.2170 -0.1531
 7590TIP3    H122734   1.157   4.236   4.479  0.9302  0.8956  1.0255
 7590TIP3    H222735   1.025   4.256   4.406  1.0627 -1.5222  0.0256
 7591TIP3   OH222736   1.078   1.741   2.398  0.3112  0.0715 -0.1944
 7591TIP3    H122737   1.077   1.671   2.463  2.5249  0.9111  0.8491
 7591TIP3    H222738   0.986   1.766   2.388 -0.4062 -2.2122  0.2045
 7592TIP3   OH222739   5.469   0.572   3.437  0.5792 -0.0754 -0.3369
 7592TIP3    H122740   5.418   0.505   3.483  1.6048 -0.8350 -0.2742
 7592TIP3    H222741   5.406   0.641   3.418  0.0097  0.0561  1.7702
 7593TIP3   OH222742   5.988   2.404   2.523  0.1319  0.7958 -0.6272
 7593TIP3    H122743   5.911   2.400   2.580  0.1948 -3.0826 -0.5799
 7593TIP3    H222744   6.062   2.410   2.583  0.0234  0.5795 -0.4699
 7594TIP3   OH222745   0.603   6.163   4.161  0.6772 -0.7443  0.3455
 7594TIP3    H122746   0.579   6.168   4.254  0.3300 -0.8244  0.2618
 7594TIP3    H222747   0.591   6.252   4.129  2.1801 -0.3783  0.7024
 7595TIP3   OH222748   0.915   3.606   0.973  0.0570  0.4569  0.1722
 7595TIP3    H122749   0.830   3.583   0.936 -0.5055  1.5871  0.7370
 7595TIP3    H222750   0.970   3.626   0.897  0.6901 -2.8731 -0.4163
 7596TIP3   OH222751   0.396   0.794   0.303  0.3754  0.2289 -0.0141
 7596TIP3    H122752   0.479   0.835   0.280  1.2713 -1.0703  0.7304
 7596TIP3    H222753   0.420   0.721   0.361 -1.2346 -0.4935 -0.1766
 7597TIP3   OH222754   0.640   6.094   2.045  0.0254 -0.0834  0.4140
 7597TIP3    H122755   0.565   6.153   2.033 -0.0859 -0.4647 -1.0139
 7597TIP3    H222756   0.603   6.017   2.088 -0.2129  0.1225  0.5771
 7598TIP3   OH222757   1.060   5.363   0.287 -0.4617 -0.1777  0.2862
 7598TIP3    H122758   1.054   5.360   0.383  0.0572  1.0634  0.3824
 7598TIP3    H222759   1.087   5.453   0.268  4.1612 -1.4972 -0.7306
 7599TIP3   OH222760   5.728   5.724   1.917  0.0895 -0.5730 -0.2630
 7599TIP3    H122761   5.791   5.782   1.875  0.1744  1.4671  2.3948
 7599TIP3    H222762   5.647   5.736   1.866  0.8954 -0.4409 -1.5404
 7600TIP3   OH222763   6.712   5.010   4.013  0.2141  0.2602  0.0492
 7600TIP3    H122764   6.732   5.031   4.104 -0.3051  2.0886 -0.2099
 7600TIP3    H222765   6.797   5.001   3.971  0.4624  0.3540  0.5211
 7601TIP3   OH222766   1.569   0.040   5.198 -0.4796  0.3174  0.4682
 7601TIP3    H122767   1.539   0.118   5.245 -0.2101 -0.3628  1.8055
 7601TIP3    H222768   1.662   0.057   5.180 -0.5697  0.5551  0.2261
 7602TIP3   OH222769   1.686   3.407   0.236 -0.2356  0.3615  0.2464
 7602TIP3    H122770   1.597   3.441   0.237 -0.5334 -0.4164  0.7770
 7602TIP3    H222771   1.676   3.312   0.232  0.5435  0.2027  1.4536
 7603TIP3   OH222772   1.291   6.317   5.567 -0.5602 -0.2789 -0.1562
 7603TIP3    H122773   1.217   6.337   5.509  0.6147  0.5796 -1.3996
 7603TIP3    H222774   1.366   6.308   5.508 -0.0218 -3.4616  0.7935
 7604TIP3   OH222775   6.633   4.648   3.579  0.2396  0.5684  0.3410
 7604TIP3    H122776   6.611   4.595   3.656 -0.2893 -0.8975 -0.7609
 7604TIP3    H222777   6.646   4.736   3.613  0.1138 -0.0583  2.1158
 7605TIP3   OH222778   5.776   5.814   4.439  0.3698 -0.0353 -0.0749
 7605TIP3    H122779   5.736   5.843   4.357  1.5428 -0.4998 -0.8366
 7605TIP3    H222780   5.769   5.889   4.498 -0.1909  0.4121 -0.7095
 7606TIP3   OH222781   1.112   4.689   0.720  0.6125  0.0676  0.1884
 7606TIP3    H122782   1.199   4.648   0.719  0.8756  0.6068 -0.6245
 7606TIP3    H222783   1.096   4.710   0.812  1.8304  0.9599  0.2143
 7607TIP3   OH222784   4.694   3.259   2.768  0.3691  0.4589 -0.0735
 7607TIP3    H122785   4.632   3.194   2.801 -0.1718 -0.4162 -2.5851
 7607TIP3    H222786   4.759   3.207   2.719  1.1101  1.6644 -0.4011
 7608TIP3   OH222787   5.657   1.439   2.226 -0.3822  0.6249  0.2420
 7608TIP3    H122788   5.703   1.509   2.273  0.5576  0.5071 -0.4699
 7608TIP3    H222789   5.620   1.383   2.295 -0.4443  1.3647  0.8162
 7609TIP3   OH222790   6.020   6.216   2.872  0.1539 -0.3032  0.1369
 7609TIP3    H122791   6.074   6.291   2.894 -1.4951  0.7731  0.7153
 7609TIP3    H222792   5.938   6.254   2.840 -1.4871 -1.7797  2.2825
 7610TIP3   OH222793   1.736   0.878   4.462 -0.2854 -0.7722 -0.2132
 7610TIP3    H122794   1.794   0.833   4.523  0.3397  0.9557  0.5331
 7610TIP3    H222795   1.649   0.841   4.479  0.2059 -1.7360  0.2920
 7611TIP3   OH222796   0.067   2.543   0.619 -0.1648 -0.1874 -0.1690
 7611TIP3    H122797   0.027   2.465   0.580 -0.1775  0.6781 -1.9832
 7611TIP3    H222798  -0.003   2.608   0.621  0.6207  0.7875 -1.7821
 7612TIP3   OH222799   7.169   6.111   2.807 -0.3352 -0.4076  1.1541
 7612TIP3    H122800   7.144   6.063   2.728  1.3002 -2.0213  1.5534
 7612TIP3    H222801   7.086   6.127   2.853 -1.4039  1.1609 -1.1431
 7613TIP3   OH222802   2.928   4.478   5.363  0.0176  0.2819 -0.0500
 7613TIP3    H122803   2.965   4.392   5.382  0.0293  0.6629  1.8608
 7613TIP3    H222804   2.878   4.501   5.441  1.5168  2.7918  0.2907
 7614TIP3   OH222805   5.131   6.348   0.816  0.1836 -0.2369  0.0268
 7614TIP3    H122806   5.053   6.401   0.802 -0.3390 -0.9467  0.1638
 7614TIP3    H222807   5.202   6.411   0.823 -0.0759  0.3636 -1.9719
 7615TIP3   OH222808   0.547   1.008   5.497 -0.5764  0.1334  0.0130
 7615TIP3    H122809   0.594   1.065   5.436 -0.5809  0.2048  0.0760
 7615TIP3    H222810   0.615   0.967   5.549 -0.3656 -2.0135 -1.8200
 7616TIP3   OH222811   2.904   6.094   4.727 -0.0825 -0.4628  0.4627
 7616TIP3    H122812   2.896   6.115   4.820  2.8511 -0.6233  0.8463
 7616TIP3    H222813   2.892   5.999   4.723 -0.3896 -0.4336  0.6372
 7617TIP3   OH222814   6.524   2.465   2.627  0.5120 -0.2300 -0.4400
 7617TIP3    H122815   6.615   2.496   2.625  0.4063  0.0647 -0.8824
 7617TIP3    H222816   6.472   2.545   2.633  0.2593 -0.3596 -0.8980
 7618TIP3   OH222817   6.275   3.921   1.162 -0.0746 -0.1581  0.3466
 7618TIP3    H122818   6.315   3.973   1.093  1.1484 -2.2061 -0.6080
 7618TIP3    H222819   6.275   3.977   1.239 -0.8166  1.9402 -1.1006
 7619TIP3   OH222820   4.112   0.427   2.875  0.5047 -0.4006 -0.5582
 7619TIP3    H122821   4.023   0.419   2.909  0.8531  0.4074  0.6284
 7619TIP3    H222822   4.134   0.519   2.889  1.3206 -0.4613 -1.3813
 7620TIP3   OH222823   6.000   1.981   1.326 -0.0890  0.2230  0.4231
 7620TIP3    H122824   6.085   2.005   1.362  0.3672  0.2005 -0.6060
 7620TIP3    H222825   6.020   1.939   1.242 -1.1139  0.1914  0.1780
 7621TIP3   OH222826   3.686   3.528   2.193  0.2848  0.3426 -0.5203
 7621TIP3    H122827   3.712   3.501   2.105 -2.2427  0.3850 -1.3611
 7621TIP3    H222828   3.681   3.623   2.189 -1.3194  0.2740 -0.8450
 7622TIP3   OH222829   5.176   0.975   2.086 -0.0134 -0.8403 -0.2461
 7622TIP3    H122830   5.170   1.042   2.018 -1.1492 -0.7514 -0.0768
 7622TIP3    H222831   5.214   1.020   2.162  1.5802 -1.0212 -0.8900
 7623TIP3   OH222832   0.831   1.410   0.407 -0.6482 -0.4003 -0.0464
 7623TIP3    H122833   0.883   1.486   0.431 -0.6057 -0.1467 -0.9075
 7623TIP3    H222834   0.890   1.336   0.418 -0.6733 -0.3105  0.7450
 7624TIP3   OH222835   0.281   0.594   4.769 -0.0798 -0.0650 -0.3026
 7624TIP3    H122836   0.267   0.549   4.686 -1.0057 -0.4405  0.0403
 7624TIP3    H222837   0.349   0.659   4.750 -0.8505  0.4272 -1.5766
 7625TIP3   OH222838   6.686   5.415   1.948  0.0660 -0.6027 -0.1624
 7625TIP3    H122839   6.687   5.320   1.944 -0.2125 -0.6250  0.1434
 7625TIP3    H222840   6.593   5.438   1.953  0.1251 -0.3098 -0.3722
 7626TIP3   OH222841   4.461   4.133   4.470  0.5427  0.0130  0.3643
 7626TIP3    H122842   4.526   4.161   4.406 -0.2940  1.8374  0.2442
 7626TIP3    H222843   4.457   4.204   4.534  0.3461 -1.1380  1.6730
 7627TIP3   OH222844   6.339   2.106   0.345  0.2096  0.0671 -0.7137
 7627TIP3    H122845   6.379   2.069   0.266  0.4876  0.3691 -0.7202
 7627TIP3    H222846   6.247   2.117   0.324  0.0398 -1.0191 -0.5629
 7628TIP3   OH222847   3.192   0.560   0.180 -0.8603  0.0647 -0.0248
 7628TIP3    H122848   3.135   0.530   0.251 -0.5002  0.8439  0.6014
 7628TIP3    H222849   3.256   0.490   0.169 -0.7448  0.0635  0.6157
 7629TIP3   OH222850   4.418   1.945   3.311  0.1923  0.1359 -0.3140
 7629TIP3    H122851   4.380   1.999   3.379  1.3698  0.3093  0.2328
 7629TIP3    H222852   4.360   1.869   3.305  0.4434 -0.2298  1.3832
 7630TIP3   OH222853   5.498   2.625   0.191  0.1080  0.6801  0.4110
 7630TIP3    H122854   5.557   2.573   0.245  0.9108  0.8867 -0.2356
 7630TIP3    H222855   5.533   2.714   0.196 -0.2427  0.8360  0.1580
 7631TIP3   OH222856   2.711   1.774   2.113 -0.3346  0.0773  0.0106
 7631TIP3    H122857   2.728   1.705   2.048 -0.2892  0.4808 -0.4135
 7631TIP3    H222858   2.753   1.852   2.076 -2.0103  0.8122 -0.4596
 7632TIP3   OH222859   1.196   1.395   1.398  0.0775 -0.6859 -0.0182
 7632TIP3    H122860   1.266   1.450   1.365 -1.8956  2.6437  0.8951
 7632TIP3    H222861   1.173   1.338   1.324  2.3430 -0.5051 -0.9328
 7633TIP3   OH222862   0.085   3.782   4.933  0.0773 -0.0741 -0.5617
 7633TIP3    H122863   0.104   3.866   4.889 -3.8549  2.2796  1.6371
 7633TIP3    H222864   0.023   3.739   4.875 -0.6280  0.2742 -0.0812
 7634TIP3   OH222865   0.328   3.323   2.754 -0.1238  0.1473  0.0536
 7634TIP3    H122866   0.316   3.256   2.821 -0.6300 -1.4595 -1.5540
 7634TIP3    H222867   0.261   3.389   2.772 -0.9532 -0.7985  0.5167
 7635TIP3   OH222868   6.898   3.328   3.003  0.0201 -0.0830 -0.2806
 7635TIP3    H122869   6.978   3.276   3.013  0.1980 -0.1909 -1.9988
 7635TIP3    H222870   6.906   3.397   3.068  1.0921 -0.6146  0.1786
 7636TIP3   OH222871   5.569   6.361   3.073 -0.1973 -0.5095 -0.0455
 7636TIP3    H122872   5.508   6.434   3.087 -0.8645 -1.0820  0.0482
 7636TIP3    H222873   5.630   6.367   3.146 -0.0504  0.1457 -0.2104
 7637TIP3   OH222874   4.984   2.499   3.869 -0.2510  0.4003  0.3147
 7637TIP3    H122875   5.061   2.553   3.850 -0.2891  0.0420 -1.0181
 7637TIP3    H222876   4.911   2.544   3.826 -0.4780 -0.1024  0.1580
 7638TIP3   OH222877   7.064   0.182   5.093 -0.3494  0.0310 -0.6075
 7638TIP3    H122878   7.114   0.188   5.011 -0.4894 -0.1878 -0.7104
 7638TIP3    H222879   7.086   0.262   5.140 -0.2405  0.1432 -0.8445
 7639TIP3   OH222880   1.529   0.842   4.224  0.0926  0.2182 -0.1036
 7639TIP3    H122881   1.551   0.889   4.144  3.2029 -0.0279  0.4757
 7639TIP3    H222882   1.495   0.909   4.283 -1.7708  0.4862 -1.3891
 7640TIP3   OH222883   4.407   3.731   1.447  0.7664  0.3768  0.0345
 7640TIP3    H122884   4.350   3.676   1.393 -0.6754  0.7636  1.1198
 7640TIP3    H222885   4.398   3.819   1.410  2.3370  0.1059 -1.1031
 7641TIP3   OH222886   1.968   0.590   5.789  0.1157 -0.3856 -0.6974
 7641TIP3    H122887   2.013   0.642   5.855  0.5622 -1.4333 -0.1509
 7641TIP3    H222888   1.998   0.625   5.705 -0.5306  1.0202 -0.3608
 7642TIP3   OH222889   4.475   5.583   3.657 -0.0136 -0.2806 -0.0077
 7642TIP3    H122890   4.492   5.656   3.597 -1.1390  0.6541  0.7633
 7642TIP3    H222891   4.535   5.597   3.730 -0.5734  0.1729  0.3734
 7643TIP3   OH222892   5.211   2.926   4.397  0.1869  0.3169 -0.1359
 7643TIP3    H122893   5.186   2.833   4.399  0.0175  0.3580 -0.2757
 7643TIP3    H222894   5.270   2.937   4.472 -0.9749  0.4361  0.7804
 7644TIP3   OH222895   4.279   3.590   1.879  0.1064  0.0206 -0.0550
 7644TIP3    H122896   4.195   3.553   1.907  0.4763 -0.1272  0.8546
 7644TIP3    H222897   4.315   3.632   1.957  1.3200 -0.7101 -0.1966
 7645TIP3   OH222898   6.008   4.447   5.788  0.3547 -0.1165 -0.8050
 7645TIP3    H122899   5.916   4.423   5.792  0.4153 -0.1698  1.5366
 7645TIP3    H222900   6.010   4.540   5.810  0.8986 -0.3014 -0.0205
 7646TIP3   OH222901   3.641   3.937   5.215  0.1925 -0.3996  0.1284
 7646TIP3    H122902   3.640   3.991   5.136 -1.1094  0.6711  0.8303
 7646TIP3    H222903   3.618   3.849   5.184  1.5463 -0.4040 -0.9196
 7647TIP3   OH222904   5.990   6.006   2.025  0.1351  0.8022  0.3572
 7647TIP3    H122905   6.076   5.996   2.065  0.6665  0.0995 -0.9200
 7647TIP3    H222906   5.930   5.965   2.087  0.4164  2.9565  2.1839
 7648TIP3   OH222907   7.158   3.560   5.356 -0.6123 -0.2068 -1.1153
 7648TIP3    H122908   7.083   3.539   5.301 -0.3994 -0.8259 -1.1777
 7648TIP3    H222909   7.130   3.538   5.445 -0.3682 -0.8148 -1.1876
 7649TIP3   OH222910   3.974   5.249   0.404 -0.4268 -0.0164  0.6809
 7649TIP3    H122911   4.043   5.278   0.463  0.2669 -1.8882  0.8475
 7649TIP3    H222912   4.021   5.214   0.328 -1.1243 -2.0332  1.1330
 7650TIP3   OH222913   2.148   2.785   4.474 -0.0229  0.2670 -0.2742
 7650TIP3    H122914   2.077   2.722   4.491 -0.1162  0.0733 -1.2686
 7650TIP3    H222915   2.123   2.864   4.522 -0.4691 -0.0974  0.0956
 7651TIP3   OH222916   5.856   1.062   1.823 -0.6071  0.2561 -0.7533
 7651TIP3    H122917   5.886   1.088   1.910 -0.2157 -1.3033 -0.3970
 7651TIP3    H222918   5.806   1.138   1.792 -0.3748  1.0174  0.6318
 7652TIP3   OH222919   1.436   4.441   4.095  0.1514 -0.0068 -0.2282
 7652TIP3    H122920   1.395   4.355   4.101 -0.3319  0.2716  0.6701
 7652TIP3    H222921   1.423   4.480   4.182  1.9057  0.2727 -0.0367
 7653TIP3   OH222922   5.818   3.543   2.196  1.7817  0.1962 -0.1674
 7653TIP3    H122923   5.848   3.504   2.278  0.6291  0.3151  0.3272
 7653TIP3    H222924   5.780   3.627   2.221 -2.0816 -1.3304 -0.1803
 7654TIP3   OH222925   0.146   5.303   0.484 -0.2446  0.1151 -0.7398
 7654TIP3    H122926   0.216   5.269   0.429 -0.4869 -0.5369 -0.6461
 7654TIP3    H222927   0.069   5.252   0.460 -0.0610 -1.1654  1.1930
 7655TIP3   OH222928   1.942   4.134   3.996  0.4748  0.4921 -0.3262
 7655TIP3    H122929   1.997   4.063   4.028 -1.1386 -2.1616 -2.8744
 7655TIP3    H222930   1.949   4.128   3.901  0.1311  3.7489 -0.6661
 7656TIP3   OH222931   6.272   0.194   0.946 -0.1503  0.5320 -0.0744
 7656TIP3    H122932   6.270   0.283   0.913  0.0271  1.3102  1.8647
 7656TIP3    H222933   6.314   0.201   1.032 -0.5415 -1.3505  0.3260
 7657TIP3   OH222934   5.201   6.045   3.017 -0.5210  0.1638 -0.1923
 7657TIP3    H122935   5.234   5.960   3.046 -1.7871 -0.5477 -0.7296
 7657TIP3    H222936   5.125   6.061   3.073 -0.4859  0.7775 -0.3187
 7658TIP3   OH222937   5.669   4.965   1.775  0.1353 -0.2149  0.2838
 7658TIP3    H122938   5.626   4.923   1.850  0.1351  0.5580  0.7274
 7658TIP3    H222939   5.657   5.059   1.790 -2.9859 -0.0158 -2.4881
 7659TIP3   OH222940   4.446   3.338   0.621  0.4799  0.0773 -0.8032
 7659TIP3    H122941   4.434   3.399   0.548  1.2191 -0.1127 -1.0893
 7659TIP3    H222942   4.444   3.251   0.580  2.2055  0.0014 -0.8175
 7660TIP3   OH222943   5.978   2.912   4.221 -0.9075  0.3537  0.0636
 7660TIP3    H122944   5.958   2.986   4.278  0.7599 -1.2865  3.0286
 7660TIP3    H222945   5.947   2.836   4.269 -0.1091 -1.1146 -1.6236
 7661TIP3   OH222946   2.395   2.120   0.526  0.5844  0.1167  0.5586
 7661TIP3    H122947   2.318   2.068   0.547  0.7312 -0.4083 -0.1646
 7661TIP3    H222948   2.362   2.193   0.473  0.7748 -1.0577 -1.2540
 7662TIP3   OH222949   3.922   4.899   2.624  0.5951  0.0903  0.0696
 7662TIP3    H122950   3.914   4.804   2.630 -0.3270  0.1698  0.1727
 7662TIP3    H222951   4.011   4.913   2.592  0.5576 -0.8236 -0.4718
 7663TIP3   OH222952   1.808   4.358   0.543 -0.0107 -0.2189  0.2108
 7663TIP3    H122953   1.867   4.283   0.534  2.0907  1.4664 -0.8472
 7663TIP3    H222954   1.746   4.331   0.610 -0.4842 -3.5851 -1.3704
 7664TIP3   OH222955   5.936   5.862   1.408 -0.3620  0.1130 -0.0657
 7664TIP3    H122956   5.868   5.930   1.403  1.0343  1.6524  0.8344
 7664TIP3    H222957   5.918   5.805   1.333 -1.7608  1.3225 -0.7071
 7665TIP3   OH222958   0.622   2.031   1.214  0.3388  0.5535 -0.8285
 7665TIP3    H122959   0.565   2.106   1.198 -0.9915 -0.3183 -0.3136
 7665TIP3    H222960   0.618   1.979   1.134  0.2688  0.4088 -0.7330
 7666TIP3   OH222961   0.501   5.913   4.088 -0.1142  0.2964  0.3615
 7666TIP3    H122962   0.438   5.948   4.024  0.0122  1.2588  0.7574
 7666TIP3    H222963   0.558   5.986   4.109 -0.1228 -0.0128  1.5518
 7667TIP3   OH222964   5.839   1.054   0.149 -0.0959 -0.1654 -0.2049
 7667TIP3    H122965   5.862   1.145   0.131  1.1151 -0.1264  1.3414
 7667TIP3    H222966   5.837   1.013   0.063  1.3902  0.8784 -0.7761
 7668TIP3   OH222967   0.112   6.261   2.518 -0.1824  0.6570  0.3727
 7668TIP3    H122968   0.032   6.297   2.557 -0.1730 -0.3569  1.3589
 7668TIP3    H222969   0.100   6.274   2.424 -1.0909  1.3598  0.5675
 7669TIP3   OH222970   5.438   6.679   4.897  0.1848 -0.2774  0.3682
 7669TIP3    H122971   5.517   6.645   4.940  0.9194 -1.1935 -1.5471
 7669TIP3    H222972   5.388   6.600   4.874  0.9817 -0.0609 -2.4603
 7670TIP3   OH222973   1.735   0.737   5.758 -0.1240 -0.3646  0.2671
 7670TIP3    H122974   1.679   0.715   5.833 -0.5535  0.5652  0.2334
 7670TIP3    H222975   1.813   0.682   5.769  0.2866  0.4856  1.9624
 7671TIP3   OH222976   4.282  -0.005   0.586 -0.1011  0.2983 -0.1083
 7671TIP3    H122977   4.364  -0.008   0.636 -0.1115 -0.7707 -0.1378
 7671TIP3    H222978   4.215   0.018   0.651  0.0787  0.1903  0.1162
 7672TIP3   OH222979   1.005   6.048   1.175 -0.2812 -0.6260 -0.2589
 7672TIP3    H122980   1.079   6.000   1.138 -0.3306 -0.1852 -0.9589
 7672TIP3    H222981   1.021   6.050   1.269  1.8286  1.4636 -0.5567
 7673TIP3   OH222982   4.211   5.901   3.506  0.4896 -0.4986  0.2025
 7673TIP3    H122983   4.253   5.938   3.429 -2.9316  0.8128 -1.1947
 7673TIP3    H222984   4.219   5.969   3.573  0.2533 -0.1097 -0.1659
 7674TIP3   OH222985   6.841   4.537   1.709  0.2318 -0.8381 -0.8509
 7674TIP3    H122986   6.790   4.597   1.655  0.2917  0.0616  0.0593
 7674TIP3    H222987   6.793   4.454   1.705 -1.1016 -0.1169 -0.3288
 7675TIP3   OH222988   6.466   0.991   2.372  0.5193  0.3012  0.6931
 7675TIP3    H122989   6.525   0.915   2.369 -0.6681 -0.6380 -0.8551
 7675TIP3    H222990   6.517   1.063   2.334  0.7060 -0.5144 -0.7040
 7676TIP3   OH222991   6.502   0.249   0.599  0.2194 -0.0450  0.0807
 7676TIP3    H122992   6.532   0.284   0.683 -0.0713 -0.7673  0.4979
 7676TIP3    H222993   6.408   0.269   0.597  0.0437 -0.8336  0.3428
 7677TIP3   OH222994   0.710   1.871   2.647 -0.3397  0.1502 -0.1990
 7677TIP3    H122995   0.751   1.957   2.637  1.4579 -0.7353 -0.9531
 7677TIP3    H222996   0.699   1.839   2.557 -0.4030 -0.6699  0.0918
 7678TIP3   OH222997   2.212   0.885   0.059 -0.1132 -0.2337 -0.3624
 7678TIP3    H122998   2.188   0.898  -0.033  0.6324  0.2986 -0.4886
 7678TIP3    H222999   2.301   0.852   0.056  0.3313  0.8630  0.1989
 7679TIP3   OH223000   5.878   1.010   1.365  0.1683 -0.6049  0.4377
 7679TIP3    H123001   5.846   0.936   1.314  1.4102 -0.2977 -0.8700
 7679TIP3    H223002   5.920   0.971   1.442 -0.7551 -1.1432  0.6766
 7680TIP3   OH223003   2.245   6.133   0.007 -0.1489 -0.3589  0.3237
 7680TIP3    H123004   2.221   6.073  -0.064 -2.1346  0.4149  0.2663
 7680TIP3    H223005   2.170   6.131   0.066 -0.3904  2.1723  0.2200
 7681TIP3   OH223006   3.506   2.024   5.290  0.6901 -0.1208  0.1992
 7681TIP3    H123007   3.571   2.044   5.358 -0.3726  0.9808  0.9545
 7681TIP3    H223008   3.429   1.996   5.339 -0.2333  1.0776 -0.5017
 7682TIP3   OH223009   4.940   1.273   2.358  0.4164 -0.0336 -0.0111
 7682TIP3    H123010   4.880   1.205   2.326 -0.3659 -0.1309  1.5984
 7682TIP3    H223011   5.026   1.246   2.324 -0.0277 -1.3369 -0.1603
 7683TIP3   OH223012   1.620   2.938   3.478 -0.3793 -0.4040  0.0159
 7683TIP3    H123013   1.656   3.026   3.492 -0.2175 -0.5377  0.4171
 7683TIP3    H223014   1.611   2.932   3.382  0.8255 -0.4449 -0.0986
 7684TIP3   OH223015   6.457   6.425   3.289  0.0706  0.4096  0.3503
 7684TIP3    H123016   6.473   6.441   3.196 -0.7332  0.5496  0.2235
 7684TIP3    H223017   6.365   6.397   3.292  0.2082  0.0337  1.0584
 7685TIP3   OH223018   0.127   5.972   1.739 -0.1884 -0.1843 -0.2850
 7685TIP3    H123019   0.100   5.880   1.746  0.1881 -0.1570  2.5764
 7685TIP3    H223020   0.217   5.973   1.773 -0.7073  1.4283  1.1849
 7686TIP3   OH223021   3.417   1.055   1.496  0.5824  0.3712 -0.0693
 7686TIP3    H123022   3.497   1.107   1.485  0.3127  0.4814 -1.7466
 7686TIP3    H223023   3.355   1.092   1.432 -0.3381 -0.6155  0.2228
 7687TIP3   OH223024   2.787   4.609   3.457 -0.3146  0.2130  0.3580
 7687TIP3    H123025   2.754   4.585   3.371 -0.5787 -0.8569  0.7370
 7687TIP3    H223026   2.791   4.705   3.456  1.1626  0.1764 -1.3707
 7688TIP3   OH223027   6.188   0.107   4.632  0.6695  0.1803  0.1817
 7688TIP3    H123028   6.159   0.193   4.662  0.8785  1.3018 -2.5074
 7688TIP3    H223029   6.279   0.101   4.661 -0.1023 -0.3653  2.6991
 7689TIP3   OH223030   3.821   1.666   3.467  0.1361  0.4720  0.2932
 7689TIP3    H123031   3.743   1.713   3.437  1.1564  1.7713 -0.3780
 7689TIP3    H223032   3.788   1.610   3.538 -0.8797  3.5396  2.4795
 7690TIP3   OH223033   1.963   2.810   3.550 -0.6397  0.1364 -0.0043
 7690TIP3    H123034   2.005   2.733   3.587  0.1787  0.4298 -0.2941
 7690TIP3    H223035   2.009   2.884   3.590 -2.2806  0.5204  1.2840
 7691TIP3   OH223036   2.108   3.268   5.550 -0.6873  0.0005 -0.1757
 7691TIP3    H123037   2.022   3.309   5.560 -0.2251  0.7223  1.2139
 7691TIP3    H223038   2.164   3.338   5.514 -0.3601 -0.0161  0.2887
 7692TIP3   OH223039   6.941   4.431   2.235 -0.3780 -0.6016 -0.3011
 7692TIP3    H123040   6.852   4.425   2.201 -0.4860 -3.5990  0.1895
 7692TIP3    H223041   6.932   4.415   2.329  0.7010 -2.3428 -0.4376
 7693TIP3   OH223042   1.056   1.319   4.175  0.2997 -0.1633 -0.0886
 7693TIP3    H123043   1.148   1.316   4.201  0.0360  0.9219  1.0372
 7693TIP3    H223044   1.056   1.367   4.092  0.8496 -1.1692 -0.6914
 7694TIP3   OH223045   1.593   2.871   2.066  0.3902  0.3008  0.0553
 7694TIP3    H123046   1.562   2.891   2.154  0.5696 -1.1801  0.4778
 7694TIP3    H223047   1.532   2.805   2.033  2.5640 -2.1080  0.6152
 7695TIP3   OH223048   2.422   3.047   1.505  0.0988 -0.4764 -0.4711
 7695TIP3    H123049   2.458   2.959   1.493  0.0966 -0.6229  0.5811
 7695TIP3    H223050   2.356   3.037   1.574  1.5613  0.7350  1.1880
 7696TIP3   OH223051   6.449   1.470   3.530  0.2145  0.3492  0.2228
 7696TIP3    H123052   6.531   1.518   3.541  0.7337 -0.0953 -1.3679
 7696TIP3    H223053   6.396   1.526   3.473  0.3322 -0.3475 -0.6064
 7697TIP3   OH223054   6.815   6.152   4.105 -0.8070  0.4739 -0.3230
 7697TIP3    H123055   6.768   6.188   4.030 -0.6775  0.5946 -0.3450
 7697TIP3    H223056   6.748   6.106   4.156 -0.5674 -1.3776 -1.5775
 7698TIP3   OH223057   1.382   3.457   1.191  0.1180  0.5863  0.1025
 7698TIP3    H123058   1.449   3.510   1.150 -0.0398  1.3561  0.8237
 7698TIP3    H223059   1.423   3.421   1.269  0.2199 -0.3672 -0.3619
 7699TIP3   OH223060   6.637   6.246   2.363 -0.2036 -0.0209  0.4186
 7699TIP3    H123061   6.662   6.301   2.437 -1.1364  1.1946 -0.1482
 7699TIP3    H223062   6.575   6.183   2.400  1.1539 -0.9915  1.1445
 7700TIP3   OH223063   5.835   4.744   3.309  0.3988 -0.3299  0.0910
 7700TIP3    H123064   5.875   4.684   3.246 -0.7566 -0.8407 -0.1833
 7700TIP3    H223065   5.797   4.814   3.255  0.9352  0.1622  0.3467
 7701TIP3   OH223066   5.978   0.597   4.710  0.1526 -0.4568  0.4562
 7701TIP3    H123067   6.011   0.516   4.748  0.3084 -0.8242 -0.4555
 7701TIP3    H223068   6.054   0.637   4.668 -0.5784 -1.6036 -2.1840
 7702TIP3   OH223069   7.061   1.253   3.385 -0.0225  0.2309  0.4161
 7702TIP3    H123070   7.029   1.305   3.458  0.2166 -0.1991  0.8285
 7702TIP3    H223071   7.041   1.307   3.308 -0.1800  0.7328  0.7965
 7703TIP3   OH223072   3.229   1.280   5.047 -0.1593 -0.0039  0.2162
 7703TIP3    H123073   3.304   1.229   5.075 -0.2490  0.4001  1.2254
 7703TIP3    H223074   3.259   1.371   5.049 -0.3250  0.0766 -0.5184
 7704TIP3   OH223075   2.459   3.078   4.243  0.2937  0.2768 -0.0388
 7704TIP3    H123076   2.533   3.050   4.296  1.5149  0.1784 -1.7166
 7704TIP3    H223077   2.387   3.022   4.271  1.3829 -1.0330  0.2260
 7705TIP3   OH223078   2.267   6.817   5.308 -0.4550  0.1611  0.0257
 7705TIP3    H123079   2.196   6.799   5.369 -0.4564  1.5381  0.4654
 7705TIP3    H223080   2.264   6.745   5.245 -0.3585 -1.3735  1.7222
 7706TIP3   OH223081   6.670   0.750   1.889  0.4169  0.4266  0.2999
 7706TIP3    H123082   6.659   0.799   1.807  2.5231 -0.0654 -0.3298
 7706TIP3    H223083   6.613   0.795   1.951 -3.7734 -0.9886 -2.0697
 7707TIP3   OH223084   0.377   6.039   5.261  0.1216 -0.1876  0.2344
 7707TIP3    H123085   0.326   5.989   5.197 -0.4060  2.0281 -1.1813
 7707TIP3    H223086   0.468   6.018   5.240  0.0750  1.7555 -2.5405
 7708TIP3   OH223087   1.821   3.093   4.211  0.0831 -0.4835 -1.1157
 7708TIP3    H123088   1.774   3.171   4.180  0.2275  1.4083  2.7431
 7708TIP3    H223089   1.908   3.100   4.173 -0.4731  0.1315 -2.3389
 7709TIP3   OH223090   5.367   2.479   4.923  0.3614  0.1541 -0.9526
 7709TIP3    H123091   5.318   2.399   4.939 -1.4801  1.5579  0.9782
 7709TIP3    H223092   5.325   2.519   4.847 -0.8933  0.8201  0.0460
 7710TIP3   OH223093   2.694   1.228   4.350  0.1586  0.2915 -0.3051
 7710TIP3    H123094   2.639   1.299   4.385  1.1792  0.3217  1.3206
 7710TIP3    H223095   2.653   1.148   4.382  1.1679  0.3237  1.1234
 7711TIP3   OH223096   1.571   3.676   5.346 -0.1141 -0.1929  0.1290
 7711TIP3    H123097   1.558   3.737   5.419  0.4688  1.7294 -1.2880
 7711TIP3    H223098   1.663   3.687   5.322 -0.4446 -0.2921 -1.2782
 7712TIP3   OH223099   3.695   5.664   1.538  0.5995  0.0754 -0.0669
 7712TIP3    H123100   3.752   5.692   1.465  0.8964 -2.6379 -0.9968
 7712TIP3    H223101   3.751   5.670   1.615  1.2423  0.1195 -0.5277
 7713TIP3   OH223102   2.986   4.655   0.230 -0.6010  0.2582 -0.6360
 7713TIP3    H123103   2.986   4.727   0.167 -1.5660 -1.3156 -2.5868
 7713TIP3    H223104   3.078   4.635   0.243 -0.3116  1.9074  0.0786
 7714TIP3   OH223105   4.168   0.072   0.834 -0.4769  0.1373  0.1994
 7714TIP3    H123106   4.072   0.067   0.835 -0.4239 -1.1925  0.5408
 7714TIP3    H223107   4.194   0.052   0.924  0.1921 -2.1770 -0.4355
 7715TIP3   OH223108   4.344   4.023   5.129  0.2938  0.3896 -0.3846
 7715TIP3    H123109   4.278   3.975   5.078  0.7558 -2.0440  1.1330
 7715TIP3    H223110   4.320   4.115   5.118 -1.4459 -0.2232 -2.4283
 7716TIP3   OH223111   5.089   3.818   2.003  1.0653  0.1787 -0.1915
 7716TIP3    H123112   5.050   3.905   1.991  0.9702  0.1520 -0.0761
 7716TIP3    H223113   5.016   3.757   1.990  1.4872  0.0073 -2.1683
 7717TIP3   OH223114   0.219   3.150   0.232 -0.3761 -0.3664  0.3056
 7717TIP3    H123115   0.303   3.103   0.226 -0.7658 -0.9397 -1.3462
 7717TIP3    H223116   0.243   3.240   0.250  0.5862 -0.6132  0.3241
 7718TIP3   OH223117   5.914   3.711   0.769 -0.1330  0.0883 -0.1042
 7718TIP3    H123118   5.955   3.733   0.686  0.6558  2.0113  0.7478
 7718TIP3    H223119   5.984   3.674   0.822 -0.1513  0.7204  0.3745
 7719TIP3   OH223120   6.452   3.132   1.056 -0.1065 -0.0802 -0.2638
 7719TIP3    H123121   6.435   3.037   1.058  1.4571 -0.3912  0.8075
 7719TIP3    H223122   6.370   3.171   1.026 -1.5042 -1.6299  1.3321
 7720TIP3   OH223123   1.776   1.514   1.699 -0.2704 -0.2959 -0.1454
 7720TIP3    H123124   1.841   1.539   1.633  1.5011  0.5209  1.8037
 7720TIP3    H223125   1.711   1.585   1.697  0.6230  0.5400  0.0672
 7721TIP3   OH223126   3.470   5.217   0.828 -0.2753 -0.2971 -0.6233
 7721TIP3    H123127   3.548   5.272   0.835 -1.7306  2.0518 -1.5979
 7721TIP3    H223128   3.435   5.214   0.917 -0.5926  1.0611 -0.6836
 7722TIP3   OH223129   2.029   6.440   4.812 -0.5353  0.2391 -0.0171
 7722TIP3    H123130   2.074   6.364   4.774 -0.0792  0.5826 -0.1691
 7722TIP3    H223131   1.991   6.407   4.893  0.1148 -0.0238  0.1875
 7723TIP3   OH223132   1.656   4.303   2.526  0.0090 -0.0255 -0.0441
 7723TIP3    H123133   1.574   4.334   2.564 -0.3555 -1.1942  0.1569
 7723TIP3    H223134   1.714   4.291   2.601 -0.1783 -0.7838 -0.0207
 7724TIP3   OH223135   5.895   3.756   3.308  0.3756  0.0472 -0.4530
 7724TIP3    H123136   5.893   3.813   3.231 -1.5862  0.8191  0.1091
 7724TIP3    H223137   5.866   3.812   3.380 -0.1120 -1.2527  0.4067
 7725TIP3   OH223138   1.849   1.986   5.545 -0.5531 -0.1467 -0.5570
 7725TIP3    H123139   1.760   1.996   5.580 -0.7793  0.1706 -1.2228
 7725TIP3    H223140   1.891   1.925   5.606 -0.7451  0.8747  0.6333
 7726TIP3   OH223141   4.019   6.510   3.694 -0.0248  0.0937 -0.7713
 7726TIP3    H123142   3.996   6.531   3.603 -0.5069  2.7967 -0.0918
 7726TIP3    H223143   4.050   6.592   3.731 -0.1134 -0.8735  1.6134
 7727TIP3   OH223144   2.448   4.301   4.676  0.1924  0.1182 -0.3927
 7727TIP3    H123145   2.409   4.380   4.639 -0.0503  1.0057  1.6725
 7727TIP3    H223146   2.425   4.232   4.613 -1.8007  1.2120 -0.9513
 7728TIP3   OH223147   1.181   1.562   4.647 -0.3313  0.6022  0.4880
 7728TIP3    H123148   1.132   1.480   4.653  0.4907  0.1311  0.9654
 7728TIP3    H223149   1.250   1.544   4.584  1.3201  0.1172  2.3372
 7729TIP3   OH223150   3.697   4.365   0.183 -0.4610 -0.1312  0.5644
 7729TIP3    H123151   3.637   4.290   0.184  0.3931 -0.8465  0.1462
 7729TIP3    H223152   3.640   4.442   0.185 -1.3435 -0.7862  1.5751
 7730TIP3   OH223153   4.597   3.742   5.039 -0.7129 -0.4165 -0.3158
 7730TIP3    H123154   4.515   3.693   5.046 -0.7778 -0.2255  0.2993
 7730TIP3    H223155   4.577   3.827   5.078 -0.8743  0.4617 -2.2029
 7731TIP3   OH223156   5.892   6.690   0.862 -0.0532 -0.1835 -0.2750
 7731TIP3    H123157   5.973   6.738   0.880 -0.2797  0.6192 -1.3360
 7731TIP3    H223158   5.870   6.712   0.772 -2.3613  0.9772  0.4949
 7732TIP3   OH223159   1.113   1.954   0.018  0.2149 -0.5849 -0.0911
 7732TIP3    H123160   1.149   2.030   0.064  1.0994 -0.4832 -0.9227
 7732TIP3    H223161   1.097   1.890   0.086  0.3922 -0.0134  0.4989
 7733TIP3   OH223162   2.955   1.358   3.864 -0.1627 -0.0676 -0.3972
 7733TIP3    H123163   3.029   1.370   3.923  0.3343 -2.6731 -0.3771
 7733TIP3    H223164   2.896   1.298   3.910 -0.7758 -0.4830 -1.6729
 7734TIP3   OH223165   4.185   6.365   5.060  0.3131  0.2706 -0.1905
 7734TIP3    H123166   4.227   6.451   5.063  0.9358 -0.0481  0.8920
 7734TIP3    H223167   4.247   6.311   5.010  1.3453 -0.2492  1.5717
 7735TIP3   OH223168   4.854   1.718   2.346  0.2171 -0.0819 -0.6764
 7735TIP3    H123169   4.891   1.777   2.412  0.3939 -0.5929 -0.3205
 7735TIP3    H223170   4.823   1.643   2.395 -0.1566 -0.2208 -1.1166
 7736TIP3   OH223171   5.045   2.095   1.926  0.3218  0.1165  0.0301
 7736TIP3    H123172   4.952   2.110   1.908  0.2440  1.5701  1.5081
 7736TIP3    H223173   5.049   2.073   2.019  1.5151  0.7680  0.1585
 7737TIP3   OH223174   5.651   2.461   3.730  0.0688 -0.3130  0.3020
 7737TIP3    H123175   5.663   2.544   3.683 -1.8478 -1.2509 -2.0526
 7737TIP3    H223176   5.733   2.414   3.718  0.0972  0.0356 -1.0148
 7738TIP3   OH223177   3.854   3.745   2.832 -0.1621  0.4278 -0.3196
 7738TIP3    H123178   3.896   3.662   2.808 -1.5336 -0.4186  0.0822
 7738TIP3    H223179   3.807   3.725   2.913 -1.2334  1.3489 -0.6880
 7739TIP3   OH223180   2.779   2.786   2.109  0.7672 -0.1038  0.0013
 7739TIP3    H123181   2.740   2.816   2.191 -1.8152 -1.3051 -0.7038
 7739TIP3    H223182   2.868   2.822   2.110  0.0705  1.7515  2.2820
 7740TIP3   OH223183   6.051   0.869   4.391  0.3594  0.2683  0.1223
 7740TIP3    H123184   6.073   0.851   4.299  0.3042 -1.6568  0.4382
 7740TIP3    H223185   6.126   0.836   4.440 -0.4318 -0.4985  0.8549
 7741TIP3   OH223186   4.688   2.423   0.868 -0.1150 -0.2920  0.1747
 7741TIP3    H123187   4.774   2.409   0.909  0.5840 -2.8940 -1.9191
 7741TIP3    H223188   4.707   2.474   0.789 -1.1290  2.5696  1.6449
 7742TIP3   OH223189   0.755   4.285   5.453  0.2725  0.2907 -0.2879
 7742TIP3    H123190   0.787   4.353   5.513  0.6227 -1.1926  1.3005
 7742TIP3    H223191   0.749   4.328   5.368  0.5510  2.2723  0.6464
 7743TIP3   OH223192   0.264   1.402   5.296 -0.1683 -0.1067  0.3634
 7743TIP3    H123193   0.289   1.323   5.248  2.8334  1.5681 -1.0678
 7743TIP3    H223194   0.285   1.383   5.387 -0.0353 -1.1458  0.1250
 7744TIP3   OH223195   1.709   6.122   5.071  0.0835  0.1865 -0.4273
 7744TIP3    H123196   1.726   6.200   5.124 -0.9344  0.9773 -1.2258
 7744TIP3    H223197   1.679   6.056   5.134  0.6985  0.5104  0.2163
 7745TIP3   OH223198   6.273   5.523   3.276  0.5585 -0.5046  0.1244
 7745TIP3    H123199   6.272   5.613   3.245 -0.8651 -0.9453 -1.2330
 7745TIP3    H223200   6.360   5.490   3.251  0.2393 -0.1799 -1.4977
 7746TIP3   OH223201   6.083   0.687   0.698 -0.7530 -0.5687  0.4336
 7746TIP3    H123202   6.039   0.642   0.626  0.5317 -0.3151 -0.5403
 7746TIP3    H223203   6.103   0.774   0.663  3.1870 -1.5981 -0.3193
 7747TIP3   OH223204   1.476   6.379   1.614 -0.3159 -0.0742  0.2778
 7747TIP3    H123205   1.554   6.395   1.562 -1.1578  0.2144 -0.9417
 7747TIP3    H223206   1.441   6.297   1.581 -1.4368  0.6392 -0.3897
 7748TIP3   OH223207   4.822   5.569   3.169  0.2054 -0.1961  0.6525
 7748TIP3    H123208   4.731   5.591   3.188 -0.4759 -3.1497  1.3968
 7748TIP3    H223209   4.873   5.621   3.231 -1.1161  0.0943  1.5528
 7749TIP3   OH223210   1.540   0.491   5.364 -0.3607 -0.3612 -0.2524
 7749TIP3    H123211   1.573   0.574   5.397  0.3935  0.1162 -2.0954
 7749TIP3    H223212   1.508   0.510   5.276 -1.9850 -1.6420 -0.0013
 7750TIP3   OH223213   4.034   0.184   3.957 -0.5585  0.4293  0.1485
 7750TIP3    H123214   3.980   0.231   4.020  0.4109 -1.5865  2.6831
 7750TIP3    H223215   4.009   0.092   3.968  0.5645 -0.1309 -1.5275
 7751TIP3   OH223216   2.473   4.081   3.109 -0.6187  0.0907  0.2432
 7751TIP3    H123217   2.461   4.175   3.095 -0.8175 -0.0007 -0.2481
 7751TIP3    H223218   2.437   4.065   3.196 -1.9849  0.2278 -0.2690
 7752TIP3   OH223219   5.434   2.411   5.763 -0.4554 -0.1224  0.0918
 7752TIP3    H123220   5.427   2.393   5.857  0.6555 -1.6620 -0.0887
 7752TIP3    H223221   5.428   2.506   5.757  1.2457  0.1740  1.9298
 7753TIP3   OH223222   0.521   3.213   3.186  0.3128  0.3327  0.1564
 7753TIP3    H123223   0.593   3.171   3.138 -0.6296 -1.2042  0.0116
 7753TIP3    H223224   0.542   3.199   3.278 -0.1608 -0.7997  0.1061
 7754TIP3   OH223225   2.655   0.529   2.805 -0.2910  0.0818 -0.2191
 7754TIP3    H123226   2.583   0.474   2.838 -0.8701  1.0197  0.1149
 7754TIP3    H223227   2.681   0.582   2.880 -0.0878  0.6353 -0.6760
 7755TIP3   OH223228   4.640   1.323   2.619 -0.6544  0.2036 -0.2656
 7755TIP3    H123229   4.582   1.252   2.591 -1.5882  0.0256  1.9037
 7755TIP3    H223230   4.590   1.369   2.687  1.6679  0.0930  1.6560
 7756TIP3   OH223231   5.114   3.080   1.906 -0.4641  0.2317  0.0245
 7756TIP3    H123232   5.185   3.025   1.939 -0.4205 -0.4675 -1.1892
 7756TIP3    H223233   5.113   3.155   1.965  1.6930  0.5665 -0.2816
 7757TIP3   OH223234   3.562   3.997   4.960 -0.1231 -0.5175  0.1213
 7757TIP3    H123235   3.618   3.922   4.938 -0.7450 -1.8169  2.5950
 7757TIP3    H223236   3.474   3.969   4.934 -0.1045  0.2311 -0.8173
 7758TIP3   OH223237   2.945   3.252   2.060  0.0833 -0.3998  0.4720
 7758TIP3    H123238   2.852   3.233   2.050 -0.2744  0.8994  0.9986
 7758TIP3    H223239   2.950   3.301   2.142  1.0284  0.7790 -0.2519
 7759TIP3   OH223240   6.440   6.379   3.821 -0.1568 -0.1115 -0.2719
 7759TIP3    H123241   6.371   6.439   3.851 -0.0729  0.5472 -1.3508
 7759TIP3    H223242   6.478   6.422   3.744 -0.7598 -1.9884 -1.7142
 7760TIP3   OH223243   2.952   2.478   4.484 -0.1644  0.1171 -0.4197
 7760TIP3    H123244   2.933   2.551   4.425  1.0859  0.8765  0.0830
 7760TIP3    H223245   2.958   2.518   4.571  1.5273 -0.3845 -0.2636
 7761TIP3   OH223246   5.976   5.647   2.384 -0.2996 -0.1629  0.2123
 7761TIP3    H123247   6.035   5.695   2.327  0.8104 -0.7891  0.7943
 7761TIP3    H223248   6.001   5.674   2.473 -0.0090 -1.3640  0.5251
 7762TIP3   OH223249   1.459   0.251   2.891  0.3015  0.3035  0.0821
 7762TIP3    H123250   1.519   0.181   2.867 -2.1296 -1.8249 -0.2096
 7762TIP3    H223251   1.425   0.283   2.808  1.8962  2.4381  0.1608
 7763TIP3   OH223252   5.538   1.279   2.462 -0.0656 -0.4753 -0.5718
 7763TIP3    H123253   5.513   1.190   2.436 -0.9566 -0.5764  0.5644
 7763TIP3    H223254   5.614   1.267   2.519  0.0697 -0.4718 -0.7496
 7764TIP3   OH223255   5.400   0.407   3.820 -0.1684  0.8817 -0.3464
 7764TIP3    H123256   5.372   0.326   3.862  0.3182 -0.5364 -2.6149
 7764TIP3    H223257   5.361   0.404   3.733 -2.2069  4.3201  0.2685
 7765TIP3   OH223258   5.852   2.406   3.174  0.2741 -0.4605  0.4404
 7765TIP3    H123259   5.917   2.476   3.183 -0.5568  0.4033 -0.1234
 7765TIP3    H223260   5.903   2.330   3.148  1.2343 -0.1529  1.3368
 7766TIP3   OH223261   4.281   4.658   0.278 -0.0977  0.1733  0.0992
 7766TIP3    H123262   4.273   4.742   0.323 -0.3299  1.4134 -2.0980
 7766TIP3    H223263   4.205   4.656   0.219  0.7542 -0.8292 -1.0040
 7767TIP3   OH223264   3.466   1.129   2.718  0.1540 -0.0405  0.0640
 7767TIP3    H123265   3.453   1.215   2.759 -0.9824  0.2117 -0.7898
 7767TIP3    H223266   3.379   1.091   2.712  0.6412 -1.2235  0.3378
 7768TIP3   OH223267   6.536   1.217   5.399  0.3409 -0.6425  0.1885
 7768TIP3    H123268   6.523   1.162   5.477 -0.7024 -0.6165  0.0517
 7768TIP3    H223269   6.513   1.305   5.428 -0.4984 -0.7024 -0.2456
 7769TIP3   OH223270   6.945   2.050   4.460 -0.3570 -0.1585  0.2373
 7769TIP3    H123271   6.878   1.988   4.433 -0.6541 -1.1186  2.8223
 7769TIP3    H223272   6.910   2.090   4.540  1.4796  0.4479  0.7936
 7770TIP3   OH223273   6.192   1.028   4.716  0.0249  0.0388 -0.5022
 7770TIP3    H123274   6.155   1.066   4.636  1.1171  1.0108 -0.5722
 7770TIP3    H223275   6.280   0.999   4.690  1.4686  2.7411  0.8823
 7771TIP3   OH223276   3.079   0.607   0.847  0.3646  0.2890  0.0091
 7771TIP3    H123277   3.097   0.541   0.914 -1.7753 -0.1112  0.2687
 7771TIP3    H223278   3.157   0.608   0.793  1.8054 -0.0263  1.9600
 7772TIP3   OH223279   0.896   5.998   0.841  0.2220 -0.1287 -0.1721
 7772TIP3    H123280   0.902   6.085   0.879 -0.0389  0.1276 -0.7021
 7772TIP3    H223281   0.936   6.007   0.754  1.5520 -0.8923  0.3239
 7773TIP3   OH223282   6.615   2.173   4.891 -0.1119 -0.5567  0.2412
 7773TIP3    H123283   6.584   2.086   4.867 -1.7089  0.5379 -2.0322
 7773TIP3    H223284   6.565   2.195   4.970 -1.7247 -0.6885 -0.7029
 7774TIP3   OH223285   3.395   2.843   1.014  0.0047 -0.2454 -0.0090
 7774TIP3    H123286   3.418   2.761   0.970  0.2495 -0.6858  0.9227
 7774TIP3    H223287   3.310   2.826   1.055 -0.5751  0.3998 -0.8935
 7775TIP3   OH223288   0.632   4.046   5.218  0.3101 -0.1037  0.1249
 7775TIP3    H123289   0.714   4.013   5.255  0.1240  0.0839  0.7296
 7775TIP3    H223290   0.583   4.077   5.295  0.2523  1.0582 -0.3590
 7776TIP3   OH223291   5.496   1.728   3.757 -0.2214  0.1190 -0.3953
 7776TIP3    H123292   5.493   1.683   3.672  0.1997 -1.3073  0.3076
 7776TIP3    H223293   5.585   1.715   3.788 -0.5371  0.0691  0.5380
 7777TIP3   OH223294   6.645   2.461   0.389 -0.0080 -0.2230 -0.0689
 7777TIP3    H123295   6.687   2.407   0.456  1.8448 -1.0919 -1.8118
 7777TIP3    H223296   6.553   2.462   0.413  0.6522  0.1089  2.8670
 7778TIP3   OH223297   1.158   4.379   5.100  0.2432  0.1331  0.4174
 7778TIP3    H123298   1.121   4.423   5.177  0.1533  1.8954 -0.5676
 7778TIP3    H223299   1.249   4.360   5.124  0.3075  0.9492  0.8715
 7779TIP3   OH223300   4.246   2.575   4.430  0.0429 -0.0981  0.1600
 7779TIP3    H123301   4.154   2.553   4.410  0.0827  0.8965 -1.2752
 7779TIP3    H223302   4.289   2.490   4.436 -0.5854 -0.5707 -1.2641
 7780TIP3   OH223303   1.081   4.026   5.576 -0.4707 -0.1300  0.3367
 7780TIP3    H123304   1.159   4.067   5.538 -0.8610 -0.2162 -0.5713
 7780TIP3    H223305   1.110   3.938   5.600 -0.1354  0.0371  0.5552
 7781TIP3   OH223306   3.415   5.320   4.351 -0.4391 -0.3769 -0.2108
 7781TIP3    H123307   3.469   5.250   4.312 -0.3940 -1.6343  1.9469
 7781TIP3    H223308   3.476   5.368   4.406 -1.3588 -1.5481  1.9281
 7782TIP3   OH223309   2.693   2.722   0.846 -0.7034  0.4904 -0.1246
 7782TIP3    H123310   2.664   2.766   0.766 -0.1440 -2.1420 -1.9023
 7782TIP3    H223311   2.663   2.631   0.836  2.3297 -0.7745  0.9998
 7783TIP3   OH223312   2.215   2.801   2.169  0.0171 -0.2584 -0.1294
 7783TIP3    H123313   2.257   2.764   2.246  0.9755  2.6992  0.9201
 7783TIP3    H223314   2.281   2.797   2.100 -0.4410 -1.8232 -0.5284
 7784TIP3   OH223315   2.602   4.138   0.000  0.3862  0.7993  0.1530
 7784TIP3    H123316   2.532   4.084   0.036  0.2450  1.2679  0.5981
 7784TIP3    H223317   2.681   4.086   0.013  0.1806  0.4571  0.0554
 7785TIP3   OH223318   5.274   1.859   0.795  0.1574  0.0861 -0.6136
 7785TIP3    H123319   5.180   1.878   0.789  0.2694  0.6482 -0.6630
 7785TIP3    H223320   5.316   1.939   0.764  0.6628  0.1291  0.1646
 7786TIP3   OH223321   5.240   4.275   1.986 -0.2822  0.3159  0.0302
 7786TIP3    H123322   5.148   4.253   2.004  0.1077 -1.2184  0.2519
 7786TIP3    H223323   5.267   4.327   2.063 -0.5929 -0.3387  0.5926
 7787TIP3   OH223324   1.782   4.065   2.739 -0.8500  0.3130 -0.0127
 7787TIP3    H123325   1.702   4.075   2.790 -1.9735 -1.0733 -1.4344
 7787TIP3    H223326   1.828   3.993   2.781 -0.7146  0.6015  0.3382
 7788TIP3   OH223327   1.466   1.002   2.225  0.2284  0.0115  0.2243
 7788TIP3    H123328   1.525   0.949   2.171  1.0001  0.0013  1.0616
 7788TIP3    H223329   1.515   1.018   2.306 -0.6520  0.5900  0.6566
 7789TIP3   OH223330   4.157   0.342   4.205 -0.5195  0.1904  0.3645
 7789TIP3    H123331   4.133   0.320   4.294  1.4654 -0.3319  0.8153
 7789TIP3    H223332   4.160   0.258   4.159 -2.4014  0.5375 -0.4570
 7790TIP3   OH223333   1.238   2.180   5.486  0.4633  0.1698 -0.4313
 7790TIP3    H123334   1.174   2.193   5.557 -0.0008 -0.0649 -0.8037
 7790TIP3    H223335   1.214   2.244   5.420 -1.3776 -1.9618 -1.9532
 7791TIP3   OH223336   0.415   1.288   2.292  0.1224 -0.7627  0.2400
 7791TIP3    H123337   0.327   1.305   2.259  0.7049 -0.5442 -1.2720
 7791TIP3    H223338   0.465   1.366   2.268  0.4756 -0.3698  2.1228
 7792TIP3   OH223339   0.477   0.743   1.532  0.5137 -0.1709 -0.3576
 7792TIP3    H123340   0.419   0.695   1.591  0.1778 -0.0605 -0.5938
 7792TIP3    H223341   0.498   0.679   1.464 -0.1620  0.0906 -0.8260
 7793TIP3   OH223342   2.040   5.010   1.282  0.1990  0.0266 -0.1461
 7793TIP3    H123343   2.017   5.037   1.370 -2.6115 -0.3136 -0.6937
 7793TIP3    H223344   1.966   5.036   1.228  1.1040 -1.2405 -2.1309
 7794TIP3   OH223345   4.106   0.430   5.019  0.0029 -0.2672 -0.1675
 7794TIP3    H123346   4.142   0.514   5.047  0.3961 -0.7771  0.8948
 7794TIP3    H223347   4.176   0.392   4.964 -0.6175  0.5611 -1.5941
 7795TIP3   OH223348   1.090   2.606   1.160 -0.2864 -0.1604  0.0184
 7795TIP3    H123349   1.164   2.545   1.155 -0.5657 -0.5884  1.0557
 7795TIP3    H223350   1.131   2.693   1.153  0.1213 -0.4285 -1.3026
 7796TIP3   OH223351   4.819   2.984   5.309  0.3223 -0.3116  0.1821
 7796TIP3    H123352   4.805   2.998   5.403  0.7233 -1.1286  0.3744
 7796TIP3    H223353   4.859   2.897   5.303  2.2975  0.5673 -0.5594
 7797TIP3   OH223354   4.987   3.265   3.754 -0.3471 -0.7589  0.1238
 7797TIP3    H123355   4.904   3.303   3.783 -0.8329 -1.1937 -0.6400
 7797TIP3    H223356   4.996   3.296   3.664 -0.4743 -1.9752 -0.3227
 7798TIP3   OH223357   0.613   0.646   3.633 -0.1967 -0.0255  0.3615
 7798TIP3    H123358   0.534   0.591   3.627 -0.8683  0.8804  0.6127
 7798TIP3    H223359   0.681   0.587   3.666 -0.7239 -0.8612  0.0109
 7799TIP3   OH223360   3.309   4.810   1.290 -0.3264  0.3910 -0.3707
 7799TIP3    H123361   3.271   4.724   1.275  0.4530 -0.5853  2.5502
 7799TIP3    H223362   3.234   4.869   1.301 -0.8711 -0.2136 -0.7777
 7800TIP3   OH223363   3.975   1.217   3.825 -0.0585  0.0011  0.4343
 7800TIP3    H123364   3.976   1.313   3.822 -1.7994  0.0349 -0.1093
 7800TIP3    H223365   4.026   1.190   3.749  2.0880  0.4479  1.6546
 7801TIP3   OH223366   6.110   4.079   3.384  0.1169  0.2532 -0.3589
 7801TIP3    H123367   6.042   4.019   3.352 -0.4358  0.7750 -0.1918
 7801TIP3    H223368   6.062   4.159   3.405  0.7262  0.4779  0.1911
 7802TIP3   OH223369   0.901   2.480   1.632  0.3585 -0.0454 -0.9689
 7802TIP3    H123370   0.893   2.388   1.658 -1.4731  0.2782 -0.2069
 7802TIP3    H223371   0.930   2.477   1.541  0.0303 -1.3857 -1.0554
 7803TIP3   OH223372   1.470   1.956   3.805 -0.0792  0.0046 -0.0746
 7803TIP3    H123373   1.517   1.939   3.723 -1.5684  0.1399 -0.9975
 7803TIP3    H223374   1.535   1.995   3.862  1.9547 -3.2486  0.0776
 7804TIP3   OH223375   5.122   3.875   3.840  0.5239  0.1012 -0.0621
 7804TIP3    H123376   5.138   3.935   3.913 -0.5943 -0.9107  1.0569
 7804TIP3    H223377   5.123   3.788   3.879 -0.6719 -0.4351 -1.1522
 7805TIP3   OH223378   2.512   5.504   4.293 -0.4983  0.0485 -0.1236
 7805TIP3    H123379   2.515   5.583   4.238  2.2035 -0.9488 -1.6204
 7805TIP3    H223380   2.499   5.432   4.230  2.3378 -1.1031  0.4854
 7806TIP3   OH223381   4.673   4.033   1.361  0.0965 -0.0681 -0.7069
 7806TIP3    H123382   4.640   3.950   1.394 -1.3641  1.7813  3.0973
 7806TIP3    H223383   4.640   4.038   1.271 -2.1949 -2.3863 -0.1141
 7807TIP3   OH223384   6.596   0.651   3.670  0.4131 -0.1628  0.0235
 7807TIP3    H123385   6.555   0.721   3.721 -0.8873  0.6752 -2.0758
 7807TIP3    H223386   6.668   0.694   3.624 -0.2489 -0.2440 -1.1004
 7808TIP3   OH223387   2.927   1.428   1.580 -0.4482  0.2519 -0.2879
 7808TIP3    H123388   2.894   1.504   1.533  1.1115  0.8247 -0.5111
 7808TIP3    H223389   2.848   1.383   1.612 -1.3895  3.0027  1.5547
 7809TIP3   OH223390   2.288   1.314   2.156  0.0331  0.1891  0.6143
 7809TIP3    H123391   2.349   1.241   2.140 -1.0939 -0.8318  0.7990
 7809TIP3    H223392   2.220   1.276   2.211 -0.0977  1.6582  1.5177
 7810TIP3   OH223393   4.980   6.114   2.402 -0.0314  0.0237  0.4151
 7810TIP3    H123394   4.954   6.104   2.310  0.2328  0.3469  0.2990
 7810TIP3    H223395   5.034   6.037   2.420 -0.6760 -0.4116  0.5212
 7811TIP3   OH223396   4.297   6.526   0.473  0.1367  0.6025 -0.7688
 7811TIP3    H123397   4.269   6.476   0.397 -0.9254 -1.2399  0.7434
 7811TIP3    H223398   4.234   6.597   0.480 -1.8787 -1.1803  0.2681
 7812TIP3   OH223399   5.702   5.851   5.702  0.4056  0.5355  0.8671
 7812TIP3    H123400   5.754   5.812   5.632  1.6412  1.6320  1.1372
 7812TIP3    H223401   5.616   5.810   5.694  0.7295  0.1334 -0.8474
 7813TIP3   OH223402   4.986   1.342   3.716  0.4826  0.0365  0.3166
 7813TIP3    H123403   4.930   1.277   3.675  1.1377 -0.6623  0.5053
 7813TIP3    H223404   4.928   1.416   3.736 -0.1663 -0.2933 -0.3393
 7814TIP3   OH223405   4.425   6.649   1.762  0.2845  0.2257  0.2233
 7814TIP3    H123406   4.473   6.718   1.807  0.4430  1.1467 -1.2678
 7814TIP3    H223407   4.341   6.644   1.807  1.0238 -0.0237  1.6101
 7815TIP3   OH223408   3.494   0.287   2.956 -0.3884 -0.0430 -0.0238
 7815TIP3    H123409   3.413   0.331   2.979 -0.9663 -0.3413 -1.3431
 7815TIP3    H223410   3.531   0.340   2.885  0.5881  0.0982  0.5717
 7816TIP3   OH223411   2.551   1.160   0.401 -0.3841  0.1773  0.1465
 7816TIP3    H123412   2.478   1.201   0.448 -1.7858 -0.7146 -1.1665
 7816TIP3    H223413   2.594   1.233   0.356 -1.3615  0.5433 -0.2276
 7817TIP3   OH223414   2.466   6.571   0.818  0.5162 -0.3765 -0.3928
 7817TIP3    H123415   2.442   6.488   0.778  1.1320 -0.6882 -0.1302
 7817TIP3    H223416   2.478   6.550   0.911  3.2018 -0.5755 -0.7097
 7818TIP3   OH223417   3.603   3.381   2.891  0.2242 -0.4048  0.4057
 7818TIP3    H123418   3.652   3.300   2.877  1.3635  0.2957  0.2504
 7818TIP3    H223419   3.618   3.404   2.982 -0.1559 -0.4040  0.4695
 7819TIP3   OH223420   1.794   2.236   5.470 -0.5688 -0.3817 -0.1946
 7819TIP3    H123421   1.852   2.160   5.466  0.2485  0.2724 -1.4513
 7819TIP3    H223422   1.851   2.311   5.450 -1.4760  0.4978  0.4200
 7820TIP3   OH223423   6.811   4.009   1.949  0.4408 -0.0980  0.3394
 7820TIP3    H123424   6.723   3.979   1.929 -0.0419  0.9334  0.8039
 7820TIP3    H223425   6.810   4.024   2.044  1.1138 -0.0852  0.3495
 7821TIP3   OH223426   2.097   3.111   3.306  0.0305 -0.6203 -0.0195
 7821TIP3    H123427   2.154   3.043   3.270  1.1584 -0.2711  1.0359
 7821TIP3    H223428   2.156   3.183   3.327 -1.2488  1.1237 -1.9941
 7822TIP3   OH223429   1.201   0.908   2.242 -0.6776 -0.3518 -0.1842
 7822TIP3    H123430   1.159   0.993   2.256 -1.4023 -0.6621 -0.4116
 7822TIP3    H223431   1.293   0.929   2.228 -0.9499  0.4664 -0.8997
 7823TIP3   OH223432   5.186   0.102   4.476  0.0634  0.1536 -0.5831
 7823TIP3    H123433   5.095   0.123   4.457 -0.9737  1.8829  4.6269
 7823TIP3    H223434   5.233   0.185   4.465  0.1425  0.2769  0.5790
 7824TIP3   OH223435   6.439   2.864   1.685  0.6293 -0.0557  0.3779
 7824TIP3    H123436   6.441   2.939   1.745 -0.5261  0.1491  0.1913
 7824TIP3    H223437   6.486   2.894   1.608 -0.6055  0.8410 -0.0622
 7825TIP3   OH223438   5.807   5.154   1.568 -0.3094  0.1225  0.1384
 7825TIP3    H123439   5.733   5.163   1.628 -0.3233 -1.0200  0.3026
 7825TIP3    H223440   5.773   5.100   1.496  0.9298 -2.2431  1.2370
 7826TIP3   OH223441   2.178   2.451   2.471  0.3666  0.1096 -0.0646
 7826TIP3    H123442   2.108   2.491   2.523 -0.6511 -0.2820 -1.0864
 7826TIP3    H223443   2.186   2.362   2.507 -0.5959 -0.2865 -0.7821
 7827TIP3   OH223444   6.255   4.640   1.870  0.3130  0.1584 -0.0822
 7827TIP3    H123445   6.257   4.648   1.775  0.6034  0.2336 -0.0703
 7827TIP3    H223446   6.343   4.609   1.893 -0.3317 -1.7680 -0.0071
 7828TIP3   OH223447   4.325   3.053   2.548  0.1623  0.0260 -0.0674
 7828TIP3    H123448   4.248   3.107   2.565  0.3201  0.0592  0.5452
 7828TIP3    H223449   4.291   2.977   2.500 -0.6438 -1.1305  2.2086
 7829TIP3   OH223450   5.812   1.984   5.487  0.5556 -0.2795 -0.3433
 7829TIP3    H123451   5.795   1.900   5.530  0.2789 -0.0289  0.0387
 7829TIP3    H223452   5.726   2.025   5.479  0.5264 -0.5357 -1.5927
 7830TIP3   OH223453   0.759   2.506   2.791 -0.1685  0.0626  0.2184
 7830TIP3    H123454   0.836   2.551   2.756  0.0876 -0.2031  0.4397
 7830TIP3    H223455   0.791   2.420   2.817 -0.6931 -0.3266 -0.3778
 7831TIP3   OH223456   6.283   1.758   3.915 -0.2599  0.3231 -0.3566
 7831TIP3    H123457   6.284   1.683   3.974 -0.3957 -0.7602 -1.6783
 7831TIP3    H223458   6.310   1.832   3.969  1.3787 -0.9396  0.6509
 7832TIP3   OH223459   6.147   5.590   4.542  0.0057 -0.3087  0.1930
 7832TIP3    H123460   6.104   5.636   4.471  0.3128  0.7747  0.6955
 7832TIP3    H223461   6.134   5.646   4.619  0.4289 -1.0304  0.8074
 7833TIP3   OH223462   0.974   0.993   4.438 -0.2475 -0.7735  0.5442
 7833TIP3    H123463   0.929   0.979   4.521  0.9959 -0.8021  1.2353
 7833TIP3    H223464   0.928   1.067   4.398  0.5184  0.7387  2.3001
 7834TIP3   OH223465   6.878   0.815   2.891  0.0105  0.2485 -0.1681
 7834TIP3    H123466   6.875   0.763   2.971  1.5458  0.8703  0.3453
 7834TIP3    H223467   6.828   0.894   2.911  2.6033  1.6826  1.2475
 7835TIP3   OH223468   5.268   5.717   1.580  0.4447  0.3527 -0.0293
 7835TIP3    H123469   5.241   5.627   1.593 -2.0538  1.0269 -0.0385
 7835TIP3    H223470   5.311   5.718   1.495  0.7946 -0.8594  0.1166
 7836TIP3   OH223471   5.184   5.326   5.581  0.2680  0.0691 -0.4164
 7836TIP3    H123472   5.158   5.237   5.560 -0.1282  0.0771  0.0183
 7836TIP3    H223473   5.265   5.340   5.531 -1.4005  0.6160 -3.1735
 7837TIP3   OH223474   5.659   2.144   5.883  0.1162 -0.1754  0.0803
 7837TIP3    H123475   5.576   2.141   5.836 -0.4692  1.3648  0.9483
 7837TIP3    H223476   5.716   2.198   5.827 -0.0684  0.3199  0.3672
 7838TIP3   OH223477   5.402   1.561   1.926  0.2000  0.0167  0.4133
 7838TIP3    H123478   5.498   1.562   1.929  0.2009 -0.5138  0.5771
 7838TIP3    H223479   5.381   1.501   1.854 -0.0163 -0.2966  0.7359
 7839TIP3   OH223480   5.321   1.531   4.089 -0.9462  0.7079  0.1725
 7839TIP3    H123481   5.256   1.490   4.032 -1.1920  1.0178  0.2289
 7839TIP3    H223482   5.306   1.491   4.174 -0.0892 -0.3064 -0.1309
 7840TIP3   OH223483   1.651   4.033   2.989  0.3743  0.1074  0.1186
 7840TIP3    H123484   1.718   4.065   3.049  0.5103  1.4355 -0.7066
 7840TIP3    H223485   1.684   3.949   2.959  1.3389  0.4258  0.2531
 7841TIP3   OH223486   3.208   6.628   1.134  0.2154 -0.4266 -0.1622
 7841TIP3    H123487   3.215   6.560   1.202  1.2520  0.0884  0.2631
 7841TIP3    H223488   3.297   6.660   1.123 -0.1149  0.2219 -1.0418
 7842TIP3   OH223489   1.451   1.095   5.064 -0.6690  0.0105 -0.2806
 7842TIP3    H123490   1.526   1.036   5.053  2.2653  3.0591  1.3950
 7842TIP3    H223491   1.409   1.065   5.144 -1.2822 -1.6614 -1.1708
 7843TIP3   OH223492   0.044   1.626   5.766 -0.8899  0.4047 -0.0014
 7843TIP3    H123493   0.057   1.714   5.799 -1.1245  0.6521 -0.5477
 7843TIP3    H223494  -0.035   1.595   5.811  0.9407 -0.7823  2.6661
 7844TIP3   OH223495   1.068   1.991   2.726  0.3416 -0.6733 -0.1078
 7844TIP3    H123496   1.018   1.909   2.734  3.3553 -2.6091  0.8609
 7844TIP3    H223497   1.076   2.006   2.632 -1.1706 -0.8358 -0.2842
 7845TIP3   OH223498   0.676   6.617   0.279  0.1211 -0.2791  0.0230
 7845TIP3    H123499   0.621   6.680   0.233  0.1327 -0.6684 -0.5371
 7845TIP3    H223500   0.615   6.566   0.332  0.1709  0.5535  0.9272
 7846TIP3   OH223501   6.326   2.463   5.463  0.0386 -0.0230  0.0655
 7846TIP3    H123502   6.320   2.555   5.490  2.0598 -0.1700  1.2584
 7846TIP3    H223503   6.317   2.465   5.368 -4.0325  0.9105  0.3021
 7847TIP3   OH223504   0.049   1.440   0.044 -0.1682 -0.1086  0.9321
 7847TIP3    H123505   0.116   1.506   0.026  1.0508 -1.6052 -0.4132
 7847TIP3    H223506   0.068   1.409   0.132  0.4164  0.0623  0.8713
 7848TIP3   OH223507   6.304   0.273   1.219 -0.2069 -0.0987  0.4333
 7848TIP3    H123508   6.244   0.236   1.284 -0.0702  2.1376  1.9675
 7848TIP3    H223509   6.363   0.328   1.271  1.4020 -0.0356 -1.3608
 7849TIP3   OH223510   0.998   0.531   1.184  0.3000 -0.4621 -0.1107
 7849TIP3    H123511   0.967   0.520   1.095 -0.1247  0.0858 -0.0417
 7849TIP3    H223512   1.075   0.587   1.176  1.4641 -2.0248 -0.3057
 7850TIP3   OH223513   1.986   6.332   5.774 -0.0053 -0.0253 -0.1523
 7850TIP3    H123514   1.973   6.277   5.851 -1.2429 -0.5174 -0.6904
 7850TIP3    H223515   2.078   6.359   5.779  0.4132 -1.4718  0.5594
 7851TIP3   OH223516   2.289   2.694   2.406 -0.1372 -0.1238 -0.1756
 7851TIP3    H123517   2.257   2.608   2.435 -2.0842  0.7840  0.5800
 7851TIP3    H223518   2.332   2.730   2.484 -0.1975 -0.0138 -0.1943
 7852TIP3   OH223519   2.820   0.471   1.771  0.0306 -0.0158 -0.1494
 7852TIP3    H123520   2.869   0.456   1.852  0.4962  0.3446 -0.3601
 7852TIP3    H223521   2.783   0.559   1.782  0.8416  0.4091 -0.6955
 7853TIP3   OH223522   1.097   1.749   3.346 -0.2851  0.2088 -0.2283
 7853TIP3    H123523   1.026   1.723   3.287 -0.0247 -0.2520 -0.3425
 7853TIP3    H223524   1.087   1.844   3.354 -0.7282  0.1892 -0.4852
 7854TIP3   OH223525   3.523   5.091   4.258 -0.2698 -0.2882 -0.2152
 7854TIP3    H123526   3.474   5.028   4.206 -0.1734 -0.4617 -0.0959
 7854TIP3    H223527   3.608   5.098   4.215 -0.2370 -0.3319 -0.1587
 7855TIP3   OH223528   5.023   1.831   5.660 -0.0988  0.2574  0.0179
 7855TIP3    H123529   4.931   1.847   5.680 -0.5226  0.9650 -2.2521
 7855TIP3    H223530   5.033   1.736   5.667 -1.1217  0.1261 -0.1746
 7856TIP3   OH223531   4.899   5.275   3.152  0.5476  0.6916  0.2651
 7856TIP3    H123532   4.889   5.203   3.089 -0.7674  0.3809  0.7879
 7856TIP3    H223533   4.857   5.350   3.110  0.0130  0.5830  0.5909
 7857TIP3   OH223534   0.060   0.178   2.348  0.1841  0.2805  0.6867
 7857TIP3    H123535   0.016   0.125   2.415 -0.1221  1.3380  1.3422
 7857TIP3    H223536   0.017   0.264   2.353  0.2552  0.4279 -0.7658
 7858TIP3   OH223537   1.653   4.060   1.099 -0.2049 -0.2280  0.0018
 7858TIP3    H123538   1.601   4.140   1.099 -1.8011 -1.2115 -1.0937
 7858TIP3    H223539   1.597   3.995   1.142  0.7292 -0.9563  0.1395
 7859TIP3   OH223540   4.046   2.983   2.806  0.2570 -0.1143 -0.5852
 7859TIP3    H123541   3.976   2.960   2.746  0.9741 -0.5521 -1.2793
 7859TIP3    H223542   4.002   3.014   2.885 -0.7051 -0.6171 -0.9180
 7860TIP3   OH223543   0.744   2.796   2.544 -0.4475 -0.5944  0.8827
 7860TIP3    H123544   0.817   2.747   2.583  0.4181  0.1023  0.1734
 7860TIP3    H223545   0.780   2.883   2.527 -1.3184 -0.3781  0.0975
 7861TIP3   OH223546   6.625   1.865   4.195 -0.5989  0.0316 -0.0543
 7861TIP3    H123547   6.655   1.849   4.285  1.5785 -0.9081 -0.8789
 7861TIP3    H223548   6.608   1.777   4.160  0.4717  0.2325 -1.1350
 7862TIP3   OH223549   3.399   1.754   2.512 -0.2585 -0.0175  0.0649
 7862TIP3    H123550   3.420   1.748   2.419 -1.9134 -0.8451 -0.2862
 7862TIP3    H223551   3.481   1.731   2.557  0.2390 -0.8005 -1.1912
 7863TIP3   OH223552   0.892   1.965   3.773 -0.6152 -0.3848  0.0488
 7863TIP3    H123553   0.877   2.033   3.840 -2.0756  0.6183 -1.2215
 7863TIP3    H223554   0.808   1.956   3.729  0.5335 -0.2477 -2.3462
 7864TIP3   OH223555   3.006   0.870   4.638  0.3308  0.1023  0.2163
 7864TIP3    H123556   3.055   0.794   4.606 -1.2918 -0.0200 -2.2538
 7864TIP3    H223557   3.002   0.929   4.563 -1.3973  1.0573  1.0025
 7865TIP3   OH223558   2.896   2.191   4.076 -0.5313 -0.3170 -0.4540
 7865TIP3    H123559   2.918   2.235   3.994  0.4296  0.3822  0.1541
 7865TIP3    H223560   2.836   2.252   4.120  0.3528  0.1374  0.1374
 7866TIP3   OH223561   0.976   4.197   1.293 -0.2847  0.2542  0.0384
 7866TIP3    H123562   1.067   4.176   1.274 -0.4478 -0.4519  0.0224
 7866TIP3    H223563   0.930   4.114   1.284 -0.6019  0.1709  2.0565
 7867TIP3   OH223564   3.218   4.280   5.382  0.4539  0.4484  0.0244
 7867TIP3    H123565   3.138   4.259   5.334  0.2205  1.1645  0.0845
 7867TIP3    H223566   3.275   4.205   5.368  0.3567  0.6008 -1.2915
 7868TIP3   OH223567   7.176   3.540   3.258  0.2813  0.2602 -0.2507
 7868TIP3    H123568   7.251   3.556   3.316 -0.4621 -1.3126  1.2365
 7868TIP3    H223569   7.117   3.486   3.310 -1.9172  1.4398 -1.3762
 7869TIP3   OH223570   2.978   0.243   5.105  0.1703 -0.3624  0.2030
 7869TIP3    H123571   3.006   0.334   5.099 -0.9623  0.0516  1.0115
 7869TIP3    H223572   2.948   0.221   5.016 -0.7839  0.4726  0.3056
 7870TIP3   OH223573   7.027   2.600   1.750  0.1088  0.0175  0.3543
 7870TIP3    H123574   7.018   2.505   1.753  0.5165 -0.0227  0.4168
 7870TIP3    H223575   7.122   2.614   1.745 -0.0086  0.3819 -1.1485
 7871TIP3   OH223576   6.329   4.758   4.618  0.3052  0.1377 -0.8086
 7871TIP3    H123577   6.328   4.663   4.607  0.2066 -0.1193  0.9890
 7871TIP3    H223578   6.396   4.773   4.684 -0.2068  1.2347 -0.5154
 7872TIP3   OH223579   7.029   4.042   5.410 -0.6108  0.1231  0.4218
 7872TIP3    H123580   6.983   4.103   5.353  2.2570  0.8278 -1.3334
 7872TIP3    H223581   7.056   4.096   5.485 -1.3936  0.0562  0.7540
 7873TIP3   OH223582   0.245   1.013   0.371  0.0537 -0.3117  0.6578
 7873TIP3    H123583   0.279   0.930   0.338  0.2211 -0.0457  0.1425
 7873TIP3    H223584   0.323   1.060   0.402  0.3477  0.6982 -1.4077
 7874TIP3   OH223585   0.293   6.556   3.464  0.1091 -0.2545 -0.3407
 7874TIP3    H123586   0.299   6.473   3.511  3.0425 -0.4957 -0.9406
 7874TIP3    H223587   0.269   6.531   3.375  1.6895 -0.6177 -0.7050
 7875TIP3   OH223588   6.969   6.388   3.643  0.7343 -0.2059  1.0553
 7875TIP3    H123589   6.973   6.452   3.715 -0.5208  2.1439 -0.8140
 7875TIP3    H223590   6.876   6.370   3.632  0.9045 -0.4723 -0.0304
 7876TIP3   OH223591   5.523   6.047   4.805  0.1302  0.2075  0.3870
 7876TIP3    H123592   5.547   6.126   4.853 -0.7102  0.4079  0.4972
 7876TIP3    H223593   5.435   6.025   4.838  0.8237 -1.4680  1.2641
 7877TIP3   OH223594   1.579   3.611   4.179  0.3866 -0.0543 -0.9617
 7877TIP3    H123595   1.517   3.633   4.109 -0.1016  2.2832  0.0902
 7877TIP3    H223596   1.653   3.671   4.164  1.2657 -1.0480 -0.7061
 7878TIP3   OH223597   2.738   6.512   4.441 -0.1081  0.1041  0.7495
 7878TIP3    H123598   2.688   6.574   4.494 -0.1734  0.2039  0.5726
 7878TIP3    H223599   2.724   6.428   4.483 -1.1017 -0.0065  0.2343
 7879TIP3   OH223600   3.891   3.517   0.801 -0.2292  0.2121 -0.3600
 7879TIP3    H123601   3.986   3.517   0.800 -0.2074  0.4907 -2.3897
 7879TIP3    H223602   3.866   3.463   0.726 -1.6697  0.1021  0.1646
 7880TIP3   OH223603   0.644   6.339   1.274  0.2731 -0.0336  0.0547
 7880TIP3    H123604   0.697   6.282   1.330  0.0364  1.1122  1.4932
 7880TIP3    H223605   0.631   6.418   1.326 -1.6832  0.2640 -0.8146
 7881TIP3   OH223606   6.813   2.972   4.663  0.0071 -0.1880  0.5270
 7881TIP3    H123607   6.905   2.978   4.638 -0.2082  1.7074  0.0754
 7881TIP3    H223608   6.781   2.895   4.616  0.5944  0.9645 -1.9659
 7882TIP3   OH223609   3.511   0.677   0.482  0.3623  0.0659  0.2623
 7882TIP3    H123610   3.597   0.638   0.492  0.4914  0.4149  0.5472
 7882TIP3    H223611   3.454   0.604   0.458  1.0652  0.1171 -1.7610
 7883TIP3   OH223612   2.418   3.330   5.149  0.0766  0.2148 -0.5752
 7883TIP3    H123613   2.386   3.354   5.236 -0.5920 -0.9092 -0.4875
 7883TIP3    H223614   2.500   3.282   5.166  0.0261  0.1286 -0.5763
 7884TIP3   OH223615   6.566   3.578   3.072  0.5760  0.1025  0.0713
 7884TIP3    H123616   6.606   3.506   3.023  0.9411  0.5153 -0.2344
 7884TIP3    H223617   6.616   3.655   3.048 -0.7216  0.7295 -0.7083
 7885TIP3   OH223618   0.509   3.702   3.552 -0.4329  0.0436  0.5646
 7885TIP3    H123619   0.438   3.727   3.493 -0.5398 -1.3780  0.0471
 7885TIP3    H223620   0.587   3.700   3.496 -0.2677  0.1056  0.7904
 7886TIP3   OH223621   1.103   2.685   4.922 -0.5308  0.5481 -0.0153
 7886TIP3    H123622   1.064   2.701   4.836 -1.7947 -1.9687 -0.0005
 7886TIP3    H223623   1.190   2.724   4.917  0.5950 -1.9243 -3.5004
 7887TIP3   OH223624   5.019   1.226   0.874 -0.0857 -0.1263  0.7006
 7887TIP3    H123625   4.996   1.176   0.953 -1.4103  0.0799  0.4614
 7887TIP3    H223626   4.976   1.311   0.886 -0.1831 -0.0437 -0.1837
 7888TIP3   OH223627   5.530   4.925   2.533 -0.8051 -0.4042 -0.2741
 7888TIP3    H123628   5.578   4.987   2.478 -0.2115 -0.1563  0.5149
 7888TIP3    H223629   5.527   4.967   2.619 -0.8440 -1.2411  0.1376
 7889TIP3   OH223630   5.141   4.201   0.207 -0.9188  0.6191 -0.3691
 7889TIP3    H123631   5.106   4.291   0.208 -3.1147 -0.1811 -0.1170
 7889TIP3    H223632   5.138   4.176   0.114 -3.4990 -0.2697 -0.1438
 7890TIP3   OH223633   0.991   5.211   3.211  0.4653 -0.0082 -0.2205
 7890TIP3    H123634   1.066   5.165   3.250  2.9234  2.8071 -1.2504
 7890TIP3    H223635   1.030   5.267   3.144 -2.7980  0.5885 -1.7971
 7891TIP3   OH223636   5.222   1.127   1.159 -0.5746 -0.0302  0.3386
 7891TIP3    H123637   5.255   1.215   1.138 -1.6850  0.2212 -0.4411
 7891TIP3    H223638   5.127   1.134   1.146 -0.7368 -1.2034  0.8212
 7892TIP3   OH223639   0.316   5.285   2.910 -0.0177 -0.0629 -0.0115
 7892TIP3    H123640   0.292   5.345   2.980 -0.9266 -0.0934 -0.2773
 7892TIP3    H223641   0.411   5.273   2.919 -0.1800 -0.3919  1.4467
 7893TIP3   OH223642   4.116   1.740   0.953  0.0207  0.2904 -0.4181
 7893TIP3    H123643   4.129   1.788   1.034  1.7407 -0.0035 -0.4989
 7893TIP3    H223644   4.146   1.799   0.884 -0.1605  0.0263 -0.7296
 7894TIP3   OH223645   0.223   0.331   5.387 -0.6762 -0.8495 -0.1925
 7894TIP3    H123646   0.249   0.315   5.296 -1.2898  2.6547 -1.1287
 7894TIP3    H223647   0.302   0.365   5.428 -0.9104 -0.6023  0.0500
 7895TIP3   OH223648   4.974   3.575   4.211 -0.1090 -0.3351  0.3768
 7895TIP3    H123649   4.943   3.522   4.284 -1.7391  0.4624  0.2954
 7895TIP3    H223650   4.898   3.626   4.183  1.5147  2.6054  0.9008
 7896TIP3   OH223651   5.992   2.240   4.228 -0.1062 -0.0307  0.3222
 7896TIP3    H123652   5.948   2.195   4.300 -0.0322  0.4061  0.6444
 7896TIP3    H223653   6.085   2.231   4.249 -0.1104  1.8318  1.3798
 7897TIP3   OH223654   5.222   3.705   5.421  0.3562  0.5249  0.3490
 7897TIP3    H123655   5.294   3.740   5.369 -0.8461  0.6755 -1.2929
 7897TIP3    H223656   5.229   3.749   5.505  1.4389  1.4465 -0.1971
 7898TIP3   OH223657   1.584   4.609   2.898 -0.2165 -0.2945 -0.9781
 7898TIP3    H123658   1.631   4.592   2.816  1.5541  0.1519 -0.0945
 7898TIP3    H223659   1.532   4.530   2.912 -0.8868 -0.2144 -2.7351
 7899TIP3   OH223660   3.495   4.631   0.977  0.8402  0.2935  0.3487
 7899TIP3    H123661   3.502   4.665   0.888 -0.5834 -1.6544 -0.5769
 7899TIP3    H223662   3.412   4.665   1.009  0.9252  0.2590  0.6033
 7900TIP3   OH223663   2.164   1.971   2.972  0.0842 -0.4114 -0.3326
 7900TIP3    H123664   2.212   1.981   3.054 -2.1258 -2.0017  1.3089
 7900TIP3    H223665   2.152   2.060   2.940 -1.0547  0.5347  2.4240
 7901TIP3   OH223666   0.451   5.330   5.204 -0.1012  0.4838 -0.0714
 7901TIP3    H123667   0.418   5.417   5.183  0.5185  0.3388 -1.8086
 7901TIP3    H223668   0.446   5.325   5.300 -1.1803  1.9924 -0.0154
 7902TIP3   OH223669   5.065   4.943   5.038  0.1965 -0.6908  0.0406
 7902TIP3    H123670   5.035   4.940   4.947  0.3860  1.4825 -0.1556
 7902TIP3    H223671   5.156   4.913   5.034  0.1735 -0.7091 -0.4646
 7903TIP3   OH223672   4.446   5.128   5.468  0.1092  0.3449  0.1824
 7903TIP3    H123673   4.498   5.054   5.437  0.5669  0.8024 -0.1630
 7903TIP3    H223674   4.511   5.193   5.495 -0.2886  0.5152  0.7381
 7904TIP3   OH223675   0.493   3.331   5.505  0.5487 -0.0731  0.5162
 7904TIP3    H123676   0.458   3.417   5.485  0.5680 -0.3225 -0.6336
 7904TIP3    H223677   0.475   3.278   5.427  0.7165 -1.0534  1.1167
 7905TIP3   OH223678   0.508   5.832   1.412  0.5594  0.3246 -0.2572
 7905TIP3    H123679   0.479   5.747   1.444 -2.2821  1.4474  0.5148
 7905TIP3    H223680   0.519   5.885   1.491  0.0884  1.2828 -0.8138
 7906TIP3   OH223681   1.269   6.578   1.577  0.3405 -0.0492 -0.1444
 7906TIP3    H123682   1.199   6.562   1.515 -0.0439 -1.1922  0.5669
 7906TIP3    H223683   1.350   6.568   1.526  0.0582  3.0882 -1.4181
 7907TIP3   OH223684   2.921   0.989   2.460 -0.3519  0.3919  0.2876
 7907TIP3    H123685   3.002   0.969   2.507 -0.6952  0.0078  0.7276
 7907TIP3    H223686   2.901   1.079   2.487  0.1586  0.6458 -0.1689
 7908TIP3   OH223687   1.649   3.937   2.495  0.7896  0.0093 -0.1043
 7908TIP3    H123688   1.710   3.977   2.557 -0.4209  0.5487  0.7849
 7908TIP3    H223689   1.680   3.964   2.409 -0.2177  3.3352  0.4440
 7909TIP3   OH223690   4.955   5.043   0.005 -0.2361 -0.5374 -0.6434
 7909TIP3    H123691   4.909   5.082   0.079  0.9571  1.2406 -0.7656
 7909TIP3    H223692   4.953   5.110  -0.063  1.7723 -0.6982 -0.9325
 7910TIP3   OH223693   2.491   5.765   2.435 -0.6678 -0.0202 -0.1460
 7910TIP3    H123694   2.441   5.683   2.423 -0.8200 -0.1245  1.1009
 7910TIP3    H223695   2.485   5.783   2.528  0.0248  1.0165 -0.2906
 7911TIP3   OH223696   1.885   4.106   4.341  0.1786  0.4936  0.5949
 7911TIP3    H123697   1.960   4.066   4.385 -0.2957  0.0109  0.9687
 7911TIP3    H223698   1.838   4.152   4.411 -0.2018  0.2967  0.4711
 7912TIP3   OH223699   1.587   0.243   5.890 -0.2073 -0.5068  0.5001
 7912TIP3    H123700   1.538   0.262   5.810 -0.1299 -0.9323  0.3481
 7912TIP3    H223701   1.679   0.253   5.863 -0.1104 -2.2151  0.1047
 7913TIP3   OH223702   4.233   6.052   1.280  0.1544 -0.7286 -0.3734
 7913TIP3    H123703   4.217   5.958   1.277 -1.5256 -0.5077  0.2666
 7913TIP3    H223704   4.311   6.062   1.335 -0.1749 -1.7083  0.3050
 7914TIP3   OH223705   5.887   0.710   5.462  0.0047 -0.3072  0.3223
 7914TIP3    H123706   5.805   0.754   5.485  0.2548  0.9805 -1.1056
 7914TIP3    H223707   5.863   0.652   5.390  0.7517  2.0771 -2.0077
 7915TIP3   OH223708   3.671   5.504   4.532  0.3494 -0.1995 -0.1172
 7915TIP3    H123709   3.738   5.532   4.594  0.4339 -1.5937  0.4604
 7915TIP3    H223710   3.623   5.584   4.509  1.6218  0.6596  0.1588
 7916TIP3   OH223711   3.832   5.577   3.266  0.6343  0.8311 -0.3103
 7916TIP3    H123712   3.757   5.519   3.275  1.7713 -0.8150 -0.9699
 7916TIP3    H223713   3.908   5.520   3.272  1.9357  2.5933  1.6513
 7917TIP3   OH223714   4.194   4.670   3.639 -0.0632  0.6431  0.0470
 7917TIP3    H123715   4.288   4.662   3.627 -0.1890  1.3712 -1.8038
 7917TIP3    H223716   4.157   4.594   3.595 -0.3532  0.5500  0.4460
 7918TIP3   OH223717   5.274   3.605   4.771  0.5729  0.5406  0.3176
 7918TIP3    H123718   5.194   3.629   4.723 -0.2547  0.6605  1.6984
 7918TIP3    H223719   5.330   3.563   4.706 -0.8784 -0.1217 -0.5492
 7919TIP3   OH223720   1.904   0.725   4.628 -0.0371  0.1468 -1.0009
 7919TIP3    H123721   1.849   0.650   4.648  0.7304  0.1740  1.5158
 7919TIP3    H223722   1.972   0.723   4.695  1.0621  2.0575 -1.9822
 7920TIP3   OH223723   2.141   0.214   3.434  0.5220 -0.0462  0.2259
 7920TIP3    H123724   2.081   0.166   3.377  0.7451  0.7492 -0.6989
 7920TIP3    H223725   2.199   0.260   3.374  0.1686  1.5711  1.0756
 7921TIP3   OH223726   1.065   5.031   1.608 -0.5454 -0.4703 -0.2824
 7921TIP3    H123727   1.008   4.955   1.614  1.2183 -1.7473  1.1157
 7921TIP3    H223728   1.148   4.998   1.574 -0.2498  1.1516 -1.2798
 7922TIP3   OH223729   5.382   6.087   4.028  0.1175 -0.0093 -0.1273
 7922TIP3    H123730   5.454   6.047   4.077 -0.7380  0.9906  2.0606
 7922TIP3    H223731   5.330   6.012   3.998  0.6669 -0.6650  0.5133
 7923TIP3   OH223732   2.912   0.149   2.797  0.4827  0.1923 -0.3378
 7923TIP3    H123733   2.842   0.173   2.736 -1.3648 -0.4500  1.4316
 7923TIP3    H223734   2.956   0.075   2.755 -0.5729 -0.0738 -1.0140
 7924TIP3   OH223735   2.802   0.528   2.578 -0.0318 -0.3377  0.1589
 7924TIP3    H123736   2.760   0.505   2.660  0.5516 -2.0982 -0.0063
 7924TIP3    H223737   2.781   0.621   2.565 -2.9288 -0.8444  0.6271
 7925TIP3   OH223738   3.713   5.828   5.312  0.1969  0.2736 -0.2944
 7925TIP3    H123739   3.751   5.808   5.397  0.8020  0.3340 -0.5409
 7925TIP3    H223740   3.673   5.746   5.283 -0.5099  0.4007  0.2902
 7926TIP3   OH223741   4.596   6.449   1.750  0.3594 -0.0798 -0.2457
 7926TIP3    H123742   4.522   6.509   1.762  2.1466  2.4283 -0.8155
 7926TIP3    H223743   4.583   6.380   1.815 -1.7651  1.0078  0.5602
 7927TIP3   OH223744   7.099   0.116   2.562  0.0503 -0.0399 -0.6214
 7927TIP3    H123745   7.059   0.197   2.595  0.2613  0.3627 -1.3437
 7927TIP3    H223746   7.050   0.046   2.606  0.4735  0.4788  0.7403
 7928TIP3   OH223747   1.879   6.032   2.866 -0.1727 -0.3738  0.0224
 7928TIP3    H123748   1.931   6.093   2.814 -0.1240  1.1514  1.7466
 7928TIP3    H223749   1.803   6.013   2.811 -1.2746  2.9687  0.1673
 7929TIP3   OH223750   5.953   3.882   3.068  0.1989 -0.2186  0.1477
 7929TIP3    H123751   5.898   3.921   3.001  0.2240  0.7699  0.6835
 7929TIP3    H223752   6.014   3.952   3.093  0.1115 -0.5229  1.2770
 7930TIP3   OH223753   6.526   0.793   2.135 -0.0182 -0.3728  0.5008
 7930TIP3    H123754   6.432   0.773   2.138 -0.7251  0.4873 -4.9753
 7930TIP3    H223755   6.568   0.707   2.134 -1.0834 -0.9199 -0.3808
 7931TIP3   OH223756   0.815   3.404   3.145 -0.0954  0.1824 -0.5062
 7931TIP3    H123757   0.859   3.390   3.229 -0.3457 -0.0122 -0.4060
 7931TIP3    H223758   0.769   3.322   3.128 -1.2849  0.7376 -0.0896
 7932TIP3   OH223759   5.411   5.124   4.365 -0.3080 -0.0992  0.2848
 7932TIP3    H123760   5.432   5.078   4.446  0.5375  0.0003  0.1281
 7932TIP3    H223761   5.405   5.216   4.391  0.9439  0.0640  0.0806
 7933TIP3   OH223762   0.717   1.039   0.528  1.0920 -0.6760  0.6217
 7933TIP3    H123763   0.652   0.993   0.582  1.3915 -0.3446  1.2798
 7933TIP3    H223764   0.738   1.118   0.579  1.0721 -0.1376 -0.1769
 7934TIP3   OH223765   5.346   0.252   5.146  0.2298 -0.0520 -0.2547
 7934TIP3    H123766   5.430   0.294   5.166  0.0199 -0.1529  0.8941
 7934TIP3    H223767   5.370   0.168   5.107  0.6570  0.1535 -0.4421
 7935TIP3   OH223768   5.237   5.891   0.904 -0.3615 -0.2943  0.0529
 7935TIP3    H123769   5.255   5.829   0.833 -1.9190 -1.1556  0.3731
 7935TIP3    H223770   5.259   5.844   0.984  0.1656  0.2232  0.2195
 7936TIP3   OH223771   5.249   5.146   2.726 -0.2493  0.2118 -0.0669
 7936TIP3    H123772   5.219   5.055   2.724 -0.4309  0.2700 -1.7725
 7936TIP3    H223773   5.217   5.184   2.644  3.4947  0.5795 -1.5827
 7937TIP3   OH223774   4.577   2.890   3.899 -0.4129 -0.0873  0.4160
 7937TIP3    H123775   4.563   2.844   3.816 -4.0995  0.2255  0.6876
 7937TIP3    H223776   4.638   2.960   3.877 -0.2960 -0.7706 -1.7137
 7938TIP3   OH223777   2.593   2.977   4.801 -0.0007  0.2003 -0.1869
 7938TIP3    H123778   2.503   2.993   4.774 -0.2982 -1.1391 -0.0577
 7938TIP3    H223779   2.605   2.883   4.790  1.2572  0.2947  0.1985
 7939TIP3   OH223780   5.106   0.329   5.682  0.5423  0.0229 -0.3842
 7939TIP3    H123781   5.147   0.242   5.677  1.3248  0.4316 -1.5548
 7939TIP3    H223782   5.150   0.372   5.755  0.7492 -0.2598 -0.3381
 7940TIP3   OH223783   2.793   4.993   3.213  0.1582  0.4192 -0.1432
 7940TIP3    H123784   2.748   4.921   3.168 -0.5832  0.3273  0.7268
 7940TIP3    H223785   2.841   5.038   3.143 -1.1634  0.4202 -1.0935
 7941TIP3   OH223786   4.388   5.985   4.858  0.0824  0.1396  0.1446
 7941TIP3    H123787   4.384   6.077   4.830  0.5818  0.5070  1.2502
 7941TIP3    H223788   4.471   5.953   4.823  1.4740  1.0472  2.4376
 7942TIP3   OH223789   2.348   2.022   4.121  0.3216 -0.5363 -0.3496
 7942TIP3    H123790   2.427   2.066   4.152  0.2754 -0.3737 -0.4570
 7942TIP3    H223791   2.282   2.091   4.121  0.3460 -0.5074 -0.9118
 7943TIP3   OH223792   2.467   5.026   0.502 -0.8902  0.4925  0.3117
 7943TIP3    H123793   2.481   4.974   0.581 -0.9237 -0.1767 -0.1158
 7943TIP3    H223794   2.414   5.100   0.532 -0.9504  0.2197  0.9043
 7944TIP3   OH223795   6.141   4.312   2.015 -0.1636  0.2381 -0.0018
 7944TIP3    H123796   6.110   4.295   2.104 -0.2728 -1.6156 -0.3646
 7944TIP3    H223797   6.224   4.267   2.009 -0.2041  0.2639 -0.8767
 7945TIP3   OH223798   4.025   4.563   0.215 -0.0678  0.1646 -0.0869
 7945TIP3    H123799   3.976   4.589   0.137 -1.0607  0.0454  0.4769
 7945TIP3    H223800   4.018   4.467   0.216  0.3900  0.1285 -0.1284
 7946TIP3   OH223801   2.497   2.169   2.369 -0.3958 -0.3309  0.4869
 7946TIP3    H123802   2.555   2.093   2.363 -1.5176 -1.4748  2.5873
 7946TIP3    H223803   2.536   2.223   2.437  0.9094  1.5748 -1.6331
 7947TIP3   OH223804   2.130   0.232   4.427  0.4788 -0.3194 -0.2248
 7947TIP3    H123805   2.108   0.298   4.493  0.5128 -0.2845 -0.2484
 7947TIP3    H223806   2.109   0.148   4.469  2.0510 -0.4071  0.4574
 7948TIP3   OH223807   0.458   1.333   5.471  0.0578 -0.0170  0.2316
 7948TIP3    H123808   0.501   1.359   5.553 -1.2486 -0.5800  1.1286
 7948TIP3    H223809   0.465   1.237   5.471  1.9495  0.0559 -1.4205
 7949TIP3   OH223810   4.984   4.134   2.045 -0.2155 -0.0283  0.1856
 7949TIP3    H123811   4.973   4.098   2.133  0.3042  0.4492  0.4513
 7949TIP3    H223812   4.906   4.187   2.030 -0.5700 -0.5512  0.1343
 7950TIP3   OH223813   2.033   5.790   4.859  0.0522 -0.3857 -0.1448
 7950TIP3    H123814   2.076   5.767   4.941 -1.5327 -3.0358  0.0616
 7950TIP3    H223815   1.958   5.843   4.885  0.8861  0.8492 -0.1588
 7951TIP3   OH223816   0.220   5.917   5.082 -0.0086 -0.3719 -0.0605
 7951TIP3    H123817   0.131   5.907   5.049 -0.5147 -1.0137  1.4352
 7951TIP3    H223818   0.273   5.933   5.003 -1.6863  2.1300 -0.8099
 7952TIP3   OH223819   4.563   0.347   5.833  0.7668 -0.3587  0.2052
 7952TIP3    H123820   4.560   0.442   5.835 -1.0788 -0.4074  0.9595
 7952TIP3    H223821   4.561   0.325   5.740  3.1139  0.3115 -0.0931
 7953TIP3   OH223822   6.445   0.095   0.132  0.0064 -0.6338  0.2443
 7953TIP3    H123823   6.517   0.122   0.189  0.3616 -0.8966 -0.0772
 7953TIP3    H223824   6.368   0.141   0.167  1.1465  4.2154 -2.5798
 7954TIP3   OH223825   4.622   4.768   0.524 -0.0354  0.4333  0.0885
 7954TIP3    H123826   4.689   4.829   0.494  0.6623 -0.5629 -0.4226
 7954TIP3    H223827   4.666   4.716   0.592  0.6861 -2.1756 -2.2177
 7955TIP3   OH223828   6.288   4.426   1.019  0.7679  0.4600 -0.1598
 7955TIP3    H123829   6.244   4.508   1.001  1.6283  0.6727 -1.4987
 7955TIP3    H223830   6.307   4.428   1.113  0.7791  1.7864 -0.1772
 7956TIP3   OH223831   0.905   5.530   5.142  0.5817 -0.0554 -0.6335
 7956TIP3    H123832   0.971   5.487   5.087 -0.3709 -0.4840 -1.4711
 7956TIP3    H223833   0.869   5.460   5.196 -2.0794 -0.7629 -3.0938
 7957TIP3   OH223834   6.035   1.633   1.827  0.8687  0.1143 -0.3726
 7957TIP3    H123835   6.000   1.637   1.916  1.1275 -1.3425 -0.1754
 7957TIP3    H223836   5.981   1.694   1.778  1.2775  1.6108  0.9489
 7958TIP3   OH223837   2.192   4.574   3.366  0.0261  0.6282  0.0517
 7958TIP3    H123838   2.136   4.614   3.300 -0.0157 -0.0413 -0.3325
 7958TIP3    H223839   2.281   4.586   3.333  0.0353  0.7198  0.1110
 7959TIP3   OH223840   1.287   5.977   2.206  0.1125 -0.1788 -0.1010
 7959TIP3    H123841   1.360   5.928   2.243 -0.6544 -0.4791  1.0724
 7959TIP3    H223842   1.299   5.971   2.111 -0.0804 -2.8158 -0.0159
 7960TIP3   OH223843   0.919   0.061   4.990  0.0081 -0.0928  0.0403
 7960TIP3    H123844   0.930   0.082   4.897  0.7995  0.5024  0.2562
 7960TIP3    H223845   0.868   0.134   5.025  0.4842  0.1495  0.2462
 7961TIP3   OH223846   3.403   6.454   0.456  0.6177  0.6567 -0.0671
 7961TIP3    H123847   3.319   6.489   0.425  0.3040  0.0497  0.0833
 7961TIP3    H223848   3.448   6.530   0.493 -1.2377  0.4924  2.9266
 7962TIP3   OH223849   2.416   3.737   5.886  0.5088  0.1426 -0.4668
 7962TIP3    H123850   2.494   3.719   5.834  0.3108  3.0104 -1.9664
 7962TIP3    H223851   2.355   3.668   5.862  1.9627 -1.1640 -0.5749
 7963TIP3   OH223852   3.154   0.854   3.202  0.1056  0.0368 -0.0396
 7963TIP3    H123853   3.208   0.933   3.209  0.5055 -0.2502  0.1789
 7963TIP3    H223854   3.070   0.885   3.170 -0.0047  0.6661  0.8237
 7964TIP3   OH223855   2.752   1.109   2.742  0.3275 -0.4318  0.1124
 7964TIP3    H123856   2.715   1.177   2.798  0.6556  1.4890 -1.8687
 7964TIP3    H223857   2.837   1.090   2.781 -0.6063 -1.2863  1.8633
 7965TIP3   OH223858   5.397   3.059   3.271  0.4328 -0.3107  0.0648
 7965TIP3    H123859   5.438   3.069   3.357 -0.8982 -1.5941  0.8885
 7965TIP3    H223860   5.328   2.994   3.284 -0.0362 -0.2777 -1.9040
 7966TIP3   OH223861   7.117   1.991   3.065  0.0489 -0.4648  0.6463
 7966TIP3    H123862   7.176   1.964   2.995  1.1975 -0.5305  1.6118
 7966TIP3    H223863   7.030   1.962   3.037  0.0522  1.5868 -1.8768
 7967TIP3   OH223864   1.339   3.413   4.408  0.3523  0.1553 -0.5028
 7967TIP3    H123865   1.273   3.451   4.465  0.5873 -0.7194  0.3694
 7967TIP3    H223866   1.348   3.323   4.437 -0.6937 -0.8461 -2.9847
 7968TIP3   OH223867   4.139   5.841   1.947 -0.5074 -0.2429  0.3227
 7968TIP3    H123868   4.215   5.881   1.989 -0.9435 -0.1408  1.0268
 7968TIP3    H223869   4.064   5.885   1.987 -0.9720 -1.1866  0.5073
 7969TIP3   OH223870   5.990   6.050   0.053  0.1787 -0.1207 -0.0635
 7969TIP3    H123871   5.992   6.077  -0.039 -1.2747 -0.3375 -0.1863
 7969TIP3    H223872   5.999   6.131   0.103 -2.9384  0.5883 -0.4253
 7970TIP3   OH223873   1.196   3.054   2.339  0.4367  0.2334  0.8302
 7970TIP3    H123874   1.120   3.034   2.284 -0.1225  1.8622  0.9641
 7970TIP3    H223875   1.228   3.138   2.306  1.8354 -0.1397  1.1747
 7971TIP3   OH223876   4.365   5.617   2.506  0.1052 -0.2944  0.2927
 7971TIP3    H123877   4.350   5.663   2.423  0.4177  0.3174  0.5607
 7971TIP3    H223878   4.424   5.545   2.484  1.3478  0.7143  0.2098
 7972TIP3   OH223879   5.730   1.165   2.632  0.5028 -0.0414  0.2079
 7972TIP3    H123880   5.764   1.215   2.706  0.0204  0.1939  0.2728
 7972TIP3    H223881   5.790   1.091   2.623  2.2488  1.4360 -0.9707
 7973TIP3   OH223882   2.888   0.303   3.056  0.1883 -0.0948  0.1420
 7973TIP3    H123883   2.916   0.216   3.029 -1.9852 -0.7415 -0.2932
 7973TIP3    H223884   2.834   0.334   2.983 -1.7377  0.2125  1.6064
 7974TIP3   OH223885   2.685   6.247   3.993  0.1549 -0.2127  0.0291
 7974TIP3    H123886   2.628   6.226   3.918  1.0819 -2.1167 -0.1873
 7974TIP3    H223887   2.734   6.324   3.964  0.7626 -1.1337 -1.5038
 7975TIP3   OH223888   0.412   4.795   3.664 -0.0855 -0.1933  0.7301
 7975TIP3    H123889   0.383   4.778   3.575 -0.9997 -0.5594  1.0796
 7975TIP3    H223890   0.469   4.871   3.658  2.5661 -2.1143 -0.6429
 7976TIP3   OH223891   3.706   4.548   1.941 -0.3260 -0.0688 -0.3504
 7976TIP3    H123892   3.635   4.508   1.891 -0.7144  1.2248 -0.8972
 7976TIP3    H223893   3.785   4.502   1.913 -0.6079  0.2546 -1.7802
 7977TIP3   OH223894   2.849   0.712   5.100 -0.1323  0.2777 -0.0254
 7977TIP3    H123895   2.768   0.753   5.131 -1.5383 -2.2806 -0.0252
 7977TIP3    H223896   2.860   0.746   5.011 -2.5890 -1.0354 -0.9402
 7978TIP3   OH223897   1.572   1.475   3.658  0.4245 -0.3262  0.5873
 7978TIP3    H123898   1.502   1.447   3.717  0.9230  0.7781  1.7496
 7978TIP3    H223899   1.613   1.548   3.703  0.1805  1.2511 -1.5906
 7979TIP3   OH223900   6.516   4.039   5.664 -0.2000 -0.1322  0.0170
 7979TIP3    H123901   6.594   3.983   5.673 -0.3985 -0.3390  0.4543
 7979TIP3    H223902   6.544   4.110   5.605  0.5544  0.2170  0.7796
 7980TIP3   OH223903   5.204   0.809   2.752 -0.0357  0.6506  0.1787
 7980TIP3    H123904   5.289   0.828   2.791  0.0864  0.6671 -0.0914
 7980TIP3    H223905   5.156   0.892   2.758  0.7969  1.3240 -1.7661
 7981TIP3   OH223906   4.560   3.592   1.056  0.0853  0.7260  0.1452
 7981TIP3    H123907   4.598   3.672   1.091  0.2069  0.5607  0.3944
 7981TIP3    H223908   4.633   3.548   1.013  0.0168  0.7541 -0.0001
 7982TIP3   OH223909   3.114   4.394   2.356  0.5522 -0.1778  0.5723
 7982TIP3    H123910   3.167   4.435   2.288 -0.5973 -0.2457 -0.3904
 7982TIP3    H223911   3.161   4.314   2.379  1.4063  0.2958  0.5185
 7983TIP3   OH223912   2.328   0.408   4.650 -0.4103 -0.0114 -0.0182
 7983TIP3    H123913   2.399   0.344   4.642 -0.3168  0.2589 -2.1630
 7983TIP3    H223914   2.367   0.482   4.697  0.5277 -0.1658 -0.5203
 7984TIP3   OH223915   4.343   4.531   2.930 -0.1594 -0.6095  0.0031
 7984TIP3    H123916   4.274   4.569   2.984 -0.1970  0.7129 -0.9215
 7984TIP3    H223917   4.424   4.549   2.978 -0.3147 -0.6066  0.2611
 7985TIP3   OH223918   6.255   3.041   1.436 -0.3725  0.2869  0.0585
 7985TIP3    H123919   6.240   3.001   1.522  1.0966 -1.3891 -0.4055
 7985TIP3    H223920   6.324   3.106   1.452  1.7805 -1.7801 -0.1882
 7986TIP3   OH223921   3.724   6.394   2.968  0.1679  0.0129  0.1707
 7986TIP3    H123922   3.795   6.337   2.998  0.6937  0.1599 -0.7752
 7986TIP3    H223923   3.678   6.343   2.903  0.1621  0.3729 -0.1106
 7987TIP3   OH223924   0.606   3.647   5.829 -0.5761  0.2362 -0.3281
 7987TIP3    H123925   0.678   3.585   5.844 -0.4881  0.2011 -0.8834
 7987TIP3    H223926   0.530   3.606   5.871 -0.1041  0.6708  1.0195
 7988TIP3   OH223927   5.406   4.628   0.110 -0.3039  0.5692  0.3591
 7988TIP3    H123928   5.346   4.617   0.184 -0.1397  1.6900  0.6834
 7988TIP3    H223929   5.401   4.721   0.089  1.0711  0.6249  0.1756
 7989TIP3   OH223930   7.078   6.171   2.350  0.1840 -0.9305 -0.0194
 7989TIP3    H123931   7.003   6.157   2.293 -0.6535 -1.1276  1.0836
 7989TIP3    H223932   7.134   6.094   2.337 -1.1342 -2.1267  1.0968
 7990TIP3   OH223933   1.104   0.736   2.512  0.4665 -0.2377 -0.2293
 7990TIP3    H123934   1.099   0.784   2.429 -0.5626 -1.0832 -0.6820
 7990TIP3    H223935   1.159   0.660   2.492  0.5196 -0.2504 -0.0354
 7991TIP3   OH223936   0.437   0.083   1.911  0.3915 -0.2137 -0.4026
 7991TIP3    H123937   0.488   0.094   1.991  0.0558 -0.8987 -0.0882
 7991TIP3    H223938   0.346   0.087   1.939  0.2687 -0.1620 -0.7948
 7992TIP3   OH223939   2.971   1.786   4.230 -0.4538  0.2447 -0.6812
 7992TIP3    H123940   2.976   1.852   4.299 -1.2692 -1.0672  0.6830
 7992TIP3    H223941   3.060   1.782   4.195 -0.0576  1.0497  0.1781
 7993TIP3   OH223942   1.316   3.688   3.093  0.0127 -0.1619 -0.1914
 7993TIP3    H123943   1.337   3.763   3.148 -1.6025  0.0099  0.2411
 7993TIP3    H223944   1.351   3.710   3.007 -1.1661  1.4990 -0.2852
 7994TIP3   OH223945   5.864   5.004   5.285 -0.1387  0.1088 -0.4857
 7994TIP3    H123946   5.812   4.926   5.308  1.2132 -0.7956 -0.3853
 7994TIP3    H223947   5.806   5.077   5.305 -0.8395 -0.8060  1.1004
 7995TIP3   OH223948   4.052   1.161   2.080 -0.4001  0.1132  0.5054
 7995TIP3    H123949   4.128   1.108   2.054 -0.1732 -0.1617  1.6746
 7995TIP3    H223950   3.980   1.126   2.028 -0.4391 -1.9487  1.8336
 7996TIP3   OH223951   2.203   1.667   1.822  0.2777 -0.3860 -0.8713
 7996TIP3    H123952   2.253   1.596   1.781  0.8083 -0.7871  0.4123
 7996TIP3    H223953   2.130   1.624   1.864  1.7519 -0.5179  1.7448
 7997TIP3   OH223954   6.326   1.477   5.724  0.4203  0.4968  0.4890
 7997TIP3    H123955   6.319   1.497   5.817  0.9457  0.4591  0.5434
 7997TIP3    H223956   6.354   1.559   5.684  0.8533  0.3379  0.4633
 7998TIP3   OH223957   7.092   0.948   1.705 -0.1212  0.2046 -0.0414
 7998TIP3    H123958   7.092   1.043   1.692 -0.5968  0.2793  0.4576
 7998TIP3    H223959   7.182   0.927   1.728  0.7231  0.1097 -2.9538
 7999TIP3   OH223960   3.319   4.129   2.724 -0.6355  0.4731 -0.5773
 7999TIP3    H123961   3.370   4.057   2.761  1.8724  1.3724 -2.0620
 7999TIP3    H223962   3.228   4.100   2.732 -0.0248 -0.9622  2.7201
 8000TIP3   OH223963   1.061   2.931   0.211 -0.1452 -0.4133  0.0171
 8000TIP3    H123964   1.156   2.923   0.218 -0.1268 -0.4115 -0.2078
 8000TIP3    H223965   1.043   3.022   0.232 -0.2935 -0.8513  1.9653
 8001TIP3   OH223966   6.452   0.691   5.704 -0.1304  0.1555 -0.4892
 8001TIP3    H123967   6.364   0.660   5.726 -0.2325  1.1169  0.5870
 8001TIP3    H223968   6.464   0.769   5.759  0.8137  0.9185 -1.7078
 8002TIP3   OH223969   4.448   0.138   2.698 -0.2655 -0.0399 -0.4182
 8002TIP3    H123970   4.367   0.089   2.713 -0.4676  0.6808  0.9836
 8002TIP3    H223971   4.433   0.183   2.615 -1.5072  0.4547  0.0517
 8003TIP3   OH223972   2.161   3.369   2.067  0.1986  0.3588  0.4814
 8003TIP3    H123973   2.150   3.275   2.056  1.0201  0.1037  1.6433
 8003TIP3    H223974   2.074   3.401   2.089 -0.1723 -0.0532 -0.3439
 8004TIP3   OH223975   6.182   6.288   4.355  0.2553 -0.1084  0.4523
 8004TIP3    H123976   6.178   6.362   4.295  1.8484 -0.8480 -0.6541
 8004TIP3    H223977   6.275   6.279   4.376 -0.1767 -0.3433  2.4801
 8005TIP3   OH223978   3.242   1.051   1.911  0.1783  0.7125 -0.1976
 8005TIP3    H123979   3.286   0.990   1.852 -1.1038 -1.0081  0.5485
 8005TIP3    H223980   3.180   1.098   1.856 -0.9727 -0.8398 -0.2763
 8006TIP3   OH223981   2.296   0.655   5.404 -0.1626  0.5457 -0.4156
 8006TIP3    H123982   2.274   0.713   5.331 -0.0207  1.0254 -0.0868
 8006TIP3    H223983   2.220   0.661   5.462 -0.8076 -0.7710 -1.0784
 8007TIP3   OH223984   6.484   4.574   0.770  0.1126 -0.4466 -0.0003
 8007TIP3    H123985   6.544   4.509   0.807 -0.2736 -0.1191  1.2279
 8007TIP3    H223986   6.473   4.547   0.678 -0.2006 -2.2492  0.5301
 8008TIP3   OH223987   6.849   4.662   5.770 -0.9239 -0.1554  0.2583
 8008TIP3    H123988   6.873   4.676   5.861 -0.7328  2.9114 -0.1513
 8008TIP3    H223989   6.805   4.577   5.769  2.8769 -2.3855  2.3935
 8009TIP3   OH223990   4.448   4.735   4.808  0.6221  0.9163  0.6169
 8009TIP3    H123991   4.384   4.764   4.743  0.3808  0.0706  0.4585
 8009TIP3    H223992   4.422   4.778   4.889 -0.4435  0.2219  0.6590
 8010TIP3   OH223993   5.146   0.690   0.137 -0.3186  0.5648  0.1317
 8010TIP3    H123994   5.235   0.710   0.107  0.1471 -0.5391  0.6974
 8010TIP3    H223995   5.089   0.724   0.068  0.5843  0.5495 -0.6460
 8011TIP3   OH223996   2.062   4.655   1.305  0.2623 -0.2726  0.3359
 8011TIP3    H123997   2.001   4.712   1.351  0.8895 -1.1188  2.3106
 8011TIP3    H223998   2.134   4.713   1.280 -0.1499  0.2296  0.2983
 8012TIP3   OH223999   6.330   4.557   0.159  0.5468 -0.5532 -0.0968
 8012TIP3    H124000   6.317   4.559   0.254  0.8544 -0.2633 -0.0577
 8012TIP3    H224001   6.406   4.500   0.147  1.1896  0.2778 -0.0816
 8013TIP3   OH224002   5.773   0.451   2.539 -0.2252  0.8040 -0.3553
 8013TIP3    H124003   5.761   0.399   2.460  0.5891  0.6152 -0.3646
 8013TIP3    H224004   5.801   0.537   2.508  1.4829  0.3180 -0.2449
 8014TIP3   OH224005   2.788   1.284   2.137 -0.0313  0.0048 -0.0656
 8014TIP3    H124006   2.727   1.326   2.198 -1.7127 -1.2542 -0.8009
 8014TIP3    H224007   2.873   1.289   2.181 -0.5853  1.9950  0.9124
 8015TIP3   OH224008   2.743   6.598   3.011 -0.0464  0.4772  0.0625
 8015TIP3    H124009   2.671   6.595   2.948 -0.9963  1.1947  1.0789
 8015TIP3    H224010   2.763   6.691   3.021 -0.1570  0.4026  1.0716
 8016TIP3   OH224011   5.987   4.736   1.984  0.0633  0.5094 -0.0049
 8016TIP3    H124012   5.924   4.665   1.997 -0.9759  1.1474 -1.3080
 8016TIP3    H224013   6.070   4.691   1.964 -0.7284 -0.3652 -1.4889
 8017TIP3   OH224014   0.512   3.040   2.493  0.2190  0.0059 -1.3240
 8017TIP3    H124015   0.464   2.958   2.480 -1.3676  0.4179  1.1123
 8017TIP3    H224016   0.443   3.106   2.504  1.3724  1.0353  0.1207
 8018TIP3   OH224017   0.529   2.258   5.817  0.0256  0.6809  0.3413
 8018TIP3    H124018   0.443   2.298   5.806 -0.5590 -0.8476 -1.0702
 8018TIP3    H224019   0.563   2.250   5.727  1.4291  0.7859  0.8354
 8019TIP3   OH224020   0.165   1.027   1.101 -0.0194  0.2991  0.2136
 8019TIP3    H124021   0.155   1.121   1.092 -0.1777  0.3711  1.0500
 8019TIP3    H224022   0.085   0.998   1.145  0.1723 -0.1743  0.2659
 8020TIP3   OH224023   5.861   5.031   4.325  0.7364  0.6396 -0.3215
 8020TIP3    H124024   5.874   5.116   4.368  0.0935  0.8227 -0.4718
 8020TIP3    H224025   5.772   5.005   4.350  1.2293 -0.3904  0.3988
 8021TIP3   OH224026   6.551   4.409   4.053 -0.1882 -0.2116  0.3020
 8021TIP3    H124027   6.597   4.327   4.033 -0.5272 -0.5999  1.0638
 8021TIP3    H224028   6.582   4.432   4.141 -0.9667 -0.1466  0.5650
 8022TIP3   OH224029   6.481   6.094   2.756  0.0177 -0.3597 -0.4014
 8022TIP3    H124030   6.446   6.006   2.738  1.7087 -0.8784 -1.3604
 8022TIP3    H224031   6.481   6.138   2.671 -2.0081  1.0764  0.2762
 8023TIP3   OH224032   1.390   3.456   2.853  0.4401 -0.6848 -0.1592
 8023TIP3    H124033   1.384   3.428   2.944 -0.2330 -3.2775 -0.9253
 8023TIP3    H224034   1.304   3.437   2.816  0.9239 -0.3570 -1.5374
 8024TIP3   OH224035   6.680   5.378   3.757 -0.1116  0.1942 -0.4164
 8024TIP3    H124036   6.684   5.341   3.669  1.0120  0.1007 -0.3359
 8024TIP3    H224037   6.753   5.439   3.761  1.6377 -1.8209  1.3321
 8025TIP3   OH224038   1.253   6.707   4.434 -0.2907 -0.0754  0.8341
 8025TIP3    H124039   1.285   6.617   4.426  1.0935  0.3319  1.3718
 8025TIP3    H224040   1.193   6.704   4.509  0.9875 -0.2716  1.8989
 8026TIP3   OH224041   4.710   4.198   2.033 -0.0463 -0.0962 -0.0216
 8026TIP3    H124042   4.640   4.133   2.045  0.4703 -0.6922 -0.1405
 8026TIP3    H224043   4.729   4.230   2.121 -0.3888 -0.0143  0.0239
 8027TIP3   OH224044   3.420   6.091   3.056 -0.0488 -0.5063 -0.3060
 8027TIP3    H124045   3.399   6.131   3.141 -0.8617 -1.8344  0.1472
 8027TIP3    H224046   3.484   6.024   3.077 -0.0163 -0.6325 -0.8018
 8028TIP3   OH224047   6.110   4.169   3.985  0.1043  0.4157 -0.3146
 8028TIP3    H124048   6.182   4.182   4.047 -0.3266  1.3425  0.0130
 8028TIP3    H224049   6.153   4.157   3.901  0.6868 -0.4357  0.0896
 8029TIP3   OH224050   6.503   0.687   3.364  0.4586  0.1515  0.4416
 8029TIP3    H124051   6.502   0.749   3.290  0.3508 -1.6360 -1.1402
 8029TIP3    H224052   6.533   0.740   3.438 -0.1920  2.2301 -0.6762
 8030TIP3   OH224053   2.578   0.117   0.251  0.2582  0.2651 -0.0854
 8030TIP3    H124054   2.589   0.070   0.334 -2.8094 -1.1325 -0.3254
 8030TIP3    H224055   2.570   0.047   0.185 -4.8456  0.7841 -0.4248
 8031TIP3   OH224056   2.768   4.099   2.109 -0.5085 -0.0758  0.0484
 8031TIP3    H124057   2.722   4.175   2.073 -2.5742 -2.5930 -3.2847
 8031TIP3    H224058   2.715   4.072   2.184 -0.1931  1.2562  0.7817
 8032TIP3   OH224059   6.516   1.386   2.294  0.5141  0.2224 -0.0444
 8032TIP3    H124060   6.534   1.389   2.200  2.1683 -0.1618  0.2157
 8032TIP3    H224061   6.596   1.422   2.334  0.0413 -0.0962  1.2235
 8033TIP3   OH224062   7.157   1.187   2.698  0.4930 -0.3522  0.4701
 8033TIP3    H124063   7.208   1.216   2.773 -0.3077 -1.2754  1.3989
 8033TIP3    H224064   7.120   1.268   2.661 -0.4931 -0.0088  2.1171
 8034TIP3   OH224065   2.894   5.738   4.241 -0.4448  0.3041  0.2678
 8034TIP3    H124066   2.912   5.731   4.147 -0.3382 -0.3781  0.3358
 8034TIP3    H224067   2.935   5.821   4.266  0.9989 -0.3135  0.0351
 8035TIP3   OH224068   2.359   3.034   2.061  0.5808 -0.1491 -0.2614
 8035TIP3    H124069   2.389   3.041   2.152  0.8378 -2.6673 -0.0726
 8035TIP3    H224070   2.439   3.013   2.011 -0.0916 -2.6070 -0.4204
 8036TIP3   OH224071   5.581   5.780   1.076 -0.2953 -0.4173  0.0839
 8036TIP3    H124072   5.577   5.805   0.983 -1.1628 -1.4741 -0.1841
 8036TIP3    H224073   5.577   5.863   1.123  0.1028  0.1308 -0.8216
 8037TIP3   OH224074   4.354   3.428   3.652  0.0936 -0.1229  0.1476
 8037TIP3    H124075   4.320   3.451   3.566 -0.0628  0.7272  0.4290
 8037TIP3    H224076   4.391   3.510   3.686 -0.7987 -0.1875  1.3268
 8038TIP3   OH224077   5.682   0.033   2.382  0.1754 -0.0470  0.0404
 8038TIP3    H124078   5.764   0.006   2.425 -0.0933  0.1042  0.6584
 8038TIP3    H224079   5.679   0.128   2.394 -0.1103 -0.0572  0.0571
 8039TIP3   OH224080   0.023   2.581   0.244  0.3298  0.5606  0.0141
 8039TIP3    H124081   0.065   2.495   0.252 -1.7369 -0.4798  0.3390
 8039TIP3    H224082  -0.020   2.596   0.328 -0.5622  1.2094 -0.5290
 8040TIP3   OH224083   1.179   5.399   0.017 -0.7650  0.0292  0.0749
 8040TIP3    H124084   1.167   5.359   0.103  0.8988  2.5280  1.6094
 8040TIP3    H224085   1.107   5.462   0.010  1.5294  3.1220  1.8546
 8041TIP3   OH224086   4.428   0.537   2.609 -0.0766  0.6618  0.2729
 8041TIP3    H124087   4.392   0.625   2.614  0.8594  1.0798 -0.0821
 8041TIP3    H224088   4.466   0.531   2.522 -0.6488 -0.3127  0.0680
 8042TIP3   OH224089   0.361   4.448   4.614 -0.2685  0.5408 -0.0756
 8042TIP3    H124090   0.455   4.461   4.629 -0.2880  0.7573 -0.1388
 8042TIP3    H224091   0.357   4.380   4.547 -0.1892 -1.0562  1.4575
 8043TIP3   OH224092   4.603   0.235   5.564 -0.7785  0.1684 -0.6492
 8043TIP3    H124093   4.698   0.227   5.564 -0.7633 -1.5316  2.6715
 8043TIP3    H224094   4.574   0.177   5.494  0.6244 -0.6383 -0.5985
 8044TIP3   OH224095   0.598   4.323   0.397 -0.2702 -0.6953  0.1509
 8044TIP3    H124096   0.656   4.316   0.473  0.2171  0.9492 -0.0211
 8044TIP3    H224097   0.511   4.306   0.431 -0.1493  0.6659  1.2562
 8045TIP3   OH224098   2.729   2.571   3.591 -0.1299  0.2341  0.0738
 8045TIP3    H124099   2.789   2.577   3.665 -1.4923 -1.1451  1.3654
 8045TIP3    H224100   2.671   2.646   3.602  1.0757  1.3541 -0.9619
 8046TIP3   OH224101   7.076   0.127   1.409 -0.0731  0.1190  0.2846
 8046TIP3    H124102   7.121   0.113   1.326  1.3729  1.2635  0.8347
 8046TIP3    H224103   7.078   0.042   1.453 -3.0034 -1.1860 -1.7757
 8047TIP3   OH224104   1.512   2.551   1.916 -0.6938 -0.3733  0.2631
 8047TIP3    H124105   1.434   2.605   1.903 -1.1378 -1.1303 -0.2727
 8047TIP3    H224106   1.504   2.518   2.006 -1.0261 -0.5031  0.1864
 8048TIP3   OH224107   5.642   4.927   0.104 -0.0892 -0.2125 -0.6385
 8048TIP3    H124108   5.662   4.861   0.170  0.6087  0.8839  0.2781
 8048TIP3    H224109   5.724   4.976   0.093 -0.5326  0.3753 -1.4501
 8049TIP3   OH224110   4.925   5.216   4.875  0.2055 -0.2512  0.4367
 8049TIP3    H124111   4.915   5.203   4.780 -1.9246 -0.0651  0.5742
 8049TIP3    H224112   4.843   5.183   4.912  2.0287 -2.8226  2.5304
 8050TIP3   OH224113   0.520   4.425   5.013 -0.0594  0.0505 -0.5573
 8050TIP3    H124114   0.505   4.518   5.029  0.4336 -0.2196  1.7203
 8050TIP3    H224115   0.447   4.399   4.957 -2.9821  0.8181  2.5755
 8051TIP3   OH224116   6.257   4.161   1.021  0.4753 -0.0529 -0.3429
 8051TIP3    H124117   6.302   4.181   0.938 -1.3258 -0.3057 -1.4416
 8051TIP3    H224118   6.233   4.247   1.056  0.2444  0.0209 -0.6750
 8052TIP3   OH224119   2.896   5.825   0.677  0.4087  0.4675 -0.2339
 8052TIP3    H124120   2.836   5.757   0.708  0.3974  0.9891  0.9177
 8052TIP3    H224121   2.983   5.788   0.692  0.3981  0.3674 -0.4097
 8053TIP3   OH224122   6.604   4.670   2.748  0.0418  0.7499 -0.4699
 8053TIP3    H124123   6.550   4.616   2.689  1.4675 -0.1984 -0.9601
 8053TIP3    H224124   6.661   4.720   2.689 -0.9726  2.5559 -0.0016
 8054TIP3   OH224125   0.740   0.062   3.828  0.0798  0.5741  0.0726
 8054TIP3    H124126   0.704   0.011   3.900 -0.0448  0.4626 -0.0693
 8054TIP3    H224127   0.824   0.094   3.861  0.3794 -0.1112 -0.0011
 8055TIP3   OH224128   3.443   2.009   3.979 -0.4791 -0.3329  0.6946
 8055TIP3    H124129   3.484   1.953   4.045  0.5651  2.2785  2.3938
 8055TIP3    H224130   3.383   2.064   4.029  0.3873  1.7588 -0.4723
 8056TIP3   OH224131   7.046   0.069   3.533  0.1721  0.2315  0.2956
 8056TIP3    H124132   7.117   0.096   3.474 -0.0379  0.6814  0.2435
 8056TIP3    H224133   7.084  -0.000   3.587  0.7049  0.5966  0.3919
 8057TIP3   OH224134   0.016   5.702   1.510  0.1646  0.1368 -0.0194
 8057TIP3    H124135   0.109   5.688   1.490  0.0317 -2.2865  0.6870
 8057TIP3    H224136   0.012   5.698   1.606 -0.5422  1.3150  0.0123
 8058TIP3   OH224137   4.682   0.878   5.216  0.2490  0.2728  0.4114
 8058TIP3    H124138   4.772   0.870   5.247 -0.2008 -0.7157  1.5274
 8058TIP3    H224139   4.679   0.822   5.138  0.3099 -0.5954  1.0279
 8059TIP3   OH224140   6.931   5.433   4.078  0.4008  0.1479 -0.4693
 8059TIP3    H124141   6.984   5.435   4.158  1.0040  0.4082 -0.8659
 8059TIP3    H224142   6.908   5.341   4.067  0.2774  0.1164  0.0255
 8060TIP3   OH224143   2.001   2.260   4.820  0.1777  0.1226  0.1258
 8060TIP3    H124144   1.917   2.222   4.846  0.3161 -0.0068  0.3859
 8060TIP3    H224145   2.066   2.199   4.854  0.3610 -0.1081 -0.6168
 8061TIP3   OH224146   0.648   3.515   0.885  0.3450  0.3340  0.2978
 8061TIP3    H124147   0.561   3.518   0.925  0.1887 -0.4203  0.0150
 8061TIP3    H224148   0.674   3.423   0.889  0.2596  0.1926 -1.4581
 8062TIP3   OH224149   3.863   1.372   1.609 -0.1949 -0.3511  0.0432
 8062TIP3    H124150   3.915   1.402   1.684 -1.1270  1.2341  0.1020
 8062TIP3    H224151   3.927   1.361   1.538  0.5391 -0.7691  0.7553
 8063TIP3   OH224152   6.011   1.927   2.925 -0.3112 -0.5112  0.3827
 8063TIP3    H124153   6.041   1.931   2.835  0.5553  2.0874  0.7179
 8063TIP3    H224154   6.085   1.890   2.974 -0.6177 -1.4959  0.1233
 8064TIP3   OH224155   4.194   5.523   2.268  0.2330  0.4984 -0.4214
 8064TIP3    H124156   4.203   5.441   2.219  1.0372  1.1716 -1.4615
 8064TIP3    H224157   4.122   5.507   2.329 -0.8472 -0.3850 -1.8530
 8065TIP3   OH224158   0.474   1.275   0.398  0.0724 -0.3763  0.1088
 8065TIP3    H124159   0.445   1.285   0.307  0.3366 -0.6866 -0.0122
 8065TIP3    H224160   0.569   1.287   0.394 -0.1877  3.0877  0.8461
 8066TIP3   OH224161   0.145   0.025   2.741 -0.1995 -0.0766 -0.0961
 8066TIP3    H124162   0.132   0.102   2.795 -3.2292 -0.6775  0.2334
 8066TIP3    H224163   0.100   0.045   2.659 -0.5234 -1.2365 -0.2231
 8067TIP3   OH224164   1.774   4.674   2.476 -0.0625 -0.1130 -0.2850
 8067TIP3    H124165   1.814   4.610   2.417 -0.9198  0.2023 -1.2336
 8067TIP3    H224166   1.723   4.731   2.418  0.6545  1.4205  0.5345
 8068TIP3   OH224167   5.575   0.216   3.482  0.1323  0.3452  0.4717
 8068TIP3    H124168   5.637   0.279   3.517  0.4939 -0.1024  0.6476
 8068TIP3    H224169   5.625   0.134   3.476  0.2309  0.5019 -1.5206
 8069TIP3   OH224170   4.238   3.325   4.359  0.0031 -0.1975  0.2002
 8069TIP3    H124171   4.297   3.329   4.434  2.0605  0.0735 -1.3446
 8069TIP3    H224172   4.170   3.388   4.379 -0.3940 -1.2460  2.5017
 8070TIP3   OH224173   2.360   5.897   0.227  0.2003 -0.3956  0.0287
 8070TIP3    H124174   2.358   5.844   0.147 -0.4383 -1.1531  0.5289
 8070TIP3    H224175   2.398   5.980   0.199  0.9036 -0.9862 -0.8537
 8071TIP3   OH224176   4.030   4.739   5.212  0.0740  0.1873  0.2114
 8071TIP3    H124177   3.966   4.770   5.148 -0.1855 -0.0595  0.3485
 8071TIP3    H224178   4.034   4.645   5.198  3.0691  0.5387 -2.2655
 8072TIP3   OH224179   6.755   3.428   0.257 -0.3589 -0.2583 -0.2830
 8072TIP3    H124180   6.697   3.489   0.213  1.1554  0.0471 -1.9739
 8072TIP3    H224181   6.699   3.381   0.318 -1.8284  1.8273  0.0645
 8073TIP3   OH224182   6.714   3.636   4.968  0.1165 -0.4735  0.0963
 8073TIP3    H124183   6.652   3.563   4.960 -0.1463 -0.2106 -0.2836
 8073TIP3    H224184   6.768   3.630   4.889 -0.1429 -0.0430 -0.1199
 8074TIP3   OH224185   0.102   3.498   2.770  0.1397  0.0311  0.0901
 8074TIP3    H124186   0.164   3.570   2.781  2.6752 -2.2317  1.5953
 8074TIP3    H224187   0.028   3.522   2.826 -0.5743  2.8362 -1.8195
 8075TIP3   OH224188   5.465   6.351   2.381 -0.4300  0.3951  0.7143
 8075TIP3    H124189   5.388   6.334   2.435  0.3268 -0.4376  1.5688
 8075TIP3    H224190   5.512   6.421   2.427 -0.5890  0.7849  0.2858
 8076TIP3   OH224191   2.421   5.602   5.052  0.6187  0.3548  0.3852
 8076TIP3    H124192   2.508   5.561   5.049  0.0549 -0.7849 -1.9653
 8076TIP3    H224193   2.400   5.621   4.961 -1.3750  1.1629  0.9652
 8077TIP3   OH224194   4.518   1.195   1.420  0.0231 -0.1283  0.0283
 8077TIP3    H124195   4.427   1.173   1.436  0.0699 -0.1547  0.2691
 8077TIP3    H224196   4.556   1.205   1.508  0.3192 -0.3977 -0.0664
 8078TIP3   OH224197   0.469   1.819   3.077  0.2774  0.4745  0.2250
 8078TIP3    H124198   0.389   1.767   3.072  0.1795  0.7161 -1.3229
 8078TIP3    H224199   0.441   1.909   3.060  0.7365  0.7133  0.7016
 8079TIP3   OH224200   5.642   0.545   2.065  0.0422  0.1791 -0.0779
 8079TIP3    H124201   5.611   0.587   2.145  0.2337  1.4948 -0.6662
 8079TIP3    H224202   5.572   0.485   2.040  0.8982 -1.9292  2.2356
 8080TIP3   OH224203   6.114   1.281   0.201  0.6013  0.3161 -0.6251
 8080TIP3    H124204   6.155   1.330   0.272 -0.9329 -1.7127  1.8650
 8080TIP3    H224205   6.037   1.333   0.177  0.9979  0.9049 -0.6319
 8081TIP3   OH224206   3.941   2.153   0.043  0.8283 -0.0828  0.0766
 8081TIP3    H124207   3.979   2.237   0.019  0.8208 -0.3037 -0.7274
 8081TIP3    H224208   3.951   2.099  -0.035  0.0723 -0.5653  0.3068
 8082TIP3   OH224209   0.324   2.278   3.104 -0.0140  0.0337 -0.3757
 8082TIP3    H124210   0.230   2.268   3.119 -0.6951  3.2785 -1.5375
 8082TIP3    H224211   0.345   2.365   3.139  2.3603 -0.2538 -0.9074
 8083TIP3   OH224212   1.728   2.442   2.980 -0.8095  0.3275 -0.2771
 8083TIP3    H124213   1.761   2.363   3.024  3.4991  0.2909 -3.0343
 8083TIP3    H224214   1.670   2.409   2.912 -0.1769 -0.4182 -0.4773
 8084TIP3   OH224215   4.483   2.905   1.680  0.1623 -0.0633  0.3327
 8084TIP3    H124216   4.498   2.857   1.762  2.1644  2.4432  1.5784
 8084TIP3    H224217   4.413   2.967   1.701 -0.6632 -0.6885 -0.4964
 8085TIP3   OH224218   5.782   0.447   1.691  0.1030  0.3749 -0.1285
 8085TIP3    H124219   5.706   0.501   1.714 -1.1071 -1.5516  0.6916
 8085TIP3    H224220   5.851   0.476   1.750  0.1147  2.3314 -1.0549
 8086TIP3   OH224221   4.970   5.625   2.171 -0.0826  0.2525 -0.0398
 8086TIP3    H124222   4.906   5.624   2.100 -1.1941  1.4752  0.8967
 8086TIP3    H224223   4.930   5.572   2.241  0.8614 -0.6833 -0.1798
 8087TIP3   OH224224   5.196   0.441   4.669  0.4685 -0.4643 -0.6321
 8087TIP3    H124225   5.249   0.407   4.598  0.4702  0.8297 -1.2698
 8087TIP3    H224226   5.160   0.524   4.636 -0.9585 -0.6973  0.2199
 8088TIP3   OH224227   4.286   1.011   1.990 -0.0663 -0.1501  0.2516
 8088TIP3    H124228   4.344   1.087   1.989  0.1280 -0.2895 -1.1930
 8088TIP3    H224229   4.318   0.957   2.062  0.2395  0.7993  0.8362
 8089TIP3   OH224230   1.764   1.297   0.597  0.4306  0.3765  0.0178
 8089TIP3    H124231   1.739   1.359   0.529 -3.2526 -2.3454 -1.4390
 8089TIP3    H224232   1.696   1.307   0.665 -1.0422 -2.6184 -0.8187
 8090TIP3   OH224233   0.864   3.315   2.825  0.0209 -0.1433  0.0611
 8090TIP3    H124234   0.846   3.298   2.732  0.3118 -1.0183  0.1582
 8090TIP3    H224235   0.781   3.347   2.860 -0.4163 -0.9404 -0.2397
 8091TIP3   OH224236   4.483   0.780   4.572 -0.1118 -0.2431  0.0429
 8091TIP3    H124237   4.464   0.822   4.488  0.2083  1.1153  0.6165
 8091TIP3    H224238   4.397   0.770   4.613 -0.2980 -1.1658 -0.5408
 8092TIP3   OH224239   2.747   5.513   4.697 -0.5359  0.3141  0.3009
 8092TIP3    H124240   2.841   5.502   4.704 -0.5715 -0.9858 -0.9352
 8092TIP3    H224241   2.734   5.555   4.612 -1.0585  0.7417  0.5856
 8093TIP3   OH224242   2.999   4.837   2.169  0.3699 -0.2745  0.7441
 8093TIP3    H124243   2.979   4.787   2.248 -0.2920 -1.1595  0.0357
 8093TIP3    H224244   2.919   4.833   2.116  1.0589 -0.4011 -0.3374
 8094TIP3   OH224245   1.578   1.951   5.631  0.1804  0.0185 -0.1938
 8094TIP3    H124246   1.494   1.943   5.586 -0.8967  0.7065  1.5912
 8094TIP3    H224247   1.608   1.861   5.641 -0.1417 -0.2113 -1.2141
 8095TIP3   OH224248   3.995   1.951   1.113 -0.2778  0.2782  0.0966
 8095TIP3    H124249   4.002   2.047   1.114 -1.7103  0.3989  0.6751
 8095TIP3    H224250   3.953   1.929   1.196  4.2008 -1.2811  2.2889
 8096TIP3   OH224251   0.154   5.676   4.400 -0.4987  0.1639 -0.2433
 8096TIP3    H124252   0.098   5.650   4.326 -1.1740  2.2188 -0.5152
 8096TIP3    H224253   0.241   5.687   4.362  0.7322 -4.7712  0.4923
 8097TIP3   OH224254   4.646   6.395   1.022  0.1116 -0.6017  0.7648
 8097TIP3    H124255   4.729   6.357   1.051  0.6343 -1.5001 -1.6496
 8097TIP3    H224256   4.671   6.464   0.961 -0.9145  1.7771  2.8897
 8098TIP3   OH224257   3.621   5.776   4.250 -0.0335  0.0850 -0.2208
 8098TIP3    H124258   3.567   5.776   4.329 -2.0036  2.9994 -1.3953
 8098TIP3    H224259   3.688   5.843   4.268 -0.1328  0.3353 -0.7655
 8099TIP3   OH224260   2.840   0.460   0.802 -0.3941  0.2192  0.4500
 8099TIP3    H124261   2.881   0.393   0.748 -0.2758 -0.2591  1.1282
 8099TIP3    H224262   2.913   0.504   0.846 -0.2563  2.2787 -1.6078
 8100TIP3   OH224263   4.105   2.460   2.241  0.1881  0.4974  0.4288
 8100TIP3    H124264   4.041   2.500   2.182 -0.4690 -3.5313 -1.9482
 8100TIP3    H224265   4.082   2.495   2.327 -2.2058  2.7055 -0.9329
 8101TIP3   OH224266   0.859   5.363   2.412  0.0922  0.0225  0.4657
 8101TIP3    H124267   0.948   5.375   2.379 -0.1703  0.4904 -0.0988
 8101TIP3    H224268   0.805   5.417   2.354 -0.5540 -0.2325  0.8235
 8102TIP3   OH224269   6.585   1.650   1.532  0.0461 -0.6960 -0.1115
 8102TIP3    H124270   6.504   1.665   1.581 -0.3566 -0.8570 -0.7166
 8102TIP3    H224271   6.557   1.608   1.451  0.6338  0.1247 -0.7610
 8103TIP3   OH224272   6.530   3.914   2.434 -0.1849 -0.0425  0.4678
 8103TIP3    H124273   6.477   3.871   2.500  1.3831  0.4072  2.1029
 8103TIP3    H224274   6.588   3.971   2.483  0.2672  1.1965 -1.3979
 8104TIP3   OH224275   3.908   0.154   4.977  0.1537  0.6248  0.2119
 8104TIP3    H124276   3.832   0.206   5.003  0.8988  3.8643 -3.2482
 8104TIP3    H224277   3.982   0.215   4.981  2.1589 -1.7083  0.9877
 8105TIP3   OH224278   4.820   3.130   5.802 -0.3352 -0.7713 -0.2070
 8105TIP3    H124279   4.900   3.080   5.783  0.2187 -0.7459  1.8018
 8105TIP3    H224280   4.851   3.219   5.816 -0.6279 -0.8596  1.0756
 8106TIP3   OH224281   6.756   0.777   2.454  0.5530 -0.4111  0.4708
 8106TIP3    H124282   6.809   0.809   2.382 -0.7344 -0.9648 -0.7721
 8106TIP3    H224283   6.744   0.684   2.436 -0.7392 -0.3282  0.7514
 8107TIP3   OH224284   3.644   6.274   1.909  0.4170 -0.1487  0.0276
 8107TIP3    H124285   3.654   6.263   1.814 -0.1830  0.9409 -0.1838
 8107TIP3    H224286   3.656   6.368   1.923  1.4939 -0.4272  1.1737
 8108TIP3   OH224287   5.650   3.180   4.038  0.1247  0.4526  0.7669
 8108TIP3    H124288   5.597   3.119   4.090  0.9418 -1.8320 -0.9535
 8108TIP3    H224289   5.589   3.251   4.017 -0.5624  0.8799  3.7175
 8109TIP3   OH224290   6.463   3.365   1.640 -0.9369 -0.1472 -0.0618
 8109TIP3    H124291   6.381   3.413   1.637 -0.7609  0.5050  2.6216
 8109TIP3    H224292   6.489   3.368   1.732  1.2299 -1.8102 -0.5317
 8110TIP3   OH224293   5.400   4.760   0.901  0.1943  0.2857 -0.2971
 8110TIP3    H124294   5.423   4.681   0.851  0.3207  0.1043  0.0443
 8110TIP3    H224295   5.465   4.763   0.971 -1.1900 -0.6185  1.1109
 8111TIP3   OH224296   2.438   3.206   0.240 -0.2873  0.0088  0.0060
 8111TIP3    H124297   2.357   3.252   0.260  0.2101  1.0878 -0.4161
 8111TIP3    H224298   2.488   3.208   0.322  1.2140  3.3306 -0.8423
 8112TIP3   OH224299   1.119   1.392   2.025 -0.2266  0.5070 -0.1883
 8112TIP3    H124300   1.132   1.454   2.097 -0.8746  0.8282 -0.3464
 8112TIP3    H224301   1.071   1.442   1.959  1.5049  0.6465 -1.4222
 8113TIP3   OH224302   0.681   4.438   3.061 -0.0542  0.3536 -0.1801
 8113TIP3    H124303   0.714   4.523   3.090  1.4275 -1.2583  3.3640
 8113TIP3    H224304   0.591   4.435   3.094 -0.0366  0.4354 -0.1236
 8114TIP3   OH224305   1.781   1.302   2.074  0.2020 -0.3821  0.6836
 8114TIP3    H124306   1.804   1.355   2.150 -0.2413  0.2574  0.3860
 8114TIP3    H224307   1.730   1.229   2.109 -1.7475  0.9724  0.8289
 8115TIP3   OH224308   6.724   6.771   4.197  0.0453 -0.0921  0.0823
 8115TIP3    H124309   6.794   6.707   4.209  1.1804  1.2221  0.7572
 8115TIP3    H224310   6.663   6.729   4.137  1.3228 -1.3517 -0.3828
 8116TIP3   OH224311   4.012   6.285   3.409 -0.3012  0.0301 -0.3984
 8116TIP3    H124312   4.051   6.372   3.402  1.0704 -0.5879 -0.8481
 8116TIP3    H224313   3.930   6.291   3.360 -0.1602  1.0293 -0.5349
 8117TIP3   OH224314   4.442   2.118   2.049 -0.5525 -0.2516 -0.5231
 8117TIP3    H124315   4.398   2.133   2.133 -0.9694 -0.9035 -0.6194
 8117TIP3    H224316   4.525   2.164   2.057 -1.2156  0.9728 -0.3096
 8118TIP3   OH224317   3.714   5.346   4.969  0.4412  0.3956  0.1679
 8118TIP3    H124318   3.776   5.363   4.898  0.0882  3.2711  0.4187
 8118TIP3    H224319   3.758   5.283   5.025 -0.1267 -3.8189 -3.5420
 8119TIP3   OH224320   7.076   0.159   2.949  0.3831 -0.3132 -0.5186
 8119TIP3    H124321   7.152   0.207   2.983 -0.0821  0.2144 -0.2191
 8119TIP3    H224322   7.030   0.128   3.026  0.0991 -0.3282 -0.6918
 8120TIP3   OH224323   4.828   3.908   3.185 -0.4773  0.6691  0.2647
 8120TIP3    H124324   4.901   3.852   3.160 -0.3338  0.7769  0.4334
 8120TIP3    H224325   4.754   3.849   3.196 -0.9689  0.7842 -1.9836
 8121TIP3   OH224326   6.948   1.338   0.769 -0.4488  0.7887  0.3386
 8121TIP3    H124327   7.010   1.380   0.709  2.4859 -1.4111  1.5923
 8121TIP3    H224328   6.903   1.273   0.715  0.1323  0.7202 -0.0736
 8122TIP3   OH224329   6.618   6.739   2.092  0.0337  0.7062  0.1889
 8122TIP3    H124330   6.544   6.796   2.113 -1.5383 -0.5568 -1.6074
 8122TIP3    H224331   6.583   6.650   2.098  1.4933  0.0658 -0.3620
 8123TIP3   OH224332   0.067   1.320   1.074  0.5989  0.1343 -0.5941
 8123TIP3    H124333  -0.023   1.349   1.087  0.1983 -1.0469 -0.6083
 8123TIP3    H224334   0.118   1.401   1.070 -0.2928  0.7897  0.5816
 8124TIP3   OH224335   1.650   0.551   1.002  0.6227  0.0678  0.3865
 8124TIP3    H124336   1.736   0.575   0.967  0.1677 -0.2881 -1.0424
 8124TIP3    H224337   1.639   0.460   0.977 -0.6848  0.4548 -0.5757
 8125TIP3   OH224338   0.516   2.573   0.115 -0.4942  0.2655 -0.2604
 8125TIP3    H124339   0.583   2.585   0.048 -0.6304 -0.8437 -0.6068
 8125TIP3    H224340   0.461   2.650   0.108 -0.0746  0.5122 -0.9215
 8126TIP3   OH224341   4.476   0.704   3.617  0.2715 -0.5405 -0.0547
 8126TIP3    H124342   4.432   0.699   3.702  1.8247 -0.0723  0.8238
 8126TIP3    H224343   4.472   0.616   3.581 -1.0492 -0.5767  0.1588
 8127TIP3   OH224344   1.470   0.868   0.216 -0.4004 -0.5627  0.1273
 8127TIP3    H124345   1.522   0.948   0.221 -0.6456 -0.2368 -1.7565
 8127TIP3    H224346   1.534   0.797   0.209 -0.1976 -0.4005  0.3435
 8128TIP3   OH224347   7.020   0.183   4.307  0.3578 -0.1940  0.1513
 8128TIP3    H124348   6.993   0.104   4.261  1.1160  0.6086 -1.7746
 8128TIP3    H224349   6.948   0.245   4.292  0.1694 -0.2105  0.9096
 8129TIP3   OH224350   6.740   4.799   4.390 -0.4918 -0.2236 -0.1952
 8129TIP3    H124351   6.740   4.740   4.466 -0.9539  0.6667  0.5052
 8129TIP3    H224352   6.709   4.883   4.424 -1.6466 -0.0604 -1.5666
 8130TIP3   OH224353   3.421   4.961   3.640  0.6208  0.1152  0.0653
 8130TIP3    H124354   3.347   4.945   3.581  2.4121 -0.7807 -2.0926
 8130TIP3    H224355   3.479   5.018   3.590  1.3689  0.8974  1.7519
 8131TIP3   OH224356   3.579   3.164   0.323  0.0194 -0.2419  0.1304
 8131TIP3    H124357   3.556   3.101   0.255  0.1529 -0.2613  0.1040
 8131TIP3    H224358   3.635   3.116   0.383 -0.0792 -0.2180  0.2435
 8132TIP3   OH224359   0.078   1.203   0.794  0.3840  0.0745  0.2225
 8132TIP3    H124360   0.057   1.110   0.802 -1.4054  0.4222 -0.0265
 8132TIP3    H224361   0.085   1.234   0.884  0.1562 -0.1361  0.3151
 8133TIP3   OH224362   4.738   6.294   2.296 -0.1231  0.1178 -0.6719
 8133TIP3    H124363   4.678   6.260   2.230 -1.2067  0.4068  0.1458
 8133TIP3    H224364   4.769   6.216   2.343  0.8540 -0.1151 -1.6531
 8134TIP3   OH224365   0.611   3.428   3.393  0.7265  0.7178  0.3288
 8134TIP3    H124366   0.574   3.434   3.481  0.1783  0.5060  0.1163
 8134TIP3    H224367   0.692   3.377   3.404  1.1864  1.5485  0.8602
 8135TIP3   OH224368   6.449   4.056   2.681  0.2907  0.2482 -0.5112
 8135TIP3    H124369   6.448   4.015   2.768  0.3115  0.5873 -0.3494
 8135TIP3    H224370   6.542   4.065   2.660  0.3478  1.9915  0.3094
 8136TIP3   OH224371   3.877   0.116   3.648 -0.1734 -0.0153 -0.1639
 8136TIP3    H124372   3.826   0.124   3.567  1.0373 -1.3172 -1.0915
 8136TIP3    H224373   3.947   0.055   3.626  1.1565  0.8806  1.3934
 8137TIP3   OH224374   5.828   2.122   2.384  0.0291  0.0162  0.2588
 8137TIP3    H124375   5.737   2.152   2.386  0.2803  0.7901  1.8015
 8137TIP3    H224376   5.872   2.181   2.322  0.0859  1.6520  1.7701
 8138TIP3   OH224377   6.460   3.597   0.630  0.3983 -0.1539  0.1178
 8138TIP3    H124378   6.427   3.572   0.544  1.0907  0.9086 -0.4713
 8138TIP3    H224379   6.436   3.523   0.687 -0.0910 -0.8559 -0.9645
 8139TIP3   OH224380   2.189   1.424   1.053  0.4421  0.2144 -0.1287
 8139TIP3    H124381   2.219   1.441   0.964 -1.1996 -1.9327 -1.1817
 8139TIP3    H224382   2.098   1.398   1.044 -0.7520  2.8163  2.5349
 8140TIP3   OH224383   6.766   3.167   5.769  0.3905  0.5431  0.1932
 8140TIP3    H124384   6.852   3.126   5.770  0.2012  0.0859  1.9980
 8140TIP3    H224385   6.704   3.095   5.768 -0.0060  0.8728 -1.4324
 8141TIP3   OH224386   5.268   6.481   3.608  0.3018 -0.6096 -0.0395
 8141TIP3    H124387   5.307   6.569   3.609  0.8500 -0.8053  2.5476
 8141TIP3    H224388   5.336   6.425   3.571  0.2456 -0.0742 -0.9803
 8142TIP3   OH224389   4.541   0.739   1.578  0.0687 -0.7831 -0.1649
 8142TIP3    H124390   4.483   0.777   1.512  0.0123  0.8369  0.7565
 8142TIP3    H224391   4.523   0.645   1.574 -0.6795 -0.6077 -1.7207
 8143TIP3   OH224392   6.730   5.600   1.404 -0.1622  0.7423 -0.3625
 8143TIP3    H124393   6.772   5.529   1.354 -0.6496  1.6807 -2.1710
 8143TIP3    H224394   6.792   5.619   1.474  1.0317  0.0349 -1.1869
 8144TIP3   OH224395   1.093   2.186   0.439 -0.1455  0.1880  0.1947
 8144TIP3    H124396   1.008   2.219   0.410 -0.2594  0.3204  0.6722
 8144TIP3    H224397   1.147   2.265   0.449  0.6034  0.0045 -1.8215
 8145TIP3   OH224398   4.220   3.639   1.293 -0.0867 -0.2466  0.4453
 8145TIP3    H124399   4.142   3.666   1.341  1.3791  3.5686  1.0346
 8145TIP3    H224400   4.199   3.658   1.201  0.2860  1.3258  0.6642
 8146TIP3   OH224401   3.921   1.485   3.910 -0.1079 -0.0906 -0.4418
 8146TIP3    H124402   3.914   1.434   3.991 -3.2638 -1.3754 -1.3858
 8146TIP3    H224403   3.898   1.574   3.936 -0.0444 -0.2702  0.2585
 8147TIP3   OH224404   6.757   0.320   5.663  0.1172 -0.3229  0.0937
 8147TIP3    H124405   6.850   0.301   5.658  0.3214  0.3485  0.9709
 8147TIP3    H224406   6.742   0.341   5.756 -0.5598  1.1918 -0.3225
 8148TIP3   OH224407   2.464   4.964   1.188  0.4695 -0.3809 -0.2419
 8148TIP3    H124408   2.399   5.034   1.186 -0.5813 -1.2640  1.5309
 8148TIP3    H224409   2.531   4.993   1.126  0.0865  2.1973  0.4282
 8149TIP3   OH224410   1.006   6.444   2.573  0.3709 -0.4161  0.1764
 8149TIP3    H124411   0.929   6.406   2.614  0.3529  0.4930  1.0308
 8149TIP3    H224412   1.034   6.513   2.634 -0.2999  1.7572 -1.7949
 8150TIP3   OH224413   0.736   6.241   3.819  0.0734 -0.2888  0.3895
 8150TIP3    H124414   0.759   6.293   3.742 -1.3615 -1.0887 -0.6414
 8150TIP3    H224415   0.784   6.281   3.891  0.5923  1.1793 -0.7309
 8151TIP3   OH224416   7.085   1.225   1.651  0.4970  0.4497  0.2239
 8151TIP3    H124417   7.127   1.204   1.567  0.1472 -0.6281  0.2960
 8151TIP3    H224418   7.023   1.295   1.629  1.0161  0.7750 -0.2420
 8152TIP3   OH224419   3.684   2.702   5.637  0.1840  0.0276 -0.2725
 8152TIP3    H124420   3.720   2.659   5.561 -0.3011 -0.5725 -0.1746
 8152TIP3    H224421   3.759   2.716   5.695  0.7984  1.7338 -1.4131
 8153TIP3   OH224422   2.913   1.465   2.440  0.2001  0.6904 -0.0171
 8153TIP3    H124423   2.890   1.527   2.371 -0.0092  1.1977  0.4900
 8153TIP3    H224424   2.846   1.480   2.508 -1.7044 -2.1866 -1.0754
 8154TIP3   OH224425   4.888   4.221   2.502  0.2642  0.4100  0.0832
 8154TIP3    H124426   4.818   4.271   2.543  0.8977  1.9699 -0.6948
 8154TIP3    H224427   4.850   4.134   2.488 -1.0598  0.8370  0.8638
 8155TIP3   OH224428   1.517   4.565   1.469  0.1795 -0.6633  0.1823
 8155TIP3    H124429   1.440   4.508   1.464  0.2646 -0.7191 -0.4946
 8155TIP3    H224430   1.585   4.509   1.506  1.0749 -1.9093 -3.0522
 8156TIP3   OH224431   1.937   0.645   5.342 -0.0022 -0.1668 -0.1807
 8156TIP3    H124432   1.946   0.551   5.359 -1.8518 -1.1525 -3.6381
 8156TIP3    H224433   1.856   0.670   5.387 -0.8315 -0.8922 -1.2118
 8157TIP3   OH224434   6.073   2.374   1.746  0.5087  0.1717 -0.0993
 8157TIP3    H124435   5.994   2.424   1.770  0.2401 -1.1343  2.0412
 8157TIP3    H224436   6.121   2.365   1.829  2.5957  0.3478 -1.2343
 8158TIP3   OH224437   4.074   1.919   0.216  0.0450  0.3855 -0.0599
 8158TIP3    H124438   4.028   1.986   0.165  0.8498  0.1621 -1.1118
 8158TIP3    H224439   4.117   1.968   0.287  0.8279  1.0454 -0.9599
 8159TIP3   OH224440   4.267   0.577   3.209 -0.3715 -0.0074  0.4769
 8159TIP3    H124441   4.263   0.644   3.141 -1.2790  0.0793  0.6048
 8159TIP3    H224442   4.355   0.540   3.201 -0.6898 -0.5228 -1.2695
 8160TIP3   OH224443   5.533   3.021   3.527  0.2283 -0.1801  0.2422
 8160TIP3    H124444   5.490   2.984   3.604 -0.4482 -0.7212 -0.3755
 8160TIP3    H224445   5.603   3.076   3.562 -0.1703 -0.2914  1.2403
 8161TIP3   OH224446   3.773   3.174   2.640 -0.0510 -0.3848  0.3746
 8161TIP3    H124447   3.724   3.132   2.710  0.0120 -0.7689  0.1914
 8161TIP3    H224448   3.812   3.251   2.681 -2.7030  1.3012 -0.0100
 8162TIP3   OH224449   6.952   4.290   3.876  0.2694  0.1413 -0.3818
 8162TIP3    H124450   6.937   4.197   3.858 -1.5748  0.3003  0.0481
 8162TIP3    H224451   6.909   4.335   3.803 -0.8793  0.6560  0.5645
 8163TIP3   OH224452   0.047   2.152   0.317 -0.4014 -0.1510  0.1498
 8163TIP3    H124453  -0.041   2.127   0.287 -0.1509 -1.4367  0.4600
 8163TIP3    H224454   0.062   2.099   0.395  0.9350 -0.4511 -0.3000
 8164TIP3   OH224455   0.958   5.526   1.294 -0.3966 -0.5051  0.1177
 8164TIP3    H124456   0.864   5.539   1.298 -0.1932  1.3771 -0.2358
 8164TIP3    H224457   0.989   5.545   1.383 -0.0938  1.7305 -0.4066
 8165TIP3   OH224458   6.714   5.691   5.160 -0.6432 -0.2060  0.4210
 8165TIP3    H124459   6.627   5.672   5.125 -0.5092 -0.9781  0.4820
 8165TIP3    H224460   6.715   5.651   5.247  0.1797 -1.3125 -0.0651
 8166TIP3   OH224461   0.222   3.526   5.188 -0.1535 -0.1841 -0.1374
 8166TIP3    H124462   0.288   3.521   5.119 -1.7879  0.5752 -1.8696
 8166TIP3    H224463   0.186   3.437   5.193 -0.1499 -0.2032 -0.4126
 8167TIP3   OH224464   5.162   3.666   5.114 -0.1537  0.0091  1.0575
 8167TIP3    H124465   5.103   3.637   5.044 -1.7024  3.9970  0.4042
 8167TIP3    H224466   5.250   3.656   5.078 -0.8820  1.0258 -1.1663
 8168TIP3   OH224467   0.431   5.164   4.003 -0.2346  0.4929  0.4552
 8168TIP3    H124468   0.470   5.172   3.916 -0.7966 -0.3838  0.1060
 8168TIP3    H224469   0.338   5.183   3.989 -0.9544 -2.6037  0.2347
 8169TIP3   OH224470   4.182   1.672   0.201 -0.3441  0.2643  0.1214
 8169TIP3    H124471   4.110   1.636   0.254 -0.5191  0.3211 -0.0750
 8169TIP3    H224472   4.156   1.764   0.186 -1.1327 -0.1818 -1.4834
 8170TIP3   OH224473   0.159   4.801   0.735  0.8184 -0.5551 -0.1399
 8170TIP3    H124474   0.202   4.717   0.751  0.6290 -1.2420 -2.7603
 8170TIP3    H224475   0.078   4.778   0.689  0.2249  1.0223  0.0635
 8171TIP3   OH224476   1.576   1.265   4.188 -0.7489  0.0470 -0.2927
 8171TIP3    H124477   1.638   1.225   4.249 -1.3648  0.2870  0.5047
 8171TIP3    H224478   1.568   1.202   4.117 -0.4190 -0.4760  0.1309
 8172TIP3   OH224479   2.547   3.679   1.266 -0.7625  0.5176  0.7497
 8172TIP3    H124480   2.556   3.717   1.179 -0.2276  0.3165  0.7150
 8172TIP3    H224481   2.621   3.618   1.274 -1.8686 -0.9073  0.5920
 8173TIP3   OH224482   6.690   5.102   2.789  0.2538  0.8841 -0.2952
 8173TIP3    H124483   6.637   5.085   2.867  0.4997  0.2388 -0.2669
 8173TIP3    H224484   6.746   5.025   2.780  0.1981  0.9310 -1.1330
 8174TIP3   OH224485   4.429   6.063   1.825  0.1866  0.3816 -0.3184
 8174TIP3    H124486   4.395   6.023   1.745 -0.8127 -0.1505  0.3480
 8174TIP3    H224487   4.521   6.080   1.806  1.2158 -3.8747 -0.1110
 8175TIP3   OH224488   1.970   6.185   2.194  0.1540 -0.4476 -0.5878
 8175TIP3    H124489   1.928   6.260   2.152  1.3264  0.3452 -0.4076
 8175TIP3    H224490   2.064   6.204   2.188  0.4415 -1.5777  0.0677
 8176TIP3   OH224491   5.860   2.070   1.055  0.4532 -0.2624  0.4935
 8176TIP3    H124492   5.794   2.123   1.099 -0.0938 -0.4083 -0.1322
 8176TIP3    H224493   5.942   2.117   1.067  0.0741  0.4009  0.4847
 8177TIP3   OH224494   0.982   1.356   4.589  0.2656 -0.4392  0.0055
 8177TIP3    H124495   1.003   1.272   4.629  1.1497  0.5996  1.8803
 8177TIP3    H224496   0.910   1.391   4.641 -0.2835 -0.1305 -0.9271
 8178TIP3   OH224497   6.982   6.218   5.094  0.0341  0.3641  0.0584
 8178TIP3    H124498   7.010   6.187   5.180  1.8860 -0.1837 -0.6855
 8178TIP3    H224499   6.984   6.313   5.101 -1.0378  0.3380  0.9672
 8179TIP3   OH224500   1.347   4.806   1.920 -0.2335 -0.0865 -0.5339
 8179TIP3    H124501   1.318   4.759   1.842  0.1396  0.9731 -1.3334
 8179TIP3    H224502   1.437   4.777   1.933 -0.3980 -0.5032 -0.2996
 8180TIP3   OH224503   3.777   6.540   2.405 -0.5027 -0.7038  0.1235
 8180TIP3    H124504   3.749   6.469   2.347 -1.4051  0.4394 -0.8995
 8180TIP3    H224505   3.701   6.558   2.460 -1.1447  0.9884 -1.2200
 8181TIP3   OH224506   0.021   6.230   1.863 -0.3881  0.3493 -0.2900
 8181TIP3    H124507  -0.073   6.214   1.855 -0.1958 -0.0536 -2.5016
 8181TIP3    H224508   0.060   6.142   1.863  0.0436  0.5380 -0.6481
 8182TIP3   OH224509   5.340   5.961   4.559 -0.2993 -0.0235  0.5689
 8182TIP3    H124510   5.375   5.901   4.625 -0.5032  0.2761  0.9503
 8182TIP3    H224511   5.418   5.997   4.515 -0.1809 -0.8998  0.0283
 8183TIP3   OH224512   1.882   0.622   1.188 -0.5032  0.1221  0.3779
 8183TIP3    H124513   1.819   0.551   1.192  1.2664 -1.4671  2.5869
 8183TIP3    H224514   1.956   0.586   1.139  0.5250  0.2892  1.7536
 8184TIP3   OH224515   2.177   0.420   0.463 -0.6698  0.1218  0.2059
 8184TIP3    H124516   2.137   0.428   0.377 -0.1070 -0.2890 -0.0972
 8184TIP3    H224517   2.224   0.337   0.461  1.5070  1.2708 -0.0090
 8185TIP3   OH224518   0.322   4.580   3.055 -0.0803 -0.1530  0.2094
 8185TIP3    H124519   0.256   4.511   3.049 -1.3181  1.0564 -0.9080
 8185TIP3    H224520   0.361   4.584   2.967  1.2794 -0.6192  0.7593
 8186TIP3   OH224521   4.336   4.882   5.012 -0.3007  0.2710 -0.3365
 8186TIP3    H124522   4.371   4.966   5.044 -0.0662 -0.3896  1.2736
 8186TIP3    H224523   4.276   4.854   5.082 -0.6559 -0.7294 -1.0259
 8187TIP3   OH224524   1.021   4.993   5.763 -0.2230  0.3819 -0.2329
 8187TIP3    H124525   1.005   5.061   5.697  2.6333  0.9552 -0.4769
 8187TIP3    H224526   0.999   5.035   5.846  0.5104  1.3003 -0.4791
 8188TIP3   OH224527   3.547   6.245   0.283  0.0935 -0.8323  0.2156
 8188TIP3    H124528   3.513   6.327   0.320  1.1932  0.1306 -0.8064
 8188TIP3    H224529   3.478   6.181   0.301 -0.9203  0.3589  0.8232
 8189TIP3   OH224530   0.164   4.575   4.199  0.8473 -0.2969 -0.2304
 8189TIP3    H124531   0.095   4.615   4.253  1.5281 -1.6787  1.7344
 8189TIP3    H224532   0.191   4.646   4.140 -2.3153  0.2804 -1.2285
 8190TIP3   OH224533   0.609   1.164   1.370  0.2104  0.1497  0.8532
 8190TIP3    H124534   0.598   1.259   1.371 -0.7025  0.0500  1.3205
 8190TIP3    H224535   0.520   1.129   1.369  0.4524 -0.7181  3.5128
 8191TIP3   OH224536   1.849   0.446   4.353 -0.1146 -0.3460 -0.3385
 8191TIP3    H124537   1.916   0.474   4.415 -0.5280 -0.8886  0.3835
 8191TIP3    H224538   1.776   0.506   4.368  0.1128  0.0877 -0.9456
 8192TIP3   OH224539   1.630   4.977   4.045 -0.3892  0.1456 -0.0819
 8192TIP3    H124540   1.571   5.051   4.061 -0.6696  0.2317 -1.4367
 8192TIP3    H224541   1.673   4.998   3.963 -1.1544 -1.6063 -0.9936
 8193TIP3   OH224542   3.813   1.124   0.117 -0.3359  0.2456 -0.3724
 8193TIP3    H124543   3.800   1.216   0.092  1.5643  1.0008  1.2210
 8193TIP3    H224544   3.756   1.111   0.193  0.2228  0.4513  0.0883
 8194TIP3   OH224545   2.294   0.625   0.256 -0.1008 -0.6105  0.0294
 8194TIP3    H124546   2.209   0.634   0.298 -0.1913 -0.8044 -0.1074
 8194TIP3    H224547   2.354   0.674   0.312 -0.1736 -1.0748  0.5192
 8195TIP3   OH224548   4.204   4.085   1.011  0.1371 -0.5526  0.4549
 8195TIP3    H124549   4.194   4.054   1.101 -0.1993 -0.8366  0.3222
 8195TIP3    H224550   4.118   4.072   0.971  0.7628 -2.2652 -0.4633
 8196TIP3   OH224551   4.830   3.828   4.250  0.0491  0.3135 -0.9358
 8196TIP3    H124552   4.851   3.917   4.222  1.9934 -0.0422 -0.7117
 8196TIP3    H224553   4.734   3.826   4.251 -0.0497  2.0824 -1.9214
 8197TIP3   OH224554   5.086   3.208   1.228 -0.6349  0.3518 -1.0659
 8197TIP3    H124555   5.097   3.160   1.310  1.2523  1.8786 -0.3444
 8197TIP3    H224556   5.003   3.177   1.193 -0.8318 -1.3479  0.7287
 8198TIP3   OH224557   6.100   3.118   1.210  0.3647  0.1018  0.2111
 8198TIP3    H124558   6.094   3.206   1.175  0.8236  0.7273  1.6356
 8198TIP3    H224559   6.145   3.128   1.294 -0.4496 -1.3445  0.8640
 8199TIP3   OH224560   2.988   6.087   1.245 -0.0889  0.2256  0.0014
 8199TIP3    H124561   3.062   6.147   1.245 -0.3132  0.5066 -0.2889
 8199TIP3    H224562   2.925   6.124   1.307 -0.2964  0.3807 -0.2979
 8200TIP3   OH224563   2.092   4.183   5.757 -0.3370 -0.0055 -0.2642
 8200TIP3    H124564   2.029   4.205   5.689  1.5824 -0.1286 -2.2077
 8200TIP3    H224565   2.102   4.263   5.808 -0.4616  0.6678 -1.2815
 8201TIP3   OH224566   3.099   0.150   4.233 -0.1144  0.0161 -0.0979
 8201TIP3    H124567   3.167   0.160   4.166  1.1826  0.1881  1.2092
 8201TIP3    H224568   3.043   0.080   4.199  0.8525 -0.3069 -1.0904
 8202TIP3   OH224569   5.466   2.774   2.152  0.1237  0.1143  0.1999
 8202TIP3    H124570   5.536   2.715   2.179  0.0015 -0.2897 -0.3528
 8202TIP3    H224571   5.470   2.774   2.056 -0.5412  0.1896  0.1689
 8203TIP3   OH224572   6.476   1.921   3.244 -0.9300 -0.1276 -0.0076
 8203TIP3    H124573   6.546   1.981   3.217 -0.7360 -1.1837 -2.0540
 8203TIP3    H224574   6.456   1.947   3.334 -0.2766  2.4447 -0.5080
 8204TIP3   OH224575   3.402   0.907   1.736 -0.7532  0.1855 -0.9386
 8204TIP3    H124576   3.388   0.964   1.660  0.3168  0.8233 -0.6713
 8204TIP3    H224577   3.492   0.878   1.728 -0.4218  0.7710  0.4201
 8205TIP3   OH224578   1.198   5.673   3.077 -0.6447 -0.1705  0.1530
 8205TIP3    H124579   1.230   5.688   2.988 -0.1577  1.0183  0.5141
 8205TIP3    H224580   1.160   5.585   3.074  1.4029 -1.0886 -0.6334
 8206TIP3   OH224581   4.967   3.393   5.190 -0.0400  0.0992 -0.2477
 8206TIP3    H124582   4.880   3.361   5.210 -0.6671  2.5294  1.2458
 8206TIP3    H224583   4.960   3.427   5.100 -0.0531 -1.4054 -0.8521
 8207TIP3   OH224584   5.113   2.551   3.287  0.1821 -0.4082 -0.0130
 8207TIP3    H124585   5.059   2.473   3.306  1.8790 -1.4255  0.8195
 8207TIP3    H224586   5.166   2.563   3.365  0.8395  0.8614 -0.6294
 8208TIP3   OH224587   7.120   5.470   3.808 -0.3136  0.4189  0.0167
 8208TIP3    H124588   7.076   5.522   3.741  0.1392  0.5144 -0.2115
 8208TIP3    H224589   7.104   5.518   3.890 -0.2146  0.7217 -0.1377
 8209TIP3   OH224590   3.343   6.164   3.786 -0.0260  0.0528 -0.1130
 8209TIP3    H124591   3.331   6.075   3.752  0.9904 -0.2867  0.3437
 8209TIP3    H224592   3.393   6.151   3.867 -1.5598  0.8974  1.0154
 8210TIP3   OH224593   1.752   5.313   2.002 -0.1073 -0.2876  0.1651
 8210TIP3    H124594   1.733   5.354   2.087  0.4648 -0.7167  0.5105
 8210TIP3    H224595   1.846   5.295   2.005 -0.4388 -2.1602  0.2625
 8211TIP3   OH224596   2.889   1.331   3.020 -0.1398  0.5927 -0.0058
 8211TIP3    H124597   2.819   1.272   3.048  0.2411  0.9617  1.8354
 8211TIP3    H224598   2.968   1.278   3.022  0.2122  1.1023  1.7002
 8212TIP3   OH224599   1.799   3.094   4.802  0.2356 -0.3306  0.2247
 8212TIP3    H124600   1.745   3.168   4.772  0.9496 -0.1824 -0.7628
 8212TIP3    H224601   1.740   3.018   4.797 -0.3877  0.0996  0.8647
 8213TIP3   OH224602   3.202   0.057   2.253 -0.4322  0.6989  0.1675
 8213TIP3    H124603   3.273   0.041   2.315  0.7391 -2.6273 -1.7232
 8213TIP3    H224604   3.199   0.152   2.243  1.6824  1.1198  2.5974
 8214TIP3   OH224605   2.661   0.897   3.908 -0.3629  0.4432 -0.3980
 8214TIP3    H124606   2.622   0.919   3.992  0.7530 -1.3547  0.6552
 8214TIP3    H224607   2.754   0.918   3.919 -0.0680 -0.5300 -0.8903
 8215TIP3   OH224608   2.203   1.629   3.612 -0.2797  0.5614 -0.0986
 8215TIP3    H124609   2.271   1.604   3.674  0.2932 -0.3786 -1.0458
 8215TIP3    H224610   2.243   1.698   3.559 -0.9590  1.7463  0.8950
 8216TIP3   OH224611   5.414   3.587   5.842  0.0033 -0.3054  0.0185
 8216TIP3    H124612   5.408   3.618   5.932  0.6760  0.0552 -0.0508
 8216TIP3    H224613   5.325   3.562   5.819  0.1139 -2.1981  1.3955
 8217TIP3   OH224614   6.000   0.310   4.678  0.2760 -0.2642 -0.3256
 8217TIP3    H124615   5.979   0.389   4.628  0.6772  0.0867  0.0615
 8217TIP3    H224616   5.922   0.255   4.668 -0.0117  0.1792 -0.5852
 8218TIP3   OH224617   3.771   1.926   3.240 -0.2462 -0.0056  0.7976
 8218TIP3    H124618   3.682   1.934   3.206 -0.1904 -0.4587  0.5391
 8218TIP3    H224619   3.759   1.907   3.333 -0.5198 -2.8036  0.2888
 8219TIP3   OH224620   1.341  -0.001   0.908 -0.2212  0.5080 -0.0234
 8219TIP3    H124621   1.325   0.093   0.918  0.0510  0.5315  0.1922
 8219TIP3    H224622   1.436  -0.010   0.911 -0.2762  0.0697  1.4373
 8220TIP3   OH224623   5.100   3.503   0.871 -0.7877  0.1889  0.5488
 8220TIP3    H124624   5.022   3.550   0.899 -1.6693 -0.3996 -0.7703
 8220TIP3    H224625   5.090   3.416   0.908 -0.1706  0.4461  1.3289
 8221TIP3   OH224626   2.580   2.090   1.166  0.0062 -0.7686 -0.3063
 8221TIP3    H124627   2.505   2.036   1.143 -0.9999  0.5245 -0.1857
 8221TIP3    H224628   2.581   2.091   1.262  0.7120 -1.4852 -0.2998
 8222TIP3   OH224629   1.063   6.760   3.314  0.8504 -0.1761 -0.1767
 8222TIP3    H124630   1.053   6.689   3.379 -1.3348  0.2209 -0.0137
 8222TIP3    H224631   1.018   6.728   3.236 -1.0329  1.3738  0.2148
 8223TIP3   OH224632   6.230   4.222   0.421  0.0577 -0.4218  0.1646
 8223TIP3    H124633   6.144   4.234   0.380 -1.1727 -0.7858  2.4607
 8223TIP3    H224634   6.254   4.309   0.452 -0.6635 -0.7151  1.6265
 8224TIP3   OH224635   6.747   5.369   2.819  0.3273  0.5445 -0.0865
 8224TIP3    H124636   6.746   5.363   2.915  0.0465 -0.1298 -0.1246
 8224TIP3    H224637   6.728   5.280   2.789 -2.0933  1.2036 -0.7507
 8225TIP3   OH224638   4.856   4.649   5.014  0.7601 -0.5821 -0.2911
 8225TIP3    H124639   4.833   4.572   5.066  0.5983 -0.6364 -0.4429
 8225TIP3    H224640   4.796   4.646   4.939  1.9794 -1.3485 -1.2914
 8226TIP3   OH224641   5.745   6.751   3.112 -0.2569 -0.4332 -0.1299
 8226TIP3    H124642   5.739   6.703   3.029 -0.3052 -1.7445  0.5935
 8226TIP3    H224643   5.740   6.843   3.088 -0.0465 -0.7881 -1.5993
 8227TIP3   OH224644   1.318   6.318   1.293  0.1278  0.1740 -0.2591
 8227TIP3    H124645   1.253   6.336   1.360 -0.2208 -0.2486 -0.4773
 8227TIP3    H224646   1.351   6.404   1.267 -1.2087  0.4946 -0.9955
 8228TIP3   OH224647   3.451   0.092   1.051  0.2280 -0.0351 -0.7028
 8228TIP3    H124648   3.447   0.172   1.105 -0.4234  0.5359 -1.5745
 8228TIP3    H224649   3.506   0.116   0.977  2.0002 -1.1464  0.2061
 8229TIP3   OH224650   6.802   1.829   4.868  0.4894  0.6645  0.4742
 8229TIP3    H124651   6.755   1.795   4.944  1.0683 -1.2819  0.0235
 8229TIP3    H224652   6.881   1.775   4.863 -0.0064  0.0599 -2.0726
 8230TIP3   OH224653   0.919   4.271   3.471 -0.1084  0.5123  0.5575
 8230TIP3    H124654   0.979   4.345   3.485  1.8804 -0.8551 -0.2559
 8230TIP3    H224655   0.915   4.261   3.376 -0.5598 -0.2747  0.6522
 8231TIP3   OH224656   5.561   3.300   0.290 -0.0825  0.5095 -0.1158
 8231TIP3    H124657   5.479   3.273   0.250  0.3210 -0.7190 -0.1506
 8231TIP3    H224658   5.538   3.318   0.381 -0.3889  0.1075 -0.1104
 8232TIP3   OH224659   5.830   0.684   0.869 -0.3641 -0.4307 -0.1640
 8232TIP3    H124660   5.888   0.663   0.797 -0.5975 -2.5347  0.1910
 8232TIP3    H224661   5.779   0.604   0.883 -0.9448  0.2103  1.7438
 8233TIP3   OH224662   2.278   6.093   4.730  0.2982  0.0871 -0.2124
 8233TIP3    H124663   2.199   6.145   4.712 -1.5468 -0.6962  4.2863
 8233TIP3    H224664   2.267   6.014   4.676 -1.1652  0.7157 -0.8963
 8234TIP3   OH224665   0.723   0.700   4.519 -0.1397 -0.3975  0.2304
 8234TIP3    H124666   0.786   0.676   4.451 -0.1092 -0.1500  0.1676
 8234TIP3    H224667   0.702   0.792   4.500  1.1563  0.2280  1.5304
 8235TIP3   OH224668   2.842   1.544   5.321 -0.5759 -0.1746 -0.4195
 8235TIP3    H124669   2.875   1.455   5.322  1.5467  0.5597 -0.1559
 8235TIP3    H224670   2.806   1.557   5.409 -4.0177 -1.7481 -1.4156
 8236TIP3   OH224671   0.068   3.304   2.188  0.0610 -0.1021 -0.0061
 8236TIP3    H124672   0.006   3.370   2.158 -0.2486 -0.0599  0.6976
 8236TIP3    H224673   0.018   3.223   2.192  0.1806 -0.1721  0.0923
 8237TIP3   OH224674   0.517   3.541   4.266  0.5980 -0.6188 -0.4281
 8237TIP3    H124675   0.588   3.546   4.330 -0.1244 -1.8676  0.5111
 8237TIP3    H224676   0.556   3.502   4.188  0.9026 -1.4675  0.1449
 8238TIP3   OH224677   1.266   2.091   3.904  0.0426  0.4576 -0.0598
 8238TIP3    H124678   1.330   2.053   3.843 -2.3513 -1.8330 -1.3453
 8238TIP3    H224679   1.197   2.025   3.910 -1.3478  2.0048  2.7293
 8239TIP3   OH224680   6.207   2.771   4.899  0.2130  0.3594  0.0582
 8239TIP3    H124681   6.235   2.860   4.876  1.4010  0.3878  1.4547
 8239TIP3    H224682   6.144   2.783   4.970  1.3333  0.0816  1.1408
 8240TIP3   OH224683   0.021   6.457   0.222 -0.2635  0.1357  0.1092
 8240TIP3    H124684  -0.061   6.505   0.219 -1.5418 -1.9505 -1.1814
 8240TIP3    H224685   0.088   6.522   0.202 -1.7211  1.6379 -0.1146
 8241TIP3   OH224686   6.701   4.043   2.608  0.1734  0.1145  0.0116
 8241TIP3    H124687   6.779   4.054   2.663  0.6210 -1.8382 -0.1383
 8241TIP3    H224688   6.717   4.099   2.532  1.3935 -0.1548  0.0446
 8242TIP3   OH224689   3.140   3.922   0.889 -0.4627 -0.5232  0.0413
 8242TIP3    H124690   3.200   3.849   0.874  0.4727 -0.0704  1.4468
 8242TIP3    H224691   3.195   4.000   0.882 -1.2945  0.0277 -0.6337
 8243TIP3   OH224692   3.069   1.616   0.103  0.3637  0.1849 -0.6856
 8243TIP3    H124693   3.017   1.658   0.171  1.8617 -0.3556  0.8790
 8243TIP3    H224694   3.135   1.682   0.079  0.2734  0.1244 -1.1116
 8244TIP3   OH224695   1.422   0.438   4.584 -0.3374  0.3089 -0.1976
 8244TIP3    H124696   1.364   0.462   4.511  0.6606  1.1304 -0.7332
 8244TIP3    H224697   1.375   0.468   4.662 -2.5722 -2.6866 -0.1748
 8245TIP3   OH224698   0.183   3.074   3.563  0.6074  0.0329 -0.2222
 8245TIP3    H124699   0.245   3.123   3.616 -0.7380  2.0691 -0.4326
 8245TIP3    H224700   0.213   2.983   3.569  0.8108  0.2102  3.6067
 8246TIP3   OH224701   1.703   5.132   1.366  0.0688  0.0538 -0.7238
 8246TIP3    H124702   1.640   5.203   1.377 -0.6122 -0.8550  1.8081
 8246TIP3    H224703   1.765   5.143   1.438  2.5276  0.5342 -2.7758
 8247TIP3   OH224704   0.662   6.514   4.112  0.1071 -0.0690  0.0761
 8247TIP3    H124705   0.571   6.531   4.091 -0.1091 -0.9434  0.2347
 8247TIP3    H224706   0.675   6.556   4.197  0.6488  2.4293 -1.1523
 8248TIP3   OH224707  -0.021   0.679   4.658 -0.0520 -0.4847 -0.0508
 8248TIP3    H124708   0.053   0.646   4.607 -0.4976  0.3856 -1.3189
 8248TIP3    H224709   0.020   0.727   4.730  0.6856  0.9151 -1.3311
 8249TIP3   OH224710   5.488   5.497   1.539  0.1043 -0.3502 -0.5440
 8249TIP3    H124711   5.476   5.544   1.621  0.1775 -0.5936 -0.3916
 8249TIP3    H224712   5.583   5.484   1.532  0.0773 -0.5669 -0.5293
 8250TIP3   OH224713   4.079   6.279   0.679  0.0637 -0.4137 -0.4508
 8250TIP3    H124714   3.998   6.303   0.635  0.5879 -0.3717 -1.4089
 8250TIP3    H224715   4.115   6.362   0.709 -1.6089 -0.6136  2.5124
 8251TIP3   OH224716   2.595   4.867   3.071  0.0257  0.0680  0.1685
 8251TIP3    H124717   2.638   4.799   3.019  0.7635  1.2332 -0.8020
 8251TIP3    H224718   2.563   4.930   3.007  1.5473  1.8835  1.0928
 8252TIP3   OH224719   6.157   4.834   4.825 -0.3250  0.2576  0.0892
 8252TIP3    H124720   6.219   4.823   4.753 -0.7850 -1.1537 -0.1177
 8252TIP3    H224721   6.176   4.761   4.884 -1.4811  0.0694  0.2440
 8253TIP3   OH224722   6.513   5.138   3.551 -0.0683  0.0155  0.3832
 8253TIP3    H124723   6.467   5.093   3.622  0.9903  0.3844  1.3399
 8253TIP3    H224724   6.603   5.149   3.584 -0.1381  2.2881 -0.0434
 8254TIP3   OH224725   5.188   2.952   5.420  0.1913 -0.3980  0.4368
 8254TIP3    H124726   5.108   2.913   5.384 -0.5782  1.1009  0.4212
 8254TIP3    H224727   5.209   3.023   5.360  2.2032 -1.4380 -0.1672
 8255TIP3   OH224728   1.391   1.481   2.592  0.4077  0.0064  0.6916
 8255TIP3    H124729   1.426   1.562   2.554  0.2243  0.5853  1.7286
 8255TIP3    H224730   1.445   1.412   2.555 -0.3314  0.4383 -1.3395
 8256TIP3   OH224731   5.164   1.196   5.391 -0.2421  0.0450 -0.3385
 8256TIP3    H124732   5.134   1.183   5.301 -0.8002 -0.7400 -0.0463
 8256TIP3    H224733   5.088   1.231   5.437  0.1399  0.7548 -0.2423
 8257TIP3   OH224734   0.107   5.892   5.577 -0.0440  0.3273  0.1688
 8257TIP3    H124735   0.088   5.834   5.503  1.9970 -0.8565  0.4993
 8257TIP3    H224736   0.191   5.932   5.555  0.4191  0.2284  1.6500
 8258TIP3   OH224737   1.873   3.456   2.720  0.7580 -0.2506 -0.3030
 8258TIP3    H124738   1.814   3.493   2.654  3.6436  1.5441 -2.0607
 8258TIP3    H224739   1.919   3.386   2.674  1.3045 -0.4358  0.5069
 8259TIP3   OH224740   2.966   5.353   3.601  0.3639  0.1345  0.5978
 8259TIP3    H124741   3.013   5.428   3.638 -2.1210  1.7545  0.6780
 8259TIP3    H224742   2.882   5.352   3.647 -1.0257 -0.5800 -1.7738
 8260TIP3   OH224743   5.444   2.156   5.131 -0.2380 -0.1583  0.2267
 8260TIP3    H124744   5.381   2.190   5.067 -1.3206 -1.2399  0.6848
 8260TIP3    H224745   5.502   2.230   5.148 -2.3866  1.4492  1.0501
 8261TIP3   OH224746   4.554   4.370   4.926 -0.6694  0.6731 -0.8586
 8261TIP3    H124747   4.588   4.377   4.837  1.6738  0.5661 -0.0682
 8261TIP3    H224748   4.567   4.457   4.963 -0.7911  0.4885 -0.3702
 8262TIP3   OH224749   1.340   3.624   3.638  0.1104 -0.6983 -0.5633
 8262TIP3    H124750   1.434   3.643   3.641 -0.2560  1.4422 -0.6624
 8262TIP3    H224751   1.320   3.585   3.723  0.8979 -0.0996 -0.0941
 8263TIP3   OH224752   2.848   4.930   1.502 -0.1412  0.1198  0.0772
 8263TIP3    H124753   2.792   5.007   1.499  2.0480  1.8002 -0.6621
 8263TIP3    H224754   2.839   4.897   1.592 -0.2700  1.9596  0.7836
 8264TIP3   OH224755   2.319   2.301   1.091  0.1804  0.2059 -0.3108
 8264TIP3    H124756   2.411   2.282   1.112 -0.0750 -2.2879 -1.0892
 8264TIP3    H224757   2.310   2.272   1.000 -0.9875  2.1112 -0.8622
 8265TIP3   OH224758   1.183   0.813   5.141  0.0905 -0.0913  0.5652
 8265TIP3    H124759   1.122   0.740   5.141  0.6254 -0.5458  0.1436
 8265TIP3    H224760   1.157   0.867   5.216 -1.6214  0.3872 -0.3228
 8266TIP3   OH224761   2.211   5.655   3.198  0.3466 -0.2098 -0.1214
 8266TIP3    H124762   2.164   5.576   3.223  0.0490 -0.6415 -1.9231
 8266TIP3    H224763   2.193   5.666   3.104  1.8031  1.0096 -0.3058
 8267TIP3   OH224764   3.432   3.554   0.506  0.4841 -0.0155  0.0769
 8267TIP3    H124765   3.442   3.490   0.435  1.6685 -0.4987  0.6403
 8267TIP3    H224766   3.338   3.562   0.518  0.2518 -2.8726  0.9981
 8268TIP3   OH224767   2.807   3.310   0.813  0.0949  0.6392 -0.2165
 8268TIP3    H124768   2.730   3.353   0.850 -1.2013 -1.4573 -0.3403
 8268TIP3    H224769   2.867   3.302   0.886 -1.5761 -1.5353  1.0377
 8269TIP3   OH224770   0.539   2.941   3.456 -0.5455  0.0581 -0.1978
 8269TIP3    H124771   0.511   2.852   3.434 -0.2145 -0.6273  1.9344
 8269TIP3    H224772   0.613   2.959   3.398 -1.0164 -0.7800 -1.0859
 8270TIP3   OH224773   4.509   3.775   0.408 -0.1009  0.3004 -0.5064
 8270TIP3    H124774   4.522   3.809   0.319 -0.7325  3.3056  0.4225
 8270TIP3    H224775   4.453   3.840   0.451 -1.2602 -1.9206  1.6228
 8271TIP3   OH224776   4.676   6.057   5.764 -0.1214  0.0660  0.1095
 8271TIP3    H124777   4.660   6.139   5.718  0.9487 -0.0011 -0.4302
 8271TIP3    H224778   4.593   6.009   5.758 -2.3010  2.7683  4.1843
 8272TIP3   OH224779   0.632   6.002   5.220  0.0270  0.1773 -0.1356
 8272TIP3    H124780   0.671   6.080   5.260  2.8815 -0.8197 -0.6855
 8272TIP3    H224781   0.665   5.929   5.273 -4.6641 -0.7560  2.0402
 8273TIP3   OH224782   0.242   0.190   1.159  0.2231 -0.2513  0.2339
 8273TIP3    H124783   0.184   0.181   1.083 -0.7380 -2.2753  1.1375
 8273TIP3    H224784   0.321   0.232   1.124 -1.2433  1.4179 -1.2991
 8274TIP3   OH224785   6.937   3.048   1.644  0.5197 -0.0307  0.5209
 8274TIP3    H124786   6.881   2.981   1.605  0.1101  0.1131  0.8501
 8274TIP3    H224787   6.900   3.131   1.613  0.0508  0.0960  1.3709
 8275TIP3   OH224788   2.797   4.308   4.384  0.3410 -0.2542  0.6343
 8275TIP3    H124789   2.760   4.272   4.303 -2.3216 -1.0707  2.0735
 8275TIP3    H224790   2.735   4.376   4.410  1.6075  0.5860  1.5507
 8276TIP3   OH224791   1.625   5.887   3.449 -0.0471  0.2775  0.4506
 8276TIP3    H124792   1.587   5.831   3.516 -2.1767  0.4186 -0.5639
 8276TIP3    H224793   1.686   5.943   3.496 -1.1888  0.1147  2.2048
 8277TIP3   OH224794   4.882   5.237   5.437  0.7614 -0.4553 -0.0651
 8277TIP3    H124795   4.941   5.166   5.461  0.9469 -0.3575 -0.2259
 8277TIP3    H224796   4.940   5.304   5.399  0.6400 -0.0564  0.4465
 8278TIP3   OH224797   5.768   3.694   3.775  0.0408 -0.2436 -0.1064
 8278TIP3    H124798   5.827   3.647   3.835 -0.9915 -1.6393 -0.1437
 8278TIP3    H224799   5.828   3.740   3.715  1.0865  0.7207  1.6039
 8279TIP3   OH224800   5.467   3.211   1.199 -0.1160  0.3042  0.0744
 8279TIP3    H124801   5.447   3.256   1.117 -0.3693 -0.7527 -0.4593
 8279TIP3    H224802   5.514   3.276   1.251  1.3693  0.5299 -1.4726
 8280TIP3   OH224803   6.791   0.664   4.914  0.0260  0.3724  0.1785
 8280TIP3    H124804   6.757   0.662   4.824 -1.4459  1.9335  0.6724
 8280TIP3    H224805   6.726   0.616   4.965  2.6731 -3.9871 -0.0214
 8281TIP3   OH224806   2.939   4.289   0.124  0.0456 -0.5028 -0.4868
 8281TIP3    H124807   3.033   4.301   0.111  0.3013  0.8194  1.9543
 8281TIP3    H224808   2.931   4.200   0.156  0.8676  0.1886  1.8341
 8282TIP3   OH224809   3.294   3.407   1.761  0.5956 -0.6396 -0.0729
 8282TIP3    H124810   3.310   3.335   1.700  1.0269  0.0271 -0.7693
 8282TIP3    H224811   3.202   3.430   1.749  1.2276  1.0596 -2.2766
 8283TIP3   OH224812   5.466   4.157   1.877  1.1570 -0.7823  0.0035
 8283TIP3    H124813   5.431   4.073   1.845  1.2513 -1.3686  1.3750
 8283TIP3    H224814   5.393   4.198   1.923  0.6087  0.6995 -2.0591
 8284TIP3   OH224815   2.172   2.841   5.250 -0.1891 -0.5868  0.2965
 8284TIP3    H124816   2.179   2.891   5.331  0.1939 -1.0759  0.5726
 8284TIP3    H224817   2.170   2.907   5.181  1.5615 -0.2076  0.5686
 8285TIP3   OH224818   2.076   1.333   1.765  0.3349  0.1575  0.1692
 8285TIP3    H124819   2.062   1.402   1.830  1.0159 -0.0555  0.5528
 8285TIP3    H224820   2.138   1.371   1.703  2.3193 -0.7401  1.4668
 8286TIP3   OH224821   6.736   1.744   3.050 -0.4634 -0.6570  0.6373
 8286TIP3    H124822   6.649   1.710   3.067 -1.1737  1.3845  1.4075
 8286TIP3    H224823   6.785   1.727   3.130 -0.0928 -1.8401  0.1900
 8287TIP3   OH224824   4.024   3.929   1.451  0.0040 -0.4216 -0.8961
 8287TIP3    H124825   3.965   3.859   1.478  0.7447 -0.6738  0.1268
 8287TIP3    H224826   3.975   4.010   1.466 -0.1409 -0.6348 -0.1914
 8288TIP3   OH224827   3.616   0.340   0.403  0.2877 -0.3403 -0.3394
 8288TIP3    H124828   3.610   0.430   0.370  1.2245 -0.3292 -0.5159
 8288TIP3    H224829   3.592   0.286   0.328  0.9668 -0.2657 -0.6219
 8289TIP3   OH224830   5.463   5.136   5.127 -0.4286  0.2737  0.0461
 8289TIP3    H124831   5.390   5.189   5.159 -0.6043  0.7850 -1.1319
 8289TIP3    H224832   5.426   5.086   5.054  0.2222 -0.0071 -0.1016
 8290TIP3   OH224833   5.054   1.637   4.052  0.8758 -0.3081 -0.5437
 8290TIP3    H124834   5.141   1.599   4.038  1.1475 -0.1928  0.7426
 8290TIP3    H224835   5.019   1.648   3.964  1.6056 -1.6541 -1.0364
 8291TIP3   OH224836   7.027   1.294   0.108  0.1993  0.5251  1.0496
 8291TIP3    H124837   6.976   1.375   0.110 -0.2446  0.2365  1.6379
 8291TIP3    H224838   7.111   1.320   0.070 -1.0224  0.6339 -1.8464
 8292TIP3   OH224839   1.833   3.917   5.484  0.2218  0.2734  0.1917
 8292TIP3    H124840   1.863   3.973   5.413 -0.1690  1.2196  0.7502
 8292TIP3    H224841   1.812   3.834   5.442  0.1218  0.7740 -0.7829
 8293TIP3   OH224842   0.150   6.400   1.075 -0.1514  0.2829 -0.4179
 8293TIP3    H124843   0.241   6.406   1.047 -0.2240  1.2119 -0.4652
 8293TIP3    H224844   0.131   6.306   1.074  0.1324  0.2113 -2.5200
 8294TIP3   OH224845   1.456   1.724   3.587  0.1621  0.2019 -0.3223
 8294TIP3    H124846   1.428   1.729   3.678  0.9264  0.4421 -0.0968
 8294TIP3    H224847   1.441   1.633   3.562 -0.9775  0.3522 -0.2716
 8295TIP3   OH224848   5.124   5.115   1.969 -0.1388 -0.7436  0.1211
 8295TIP3    H124849   5.184   5.077   1.905 -1.5025  0.6604 -2.1212
 8295TIP3    H224850   5.169   5.105   2.053  2.9992 -0.1620 -1.3563
 8296TIP3   OH224851   5.514   4.338   5.166 -0.2033 -0.1048  0.6384
 8296TIP3    H124852   5.419   4.328   5.172 -0.3829  1.4816  0.9606
 8296TIP3    H224853   5.533   4.417   5.216  1.1053  0.4527 -0.6407
 8297TIP3   OH224854   3.296   1.428   2.265 -0.3653  0.0908 -0.5928
 8297TIP3    H124855   3.353   1.413   2.340  0.7088  0.4495 -1.3151
 8297TIP3    H224856   3.275   1.521   2.269  0.2946  0.2732 -1.1291
 8298TIP3   OH224857   2.946   2.974   5.489  0.4655  0.1649 -0.5559
 8298TIP3    H124858   2.858   3.009   5.474  1.0088  0.6687 -2.9585
 8298TIP3    H224859   2.932   2.880   5.500 -0.5796  0.5191  1.6574
 8299TIP3   OH224860   1.643   5.466   3.214 -0.1865 -0.7985  0.1535
 8299TIP3    H124861   1.733   5.475   3.181  0.1126  1.1959  1.3350
 8299TIP3    H224862   1.617   5.555   3.237 -1.2495 -1.7200  2.9551
 8300TIP3   OH224863   5.355   6.706   0.272  0.0356  0.1842 -0.1212
 8300TIP3    H124864   5.369   6.772   0.205 -0.7385 -0.9397 -1.4379
 8300TIP3    H224865   5.385   6.624   0.233  1.1320 -0.2567  1.5261
 8301TIP3   OH224866   1.365   5.559   2.350  0.0745  0.1081 -0.0586
 8301TIP3    H124867   1.358   5.533   2.442  0.8598 -0.7173 -0.2211
 8301TIP3    H224868   1.275   5.557   2.318 -0.0424 -1.2448  0.2680
 8302TIP3   OH224869   3.343   0.700   4.759  0.4799  0.1748 -0.0350
 8302TIP3    H124870   3.371   0.620   4.804  1.7890  0.7519  0.2150
 8302TIP3    H224871   3.281   0.670   4.693 -0.3314 -0.8583  1.1488
 8303TIP3   OH224872   0.444   5.264   4.405 -0.1349 -0.1489 -0.3429
 8303TIP3    H124873   0.414   5.269   4.495  0.9745 -1.7553  0.1616
 8303TIP3    H224874   0.539   5.274   4.410 -0.1832  1.2550 -1.5159
 8304TIP3   OH224875   2.336   4.281   1.276  0.0530  0.1596 -0.5247
 8304TIP3    H124876   2.241   4.282   1.274  0.0490  1.6988 -0.2175
 8304TIP3    H224877   2.362   4.373   1.270  1.5249 -0.2465 -0.8038
 8305TIP3   OH224878   3.073   2.511   5.416 -0.5923 -0.1691 -0.4755
 8305TIP3    H124879   3.111   2.443   5.361 -1.2987 -0.7854 -0.2136
 8305TIP3    H224880   2.987   2.528   5.378 -0.2509  0.9066 -0.8078
 8306TIP3   OH224881   4.894   2.410   5.265  0.2811 -0.2100 -0.0978
 8306TIP3    H124882   4.888   2.468   5.341  1.2492  0.8177 -0.7556
 8306TIP3    H224883   4.870   2.324   5.297 -1.6314  0.6127  0.8408
 8307TIP3   OH224884   6.028   5.292   2.497  0.0619  0.3134  0.2646
 8307TIP3    H124885   6.016   5.293   2.592  1.5903 -0.3762  0.4986
 8307TIP3    H224886   6.089   5.364   2.480 -0.0461  0.3056 -0.1736
 8308TIP3   OH224887   3.926   2.554   1.465 -0.0603  0.5364 -0.2176
 8308TIP3    H124888   4.000   2.583   1.518 -0.8918  1.3945  0.5099
 8308TIP3    H224889   3.862   2.523   1.529 -0.9720  1.3284 -0.7286
 8309TIP3   OH224890   4.248   5.122   4.125  0.0153  0.3137 -0.3695
 8309TIP3    H124891   4.189   5.047   4.136 -0.2011  0.4327 -0.7048
 8309TIP3    H224892   4.335   5.087   4.143 -0.1174  0.0564 -0.2118
 8310TIP3   OH224893   0.617   1.918   3.742  0.1064 -0.1507  0.0555
 8310TIP3    H124894   0.559   1.995   3.742  0.2319  0.0345  2.6200
 8310TIP3    H224895   0.563   1.848   3.781  1.4371 -0.0301  2.2924
 8311TIP3   OH224896   5.766   4.541   1.244  0.0981  0.1367 -0.6980
 8311TIP3    H124897   5.771   4.481   1.318 -1.9687 -0.7261 -1.2035
 8311TIP3    H224898   5.780   4.485   1.167  0.9608  0.8141 -1.0595
 8312TIP3   OH224899   4.297   6.051   2.069  0.3283 -0.0908  0.1670
 8312TIP3    H124900   4.233   6.115   2.039  2.3151  1.6019 -0.6741
 8312TIP3    H224901   4.357   6.040   1.995 -0.6197 -4.0277 -0.2728
 8313TIP3   OH224902   7.100   5.865   0.649  0.2192 -0.1332  0.2761
 8313TIP3    H124903   7.181   5.814   0.659  0.4441  0.1432 -0.1414
 8313TIP3    H224904   7.086   5.905   0.735 -0.9790 -2.3865  1.2275
 8314TIP3   OH224905   1.604   3.636   1.173  0.1197  0.4249  0.3554
 8314TIP3    H124906   1.650   3.616   1.254 -0.9120  0.1268  0.8932
 8314TIP3    H224907   1.533   3.695   1.200 -0.4253  0.0737 -0.2753
 8315TIP3   OH224908   2.992   4.879   5.179  0.3693  0.3266  0.3702
 8315TIP3    H124909   3.059   4.936   5.142 -0.1785  0.4271 -0.4817
 8315TIP3    H224910   3.041   4.817   5.233  1.2044  0.0536 -0.6817
 8316TIP3   OH224911   6.608   5.685   2.077 -0.4046 -0.0165  0.1620
 8316TIP3    H124912   6.679   5.642   2.029 -1.0008 -1.6330  0.6412
 8316TIP3    H224913   6.559   5.612   2.116 -0.8412  1.1655  1.9401
 8317TIP3   OH224914   4.252   0.358   1.284  0.5640 -0.8128  0.1374
 8317TIP3    H124915   4.166   0.397   1.301  0.5067 -0.7629 -0.2646
 8317TIP3    H224916   4.279   0.394   1.200  1.6487  0.3355  0.9364
 8318TIP3   OH224917   6.985   4.773   3.634 -0.2689 -0.2292 -0.1295
 8318TIP3    H124918   6.979   4.833   3.560  1.2218  0.7203  0.4793
 8318TIP3    H224919   7.073   4.786   3.669  0.5021 -3.4866 -0.5350
 8319TIP3   OH224920   5.288   1.403   2.497  0.0153 -0.2724 -0.5970
 8319TIP3    H124921   5.242   1.322   2.516  0.3202 -0.7854 -1.9372
 8319TIP3    H224922   5.375   1.376   2.467  0.5737  0.6085  0.1711
 8320TIP3   OH224923   4.324   5.228   3.225 -0.6699 -0.6186  0.0904
 8320TIP3    H124924   4.320   5.225   3.129  0.1474  1.5800 -0.0775
 8320TIP3    H224925   4.240   5.193   3.253 -1.8930  0.7687 -1.5436
 8321TIP3   OH224926   0.718   6.399   3.597  0.4908  0.3336  0.4713
 8321TIP3    H124927   0.636   6.357   3.570  0.2765  0.8505  0.3077
 8321TIP3    H224928   0.774   6.394   3.520  0.4788  0.3107  0.4640
 8322TIP3   OH224929   6.976   6.377   2.814 -0.9492  0.1110  0.1715
 8322TIP3    H124930   7.048   6.417   2.765 -0.5426 -2.0360 -1.0907
 8322TIP3    H224931   7.001   6.388   2.906 -0.3086  1.6594 -0.1538
 8323TIP3   OH224932   5.463   5.569   3.764 -0.6782 -0.3458 -0.0553
 8323TIP3    H124933   5.465   5.474   3.751  1.6875 -0.4104  0.4364
 8323TIP3    H224934   5.446   5.580   3.857 -2.9850 -0.1779 -0.4287
 8324TIP3   OH224935   3.399   3.820   3.840 -0.1502 -0.1916 -0.2771
 8324TIP3    H124936   3.309   3.853   3.837  0.4855  1.6208 -1.8446
 8324TIP3    H224937   3.445   3.880   3.899  0.0179 -1.2140  0.6566
 8325TIP3   OH224938   3.873   3.705   5.095 -0.7635  0.1881 -0.5502
 8325TIP3    H124939   3.804   3.667   5.040 -1.2649  1.2976 -0.6995
 8325TIP3    H224940   3.827   3.761   5.157 -0.0769  0.0919  0.0593
 8326TIP3   OH224941   1.914   3.732   3.644 -0.6213  0.0706 -0.2912
 8326TIP3    H124942   1.906   3.707   3.736  1.6241  0.8816  0.1949
 8326TIP3    H224943   1.871   3.662   3.596 -0.2123 -1.3318  1.2911
 8327TIP3   OH224944   7.101   4.074   1.859 -0.0368  0.5140  0.2754
 8327TIP3    H124945   7.073   4.131   1.930 -3.2653  0.6001 -0.9216
 8327TIP3    H224946   7.076   3.986   1.886  1.4279  0.1188  0.4489
 8328TIP3   OH224947   3.890   2.737   0.067 -0.1966 -0.6239 -0.0577
 8328TIP3    H124948   3.815   2.678   0.068 -0.5349 -0.2207 -0.8641
 8328TIP3    H224949   3.871   2.801   0.135  0.1177 -1.3541  0.7435
 8329TIP3   OH224950   1.219   0.844   0.904  0.3583  0.1362 -0.1118
 8329TIP3    H124951   1.287   0.777   0.892  1.2041  0.8278  0.6288
 8329TIP3    H224952   1.160   0.832   0.830  0.7819 -1.0924 -0.2668
 8330TIP3   OH224953   2.676   5.188   1.140 -0.1029  0.1174 -0.3157
 8330TIP3    H124954   2.692   5.210   1.231  0.1345  0.9938 -0.5559
 8330TIP3    H224955   2.712   5.100   1.129  0.5814  0.3228  0.2399
 8331TIP3   OH224956   2.605   3.775   1.025 -0.2412 -0.0200 -0.1721
 8331TIP3    H124957   2.537   3.767   0.959 -1.1498 -2.8647  0.9513
 8331TIP3    H224958   2.680   3.728   0.988 -0.5860 -1.1760  0.5236
 8332TIP3   OH224959   6.534   6.483   5.229  0.8275 -0.3034  0.1184
 8332TIP3    H124960   6.533   6.446   5.318  3.5240  0.1620  0.4465
 8332TIP3    H224961   6.613   6.538   5.228  2.1310 -1.9938 -3.2199
 8333TIP3   OH224962   1.482   5.467   5.423 -0.4540  0.5114  0.0881
 8333TIP3    H124963   1.542   5.530   5.461  1.6655 -0.9156 -0.7327
 8333TIP3    H224964   1.511   5.382   5.457 -3.7324 -0.0880  1.8481
 8334TIP3   OH224965   0.620   0.858   3.446 -0.4337  0.2313  0.4034
 8334TIP3    H124966   0.621   0.795   3.518 -0.2424  2.7240  2.6825
 8334TIP3    H224967   0.626   0.944   3.487  0.2416  1.7889 -2.6245
 8335TIP3   OH224968   6.349   4.284   0.795  0.5610  0.1843  0.3239
 8335TIP3    H124969   6.316   4.325   0.715  1.0630 -1.3926 -0.7344
 8335TIP3    H224970   6.348   4.355   0.860  0.2934  1.5511 -1.0982
 8336TIP3   OH224971   5.038   6.226   4.066 -0.5883  0.4244 -0.3372
 8336TIP3    H124972   5.022   6.320   4.061  1.6408  0.9055  0.6268
 8336TIP3    H224973   5.112   6.211   4.007  0.5293 -0.3205  1.1946
 8337TIP3   OH224974   6.578   3.616   0.213  0.1750 -0.1280  0.3125
 8337TIP3    H124975   6.516   3.673   0.167 -0.9898 -1.1047  0.6266
 8337TIP3    H224976   6.524   3.569   0.277  1.5093  0.0893  1.6446
 8338TIP3   OH224977   6.458   3.557   2.323 -0.1790 -0.4900  0.4337
 8338TIP3    H124978   6.455   3.628   2.259  0.2200 -1.6798 -0.9631
 8338TIP3    H224979   6.496   3.597   2.401 -0.7957  1.0355 -0.0223
 8339TIP3   OH224980   4.275   5.812   0.187 -0.3638  0.4737 -0.1320
 8339TIP3    H124981   4.278   5.780   0.098  0.0649 -1.8278  0.6539
 8339TIP3    H224982   4.347   5.875   0.192  0.2119 -0.0783 -1.1582
 8340TIP3   OH224983   3.654   1.160   2.108  0.1978  0.1854 -0.1840
 8340TIP3    H124984   3.706   1.103   2.165  0.9142  1.1028  0.0939
 8340TIP3    H224985   3.670   1.248   2.140 -1.5759  0.5088 -0.0705
 8341TIP3   OH224986   3.418   6.108   2.505 -0.2282  0.1982  0.0399
 8341TIP3    H124987   3.494   6.086   2.450  0.8059  1.1243  1.0406
 8341TIP3    H224988   3.398   6.199   2.482  1.5678  1.3754  2.5625
 8342TIP3   OH224989   5.426   4.877   5.560 -0.0426 -0.4963 -0.4590
 8342TIP3    H124990   5.490   4.928   5.609 -0.7160 -0.1859  0.1124
 8342TIP3    H224991   5.471   4.852   5.480  0.9754 -0.7560  0.1849
 8343TIP3   OH224992   4.271   1.135   0.944 -0.0309  0.4446 -0.1891
 8343TIP3    H124993   4.261   1.044   0.972 -0.2715  0.1354 -1.2487
 8343TIP3    H224994   4.314   1.129   0.859 -1.1602  1.2534 -0.8333
 8344TIP3   OH224995   4.174   5.508   4.756  0.0044  0.7532 -0.1166
 8344TIP3    H124996   4.260   5.545   4.736 -0.4081  1.9353  0.2486
 8344TIP3    H224997   4.128   5.577   4.804 -0.9831 -0.0346  0.1077
 8345TIP3   OH224998   7.143   6.449   4.045  0.3791 -0.1802  0.1760
 8345TIP3    H124999   7.126   6.395   3.968 -1.8849 -1.2437  1.3096
 8345TIP3    H225000   7.063   6.442   4.097  1.8747  0.3248  2.7128
 8346TIP3   OH225001   5.039   1.760   1.668 -0.2053  0.0360  0.0626
 8346TIP3    H125002   5.097   1.834   1.688 -1.0301  0.4284  1.1456
 8346TIP3    H225003   4.982   1.792   1.598 -0.5658  0.4475  0.5355
 8347TIP3   OH225004   5.759   6.307   2.861  0.2587 -0.3489  0.2988
 8347TIP3    H125005   5.694   6.368   2.895  1.3127  0.9534  0.0760
 8347TIP3    H225006   5.772   6.244   2.932 -0.7093 -0.1930  0.6231
 8348TIP3   OH225007   0.343   2.338   1.463  0.7584  0.1547 -0.2075
 8348TIP3    H125008   0.375   2.283   1.391 -1.0275 -1.3881  0.0922
 8348TIP3    H225009   0.288   2.404   1.421 -0.6590 -1.0238 -0.2907
 8349TIP3   OH225010   2.517   1.465   4.486  0.1371  0.3852 -0.4705
 8349TIP3    H125011   2.506   1.508   4.402 -1.8908  0.4183 -0.2347
 8349TIP3    H225012   2.577   1.521   4.534 -1.3719  2.2706 -0.6724
 8350TIP3   OH225013   4.642   3.542   0.232 -0.1673 -0.1755 -0.0128
 8350TIP3    H125014   4.589   3.557   0.310 -1.4923  1.7397 -1.1876
 8350TIP3    H225015   4.727   3.582   0.253  0.2862 -1.6986  1.2329
 8351TIP3   OH225016   5.590   6.097   2.354  0.1514  0.7229 -0.2754
 8351TIP3    H125017   5.634   6.112   2.438 -0.2337 -1.5965  0.4055
 8351TIP3    H225018   5.530   6.171   2.345 -1.3558  0.0085  2.5914
 8352TIP3   OH225019   4.057   2.135   1.647 -0.4533  0.3065 -0.1893
 8352TIP3    H125020   4.136   2.145   1.701 -0.9327 -0.8622  0.7726
 8352TIP3    H225021   4.001   2.076   1.698 -1.3856  0.0534 -1.4798
 8353TIP3   OH225022   2.136   1.126   4.897  0.1158  0.1939  0.2164
 8353TIP3    H125023   2.211   1.092   4.848  0.1901 -0.4844  0.7888
 8353TIP3    H225024   2.062   1.115   4.838  0.5532  1.5354 -0.6428
 8354TIP3   OH225025   1.737   1.758   0.313 -0.3963 -0.5334  0.2651
 8354TIP3    H125026   1.735   1.720   0.225 -3.0555  2.2266 -1.0595
 8354TIP3    H225027   1.821   1.803   0.318 -0.5234 -0.0558 -1.2545
 8355TIP3   OH225028   1.868   3.492   2.985  0.3814 -0.0470 -0.4042
 8355TIP3    H125029   1.877   3.442   2.904 -1.0994 -0.5988 -0.2661
 8355TIP3    H225030   1.782   3.533   2.978  0.3575  0.1355  0.7631
 8356TIP3   OH225031   0.331   2.393   2.866  0.1175  0.7730  0.3893
 8356TIP3    H125032   0.384   2.361   2.940  1.9510 -0.5207 -1.3691
 8356TIP3    H225033   0.241   2.388   2.898  0.8327  0.2766  2.5320
 8357TIP3   OH225034   7.036   5.827   1.369 -0.1155  0.6261 -0.0604
 8357TIP3    H125035   7.010   5.888   1.439  0.6133  0.2674  0.5407
 8357TIP3    H225036   7.110   5.779   1.406  0.0387  0.1628 -0.9511
 8358TIP3   OH225037   5.925   5.842   3.329 -0.0095 -0.0029  0.2736
 8358TIP3    H125038   5.874   5.890   3.394 -0.3456 -0.8449  0.6477
 8358TIP3    H225039   5.917   5.751   3.356 -1.3589 -0.5475 -1.7595
 8359TIP3   OH225040   3.307   6.789   0.455  0.0086 -0.0037  0.0042
 8359TIP3    H125041   3.247   6.747   0.394  1.0352  0.8494 -1.6600
 8359TIP3    H225042   3.298   6.738   0.536 -1.8317 -0.7880 -0.6466
 8360TIP3   OH225043   6.271   4.021   1.428  0.6735 -0.0654  0.4984
 8360TIP3    H125044   6.211   3.982   1.491 -0.1830 -1.0056 -0.8691
 8360TIP3    H225045   6.357   3.985   1.452  0.3937 -0.2964  1.1927
 8361TIP3   OH225046   2.675   4.492   3.210 -0.1281 -0.7085  0.3979
 8361TIP3    H125047   2.746   4.487   3.145 -0.7193  0.4479 -0.3715
 8361TIP3    H225048   2.616   4.420   3.187 -0.8608  0.2926 -1.0416
 8362TIP3   OH225049   0.039   2.720   2.219 -0.4138  0.6269  0.9321
 8362TIP3    H125050   0.101   2.792   2.209 -0.7714  0.7139 -0.9214
 8362TIP3    H225051  -0.025   2.732   2.149 -0.0167 -1.9443  0.0041
 8363TIP3   OH225052   4.903   4.027   0.093 -0.0050  0.0999  0.2926
 8363TIP3    H125053   4.988   4.030   0.049  0.0319  0.5835  0.3970
 8363TIP3    H225054   4.848   4.087   0.043 -0.7693 -1.4150 -0.7711
 8364TIP3   OH225055   4.865   2.453   0.552 -0.5998  0.1769 -1.1162
 8364TIP3    H125056   4.776   2.480   0.528 -0.7470  1.3603  0.6248
 8364TIP3    H225057   4.921   2.523   0.519 -0.5571  0.5935 -0.1667
 8365TIP3   OH225058   0.190   1.966   2.848  0.0879 -0.0282 -0.2264
 8365TIP3    H125059   0.216   2.049   2.809  0.4453 -0.3234 -0.6213
 8365TIP3    H225060   0.115   1.937   2.795  0.3704 -0.2713 -0.4965
 8366TIP3   OH225061   5.664   4.540   2.860 -0.0064 -0.1781  0.0392
 8366TIP3    H125062   5.637   4.584   2.779 -1.1679  0.3864  0.6940
 8366TIP3    H225063   5.607   4.578   2.927  0.1308 -1.4833  0.9240
 8367TIP3   OH225064   6.026   1.133   4.448 -0.5683  0.4964 -0.0048
 8367TIP3    H125065   6.117   1.151   4.422 -0.3111  0.8032  1.0485
 8367TIP3    H225066   6.005   1.050   4.406  1.0639 -0.8711  1.6909
 8368TIP3   OH225067   0.632   1.524   4.860  0.6016  0.0916 -0.0004
 8368TIP3    H125068   0.696   1.584   4.822  0.6502  0.5143  0.7147
 8368TIP3    H225069   0.570   1.582   4.906 -0.3857 -0.2967 -0.8123
 8369TIP3   OH225070   2.286   5.700   2.134  0.4805 -0.1739  0.7127
 8369TIP3    H125071   2.248   5.635   2.193 -0.0180 -0.5976 -0.0529
 8369TIP3    H225072   2.380   5.693   2.148  0.7065 -3.2235 -1.4639
 8370TIP3   OH225073   5.242   6.291   2.101  0.3781  0.2764 -0.2200
 8370TIP3    H125074   5.264   6.380   2.127 -0.6111  0.6006 -0.4386
 8370TIP3    H225075   5.238   6.242   2.184  2.5402  0.0231 -0.2249
 8371TIP3   OH225076   7.038   1.720   4.465  0.1761  0.2583 -0.1652
 8371TIP3    H125077   7.043   1.747   4.556 -1.4731  2.9195 -0.7459
 8371TIP3    H225078   6.945   1.722   4.444  0.3991 -1.4776 -1.6331
 8372TIP3   OH225079   6.684   6.257   3.076 -0.3966 -0.4888 -0.2139
 8372TIP3    H125080   6.755   6.305   3.119 -0.4411 -0.8874  0.3176
 8372TIP3    H225081   6.612   6.320   3.071 -0.5670 -0.5951  0.7839
 8373TIP3   OH225082   6.453   4.634   2.276  0.1168  0.2350 -1.0694
 8373TIP3    H125083   6.376   4.578   2.290  0.1230  0.6878  1.0980
 8373TIP3    H225084   6.467   4.632   2.181 -1.0047 -1.9253 -1.2502
 8374TIP3   OH225085   6.785   5.649   3.981  0.8043 -0.4754 -0.2545
 8374TIP3    H125086   6.786   5.647   3.885 -1.0563 -0.0629 -0.3155
 8374TIP3    H225087   6.840   5.575   4.007 -0.6711 -2.1533 -1.6610
 8375TIP3   OH225088   6.796   1.004   1.037 -0.1962 -0.1557  0.1960
 8375TIP3    H125089   6.872   1.051   1.002 -0.6567  0.0220 -0.5831
 8375TIP3    H225090   6.828   0.915   1.051  0.1219 -0.1189 -0.2610
 8376TIP3   OH225091   2.609   1.656   0.582 -0.4843  0.3713  0.4673
 8376TIP3    H125092   2.581   1.737   0.623  1.2580  0.2859  1.9480
 8376TIP3    H225093   2.568   1.658   0.495 -1.0997  2.4450  0.7473
 8377TIP3   OH225094   1.284   2.732   0.209  0.1585  0.1513  0.6357
 8377TIP3    H125095   1.296   2.641   0.236 -0.8128  0.1448  1.0730
 8377TIP3    H225096   1.281   2.729   0.114  3.2550  0.1236  0.4252
 8378TIP3   OH225097   6.564   6.704   2.780  0.6469 -0.7357  0.2383
 8378TIP3    H125098   6.651   6.663   2.787  2.0472  2.2204  2.6403
 8378TIP3    H225099   6.575   6.772   2.713  0.4719  0.1848  1.1247
 8379TIP3   OH225100   7.069   1.363   4.089 -0.1890 -0.1032  0.0770
 8379TIP3    H125101   7.034   1.425   4.153 -1.4058 -0.9296  0.2439
 8379TIP3    H225102   7.148   1.328   4.130 -1.0382 -0.7354  1.2192
 8380TIP3   OH225103   0.922   6.023   3.443  0.7040 -0.3504 -0.3802
 8380TIP3    H125104   0.994   5.974   3.404  0.5032 -1.3475  0.4576
 8380TIP3    H225105   0.963   6.102   3.479  1.3831 -0.8780  0.0347
 8381TIP3   OH225106   2.071   5.139   3.715  0.2966  0.0472  0.2632
 8381TIP3    H125107   2.085   5.044   3.716 -0.8931 -0.1553 -0.3346
 8381TIP3    H225108   2.110   5.168   3.633  0.8198  0.1127  0.5296
 8382TIP3   OH225109   6.412   4.857   5.694 -0.5144 -0.1454 -0.2179
 8382TIP3    H125110   6.467   4.803   5.638 -0.9448 -1.7806  0.8651
 8382TIP3    H225111   6.359   4.909   5.634  1.2112  0.4631 -1.2753
 8383TIP3   OH225112   4.464   2.000   3.057 -0.0546 -0.2338 -0.1886
 8383TIP3    H125113   4.444   1.990   3.150  0.9522 -1.7062 -0.0933
 8383TIP3    H225114   4.462   2.094   3.041 -0.2297  0.0327  1.3320
 8384TIP3   OH225115   6.363   6.276   1.373 -0.4084 -0.2433 -0.4610
 8384TIP3    H125116   6.406   6.306   1.453 -1.9589 -0.0248  0.3235
 8384TIP3    H225117   6.372   6.181   1.375  0.8507 -0.1548 -0.8152
 8385TIP3   OH225118   0.327   3.911   3.432 -0.1094  0.4728 -0.2695
 8385TIP3    H125119   0.357   3.856   3.359  0.3151 -0.9202  0.9057
 8385TIP3    H225120   0.232   3.915   3.422 -0.0362  0.5187 -1.0299
 8386TIP3   OH225121   2.492   6.305   2.068  0.7562 -0.5593  0.0156
 8386TIP3    H125122   2.553   6.251   2.119  0.5909  0.5457  1.4460
 8386TIP3    H225123   2.406   6.288   2.106  0.6174  0.2220  0.0802
 8387TIP3   OH225124   2.552   1.121   2.086  0.2273  0.1678  0.5948
 8387TIP3    H125125   2.626   1.181   2.089  0.4420 -0.0409 -0.3070
 8387TIP3    H225126   2.588   1.036   2.114  0.1898  0.1961  0.7308
 8388TIP3   OH225127   0.980   6.168   0.374  0.0013 -0.0627  0.2927
 8388TIP3    H125128   0.959   6.181   0.282  0.5620 -0.4516  0.1034
 8388TIP3    H225129   0.937   6.240   0.420 -1.7135 -0.8013 -0.0712
 8389TIP3   OH225130   3.164   3.783   3.333  0.1306 -0.6064 -0.1060
 8389TIP3    H125131   3.087   3.837   3.316 -0.0453 -0.4190  1.1770
 8389TIP3    H225132   3.215   3.833   3.398  0.9197 -1.1017 -0.3278
 8390TIP3   OH225133   6.486   0.755   0.677 -0.2283 -0.3885  0.1302
 8390TIP3    H125134   6.417   0.707   0.630 -1.0781 -0.1478  1.0928
 8390TIP3    H225135   6.550   0.778   0.610 -1.4393  0.0073 -0.9205
 8391TIP3   OH225136   5.322   4.860   4.981  0.3613  0.0788  0.2568
 8391TIP3    H125137   5.357   4.911   4.908  1.7450  0.7419  1.3217
 8391TIP3    H225138   5.304   4.774   4.945  0.3544  0.5954 -1.0137
 8392TIP3   OH225139   4.232   2.820   5.240 -0.0991  0.1802  0.3073
 8392TIP3    H125140   4.226   2.856   5.152  0.5207  1.1179  0.6366
 8392TIP3    H225141   4.322   2.837   5.267  0.1594 -1.4480  0.5626
 8393TIP3   OH225142   2.941   6.235   3.661  0.5522  0.5427 -0.1946
 8393TIP3    H125143   3.008   6.283   3.710  0.7289  0.1813 -0.0790
 8393TIP3    H225144   2.989   6.195   3.589  0.1006  2.0635 -1.3985
 8394TIP3   OH225145   6.756   0.720   4.384  0.2830  0.6325 -0.1400
 8394TIP3    H125146   6.705   0.690   4.308 -0.3913  1.5675 -0.0713
 8394TIP3    H225147   6.847   0.713   4.356  0.0813  0.1071 -0.7073
 8395TIP3   OH225148   0.498   6.348   2.420  0.0747  0.0882 -0.6246
 8395TIP3    H125149   0.592   6.351   2.439  0.2184 -0.7617 -1.1904
 8395TIP3    H225150   0.484   6.419   2.357  0.0329  1.2907  0.6788
 8396TIP3   OH225151   4.535   6.731   4.177  0.5093  0.5295 -0.4850
 8396TIP3    H125152   4.476   6.679   4.122 -1.4747 -1.5938  3.2344
 8396TIP3    H225153   4.572   6.668   4.238  0.6815  2.9965  2.1528
 8397TIP3   OH225154   6.490   3.328   3.195 -0.0362 -0.6958  0.5083
 8397TIP3    H125155   6.511   3.414   3.159 -0.1724 -0.8174  0.1355
 8397TIP3    H225156   6.397   3.316   3.178 -0.2973 -0.4100  1.6364
 8398TIP3   OH225157   0.877   1.390   3.823 -0.2620 -0.7672 -0.0994
 8398TIP3    H125158   0.822   1.456   3.780  1.2812 -0.0013 -0.9670
 8398TIP3    H225159   0.928   1.439   3.888 -0.9388 -1.5590  1.0865
 8399TIP3   OH225160   6.797   6.468   1.554  0.1492  0.1855 -0.3088
 8399TIP3    H125161   6.788   6.389   1.500  2.3608 -0.7378  0.5647
 8399TIP3    H225162   6.800   6.540   1.492 -1.1627 -0.4584 -1.1631
 8400TIP3   OH225163   0.840   2.316   0.949  0.0493 -0.0429  0.2910
 8400TIP3    H125164   0.850   2.410   0.934  2.1518 -0.5623 -2.4259
 8400TIP3    H225165   0.919   2.290   0.995 -0.9935 -0.3866  1.9682
 8401TIP3   OH225166   5.682   2.599   2.835 -0.6226  0.6515  0.8575
 8401TIP3    H125167   5.681   2.513   2.793 -1.1926  0.9154  0.3138
 8401TIP3    H225168   5.656   2.582   2.925 -1.4270  0.3364  0.5784
 8402TIP3   OH225169   0.829   1.763   2.100 -0.4626 -0.2663  0.3276
 8402TIP3    H125170   0.770   1.765   2.175  0.6403 -0.5741  1.2157
 8402TIP3    H225171   0.780   1.809   2.031 -2.1327 -1.3418  0.7214
 8403TIP3   OH225172   5.534   4.950   4.127 -0.5642 -0.1723 -0.2481
 8403TIP3    H125173   5.464   4.887   4.114 -0.9792  0.7374 -2.8527
 8403TIP3    H225174   5.498   5.014   4.189 -2.1413  0.3299 -1.6092
 8404TIP3   OH225175   2.257   6.387   1.428 -0.5060  0.2683 -0.4210
 8404TIP3    H125176   2.207   6.323   1.378 -2.3322  1.4111 -0.1314
 8404TIP3    H225177   2.199   6.414   1.499  1.0253  0.6664  0.7521
 8405TIP3   OH225178   0.712   5.567   4.679 -0.5232 -0.0906  0.2462
 8405TIP3    H125179   0.796   5.544   4.639 -0.4456  1.0841 -0.3182
 8405TIP3    H225180   0.646   5.529   4.621 -0.3848 -0.5349  0.3804
 8406TIP3   OH225181   0.787   5.634   5.678 -0.6347  0.4578 -0.2908
 8406TIP3    H125182   0.800   5.539   5.676 -1.5483  0.2830 -3.1494
 8406TIP3    H225183   0.693   5.645   5.665 -0.3280  1.7043 -1.7818
 8407TIP3   OH225184   4.134   0.578   3.631 -0.0893  0.3245 -0.2950
 8407TIP3    H125185   4.192   0.637   3.679  0.4749  1.3921 -2.1543
 8407TIP3    H225186   4.094   0.523   3.698  0.7367  1.6277  1.3483
 8408TIP3   OH225187   0.615   2.430   2.510  0.3403 -0.3097 -1.1115
 8408TIP3    H125188   0.657   2.365   2.566 -1.1190 -1.5014 -1.3259
 8408TIP3    H225189   0.572   2.490   2.571  2.4277  1.0612 -0.8822
 8409TIP3   OH225190   7.119   3.873   5.195  0.1530  0.6252  0.1071
 8409TIP3    H125191   7.093   3.953   5.240  1.1251  0.7482  0.4982
 8409TIP3    H225192   7.121   3.896   5.102  1.9000  1.5409  0.3145
 8410TIP3   OH225193   6.924   0.758   5.204  0.1805 -0.0301  0.4763
 8410TIP3    H125194   6.991   0.751   5.137 -1.6396  0.1333 -1.4848
 8410TIP3    H225195   6.887   0.670   5.210  0.8876 -0.2484  1.9341
 8411TIP3   OH225196   0.088   1.995   3.546 -0.0199 -0.3690  0.0898
 8411TIP3    H125197   0.108   1.991   3.453  0.1903 -1.4992  0.1596
 8411TIP3    H225198   0.140   1.923   3.584  0.3495  0.4408  1.1606
 8412TIP3   OH225199   1.529   2.280   5.477 -0.2945 -0.4087 -0.3251
 8412TIP3    H125200   1.623   2.262   5.468 -0.1847 -1.1916  1.8469
 8412TIP3    H225201   1.487   2.195   5.465 -0.8050  0.0330 -1.8360
 8413TIP3   OH225202   6.164   6.330   2.138 -0.3968  0.1172  0.4943
 8413TIP3    H125203   6.137   6.242   2.164 -1.0581 -0.6743 -2.4409
 8413TIP3    H225204   6.094   6.387   2.168 -0.4203 -0.4779  1.6040
 8414TIP3   OH225205   1.969   0.116   3.007  0.2353  0.1201  0.5496
 8414TIP3    H125206   1.995   0.088   3.094  0.0292  1.1478  0.9521
 8414TIP3    H225207   1.921   0.041   2.971 -0.2058 -0.0885  1.5514
 8415TIP3   OH225208   6.187   6.120   2.574  0.5771 -0.5808 -0.3973
 8415TIP3    H125209   6.143   6.196   2.614 -0.3477 -0.5673 -1.3915
 8415TIP3    H225210   6.191   6.056   2.645  2.9104  0.9429  0.9842
 8416TIP3   OH225211   1.279   2.556   5.674  0.3756 -0.0076 -0.7782
 8416TIP3    H125212   1.313   2.467   5.669  1.7047  0.2989  1.6388
 8416TIP3    H225213   1.226   2.558   5.754 -0.2095  1.1945 -1.1633
 8417TIP3   OH225214   6.767   4.658   4.156 -0.5712  0.2634  0.0571
 8417TIP3    H125215   6.771   4.700   4.242 -0.4306  1.6230 -0.5857
 8417TIP3    H225216   6.699   4.706   4.109 -1.1393 -0.9219 -0.3652
 8418TIP3   OH225217   3.105   6.036   5.038  0.0852 -0.2865 -0.1273
 8418TIP3    H125218   3.059   6.087   4.972 -1.5187 -0.5658  0.7337
 8418TIP3    H225219   3.116   6.096   5.112 -1.1231 -0.9050  0.5944
 8419TIP3   OH225220   5.850   4.118   4.876 -0.4559  0.4627 -0.1729
 8419TIP3    H125221   5.931   4.135   4.829 -0.4119  0.9455  0.0673
 8419TIP3    H225222   5.840   4.193   4.934 -0.6449  0.0044  0.3992
 8420TIP3   OH225223   6.864   2.972   5.506  0.0867  0.5305  0.3132
 8420TIP3    H125224   6.896   3.017   5.584 -0.0574  0.2839  0.5189
 8420TIP3    H225225   6.930   2.905   5.487 -0.6413 -0.4699  1.1754
 8421TIP3   OH225226   4.995   0.460   4.312 -0.9322  1.1333 -0.8073
 8421TIP3    H125227   5.056   0.444   4.239  1.7302  0.4099  1.4036
 8421TIP3    H225228   4.943   0.380   4.316 -1.3311  1.3016 -2.0676
 8422TIP3   OH225229   1.512   0.468   3.080 -0.2467  0.1668 -0.5080
 8422TIP3    H125230   1.437   0.518   3.049  0.6322  0.4097 -2.4186
 8422TIP3    H225231   1.523   0.398   3.015  2.1879  1.1735 -1.3012
 8423TIP3   OH225232   2.457   4.509   0.861  0.2830 -0.3385  0.0268
 8423TIP3    H125233   2.418   4.521   0.948 -0.0244  0.5858 -0.2176
 8423TIP3    H225234   2.529   4.448   0.875  2.3339  2.1900  1.6062
 8424TIP3   OH225235   5.498   3.335   4.882 -0.2012 -0.0688  0.1526
 8424TIP3    H125236   5.571   3.386   4.846  0.0682 -0.7013 -0.2090
 8424TIP3    H225237   5.451   3.304   4.805 -0.5997 -0.0291  0.3827
 8425TIP3   OH225238   1.625   3.601   2.974  0.0448 -0.1946 -0.1416
 8425TIP3    H125239   1.549   3.573   2.924 -0.2820  0.4989 -0.0366
 8425TIP3    H225240   1.598   3.597   3.065 -0.1857  0.9400 -0.1411
 8426TIP3   OH225241   3.517   2.108   0.843 -0.6804 -0.3514  0.4917
 8426TIP3    H125242   3.548   2.199   0.843  0.3949 -0.6568 -1.2915
 8426TIP3    H225243   3.479   2.096   0.756 -2.0262 -1.2552  1.1711
 8427TIP3   OH225244   6.149   1.674   5.394  0.5191  0.4163 -0.4295
 8427TIP3    H125245   6.095   1.701   5.320  1.8149  0.6732 -1.3291
 8427TIP3    H225246   6.210   1.748   5.406  0.9193 -0.0235  0.2880
 8428TIP3   OH225247   3.166   3.555   3.081 -0.4722 -0.0400  0.0559
 8428TIP3    H125248   3.221   3.488   3.040  0.3117 -0.5737  1.8457
 8428TIP3    H225249   3.206   3.568   3.167 -0.8024  2.5225 -0.1121
 8429TIP3   OH225250   5.509   1.027   2.392 -0.5282  0.6936 -0.2639
 8429TIP3    H125251   5.576   0.998   2.454 -0.0956 -0.3984 -1.2015
 8429TIP3    H225252   5.440   0.961   2.397 -1.5970  1.8338  0.7259
 8430TIP3   OH225253   2.877   6.450   3.944  0.1816 -0.1786 -0.0040
 8430TIP3    H125254   2.961   6.443   3.989  0.1008  0.0457  0.1808
 8430TIP3    H225255   2.900   6.466   3.852  0.3463  1.6685  0.3243
 8431TIP3   OH225256   4.366   4.097   1.970 -0.4985 -0.5254  1.0242
 8431TIP3    H125257   4.417   4.102   1.889 -3.1782 -1.0027 -0.8381
 8431TIP3    H225258   4.382   4.008   2.003  1.1772 -0.0857  1.4939
 8432TIP3   OH225259   0.840   5.161   1.336 -0.2516 -0.2171 -0.0283
 8432TIP3    H125260   0.848   5.110   1.416 -1.5499 -2.3450 -1.1511
 8432TIP3    H225261   0.745   5.168   1.322 -0.0769  1.3830 -0.6373
 8433TIP3   OH225262   0.946   2.828   1.636  0.1139 -0.4997  0.0013
 8433TIP3    H125263   1.041   2.817   1.634  0.0203 -1.4284  0.4471
 8433TIP3    H225264   0.911   2.739   1.633 -0.6750 -0.5689  4.4313
 8434TIP3   OH225265   4.076   2.548   4.940 -0.3442  0.1222 -0.7085
 8434TIP3    H125266   4.043   2.580   4.856  0.3827 -1.5772 -1.7095
 8434TIP3    H225267   4.109   2.626   4.984 -0.7130  1.0593 -2.0130
 8435TIP3   OH225268   2.422   4.662   4.327 -0.0275 -0.4206  0.0628
 8435TIP3    H125269   2.432   4.605   4.250 -0.2982 -1.2998  0.6572
 8435TIP3    H225270   2.329   4.685   4.327  0.1400  0.2837 -0.3450
 8436TIP3   OH225271   2.079   6.075   5.261  0.3722 -0.3303  0.0807
 8436TIP3    H125272   2.086   6.125   5.342  1.0715 -1.3476  0.6718
 8436TIP3    H225273   2.168   6.045   5.243  0.0984 -0.7470 -0.6618
 8437TIP3   OH225274   6.851   3.748   0.663 -0.0478  0.0613 -0.4425
 8437TIP3    H125275   6.858   3.709   0.576 -3.2494 -2.2437  0.1548
 8437TIP3    H225276   6.774   3.805   0.658 -0.5182 -0.4082  0.9141
 8438TIP3   OH225277   2.587   1.215   5.421  0.5035 -0.0208  0.2132
 8438TIP3    H125278   2.562   1.123   5.429 -1.6169  0.5240  0.4375
 8438TIP3    H225279   2.672   1.213   5.377  0.9525 -2.1019  1.0648
 8439TIP3   OH225280   5.929   0.445   2.772 -0.3365 -0.0571  0.1353
 8439TIP3    H125281   5.885   0.442   2.687  0.5419 -1.0386 -0.3120
 8439TIP3    H225282   5.864   0.483   2.831 -0.8853  0.8351 -1.0084
 8440TIP3   OH225283   0.052   2.089   5.331  0.3968  0.1708 -0.1608
 8440TIP3    H125284   0.074   2.179   5.355 -0.5043  0.4139 -0.2166
 8440TIP3    H225285  -0.000   2.056   5.404  1.9375 -0.8275  0.5604
 8441TIP3   OH225286   2.644   5.919   2.006  0.5902  0.3900 -0.6848
 8441TIP3    H125287   2.735   5.948   2.006  0.6624  0.1904 -0.1790
 8441TIP3    H225288   2.638   5.860   2.082 -0.0872  0.8177 -0.3921
 8442TIP3   OH225289   6.998   0.988   5.401  0.3033 -1.0299 -0.2190
 8442TIP3    H125290   7.004   0.918   5.335  0.8849 -1.0625 -0.1371
 8442TIP3    H225291   6.907   1.018   5.396  0.3035 -1.1314 -0.9378
 8443TIP3   OH225292   1.411   0.087   0.533 -0.0768 -0.0157  0.4633
 8443TIP3    H125293   1.466   0.078   0.455 -0.5840 -0.1951  0.1172
 8443TIP3    H225294   1.472   0.107   0.604  0.4492 -0.3845  0.1210
 8444TIP3   OH225295   2.502   6.055   1.692 -0.2744  0.2636 -0.0061
 8444TIP3    H125296   2.439   6.008   1.747  1.5963 -1.0181  1.1542
 8444TIP3    H225297   2.539   6.121   1.750  1.3330 -0.7497  0.1893
 8445TIP3   OH225298   6.291   3.322   0.897 -0.2955  0.4057  0.3432
 8445TIP3    H125299   6.236   3.397   0.874 -0.8124 -0.2024 -0.4724
 8445TIP3    H225300   6.378   3.345   0.862 -0.8601 -0.1140 -1.5586
 8446TIP3   OH225301   6.781   6.454   0.923 -0.0551 -0.1660  0.4052
 8446TIP3    H125302   6.707   6.490   0.875  0.5240 -0.8971 -1.0915
 8446TIP3    H225303   6.772   6.359   0.914 -0.3460 -0.3827  2.4262
 8447TIP3   OH225304   1.139   5.363   3.034  0.2010 -0.2051  0.0978
 8447TIP3    H125305   1.224   5.321   3.021  0.3850  0.1523  0.1369
 8447TIP3    H225306   1.098   5.361   2.947 -0.4883 -1.9414  0.4182
 8448TIP3   OH225307   5.975   2.615   2.786 -0.2660  0.2587 -0.1611
 8448TIP3    H125308   5.987   2.581   2.875  1.0365 -1.4114 -0.9121
 8448TIP3    H225309   5.881   2.603   2.769 -0.3618 -0.2673  0.6679
 8449TIP3   OH225310   5.176   4.881   2.670  0.0335 -0.5104 -0.4158
 8449TIP3    H125311   5.209   4.793   2.688  0.7716  0.3176  2.8107
 8449TIP3    H225312   5.083   4.868   2.649 -0.3019 -1.9785  1.6889
 8450TIP3   OH225313   0.593   4.122   3.177 -0.4070  0.3274  0.3503
 8450TIP3    H125314   0.507   4.142   3.141 -0.7419 -0.2610  0.8083
 8450TIP3    H225315   0.587   4.147   3.269  0.2575  1.2778  0.1471
 8451TIP3   OH225316   5.788   1.365   0.016 -0.2249 -0.2494 -0.0801
 8451TIP3    H125317   5.814   1.416  -0.061  0.3667 -0.4269 -0.0027
 8451TIP3    H225318   5.826   1.413   0.089  2.0053 -1.8029 -0.1318
 8452TIP3   OH225319   3.770   0.575   0.401 -0.2620  0.0219  0.1127
 8452TIP3    H125320   3.786   0.648   0.340  0.3784 -1.2195 -1.2624
 8452TIP3    H225321   3.857   0.549   0.430 -0.5634  0.6529  1.6926
 8453TIP3   OH225322   0.325   1.963   0.272 -0.0500  0.3405 -0.6146
 8453TIP3    H125323   0.251   1.914   0.235  0.1382 -0.3982 -0.0257
 8453TIP3    H225324   0.382   1.980   0.196  0.4754 -1.4104 -0.6626
 8454TIP3   OH225325   6.854   3.781   2.697 -0.2029 -0.1885  0.3982
 8454TIP3    H125326   6.797   3.783   2.774 -0.3128  1.3435  0.3037
 8454TIP3    H225327   6.808   3.726   2.634 -1.2047  0.3828  0.6100
 8455TIP3   OH225328   0.728   3.988   4.012 -0.0644 -0.0885  0.9339
 8455TIP3    H125329   0.687   4.069   4.041  0.5323  0.3469  0.5829
 8455TIP3    H225330   0.672   3.918   4.048 -1.3727  0.4825  0.0762
 8456TIP3   OH225331   0.449   3.202   3.518  0.0831 -0.3565  0.0752
 8456TIP3    H125332   0.532   3.214   3.564  0.7309  0.5872 -1.2459
 8456TIP3    H225333   0.439   3.108   3.511  1.9735 -0.5228 -1.2671
 8457TIP3   OH225334   1.318   2.316   2.298  0.4938 -0.1983  0.1340
 8457TIP3    H125335   1.333   2.260   2.374  0.8734 -0.8291 -0.3865
 8457TIP3    H225336   1.248   2.271   2.249 -1.4737  1.4240  1.2792
 8458TIP3   OH225337   0.730   1.650   0.801  0.4615 -0.3233  0.1604
 8458TIP3    H125338   0.761   1.728   0.756  0.4889 -1.1331 -1.2890
 8458TIP3    H225339   0.809   1.603   0.826  0.4464 -0.5243 -0.1563
 8459TIP3   OH225340   0.881   6.201   2.113 -0.2674  0.6654 -0.1644
 8459TIP3    H125341   0.862   6.277   2.169  0.6772 -0.0085  1.1422
 8459TIP3    H225342   0.796   6.171   2.083 -0.6371  2.4495 -1.0131
 8460TIP3   OH225343   5.514   0.258   5.808  0.3045 -1.1504  0.0861
 8460TIP3    H125344   5.446   0.247   5.875 -2.1565 -0.3543 -2.1063
 8460TIP3    H225345   5.578   0.190   5.828 -1.0434 -1.8630  2.3683
 8461TIP3   OH225346   7.087   3.827   5.776 -0.3933  0.5637  0.8811
 8461TIP3    H125347   7.086   3.792   5.686 -0.0977  1.9631  0.3003
 8461TIP3    H225348   7.180   3.838   5.796 -0.4591  2.9871  0.1947
 8462TIP3   OH225349   1.814   1.057   2.192  0.1798  0.0509  0.0796
 8462TIP3    H125350   1.778   0.968   2.183  0.5272  0.0186 -1.2403
 8462TIP3    H225351   1.901   1.052   2.152  1.5015  0.2773  2.6808
 8463TIP3   OH225352   2.564   3.560   2.929  0.1709 -0.4362  0.6182
 8463TIP3    H125353   2.577   3.628   2.995  0.8191  0.5830 -0.5188
 8463TIP3    H225354   2.614   3.591   2.853  0.5358 -2.2289  0.0979
 8464TIP3   OH225355   7.202   6.109   4.223 -0.2521 -0.2268  0.2223
 8464TIP3    H125356   7.139   6.039   4.237  0.0820 -0.7329 -0.7175
 8464TIP3    H225357   7.150   6.189   4.219 -0.7095 -0.5082  0.5472
 8465TIP3   OH225358   4.937   1.725   3.148 -0.0488 -0.6059 -0.0404
 8465TIP3    H125359   4.964   1.801   3.096  0.8569 -0.2012  0.9749
 8465TIP3    H225360   4.962   1.650   3.094 -1.5821 -0.2276 -1.3719
 8466TIP3   OH225361   2.663   3.363   2.649  0.9860 -0.3823 -0.0169
 8466TIP3    H125362   2.588   3.339   2.702  2.2628  1.3634  2.7632
 8466TIP3    H225363   2.626   3.398   2.568 -1.1445 -0.3140  0.9443
 8467TIP3   OH225364   4.226   1.987   0.541  0.4551  0.0256 -0.1876
 8467TIP3    H125365   4.228   2.029   0.455 -2.4813 -0.9093 -0.8398
 8467TIP3    H225366   4.257   1.898   0.525  2.2933  0.5315  0.2922
 8468TIP3   OH225367   1.920   5.758   2.828  0.1640  0.0769  0.4763
 8468TIP3    H125368   1.914   5.846   2.865  1.3239 -0.7634  2.8733
 8468TIP3    H225369   2.011   5.750   2.799 -0.2076 -0.0025 -0.7189
 8469TIP3   OH225370   4.508   5.174   1.539  0.3155  0.1171 -0.6051
 8469TIP3    H125371   4.456   5.246   1.505 -0.3460 -0.6793 -1.3418
 8469TIP3    H225372   4.515   5.191   1.633 -0.5259  0.6980 -0.6377
 8470TIP3   OH225373   2.780   3.630   0.150  0.2895  0.5393  0.3475
 8470TIP3    H125374   2.871   3.657   0.147  0.7224 -0.8306  0.5681
 8470TIP3    H225375   2.766   3.603   0.241  0.5440 -2.0660 -0.3242
 8471TIP3   OH225376   5.892   3.295   4.731 -0.0388 -0.3184  0.5404
 8471TIP3    H125377   5.895   3.328   4.641  0.0499 -0.0843  0.6306
 8471TIP3    H225378   5.889   3.199   4.721  0.0653 -0.2951  0.2901
 8472TIP3   OH225379   0.439   1.832   4.082  0.1212  0.1096 -0.1320
 8472TIP3    H125380   0.385   1.842   4.160 -1.6770 -2.3628 -0.9417
 8472TIP3    H225381   0.510   1.894   4.095 -1.0031  1.0022  2.6553
 8473TIP3   OH225382   3.343   2.410   0.329 -0.2795 -0.4376 -0.0953
 8473TIP3    H125383   3.301   2.452   0.404 -0.6868 -0.3915 -0.3486
 8473TIP3    H225384   3.427   2.378   0.364 -1.3159 -2.2442  0.9467
 8474TIP3   OH225385   3.895   2.033   5.009  0.2989  0.2618 -0.0098
 8474TIP3    H125386   3.926   2.117   4.976  0.2496  1.5462  2.8867
 8474TIP3    H225387   3.975   1.985   5.031  0.3099 -0.2275 -1.0379
 8475TIP3   OH225388   4.955   0.315   2.885  0.0103  0.3659  0.0462
 8475TIP3    H125389   4.889   0.350   2.825  0.4021  1.2454  0.1034
 8475TIP3    H225390   5.017   0.387   2.896  1.5146 -0.7431 -0.7649
 8476TIP3   OH225391   0.622   1.204   2.599 -0.6297 -0.0852 -0.4792
 8476TIP3    H125392   0.558   1.216   2.668 -1.3259 -1.3711 -0.8610
 8476TIP3    H225393   0.579   1.147   2.535  0.4100  0.1122 -1.4002
 8477TIP3   OH225394   4.084   3.840   3.783 -0.2098 -0.4019  0.4942
 8477TIP3    H125395   4.151   3.775   3.802  0.4250  0.2476  0.5478
 8477TIP3    H225396   4.057   3.873   3.869 -1.8335 -1.8370  0.5870
 8478TIP3   OH225397   5.084   0.513   3.042  0.1192  0.0662  0.2008
 8478TIP3    H125398   5.112   0.590   3.092  0.6707 -0.1586  0.2372
 8478TIP3    H225399   5.147   0.445   3.064 -0.4540 -0.4526  0.2850
 8479TIP3   OH225400   0.276   5.801   2.373  0.1354 -0.2628 -0.3158
 8479TIP3    H125401   0.321   5.880   2.343  1.0772 -0.5421  0.3115
 8479TIP3    H225402   0.235   5.827   2.456 -0.3780 -0.1712 -0.5950
 8480TIP3   OH225403   5.366   2.359   3.933 -0.8328  0.2964 -0.4417
 8480TIP3    H125404   5.342   2.335   4.022 -1.0999 -0.5287 -0.7221
 8480TIP3    H225405   5.432   2.294   3.908  0.3700  1.4361 -0.3203
 8481TIP3   OH225406   3.586   5.026   5.142 -0.2738 -0.2665  0.3515
 8481TIP3    H125407   3.529   5.019   5.218 -0.0247  1.3609  0.7143
 8481TIP3    H225408   3.527   5.047   5.070 -0.2148  0.7799  0.6035
 8482TIP3   OH225409   4.906   4.904   4.816  0.2452 -0.0011 -0.4861
 8482TIP3    H125410   4.855   4.825   4.800  1.2164 -1.2461  2.0615
 8482TIP3    H225411   4.847   4.960   4.868  0.8499 -0.8053  1.1494
 8483TIP3   OH225412   5.912   0.577   1.954  0.5638 -0.4629 -0.1336
 8483TIP3    H125413   5.819   0.580   1.977  0.3501  1.4796 -1.0446
 8483TIP3    H225414   5.954   0.637   2.015  0.2209  3.4589 -3.2889
 8484TIP3   OH225415   1.954   6.746   4.941  0.0225 -0.2173 -0.4612
 8484TIP3    H125416   1.939   6.675   5.005 -2.3505  0.7654  0.1574
 8484TIP3    H225417   2.029   6.794   4.977  0.7677 -1.5456 -0.1461
 8485TIP3   OH225418   3.180   2.407   0.102  0.1872  0.9090 -0.5666
 8485TIP3    H125419   3.239   2.464   0.053  0.0067  1.6395  0.0558
 8485TIP3    H225420   3.223   2.396   0.187  0.3638 -0.1274 -0.7659
 8486TIP3   OH225421   6.002   0.298   3.236 -0.1787 -0.7602 -0.3494
 8486TIP3    H125422   6.088   0.259   3.246 -0.8579 -2.4813 -0.8267
 8486TIP3    H225423   6.016   0.374   3.180  0.8902 -1.6012 -1.2701
 8487TIP3   OH225424   3.549   3.408   0.931 -0.0628 -0.2496  0.0064
 8487TIP3    H125425   3.561   3.365   0.847  1.3594 -0.8456  0.4852
 8487TIP3    H225426   3.612   3.365   0.989 -1.4581 -0.2928  1.5471
 8488TIP3   OH225427   1.134   2.505   4.138  0.0612 -0.1820  0.2429
 8488TIP3    H125428   1.174   2.474   4.057  0.0641 -0.2438  0.2683
 8488TIP3    H225429   1.042   2.479   4.131 -0.1946  0.7972 -0.2490
 8489TIP3   OH225430   5.483   3.022   1.728 -0.3480 -0.3400  0.2470
 8489TIP3    H125431   5.505   3.115   1.735  0.5245 -0.4626 -0.6293
 8489TIP3    H225432   5.402   3.020   1.676 -0.6130 -0.0538  0.6442
 8490TIP3   OH225433   0.998   6.302   5.631  0.1668  0.3190  0.3762
 8490TIP3    H125434   0.928   6.367   5.633 -0.6787 -0.5640  1.4972
 8490TIP3    H225435   1.027   6.296   5.722  1.1075  0.0543  0.0666
 8491TIP3   OH225436   6.779   4.653   4.641  0.3390 -0.3166  0.1256
 8491TIP3    H125437   6.751   4.580   4.695 -0.0337 -0.1206  0.2046
 8491TIP3    H225438   6.859   4.684   4.682  0.3401 -0.4978  0.2608
 8492TIP3   OH225439   6.724   1.028   1.385 -0.5542 -0.1085  0.0748
 8492TIP3    H125440   6.703   1.089   1.455 -0.3992 -0.4338  0.4075
 8492TIP3    H225441   6.672   1.058   1.310 -0.2651  0.5973  0.1515
 8493TIP3   OH225442   2.326   6.277   3.683  0.5443  0.3343 -0.3491
 8493TIP3    H125443   2.297   6.236   3.601  1.8842  0.6719 -1.0359
 8493TIP3    H225444   2.419   6.253   3.689  0.6147  0.8546  0.7412
 8494TIP3   OH225445   1.076   6.291   1.473 -0.1214 -0.0032  0.5703
 8494TIP3    H125446   1.117   6.310   1.557  0.2240 -0.1894  0.4474
 8494TIP3    H225447   1.054   6.377   1.437 -0.0092  0.0919  0.7246
 8495TIP3   OH225448   0.409   2.428   4.778  0.2429 -0.2425  0.5733
 8495TIP3    H125449   0.433   2.385   4.695  1.1355 -0.6019  1.0032
 8495TIP3    H225450   0.470   2.502   4.785  0.5004 -0.5021  1.1371
 8496TIP3   OH225451   3.763   5.943   2.908 -0.0159 -0.0578 -0.6412
 8496TIP3    H125452   3.710   5.954   2.829 -0.3032 -0.8275 -0.5613
 8496TIP3    H225453   3.781   6.033   2.937 -1.9305  0.2264 -0.2271
 8497TIP3   OH225454   4.685   1.654   1.687  0.2070 -0.8232 -0.0310
 8497TIP3    H125455   4.677   1.593   1.761 -0.2606 -0.4182  0.2591
 8497TIP3    H225456   4.652   1.737   1.721 -0.9343 -0.8652 -0.9716
 8498TIP3   OH225457   5.905   0.965   0.543  0.0989  0.2152  0.0298
 8498TIP3    H125458   5.959   0.945   0.466 -0.7233  0.8472 -0.7261
 8498TIP3    H225459   5.968   0.969   0.615  2.1073  5.7588 -1.4588
 8499TIP3   OH225460   0.315   4.376   5.328 -0.3211  0.5092  0.2747
 8499TIP3    H125461   0.254   4.415   5.391 -2.2779 -1.3709 -0.3464
 8499TIP3    H225462   0.265   4.370   5.246  1.0449 -0.1893 -0.5491
 8500TIP3   OH225463   3.354   5.869   1.269 -0.0805  0.7392 -0.0440
 8500TIP3    H125464   3.396   5.848   1.352 -0.5848  1.6631  0.4574
 8500TIP3    H225465   3.425   5.899   1.213  0.5398 -1.4152 -0.5250
 8501TIP3   OH225466   5.832   2.091   4.889 -0.5083  0.2637 -0.2591
 8501TIP3    H125467   5.914   2.064   4.847  0.2964  1.7034  0.2912
 8501TIP3    H225468   5.808   2.016   4.944  0.9684  0.1355  0.2780
 8502TIP3   OH225469   1.086   6.084   2.380 -0.4253  0.3242  0.6905
 8502TIP3    H125470   1.092   6.026   2.457 -2.4477 -1.9050 -0.6920
 8502TIP3    H225471   1.136   6.038   2.312 -1.0631  0.8225 -0.1251
 8503TIP3   OH225472   1.701   2.691   1.360 -0.3878 -0.2148  0.0285
 8503TIP3    H125473   1.686   2.735   1.276  0.3439  0.2287  0.1200
 8503TIP3    H225474   1.795   2.701   1.375 -0.5925  0.1285  1.1317
 8504TIP3   OH225475   7.095   6.149   4.848 -0.2963 -0.1577  0.4721
 8504TIP3    H125476   7.049   6.102   4.778  0.8167 -2.7414  1.3572
 8504TIP3    H225477   7.038   6.141   4.924  1.2624 -3.2093  1.5227
 8505TIP3   OH225478   4.112   4.300   1.547 -0.4374  0.2591  0.0797
 8505TIP3    H125479   4.110   4.385   1.505  1.4444  0.2062 -0.1785
 8505TIP3    H225480   4.191   4.301   1.601 -1.6503 -0.4578  1.9833
 8506TIP3   OH225481   1.664   6.580   4.349  0.4140  0.1099 -0.5703
 8506TIP3    H125482   1.719   6.574   4.271  2.1913 -0.0169  0.6299
 8506TIP3    H225483   1.715   6.537   4.418 -1.0865  0.2371  0.6785
 8507TIP3   OH225484   5.681   3.499   4.763  0.1143 -0.1555  0.4155
 8507TIP3    H125485   5.740   3.574   4.768 -0.2559  0.1614  0.0519
 8507TIP3    H225486   5.738   3.426   4.736  0.0641  0.4813 -1.5555
 8508TIP3   OH225487   6.735   6.435   2.533  0.3882 -0.3610  0.1063
 8508TIP3    H125488   6.668   6.493   2.497 -0.5655 -1.6911 -0.3608
 8508TIP3    H225489   6.815   6.458   2.486 -0.2388 -0.2188 -0.9217
 8509TIP3   OH225490   2.182   5.416  -0.024  0.1430  0.8434  0.1367
 8509TIP3    H125491   2.278   5.410  -0.030  0.1795  2.3132 -1.4266
 8509TIP3    H225492   2.166   5.458   0.060  0.8902  0.8947  0.2647
 8510TIP3   OH225493   6.550   3.357   4.533 -0.3432 -0.0757 -0.3674
 8510TIP3    H125494   6.546   3.307   4.615 -1.2006  0.1052 -0.2921
 8510TIP3    H225495   6.637   3.338   4.499 -0.0902 -0.4117  0.4233
 8511TIP3   OH225496   6.343   6.168   0.441 -0.0323  0.4154  0.2079
 8511TIP3    H125497   6.323   6.252   0.482  0.6937  0.0516  1.3563
 8511TIP3    H225498   6.405   6.190   0.372 -0.0894  0.8586  0.2928
 8512TIP3   OH225499   4.840   0.617   2.962 -0.3336  0.6743  0.2979
 8512TIP3    H125500   4.787   0.539   2.981  0.8015 -0.5106 -1.1706
 8512TIP3    H225501   4.928   0.594   2.992  0.8086 -0.0525 -3.2060
 8513TIP3   OH225502   2.225   2.496   2.189  0.1126  0.1493 -0.9739
 8513TIP3    H125503   2.159   2.563   2.203  1.0613  1.3029 -1.7459
 8513TIP3    H225504   2.223   2.443   2.268 -0.7769  0.9932 -0.4114
 8514TIP3   OH225505   0.416   6.573   4.829 -0.0220  0.4703 -0.5238
 8514TIP3    H125506   0.395   6.635   4.898 -1.9007 -0.1825 -0.4466
 8514TIP3    H225507   0.512   6.567   4.830  0.0214  0.2344  2.2562
 8515TIP3   OH225508   5.588   0.724   0.471  0.0980  0.0356 -0.8364
 8515TIP3    H125509   5.593   0.790   0.541  0.8758 -0.2962 -0.5646
 8515TIP3    H225510   5.497   0.694   0.473  0.3350 -0.7246  0.7744
 8516TIP3   OH225511   5.774   1.550   0.584 -0.2711  0.3791 -0.3564
 8516TIP3    H125512   5.751   1.459   0.602  3.3855 -0.5665  0.2450
 8516TIP3    H225513   5.869   1.549   0.571  0.1100  4.2819  0.8124
 8517TIP3   OH225514   5.321   2.326   2.345  0.0867  0.0431  0.8287
 8517TIP3    H125515   5.323   2.239   2.307  1.1896  0.4721 -0.1687
 8517TIP3    H225516   5.270   2.378   2.283 -0.5017  0.1229  1.3789
 8518TIP3   OH225517   6.262   5.873   0.784 -0.1213 -0.0437 -0.1491
 8518TIP3    H125518   6.271   5.779   0.794  0.8989  0.0184 -0.3197
 8518TIP3    H225519   6.314   5.893   0.705 -1.7247  0.4383 -1.1311
 8519TIP3   OH225520   2.710   2.931   1.209 -0.2267 -0.0846  0.0365
 8519TIP3    H125521   2.689   2.837   1.215  0.1724 -0.0635  2.2365
 8519TIP3    H225522   2.662   2.960   1.131 -1.9889 -1.7099  0.4209
 8520TIP3   OH225523   4.406   2.444   4.059  0.2988 -0.4230  0.2027
 8520TIP3    H125524   4.434   2.463   3.969  1.1495  0.3541  0.6068
 8520TIP3    H225525   4.328   2.390   4.050 -1.4927  2.2063 -1.0339
 8521TIP3   OH225526   1.899   0.734   1.843 -0.1029  0.0605  0.7142
 8521TIP3    H125527   1.834   0.793   1.880 -0.4769  0.3070 -0.2892
 8521TIP3    H225528   1.909   0.763   1.752 -0.6541 -1.6896  0.0445
 8522TIP3   OH225529   2.607   5.711   2.193 -0.5817 -0.5030  0.0430
 8522TIP3    H125530   2.604   5.736   2.285 -0.0291 -0.0499 -0.0571
 8522TIP3    H225531   2.672   5.641   2.189 -0.8561 -0.7603  0.0488
 8523TIP3   OH225532   0.753   2.544   0.492  0.1848 -0.2828 -0.2023
 8523TIP3    H125533   0.802   2.592   0.425  2.6773  2.4844  3.2210
 8523TIP3    H225534   0.789   2.456   0.490  2.4983  0.6061 -0.4934
 8524TIP3   OH225535   2.776   6.613   3.485 -0.1746 -0.1596  0.3199
 8524TIP3    H125536   2.871   6.620   3.474 -0.1620 -1.0149 -0.2284
 8524TIP3    H225537   2.741   6.687   3.436  0.1559 -0.7322 -0.8309
 8525TIP3   OH225538   0.473   5.352   1.056 -0.0808  0.4970  0.4491
 8525TIP3    H125539   0.506   5.366   1.144  2.2685  1.8230 -0.5418
 8525TIP3    H225540   0.406   5.419   1.044 -1.4757 -0.6099  1.6431
 8526TIP3   OH225541   1.620   2.472   1.213  0.1017  0.0887 -0.2237
 8526TIP3    H125542   1.552   2.516   1.162  0.0116 -0.6815 -0.7901
 8526TIP3    H225543   1.648   2.538   1.277 -1.2988  0.3590  0.1471
 8527TIP3   OH225544   5.623   1.607   4.068  0.0561  0.2116  1.1491
 8527TIP3    H125545   5.546   1.640   4.114  0.3547 -0.0389  1.8478
 8527TIP3    H225546   5.618   1.511   4.077 -0.0415  0.1335  0.3849
 8528TIP3   OH225547   6.115   4.199   5.824  0.2044 -0.1506  0.5191
 8528TIP3    H125548   6.201   4.242   5.816 -0.0214  0.0795 -0.8671
 8528TIP3    H225549   6.052   4.271   5.815 -0.1578 -0.2004  2.3098
 8529TIP3   OH225550   5.040   0.956   3.646  0.4527  0.2431  0.0761
 8529TIP3    H125551   5.077   1.010   3.716  0.7614  0.3554 -0.1766
 8529TIP3    H225552   5.102   0.884   3.636  0.0410 -0.1688  0.4169
 8530TIP3   OH225553   5.087   3.383   2.685  0.4470 -0.4213 -0.0053
 8530TIP3    H125554   5.128   3.330   2.754 -0.5706 -0.2770  0.7358
 8530TIP3    H225555   5.044   3.320   2.628 -0.8713 -0.4307  0.9463
 8531TIP3   OH225556   1.320   1.521   5.622  0.3428 -0.2759  0.1526
 8531TIP3    H125557   1.277   1.595   5.666 -0.6229 -0.9278  0.3193
 8531TIP3    H225558   1.389   1.494   5.683  0.4075  0.1926  0.2948
 8532TIP3   OH225559   2.479   3.670   0.567  0.4769  0.3353 -0.3699
 8532TIP3    H125560   2.393   3.704   0.542  0.4471 -1.3800 -3.1081
 8532TIP3    H225561   2.541   3.737   0.538  0.1781  0.4802 -0.6784
 8533TIP3   OH225562   0.329   4.064   2.432 -0.0434  0.8988  0.3299
 8533TIP3    H125563   0.326   4.102   2.519  0.5338  3.1757 -0.5686
 8533TIP3    H225564   0.422   4.054   2.412 -0.1773 -1.1205  0.5478
 8534TIP3   OH225565   6.210   1.157   3.923  0.6539  0.0049 -0.4308
 8534TIP3    H125566   6.196   1.243   3.962  1.0512  0.0586 -0.4003
 8534TIP3    H225567   6.162   1.097   3.979 -2.4927  0.5519 -2.2893
 8535TIP3   OH225568   1.516   1.445   4.757  0.0398 -0.4009 -0.2165
 8535TIP3    H125569   1.572   1.414   4.828  0.1221  0.5466  0.1435
 8535TIP3    H225570   1.539   1.389   4.683  2.1711  0.5640 -0.3534
 8536TIP3   OH225571   3.641   6.669   4.592 -0.1228  0.0443 -0.0728
 8536TIP3    H125572   3.640   6.635   4.682 -0.5662 -2.2299 -0.8637
 8536TIP3    H225573   3.694   6.749   4.597  0.3315 -0.3292  2.1004
 8537TIP3   OH225574   1.984   1.467   2.747 -0.0810  0.1232  0.2970
 8537TIP3    H125575   2.000   1.382   2.707  0.8442  0.5285 -0.2298
 8537TIP3    H225576   2.004   1.455   2.840  2.8506  0.4297 -0.2077
 8538TIP3   OH225577   4.912   6.005   3.095 -0.3908 -0.0640  0.4884
 8538TIP3    H125578   4.881   6.011   3.004  1.0230 -1.8488 -0.1721
 8538TIP3    H225579   4.840   5.962   3.141 -1.6758  2.0313  0.5831
 8539TIP3   OH225580   3.372   0.252   3.524 -0.1908  0.2469  0.2232
 8539TIP3    H125581   3.350   0.162   3.548 -4.5699  1.2731  0.9813
 8539TIP3    H225582   3.391   0.295   3.607 -2.5673  0.8880  0.5235
 8540TIP3   OH225583   1.454   6.797   3.058  0.2788  0.8770 -0.0329
 8540TIP3    H125584   1.548   6.786   3.041 -0.2535 -0.1166 -2.7811
 8540TIP3    H225585   1.443   6.769   3.148  2.1917 -2.0435 -0.5717
 8541TIP3   OH225586   6.042   2.929   5.189 -0.4443  1.0612 -0.1860
 8541TIP3    H125587   6.047   2.942   5.284 -1.7060  1.6539 -0.1795
 8541TIP3    H225588   6.012   3.013   5.155 -1.8270  0.3181 -0.8947
 8542TIP3   OH225589   0.184   3.239   5.138 -0.7869  0.4283 -0.2524
 8542TIP3    H125590   0.107   3.208   5.186 -1.0936  1.4346 -0.0663
 8542TIP3    H225591   0.162   3.226   5.046  0.1161 -2.2461 -0.1761
 8543TIP3   OH225592   2.695   6.513   0.683 -0.1808  0.4498  0.0503
 8543TIP3    H125593   2.761   6.489   0.748 -0.8693  2.2106  1.5110
 8543TIP3    H225594   2.615   6.528   0.735 -1.4765 -0.6427 -1.5324
 8544TIP3   OH225595   5.495   4.170   4.089 -0.5417  0.2000  1.0289
 8544TIP3    H125596   5.508   4.263   4.108 -0.0480  0.3791 -0.1037
 8544TIP3    H225597   5.565   4.126   4.138 -0.7819  0.4142  1.5793
 8545TIP3   OH225598   3.796   3.203   5.876 -0.1838  0.3893 -0.1643
 8545TIP3    H125599   3.745   3.125   5.855 -1.8469  0.4138  3.1150
 8545TIP3    H225600   3.765   3.269   5.814 -2.7200 -0.1676  0.3966
 8546TIP3   OH225601   5.695   0.042   1.343  0.4585  0.4005  0.3661
 8546TIP3    H125602   5.631   0.113   1.348 -0.3453 -0.2493 -0.4053
 8546TIP3    H225603   5.766   0.077   1.289 -0.7793  0.0362 -1.6081
 8547TIP3   OH225604   1.890   5.921   5.389 -0.4628 -0.2803 -0.7180
 8547TIP3    H125605   1.935   5.961   5.315  1.3526  0.5496  0.7606
 8547TIP3    H225606   1.957   5.912   5.457 -1.6692 -2.5374  0.2756
 8548TIP3   OH225607   7.044   1.370   3.072 -0.4186  0.8720 -0.3275
 8548TIP3    H125608   7.117   1.309   3.085 -1.2061 -0.4187 -1.6853
 8548TIP3    H225609   7.083   1.445   3.028  0.1411  0.2839 -0.8512
 8549TIP3   OH225610   0.917   0.170   1.038 -0.8175  0.5464  0.3103
 8549TIP3    H125611   0.987   0.177   1.103  0.2439 -0.1183 -0.7089
 8549TIP3    H225612   0.871   0.089   1.062  0.8903 -0.8809 -0.9217
 8550TIP3   OH225613   5.768   6.165   4.140  0.0210  0.2564 -0.5730
 8550TIP3    H125614   5.845   6.125   4.181  0.0037  1.2478  0.4887
 8550TIP3    H225615   5.700   6.098   4.146 -0.2994  0.7001  2.0941
 8551TIP3   OH225616   2.378   6.162   0.457 -0.4470  0.2300  0.1991
 8551TIP3    H125617   2.442   6.163   0.387 -1.1741  0.7622 -0.4729
 8551TIP3    H225618   2.296   6.189   0.416 -1.6582 -2.5552  0.5241
 8552TIP3   OH225619   0.577   5.672   3.446  0.1633 -0.0951 -0.0166
 8552TIP3    H125620   0.650   5.727   3.420 -0.1886  0.9291  1.0944
 8552TIP3    H225621   0.586   5.663   3.541 -2.3008  1.7980  0.4793
 8553TIP3   OH225622   6.096   2.305   4.685  0.0284  0.2134 -0.0920
 8553TIP3    H125623   6.177   2.346   4.654  0.6025 -1.1695 -0.4853
 8553TIP3    H225624   6.083   2.341   4.773  1.0554  0.4709 -0.0307
 8554TIP3   OH225625   2.492   5.292   4.095  0.3110  0.5646 -0.0432
 8554TIP3    H125626   2.521   5.203   4.074  0.6274  0.5070  0.6300
 8554TIP3    H225627   2.398   5.292   4.078  0.5248  0.4950 -1.3751
 8555TIP3   OH225628   3.897   4.013   4.908  0.1296 -0.3406 -0.0354
 8555TIP3    H125629   3.921   4.053   4.825 -2.8280 -0.9027 -1.3014
 8555TIP3    H225630   3.962   3.944   4.922 -0.3365 -1.4718 -2.8980
 8556TIP3   OH225631   1.659   0.304   2.674  0.3559 -0.0755 -0.4431
 8556TIP3    H125632   1.721   0.351   2.619 -0.3552  0.8195 -0.5071
 8556TIP3    H225633   1.689   0.319   2.763  0.6294 -0.2306 -0.5103
 8557TIP3   OH225634   0.979   3.325   4.765  0.2329  0.0883 -0.1291
 8557TIP3    H125635   1.073   3.340   4.765  0.2930 -0.2028 -1.1501
 8557TIP3    H225636   0.941   3.412   4.777  0.6287  0.3402 -0.6626
 8558TIP3   OH225637   5.694   4.592   0.124  0.0773 -0.5599  0.0422
 8558TIP3    H125638   5.598   4.586   0.120  0.0362 -0.9021  1.2234
 8558TIP3    H225639   5.713   4.607   0.217  1.1578 -0.1881 -0.2283
 8559TIP3   OH225640   3.613   6.498   5.052 -0.6198 -0.1849  0.4707
 8559TIP3    H125641   3.566   6.528   5.130  0.8695  1.0613  0.9545
 8559TIP3    H225642   3.555   6.520   4.979 -0.4710  2.1412  0.9726
 8560TIP3   OH225643   6.088   2.549   0.293 -0.2620  0.7758  0.0467
 8560TIP3    H125644   5.997   2.578   0.285 -0.1233  1.1270 -0.2625
 8560TIP3    H225645   6.131   2.618   0.344 -0.2640  0.4057  0.5535
 8561TIP3   OH225646   3.250   3.387   0.831 -1.1200 -0.0212 -0.1168
 8561TIP3    H125647   3.303   3.330   0.887 -2.6854 -0.9200  0.4971
 8561TIP3    H225648   3.293   3.472   0.837  0.7145 -0.8669 -0.2889
 8562TIP3   OH225649   5.704   0.250   3.068  0.3331 -0.2869 -0.4846
 8562TIP3    H125650   5.644   0.204   3.008 -1.8694  2.1504 -0.3224
 8562TIP3    H225651   5.791   0.222   3.040 -0.7428 -4.2794 -0.5573
 8563TIP3   OH225652   6.713   3.223   4.761  0.1587  0.8731  0.5929
 8563TIP3    H125653   6.761   3.143   4.743 -0.1232  1.0808 -1.3385
 8563TIP3    H225654   6.769   3.274   4.819  2.5228  1.2689 -1.8380
 8564TIP3   OH225655   6.872   0.448   5.224 -0.2916  0.1951  0.3584
 8564TIP3    H125656   6.946   0.406   5.269  0.9420  1.9545  0.0455
 8564TIP3    H225657   6.892   0.439   5.131 -0.7169  0.3046  0.2521
 8565TIP3   OH225658   3.840   3.435   2.399  0.2793 -0.2118 -0.1003
 8565TIP3    H125659   3.801   3.486   2.470 -0.0620 -0.3567 -0.1831
 8565TIP3    H225660   3.794   3.463   2.321 -1.6608 -2.3843  0.1564
 8566TIP3   OH225661   4.511   5.035   4.196 -0.0029 -0.1801  0.0814
 8566TIP3    H125662   4.547   5.123   4.210 -0.4459 -0.1342  0.9569
 8566TIP3    H225663   4.584   4.985   4.159  0.9418 -0.0526  1.6840
 8567TIP3   OH225664   6.946   2.295   5.493  0.2578 -0.1931 -0.2118
 8567TIP3    H125665   6.889   2.239   5.547  0.0515  0.6013  0.4105
 8567TIP3    H225666   7.007   2.333   5.556  0.1429  0.5924 -0.5740
 8568TIP3   OH225667   1.973   5.144   3.153 -0.1489 -0.0508  0.1693
 8568TIP3    H125668   1.958   5.079   3.085  0.9544 -0.5059  0.3332
 8568TIP3    H225669   2.028   5.099   3.218  1.3503  1.2555 -0.1106
 8569TIP3   OH225670   6.463   3.936   4.886 -0.1562 -0.5618  0.2509
 8569TIP3    H125671   6.455   3.913   4.793 -1.8779  2.0656 -0.3431
 8569TIP3    H225672   6.397   3.882   4.930 -1.3499  0.2535 -0.5041
 8570TIP3   OH225673   6.466   2.072   2.239 -0.2991  0.9651  0.2740
 8570TIP3    H125674   6.413   2.141   2.280  0.5904  0.2483  2.7688
 8570TIP3    H225675   6.542   2.118   2.204 -1.6586  1.7653 -1.8906
 8571TIP3   OH225676   4.738   5.822   3.909 -0.2428 -0.4828 -0.6608
 8571TIP3    H125677   4.764   5.746   3.856 -0.4371  0.2145 -1.7749
 8571TIP3    H225678   4.807   5.828   3.976 -0.1571 -1.5579 -0.6339
 8572TIP3   OH225679   1.753   6.323   5.269  0.2983  0.2478 -0.0885
 8572TIP3    H125680   1.703   6.348   5.347  0.6776  0.2615  0.1578
 8572TIP3    H225681   1.843   6.311   5.302  0.5033  0.4662 -0.5674
 8573TIP3   OH225682   6.642   5.976   3.100 -0.5078  0.3459 -0.3178
 8573TIP3    H125683   6.638   6.065   3.065 -1.8237  1.7396  2.9401
 8573TIP3    H225684   6.708   5.980   3.169 -1.4220 -0.8496  0.6820
 8574TIP3   OH225685   6.251   1.595   1.670 -0.1177  0.3322  0.8538
 8574TIP3    H125686   6.280   1.672   1.620  0.5787 -1.0238 -0.9305
 8574TIP3    H225687   6.172   1.624   1.715 -2.1741  1.0763 -2.8256
 8575TIP3   OH225688   6.575   0.047   4.256 -0.8190 -0.6235  0.5107
 8575TIP3    H125689   6.604   0.135   4.277  0.1429 -0.1351 -2.3689
 8575TIP3    H225690   6.657  -0.003   4.247 -1.2363 -1.2150 -0.0818
 8576TIP3   OH225691   5.251   0.532   5.840  0.3722  0.0071 -0.7462
 8576TIP3    H125692   5.213   0.607   5.885  1.1491 -0.4921  0.7902
 8576TIP3    H225693   5.343   0.555   5.827  0.4451 -0.3858 -0.9387
 8577TIP3   OH225694   1.567   5.197   5.421  0.3184  0.0597  0.2310
 8577TIP3    H125695   1.646   5.162   5.380  0.3920 -0.1139  0.5193
 8577TIP3    H225696   1.495   5.167   5.365  0.5225  1.0270 -0.5827
 8578TIP3   OH225697   0.526   1.983   1.464  0.1992 -0.3045 -0.3540
 8578TIP3    H125698   0.579   1.921   1.515  1.7106  0.7043 -0.6222
 8578TIP3    H225699   0.577   1.999   1.385 -1.9597 -1.5837 -2.1171
 8579TIP3   OH225700   6.628   1.539   0.232  0.1949 -0.1853  0.1701
 8579TIP3    H125701   6.716   1.559   0.201 -0.5992  0.2192 -2.0380
 8579TIP3    H225702   6.640   1.466   0.293  2.0527 -0.1646 -0.1131
 8580TIP3   OH225703   3.521   4.108   4.362  0.1628  0.0080  0.0984
 8580TIP3    H125704   3.569   4.151   4.433 -1.3773 -0.3361  1.4168
 8580TIP3    H225705   3.429   4.113   4.390 -0.4034 -0.7979 -1.5331
 8581TIP3   OH225706   0.511   4.768   0.181  0.4556  0.3993 -0.0039
 8581TIP3    H125707   0.482   4.712   0.253 -2.4116  1.2491 -0.4000
 8581TIP3    H225708   0.606   4.773   0.192  0.3695 -1.3772  2.3069
 8582TIP3   OH225709   0.413   3.872   5.414 -0.2288  0.1058 -0.8771
 8582TIP3    H125710   0.336   3.870   5.358 -3.6790 -0.9451  3.3437
 8582TIP3    H225711   0.441   3.781   5.421  1.3951  0.4521 -2.1934
 8583TIP3   OH225712   0.463   5.863   2.781  0.0902  0.1071 -0.2582
 8583TIP3    H125713   0.377   5.903   2.769 -0.8702 -1.1091  1.9471
 8583TIP3    H225714   0.503   5.913   2.852 -0.1331 -1.2475  0.8662
 8584TIP3   OH225715   2.299   1.591   4.971  0.5636  0.0491  0.3926
 8584TIP3    H125716   2.271   1.683   4.971  2.5083  0.6951  1.2211
 8584TIP3    H225717   2.273   1.558   4.885  0.1967  1.4818 -0.0765
 8585TIP3   OH225718   2.371   4.080   2.110  0.3496  0.4572 -0.1814
 8585TIP3    H125719   2.417   4.157   2.077 -0.7333  1.4206  0.4987
 8585TIP3    H225720   2.375   4.088   2.205  1.8199 -1.3215 -0.0270
 8586TIP3   OH225721   1.473   5.776   3.879  0.2285  1.2479 -0.2451
 8586TIP3    H125722   1.452   5.730   3.798  1.1116  1.4420 -0.5995
 8586TIP3    H225723   1.433   5.723   3.948  1.4530 -0.2299 -0.6098
 8587TIP3   OH225724   5.592   0.463   4.029  0.4261 -0.1026  0.1929
 8587TIP3    H125725   5.614   0.549   3.992  1.4724 -0.2679  0.3841
 8587TIP3    H225726   5.560   0.412   3.955  0.0747  0.3581  0.0209
 8588TIP3   OH225727   0.632   4.247   4.082  0.0737 -0.6029  0.2669
 8588TIP3    H125728   0.571   4.241   4.008  0.7501 -1.9025 -0.2291
 8588TIP3    H225729   0.689   4.321   4.060 -0.6234 -0.0730  0.2043
 8589TIP3   OH225730   5.347   4.370   4.478 -0.1901  1.5378  0.4205
 8589TIP3    H125731   5.436   4.397   4.456 -0.1586 -0.4713 -2.5218
 8589TIP3    H225732   5.355   4.278   4.504 -1.5162  0.6100 -2.0896
 8590TIP3   OH225733   3.536   2.024   2.000 -1.0783  0.5780  0.6288
 8590TIP3    H125734   3.527   2.065   1.914 -1.2970  0.8214  0.7651
 8590TIP3    H225735   3.628   1.997   2.004 -1.1591  0.2334  0.1744
 8591TIP3   OH225736   5.224   2.603   5.325 -0.2365 -0.0731  0.1982
 8591TIP3    H125737   5.266   2.650   5.253  0.1612  0.8616  1.0133
 8591TIP3    H225738   5.271   2.520   5.331  0.0315  0.0382 -0.2988
 8592TIP3   OH225739   3.303   1.271   3.457  0.1044  0.0809  0.7188
 8592TIP3    H125740   3.262   1.312   3.533  2.3616  2.1926  0.9358
 8592TIP3    H225741   3.331   1.185   3.488 -1.0098 -0.0109  1.5452
 8593TIP3   OH225742   1.414   1.755   2.897  0.1246 -0.4095 -0.7794
 8593TIP3    H125743   1.343   1.697   2.871 -0.1158 -0.5603  0.1509
 8593TIP3    H225744   1.374   1.843   2.896 -0.2583 -0.5557  0.2983
 8594TIP3   OH225745   1.091   4.164   0.311  0.4046  0.6159  0.1937
 8594TIP3    H125746   1.012   4.215   0.296  0.3414  0.5328  0.2438
 8594TIP3    H225747   1.065   4.098   0.375  0.7666  1.1671  0.9125
 8595TIP3   OH225748  -0.025   2.055   0.063  0.0397  0.1726 -0.3068
 8595TIP3    H125749   0.005   2.051  -0.028  0.4854  0.2625 -0.1654
 8595TIP3    H225750   0.027   2.126   0.102 -0.7591  0.7182 -0.2060
 8596TIP3   OH225751   3.598   5.916   3.455 -0.9500 -0.2327  0.6921
 8596TIP3    H125752   3.631   5.908   3.544  0.7646 -0.1608  0.1035
 8596TIP3    H225753   3.599   6.010   3.437  0.0635 -0.3362  0.1398
 8597TIP3   OH225754   3.647   5.397   3.364  0.3250  0.2453 -0.0340
 8597TIP3    H125755   3.717   5.337   3.387  2.4441  1.5659 -2.4925
 8597TIP3    H225756   3.590   5.346   3.306  0.4752 -0.2046  0.2092
 8598TIP3   OH225757   2.553   2.128   1.739  0.5282  0.2683 -0.5462
 8598TIP3    H125758   2.643   2.095   1.737  0.4969  0.2042 -1.2795
 8598TIP3    H225759   2.554   2.204   1.681  0.9444  2.5179  2.2000
 8599TIP3   OH225760   2.267   6.027   2.653  0.0848  0.1668 -0.3277
 8599TIP3    H125761   2.205   6.084   2.700 -0.7904  1.0170 -2.3925
 8599TIP3    H225762   2.352   6.051   2.688 -0.4411  1.5258  0.1072
 8600TIP3   OH225763   2.029   0.193   3.870 -0.1845  0.3830  0.6652
 8600TIP3    H125764   2.048   0.154   3.956  0.2485  1.5482  1.1140
 8600TIP3    H225765   2.095   0.261   3.859 -0.3580  0.3762 -0.5182
 8601TIP3   OH225766   2.483   4.241   0.672  0.3071 -0.1518 -0.0194
 8601TIP3    H125767   2.571   4.208   0.693 -0.7050 -2.8696  0.3661
 8601TIP3    H225768   2.441   4.252   0.757 -0.1739 -0.2108 -0.2492
 8602TIP3   OH225769   0.948   3.159   0.355 -0.3376 -0.0284  0.4112
 8602TIP3    H125770   0.999   3.240   0.344  0.0338 -0.3614 -0.4324
 8602TIP3    H225771   0.981   3.120   0.436  1.2366 -0.5653 -0.4480
 8603TIP3   OH225772   5.912   6.158   4.864  0.6468  0.0948 -0.6384
 8603TIP3    H125773   5.960   6.240   4.876 -0.0656  0.3900  0.3488
 8603TIP3    H225774   5.846   6.159   4.933  1.2543 -1.7628  0.0357
 8604TIP3   OH225775   5.450   3.229   4.593  0.0472  0.5764 -0.2226
 8604TIP3    H125776   5.431   3.138   4.571 -2.1967  0.9402 -0.0446
 8604TIP3    H225777   5.393   3.280   4.534 -0.2004  1.7894  1.0116
 8605TIP3   OH225778   2.009   6.671   1.229  0.0035 -0.1965  0.1200
 8605TIP3    H125779   1.979   6.757   1.259 -1.2334 -1.1767  1.8976
 8605TIP3    H225780   1.984   6.668   1.136  0.8869  1.6679 -0.2279
 8606TIP3   OH225781   3.362   6.521   5.189 -0.1497 -0.4630 -0.3837
 8606TIP3    H125782   3.272   6.552   5.189  0.0894  0.3460 -2.0922
 8606TIP3    H225783   3.359   6.438   5.141 -0.0075 -0.4799 -0.3643
 8607TIP3   OH225784   3.062   2.246   3.841  0.0158  0.2589 -0.2084
 8607TIP3    H125785   3.036   2.156   3.821  2.3997 -0.2278 -1.5603
 8607TIP3    H225786   3.000   2.300   3.792 -0.2187 -0.7185 -1.0310
 8608TIP3   OH225787   7.108   3.217   1.119 -0.1922  0.0201 -0.1875
 8608TIP3    H125788   7.062   3.244   1.041 -0.7506  0.2069  0.2026
 8608TIP3    H225789   7.201   3.222   1.096 -0.3199  1.1983 -0.4636
 8609TIP3   OH225790   2.542   0.429   3.094  0.1145  0.3343 -0.1702
 8609TIP3    H125791   2.581   0.443   3.180  4.0509  1.0751 -1.8304
 8609TIP3    H225792   2.496   0.510   3.075  1.8446  1.4173  0.0674
 8610TIP3   OH225793   6.692   4.511   3.369 -0.1425  0.1935  0.4841
 8610TIP3    H125794   6.764   4.553   3.321  0.2306 -0.6387  0.2897
 8610TIP3    H225795   6.672   4.571   3.440  1.5345 -0.0626  1.2300
 8611TIP3   OH225796   2.283   5.370   0.855 -0.0153 -0.1903  0.5248
 8611TIP3    H125797   2.210   5.387   0.915  0.4215  2.2310  0.5020
 8611TIP3    H225798   2.360   5.366   0.911  0.2085  0.5780  0.2911
 8612TIP3   OH225799   3.580   5.622   2.650  0.0619  0.3990  0.2720
 8612TIP3    H125800   3.570   5.658   2.562 -0.9500  1.3067  0.7399
 8612TIP3    H225801   3.634   5.544   2.638  1.2997  1.3843 -0.9354
 8613TIP3   OH225802   3.204   2.981   0.085  0.6781  0.5243  0.4157
 8613TIP3    H125803   3.169   2.905   0.132 -0.0539  0.7878  0.3032
 8613TIP3    H225804   3.284   2.948   0.044  0.3011 -0.2287  0.2588
 8614TIP3   OH225805   4.478   6.580   1.349  0.3395  0.3539 -0.4746
 8614TIP3    H125806   4.428   6.623   1.279  0.5667 -1.3602 -1.7667
 8614TIP3    H225807   4.445   6.490   1.350  1.1379  0.0431  0.8796
 8615TIP3   OH225808   5.073   3.747   3.162  0.4400 -0.0952 -0.4295
 8615TIP3    H125809   5.109   3.659   3.155  0.2255 -0.1369 -1.0610
 8615TIP3    H225810   5.145   3.799   3.199 -0.1058 -0.9407  1.9771
 8616TIP3   OH225811   2.180   4.499   0.777 -0.2287  0.1744  0.3604
 8616TIP3    H125812   2.271   4.504   0.809  0.0203  0.6784 -0.4196
 8616TIP3    H225813   2.145   4.586   0.791 -0.0571  0.4601 -0.8984
 8617TIP3   OH225814   0.251   1.477   4.878 -0.1631  1.1141  0.2554
 8617TIP3    H125815   0.287   1.453   4.792 -1.4154  0.7139 -0.1752
 8617TIP3    H225816   0.157   1.465   4.869 -0.3447  1.3645  1.6075
 8618TIP3   OH225817   0.245   5.543   2.346  0.5065 -0.1452 -0.1782
 8618TIP3    H125818   0.251   5.637   2.363  0.7887 -0.5082  2.0881
 8618TIP3    H225819   0.259   5.503   2.432  0.3637 -2.2635 -1.0931
 8619TIP3   OH225820   4.992   2.735   2.634 -0.3786 -0.0675 -0.4139
 8619TIP3    H125821   4.921   2.797   2.653  0.2834  0.4738  0.3352
 8619TIP3    H225822   5.004   2.686   2.715  0.4579  0.2038 -0.3686
 8620TIP3   OH225823   5.742   1.364   1.788  0.0254  0.2472 -0.6770
 8620TIP3    H125824   5.835   1.348   1.803 -0.1465 -0.0906  0.0641
 8620TIP3    H225825   5.714   1.417   1.863 -0.5244 -0.2065 -0.5553
 8621TIP3   OH225826   0.408   1.207   5.888 -0.4298  0.0418  0.7342
 8621TIP3    H125827   0.384   1.298   5.875  1.4056  0.4686  0.0345
 8621TIP3    H225828   0.358   1.159   5.822 -3.4027  0.1098  2.7246
 8622TIP3   OH225829   4.088   0.826   4.275 -0.4046 -0.0789 -0.2174
 8622TIP3    H125830   4.127   0.912   4.266  0.7040 -0.2878  1.9098
 8622TIP3    H225831   4.012   0.840   4.332  1.2053 -0.7594  2.2772
 8623TIP3   OH225832   6.235   0.533   5.391 -0.0279 -0.1785 -0.3505
 8623TIP3    H125833   6.268   0.621   5.406 -1.8899  1.0412 -2.6357
 8623TIP3    H225834   6.164   0.522   5.455  0.1319  0.0312 -0.1392
 8624TIP3   OH225835   4.903   3.589   2.508 -0.1263 -0.2922 -0.4437
 8624TIP3    H125836   4.854   3.562   2.586 -0.5849  2.9469  0.5383
 8624TIP3    H225837   4.863   3.672   2.482  0.7091 -0.7442 -3.5508
 8625TIP3   OH225838   1.725   4.352   4.339  0.3779 -0.2455 -0.3340
 8625TIP3    H125839   1.674   4.347   4.420 -0.7760 -0.8519 -1.0785
 8625TIP3    H225840   1.708   4.440   4.305 -1.7258 -1.0617 -1.5375
 8626TIP3   OH225841   1.473   2.138   1.335 -0.1255  0.0253 -0.6146
 8626TIP3    H125842   1.552   2.191   1.339  0.5441 -0.9489 -0.7157
 8626TIP3    H225843   1.471   2.104   1.245  0.6867 -1.9285  0.0465
 8627TIP3   OH225844   2.663   5.980   3.098 -0.3348 -0.2925 -0.1246
 8627TIP3    H125845   2.571   6.005   3.095 -0.4118 -0.7030 -1.6011
 8627TIP3    H225846   2.707   6.055   3.139 -0.9775  0.9915 -1.6817
 8628TIP3   OH225847   5.792   5.546   4.610 -0.0109 -0.1016 -0.3859
 8628TIP3    H125848   5.808   5.510   4.523  2.0062 -1.6035  0.5168
 8628TIP3    H225849   5.760   5.634   4.594 -1.1477 -0.8554 -2.6481
 8629TIP3   OH225850   3.427   3.711   4.479 -0.4290 -0.2701 -0.3230
 8629TIP3    H125851   3.462   3.678   4.397 -1.6091 -0.4587 -0.7636
 8629TIP3    H225852   3.359   3.773   4.454 -1.1204 -0.6655  0.5004
 8630TIP3   OH225853   0.424   1.723   2.341  0.2812  0.5669  0.1744
 8630TIP3    H125854   0.388   1.681   2.419  0.2593  0.2862  0.0119
 8630TIP3    H225855   0.358   1.790   2.318  0.5766  1.0587  0.7458
 8631TIP3   OH225856   5.370   3.980   5.653 -0.1156 -0.0359  0.2210
 8631TIP3    H125857   5.434   4.047   5.629  0.1227 -0.1639  0.5036
 8631TIP3    H225858   5.419   3.898   5.651 -0.3441 -0.1710  0.1346
 8632TIP3   OH225859   4.477   1.431   1.204  0.0502  0.3245 -0.4273
 8632TIP3    H125860   4.392   1.425   1.248  0.3752  1.7316  0.4525
 8632TIP3    H225861   4.539   1.388   1.264  0.0091 -0.5185 -0.9728
 8633TIP3   OH225862   5.914   0.161   4.011 -0.9507  0.6694 -0.1361
 8633TIP3    H125863   5.832   0.136   3.968 -0.8601  0.5785 -0.2548
 8633TIP3    H225864   5.934   0.087   4.069 -1.1842  0.8831  0.2219
 8634TIP3   OH225865   6.077   5.009   1.369  0.6310  0.1461  0.6915
 8634TIP3    H125866   6.079   5.059   1.451  1.4515  1.2889  0.0102
 8634TIP3    H225867   6.169   4.985   1.355  0.4246 -0.4381  0.3373
 8635TIP3   OH225868   5.824   4.194   1.708 -0.1467  0.2427  0.1669
 8635TIP3    H125869   5.840   4.170   1.800  1.0091 -0.5777 -0.2289
 8635TIP3    H225870   5.748   4.143   1.682  0.0955 -0.2354  0.3954
 8636TIP3   OH225871   1.267   1.032   3.804  0.2018  0.5640  0.1035
 8636TIP3    H125872   1.326   0.985   3.747 -1.2703  0.3491 -1.3297
 8636TIP3    H225873   1.182   1.027   3.760 -1.1081  0.0576  2.5035
 8637TIP3   OH225874   2.156   4.460   5.856 -0.0087  0.3803 -0.3593
 8637TIP3    H125875   2.240   4.414   5.860 -1.3086 -2.0252  1.9673
 8637TIP3    H225876   2.177   4.549   5.886  1.5607 -0.4307  1.1113
 8638TIP3   OH225877   6.171   3.740   3.265 -0.4178  0.1605  0.3329
 8638TIP3    H125878   6.209   3.768   3.348 -1.5824 -1.5451  1.5093
 8638TIP3    H225879   6.077   3.730   3.284 -0.6327 -0.7434 -1.0437
 8639TIP3   OH225880   1.374   2.755   1.063 -0.1863  0.1400 -0.1116
 8639TIP3    H125881   1.372   2.660   1.050  4.3673 -0.3433  0.9644
 8639TIP3    H225882   1.360   2.767   1.156 -0.1959  0.4779 -0.1546
 8640TIP3   OH225883   1.534   6.401   1.029 -0.1716 -0.2063  0.3588
 8640TIP3    H125884   1.456   6.417   1.081 -0.4718  2.0134 -0.6782
 8640TIP3    H225885   1.523   6.312   0.996 -3.5699  0.8505 -1.8085
 8641TIP3   OH225886   4.746   4.336   0.474 -0.3431 -0.1557  0.9026
 8641TIP3    H125887   4.792   4.254   0.491  1.1493  0.7462  1.3743
 8641TIP3    H225888   4.663   4.329   0.522  0.4246 -0.7835  2.1663
 8642TIP3   OH225889   4.108   5.312   2.485  0.6549 -0.7724  0.0272
 8642TIP3    H125890   4.145   5.368   2.553 -0.2610 -0.7031  0.4858
 8642TIP3    H225891   4.046   5.256   2.531  0.5214 -1.1987 -0.6514
 8643TIP3   OH225892   0.455   3.029   0.698 -0.2639 -0.0196  0.0403
 8643TIP3    H125893   0.438   2.969   0.625  0.6031  1.3004 -1.2957
 8643TIP3    H225894   0.519   2.983   0.753 -0.9581 -1.0418  0.0136
 8644TIP3   OH225895   4.464   5.261   0.328 -0.5495 -0.9251  0.1798
 8644TIP3    H125896   4.424   5.222   0.250  0.2310 -1.3163 -0.0323
 8644TIP3    H225897   4.479   5.352   0.303 -3.2228 -0.1599  0.9894
 8645TIP3   OH225898   5.947   0.047   2.476  0.1192 -0.2833  0.1664
 8645TIP3    H125899   5.942   0.110   2.547 -1.2721  0.1830 -0.3196
 8645TIP3    H225900   5.999  -0.025   2.512  0.5079  0.4896  1.2132
 8646TIP3   OH225901   3.303   4.353   3.657 -0.4157  0.4694  0.6115
 8646TIP3    H125902   3.290   4.413   3.583 -0.3034  3.3511  2.7312
 8646TIP3    H225903   3.227   4.295   3.655 -0.9751  1.2150 -1.1132
 8647TIP3   OH225904   1.823   3.126   3.046 -0.0996 -0.2893 -0.0154
 8647TIP3    H125905   1.826   3.043   3.095 -0.8320  0.0031  0.5539
 8647TIP3    H225906   1.909   3.165   3.060  0.2121 -0.9065 -0.1928
 8648TIP3   OH225907   3.824   5.147   5.121  0.1653  0.1220  0.0946
 8648TIP3    H125908   3.742   5.100   5.137  1.0959 -1.1096  1.5360
 8648TIP3    H225909   3.873   5.138   5.202  1.8424  0.6085 -0.8154
 8649TIP3   OH225910   2.826   4.747   4.797  0.0090  0.0822  0.1207
 8649TIP3    H125911   2.799   4.656   4.786 -0.7959  0.2921  0.3034
 8649TIP3    H225912   2.915   4.750   4.764  0.2384 -0.8937  0.6161
 8650TIP3   OH225913   5.033   5.684   1.408 -0.0366 -0.8905  0.3356
 8650TIP3    H125914   5.101   5.618   1.423 -0.7914 -1.9811 -0.8482
 8650TIP3    H225915   5.068   5.739   1.338  0.2215 -0.5681  0.7148
 8651TIP3   OH225916   6.179   5.329   0.309 -0.3218  0.6448 -0.2100
 8651TIP3    H125917   6.177   5.406   0.365  0.4003 -1.3001  2.7363
 8651TIP3    H225918   6.087   5.304   0.299 -0.4952  1.3187 -0.3300
 8652TIP3   OH225919   0.752   5.316   5.245 -0.1462  0.3094 -0.0216
 8652TIP3    H125920   0.702   5.286   5.322 -1.4693  2.3236  0.0019
 8652TIP3    H225921   0.694   5.381   5.204  1.2155  0.4444 -1.8189
 8653TIP3   OH225922   3.065   3.773   3.661 -0.2702 -0.4785  0.1317
 8653TIP3    H125923   3.128   3.721   3.611 -0.6129 -0.5948 -0.1801
 8653TIP3    H225924   3.024   3.709   3.720  0.6672 -0.2104  1.1132
 8654TIP3   OH225925   3.882   2.632   2.152  0.4150 -0.1183  0.0331
 8654TIP3    H125926   3.821   2.561   2.172  0.3001  0.4056  1.6484
 8654TIP3    H225927   3.916   2.610   2.065 -1.1176 -1.0801 -0.3640
 8655TIP3   OH225928   0.949   5.799   2.973 -0.5334 -0.3946 -0.1281
 8655TIP3    H125929   1.044   5.803   2.966 -0.4990  1.0932  0.8569
 8655TIP3    H225930   0.932   5.719   3.022  0.0195 -2.1383 -2.6053
 8656TIP3   OH225931   5.761   3.975   0.876 -0.2016  0.3628  0.7952
 8656TIP3    H125932   5.749   3.880   0.873 -1.0109  0.4818 -0.9505
 8656TIP3    H225933   5.855   3.986   0.891  0.3097 -0.7782 -1.1275
 8657TIP3   OH225934   5.568   1.109   1.413  0.2342 -0.6883 -0.0351
 8657TIP3    H125935   5.596   1.189   1.458  2.0882 -1.2068 -0.1596
 8657TIP3    H225936   5.583   1.127   1.320 -4.0642  0.5729 -0.7140
 8658TIP3   OH225937   5.444   4.967   1.486 -0.3196  0.4873  0.1519
 8658TIP3    H125938   5.357   5.003   1.468  0.6356  3.1633  0.4304
 8658TIP3    H225939   5.427   4.891   1.541 -2.4955  0.6661 -0.1581
 8659TIP3   OH225940   5.009   3.805   4.449  0.5972  0.2282  0.0988
 8659TIP3    H125941   4.940   3.802   4.382  0.4412  0.1872  0.2613
 8659TIP3    H225942   4.965   3.838   4.528  0.6390 -0.3131  0.3524
 8660TIP3   OH225943   4.526   3.303   5.326 -0.2533 -0.2487  0.1285
 8660TIP3    H125944   4.531   3.221   5.276  0.5135 -1.2395  1.7610
 8660TIP3    H225945   4.615   3.318   5.356 -0.3442  1.3224 -0.3088
 8661TIP3   OH225946   5.244   4.615   5.258 -0.8137 -0.3787 -0.2939
 8661TIP3    H125947   5.291   4.697   5.238  0.0112 -0.3936  1.3886
 8661TIP3    H225948   5.185   4.603   5.184  0.5367  0.6322 -1.6146
 8662TIP3   OH225949   2.452   4.160   5.426 -0.0772  0.1165 -0.1459
 8662TIP3    H125950   2.403   4.241   5.436 -0.8074 -0.3624  0.2284
 8662TIP3    H225951   2.509   4.176   5.351  0.5799  1.3559  0.5823
 8663TIP3   OH225952   2.881   5.167   4.603  0.0208  0.1784 -0.1515
 8663TIP3    H125953   2.961   5.117   4.584  0.0858  0.3648 -0.3843
 8663TIP3    H225954   2.825   5.106   4.651 -0.5170 -0.6185 -1.7309
 8664TIP3   OH225955   1.267   3.858   2.082  0.1660  0.0159  0.0080
 8664TIP3    H125956   1.300   3.775   2.116 -0.4121 -0.1093  0.2758
 8664TIP3    H225957   1.283   3.921   2.152 -1.5040 -0.3483  0.7571
 8665TIP3   OH225958   0.272   2.925   1.397  0.0111 -0.0278 -0.2005
 8665TIP3    H125959   0.238   2.903   1.310  0.1323  0.8466 -0.4808
 8665TIP3    H225960   0.351   2.977   1.379  0.2187 -0.1132  0.4381
 8666TIP3   OH225961   4.417   0.240   1.012  0.0122  0.0240 -0.2716
 8666TIP3    H125962   4.455   0.311   1.064  0.9024 -0.7734  0.2044
 8666TIP3    H225963   4.487   0.175   1.005 -0.1220  0.0474 -2.3786
 8667TIP3   OH225964   3.874   1.606   2.057 -0.0922  0.1419 -0.0949
 8667TIP3    H125965   3.847   1.677   2.114 -1.3357 -0.9128  0.6726
 8667TIP3    H225966   3.915   1.542   2.115 -1.7431 -1.1302 -0.2615
 8668TIP3   OH225967   4.315   4.523   4.378 -0.0616  0.0643  1.0156
 8668TIP3    H125968   4.396   4.510   4.328 -0.5057  0.1246  0.2718
 8668TIP3    H225969   4.294   4.615   4.366 -1.5431 -0.4469 -0.8454
 8669TIP3   OH225970   4.369   0.791   4.299  0.1470  0.1824  0.1712
 8669TIP3    H125971   4.291   0.738   4.287  0.3753  0.0663 -0.9236
 8669TIP3    H225972   4.337   0.881   4.305 -0.1520  0.0309  0.8911
 8670TIP3   OH225973   1.904   0.734   3.796  0.1369  0.2958 -0.9108
 8670TIP3    H125974   1.866   0.737   3.883  3.0356 -1.5909  0.5849
 8670TIP3    H225975   1.967   0.807   3.794 -0.0061  0.4136 -1.4784
 8671TIP3   OH225976   0.030   5.078   1.214  0.2470  0.2685  0.3295
 8671TIP3    H125977  -0.017   5.007   1.258 -0.6912  1.3023  1.0386
 8671TIP3    H225978   0.038   5.049   1.123 -1.6438 -0.0064  0.2163
 8672TIP3   OH225979   3.417   2.205   2.228  0.2997 -0.2982 -0.9316
 8672TIP3    H125980   3.337   2.218   2.178 -0.4184 -2.3524 -0.4037
 8672TIP3    H225981   3.409   2.264   2.303 -1.3466 -1.3349 -0.2238
 8673TIP3   OH225982   6.088   5.656   0.904 -0.0874 -0.0450 -0.2539
 8673TIP3    H125983   5.992   5.653   0.898 -0.0351 -0.6133 -0.9220
 8673TIP3    H225984   6.115   5.565   0.892  0.5702  0.2078 -0.7248
 8674TIP3   OH225985   1.798   2.179   3.067 -0.2572  0.0162 -0.9392
 8674TIP3    H125986   1.827   2.166   3.157 -1.4993 -3.3595 -0.8686
 8674TIP3    H225987   1.837   2.106   3.019 -2.7418 -0.5439 -2.2800
 8675TIP3   OH225988   4.737   0.420   0.348  0.0541 -0.2362  0.2285
 8675TIP3    H125989   4.780   0.351   0.298 -0.3646  0.7266 -1.5474
 8675TIP3    H225990   4.654   0.380   0.377 -0.1809 -0.5108 -0.7705
 8676TIP3   OH225991   0.094   6.332   2.223 -0.8248  0.2155 -0.1886
 8676TIP3    H125992   0.098   6.426   2.204 -1.8099  0.0922 -1.0857
 8676TIP3    H225993   0.000   6.314   2.234 -0.8887 -1.0607 -2.2686
 8677TIP3   OH225994   0.267   4.914   0.306 -0.0037  0.4810 -0.4068
 8677TIP3    H125995   0.291   4.954   0.389  0.1829 -0.5067  0.0370
 8677TIP3    H225996   0.332   4.845   0.294 -1.5379 -1.0970 -0.0515
 8678TIP3   OH225997   4.664   2.681   4.343 -0.5643 -0.2783  0.2657
 8678TIP3    H125998   4.615   2.659   4.264 -0.4151 -2.4750  0.7168
 8678TIP3    H225999   4.738   2.620   4.342 -0.1081  0.2285  1.6736
 8679TIP3   OH226000   4.298   1.135   0.682 -0.6130 -0.1721  0.0032
 8679TIP3    H126001   4.342   1.215   0.653 -0.2984 -0.7067 -1.0275
 8679TIP3    H226002   4.283   1.085   0.602 -0.6088 -1.2468  0.6543
 8680TIP3   OH226003   3.482   5.828   1.519  0.2446 -0.0412  0.4231
 8680TIP3    H126004   3.558   5.770   1.518  0.1805 -0.2107 -2.5656
 8680TIP3    H226005   3.516   5.912   1.550  1.1246 -0.6814  1.2764
 8681TIP3   OH226006   1.927   1.526   5.447  0.0238  0.3367 -0.2501
 8681TIP3    H126007   1.983   1.483   5.382  0.5548  1.8903 -0.8775
 8681TIP3    H226008   1.974   1.516   5.530  0.9005  1.0212 -0.6544
 8682TIP3   OH226009   3.157   1.319   5.573 -0.4087  0.1842 -0.1021
 8682TIP3    H126010   3.251   1.331   5.588 -0.2513 -1.0083  0.0131
 8682TIP3    H226011   3.114   1.367   5.644  0.2111 -1.6962  1.6362
 8683TIP3   OH226012   1.416   4.037   2.653  0.0115 -0.0100  0.0357
 8683TIP3    H126013   1.487   4.082   2.607 -0.1001 -0.5433 -0.6777
 8683TIP3    H226014   1.356   4.107   2.678 -0.0996  0.2567 -0.9522
 8684TIP3   OH226015   0.040   3.869   5.501  0.6111 -0.5038 -0.4262
 8684TIP3    H126016   0.100   3.930   5.456  0.5791  0.2703  0.5448
 8684TIP3    H226017  -0.047   3.898   5.474  0.6233 -0.5815 -0.5465
 8685TIP3   OH226018   1.367   1.896   5.098 -0.5631  0.4491  0.3626
 8685TIP3    H126019   1.436   1.905   5.163 -1.8833  1.8129  1.6636
 8685TIP3    H226020   1.366   1.802   5.077  1.8977  0.4425 -0.0347
 8686TIP3   OH226021   1.640   5.144   4.824 -0.1901  0.1634 -0.0356
 8686TIP3    H126022   1.734   5.157   4.827 -0.3732  1.4517  0.6132
 8686TIP3    H226023   1.603   5.220   4.869 -1.6201  0.8810 -2.2414
 8687TIP3   OH226024   1.314   4.814   5.473 -0.4386  0.1722  0.3610
 8687TIP3    H126025   1.336   4.897   5.430  1.2771 -0.4299  0.0103
 8687TIP3    H226026   1.377   4.751   5.438  0.5314 -0.5482  3.1776
 8688TIP3   OH226027   5.793   5.616   0.875 -0.3604 -1.0750 -0.0508
 8688TIP3    H126028   5.721   5.674   0.852 -1.3694 -1.9882  0.6816
 8688TIP3    H226029   5.768   5.531   0.839  1.9082 -0.7967 -2.7013
 8689TIP3   OH226030   5.184   3.165   2.326  0.0858 -0.0776  0.0118
 8689TIP3    H126031   5.130   3.170   2.247  1.6313 -1.3802 -1.2009
 8689TIP3    H226032   5.247   3.236   2.317 -0.0843  0.1217  0.3664
 8690TIP3   OH226033   4.890   3.064   4.095 -0.1424 -0.1583 -0.3780
 8690TIP3    H126034   4.831   2.999   4.132  0.6545 -1.6020 -1.5465
 8690TIP3    H226035   4.833   3.134   4.063 -0.9988 -0.2078  0.9543
 8691TIP3   OH226036   2.786   5.910   3.448 -0.2875  0.2412  0.2237
 8691TIP3    H126037   2.742   5.883   3.368  0.4463 -0.1329 -0.0582
 8691TIP3    H226038   2.855   5.845   3.461  0.1275  0.7666  0.7082
 8692TIP3   OH226039   2.802   0.647   4.527  0.4810  0.3972 -0.6390
 8692TIP3    H126040   2.742   0.577   4.503 -0.5791  1.1433 -0.2387
 8692TIP3    H226041   2.845   0.671   4.444  5.3056 -4.5101 -0.1265
 8693TIP3   OH226042   6.379   3.518   0.374  0.1026 -0.8505 -0.3536
 8693TIP3    H126043   6.370   3.424   0.383  0.1962 -0.7152  1.5706
 8693TIP3    H226044   6.302   3.545   0.324 -0.3734 -1.8383 -0.1734
 8694TIP3   OH226045   4.664   0.856   1.855  0.0011 -0.1401 -0.4283
 8694TIP3    H126046   4.688   0.843   1.763 -0.1709  1.1409 -0.6657
 8694TIP3    H226047   4.717   0.930   1.884 -1.2470  0.6097 -0.0125
 8695TIP3   OH226048   5.455   1.244   3.197 -0.4177  0.3851  0.1164
 8695TIP3    H126049   5.502   1.239   3.281 -1.8495  0.0335  0.9237
 8695TIP3    H226050   5.499   1.180   3.141  0.9165  1.0300  0.3972
 8696TIP3   OH226051   4.574   6.729   0.200 -0.3717 -0.2681 -0.9660
 8696TIP3    H126052   4.551   6.673   0.126 -0.5786 -0.4021 -0.8045
 8696TIP3    H226053   4.503   6.793   0.204 -0.8611 -0.8268 -0.3184
 8697TIP3   OH226054   5.385   6.273   3.401 -0.0180 -0.5548 -0.1071
 8697TIP3    H126055   5.352   6.290   3.313 -0.9242 -0.6200  0.2080
 8697TIP3    H226056   5.472   6.236   3.388  0.5086  0.8998 -0.9150
 8698TIP3   OH226057   2.250   3.442   2.706 -0.2683 -0.3101  0.8182
 8698TIP3    H126058   2.299   3.520   2.681 -2.9859  0.5671 -2.7501
 8698TIP3    H226059   2.246   3.390   2.625 -1.4616 -2.4458  2.1497
 8699TIP3   OH226060   1.353   6.133   3.030  0.2617  0.0313 -0.2034
 8699TIP3    H126061   1.395   6.100   3.109  0.8934 -1.0208 -0.9623
 8699TIP3    H226062   1.413   6.200   2.996  0.0992  0.3199  0.0732
 8700TIP3   OH226063   3.476   5.340   0.268  0.2089 -0.1303  0.3897
 8700TIP3    H126064   3.489   5.310   0.358  0.9098  3.1217  1.5157
 8700TIP3    H226065   3.551   5.398   0.251 -0.4091  0.0999 -1.9673
 8701TIP3   OH226066   6.265   0.200   3.222  0.5418 -0.5449 -0.3918
 8701TIP3    H126067   6.322   0.257   3.274  0.4427 -0.8357  0.0469
 8701TIP3    H226068   6.313   0.117   3.218  1.1246 -0.1740 -1.8128
 8702TIP3   OH226069   6.987   3.570   4.518  0.1986 -0.7610 -0.1277
 8702TIP3    H126070   7.044   3.581   4.442  1.0814 -0.1564  0.5926
 8702TIP3    H226071   6.945   3.655   4.529  0.8362 -0.5371  0.6419
 8703TIP3   OH226072   1.586   5.956   5.587 -0.5391 -0.0130 -1.2268
 8703TIP3    H126073   1.636   5.948   5.668 -1.3097  1.3235 -0.5973
 8703TIP3    H226074   1.561   6.048   5.583 -0.3180  0.0080 -3.1162
 8704TIP3   OH226075   1.997   1.808   4.817  0.2186 -0.0669 -0.1271
 8704TIP3    H126076   1.940   1.866   4.766  0.4730 -0.7927 -1.2902
 8704TIP3    H226077   1.936   1.750   4.863 -0.1120  2.1117  2.4025
 8705TIP3   OH226078   2.408   3.818   4.733  0.1885  0.3991 -0.1911
 8705TIP3    H126079   2.411   3.727   4.703  0.3745 -0.5059  2.4080
 8705TIP3    H226080   2.328   3.823   4.785  1.3436  1.0778  1.5834
 8706TIP3   OH226081   4.763   0.644   4.447 -0.1401 -0.2769  0.4843
 8706TIP3    H126082   4.856   0.623   4.438  0.0316  0.3858  0.6836
 8706TIP3    H226083   4.741   0.617   4.537 -0.1418 -0.4216  0.4413
 8707TIP3   OH226084   7.199   4.210   1.419  0.1505  0.2307  0.0365
 8707TIP3    H126085   7.118   4.255   1.444 -0.8990 -1.6854  0.2290
 8707TIP3    H226086   7.214   4.146   1.489  0.7597 -0.7695 -0.9777
 8708TIP3   OH226087   4.447   2.543   1.668 -0.0636  0.2369 -0.5284
 8708TIP3    H126088   4.480   2.597   1.597 -0.2184  0.8397 -0.1564
 8708TIP3    H226089   4.437   2.456   1.630 -2.6914  1.0806 -2.0414
 8709TIP3   OH226090   3.657   3.461   4.917  0.2182 -0.1070 -0.2477
 8709TIP3    H126091   3.605   3.521   4.971 -0.9353  0.5911 -2.0439
 8709TIP3    H226092   3.597   3.432   4.849  1.7316 -0.6287 -1.4148
 8710TIP3   OH226093   6.980   5.825   4.685 -0.4982  0.1180 -0.0124
 8710TIP3    H126094   7.035   5.838   4.608 -2.7881 -2.5122 -2.2942
 8710TIP3    H226095   6.923   5.902   4.687 -0.6129  0.0822 -1.1648
 8711TIP3   OH226096   0.313   6.311   5.297 -0.5570 -0.2341  0.0676
 8711TIP3    H126097   0.318   6.222   5.332 -2.1215  0.2108  1.6320
 8711TIP3    H226098   0.404   6.340   5.289  0.0629 -2.4917 -2.0385
 8712TIP3   OH226099   3.085   5.642   0.757  0.1178 -0.3671  0.3515
 8712TIP3    H126100   3.108   5.672   0.844  0.5913 -0.7150  0.3477
 8712TIP3    H226101   3.052   5.553   0.770 -1.0648  0.0462  0.3359
 8713TIP3   OH226102   2.373   5.285   1.788  0.2680  0.4090  0.3303
 8713TIP3    H126103   2.322   5.360   1.818 -1.2419 -0.0187 -1.0347
 8713TIP3    H226104   2.426   5.319   1.716  0.3874  0.3784  0.4014
 8714TIP3   OH226105   2.780   1.644   1.449  0.4013 -0.4588  0.6955
 8714TIP3    H126106   2.692   1.673   1.472 -0.7133 -2.2929 -0.9488
 8714TIP3    H226107   2.767   1.576   1.383  2.9883 -1.8805  1.4830
 8715TIP3   OH226108   6.183   6.534   3.530 -0.0281 -0.7129 -0.5654
 8715TIP3    H126109   6.246   6.561   3.598  2.6678 -4.7925 -1.0792
 8715TIP3    H226110   6.214   6.578   3.451  0.0749 -0.0602 -0.1748
 8716TIP3   OH226111   4.838   4.140   1.559  0.3594  0.3961  0.0032
 8716TIP3    H126112   4.890   4.199   1.505 -2.6000  2.8847 -0.4345
 8716TIP3    H226113   4.796   4.081   1.496  0.8245 -0.0493  0.1100
 8717TIP3   OH226114   5.525   1.332   1.002 -0.2689 -1.0481  0.0614
 8717TIP3    H126115   5.592   1.383   1.048 -1.7499 -1.6265  3.1350
 8717TIP3    H226116   5.443   1.376   1.023 -1.1550 -2.0812 -1.0885
 8718TIP3   OH226117   7.012   2.702   4.573 -0.0305 -0.0893 -0.2178
 8718TIP3    H126118   6.980   2.692   4.663  1.0722 -0.8533  0.1102
 8718TIP3    H226119   7.107   2.704   4.581  0.0576  1.0569 -1.2705
 8719TIP3   OH226120   2.792   2.291   0.750  0.1810 -0.1041 -0.1108
 8719TIP3    H126121   2.843   2.221   0.791  1.4369  0.1304 -1.2108
 8719TIP3    H226122   2.760   2.253   0.668  0.3092  0.3973 -0.3980
 8720TIP3   OH226123   1.641   4.350   1.864 -0.3584 -0.4430 -0.4588
 8720TIP3    H126124   1.644   4.255   1.870 -0.2431 -0.4188 -0.1345
 8720TIP3    H226125   1.560   4.374   1.908  0.0086 -0.3360  0.1685
 8721TIP3   OH226126   1.301   2.998   1.589  0.4465 -0.0227 -0.0521
 8721TIP3    H126127   1.252   2.917   1.605  1.2043 -0.2833  1.0656
 8721TIP3    H226128   1.345   3.015   1.672  0.4619  1.4343 -0.3461
 8722TIP3   OH226129   2.439   2.224   3.562  0.4960  0.4862  0.4121
 8722TIP3    H126130   2.487   2.214   3.644 -0.2116 -3.1477  0.5429
 8722TIP3    H226131   2.501   2.196   3.494  0.0443  0.2688  0.0807
 8723TIP3   OH226132   2.163   6.050   1.269  0.4019  0.4546  0.1639
 8723TIP3    H126133   2.219   6.089   1.202 -0.5721 -2.0212 -2.2536
 8723TIP3    H226134   2.224   6.009   1.330  1.3299  3.3125  1.3306
 8724TIP3   OH226135   6.228   1.615   4.150 -0.3871  0.1455  0.8214
 8724TIP3    H126136   6.244   1.700   4.192  2.4295 -0.3618  0.9874
 8724TIP3    H226137   6.203   1.558   4.222 -0.0350  0.3224  1.0906
 8725TIP3   OH226138   2.892   6.425   0.469  0.2181 -0.3331 -0.2025
 8725TIP3    H126139   2.862   6.439   0.559  0.6099 -1.1125  0.0556
 8725TIP3    H226140   2.814   6.393   0.423  0.3433 -1.2517  0.1949
 8726TIP3   OH226141   6.272   2.420   1.976  0.2386  0.2159 -0.2976
 8726TIP3    H126142   6.294   2.426   2.069 -1.7901  0.5713  0.2124
 8726TIP3    H226143   6.293   2.506   1.940 -0.4690  0.6010  0.1999
 8727TIP3   OH226144   0.416   5.493   4.245  0.1535  0.2973 -0.4100
 8727TIP3    H126145   0.428   5.578   4.289 -0.6971 -0.1274  0.6809
 8727TIP3    H226146   0.397   5.432   4.316 -0.6211 -0.5392 -1.3158
 8728TIP3   OH226147   5.592   2.484   3.091 -0.0738 -0.2739  0.0440
 8728TIP3    H126148   5.662   2.468   3.154 -0.7015 -1.1964  0.5438
 8728TIP3    H226149   5.562   2.573   3.110  1.0184  0.1596 -0.2397
 8729TIP3   OH226150   0.534   4.724   2.398 -0.1894  0.7201 -0.5399
 8729TIP3    H126151   0.442   4.700   2.388 -0.4684  1.4895  0.0302
 8729TIP3    H226152   0.578   4.644   2.427 -0.7801  0.4915 -0.2792
 8730TIP3   OH226153   4.422   4.152   4.141  0.1188 -0.0466 -0.0512
 8730TIP3    H126154   4.509   4.118   4.118 -0.9882 -2.2975 -1.2102
 8730TIP3    H226155   4.388   4.090   4.204 -0.7616  0.6789  0.2092
 8731TIP3   OH226156   4.163   2.991   1.647 -0.3518 -0.3876 -0.1840
 8731TIP3    H126157   4.182   3.003   1.740  0.6591  1.0428 -0.5494
 8731TIP3    H226158   4.209   3.063   1.603 -1.5004 -0.5355 -1.7149
 8732TIP3   OH226159   2.391   5.648   1.424  0.1606 -0.0392  0.2334
 8732TIP3    H126160   2.400   5.624   1.331 -1.4443 -0.0392  0.0559
 8732TIP3    H226161   2.302   5.622   1.447  0.7308 -0.6099  1.9635
 8733TIP3   OH226162   3.493   0.656   2.734 -0.5685  0.1165 -0.4061
 8733TIP3    H126163   3.461   0.700   2.813 -0.6847  0.0644 -0.4231
 8733TIP3    H226164   3.584   0.684   2.726  0.1855 -1.6936  1.0524
 8734TIP3   OH226165   3.525   4.781   4.467  0.2544  0.2245 -0.1516
 8734TIP3    H126166   3.435   4.787   4.435  0.7822 -1.1428 -2.0838
 8734TIP3    H226167   3.534   4.691   4.497  0.1053  1.1722  3.1293
 8735TIP3   OH226168   2.014   1.790   2.376 -0.3458  0.0210  0.1144
 8735TIP3    H126169   2.001   1.720   2.313 -2.4722  0.6840 -0.2678
 8735TIP3    H226170   1.937   1.786   2.433  0.2701  1.0458  1.0592
 8736TIP3   OH226171   0.028   3.456   2.476  0.3234 -0.1617 -1.0145
 8736TIP3    H126172   0.075   3.456   2.559  0.0719  1.1157 -0.8451
 8736TIP3    H226173  -0.065   3.456   2.501  0.1944 -2.2006 -1.3358
 8737TIP3   OH226174   0.077   0.065   0.154 -0.0456 -0.7188  0.1262
 8737TIP3    H126175   0.051  -0.016   0.197 -0.9592 -0.6150 -0.2273
 8737TIP3    H226176   0.004   0.088   0.097 -1.1102  1.8691  2.3090
 8738TIP3   OH226177   2.015   0.701   0.135  0.3148 -0.2502 -0.5971
 8738TIP3    H126178   2.084   0.758   0.102  0.2819 -0.3354 -0.8193
 8738TIP3    H226179   1.942   0.714   0.074  0.1992 -0.2951 -0.4690
 8739TIP3   OH226180   3.445   3.426   4.007 -0.2515  0.0352 -0.4777
 8739TIP3    H126181   3.379   3.491   4.030  0.8195  1.0044 -0.0756
 8739TIP3    H226182   3.495   3.465   3.936  0.9705  0.0621  0.3621
 8740TIP3   OH226183   3.531   5.260   3.169 -0.1669 -0.3205  0.5903
 8740TIP3    H126184   3.543   5.286   3.077  1.0658  0.5373  0.9650
 8740TIP3    H226185   3.456   5.201   3.168  0.3997 -1.0615 -1.1105
 8741TIP3   OH226186   0.219   1.474   1.703 -0.5461 -0.8487  0.6725
 8741TIP3    H126187   0.257   1.393   1.670 -0.0463 -0.1016 -0.6723
 8741TIP3    H226188   0.198   1.524   1.624 -1.5343  0.0221  1.4586
 8742TIP3   OH226189   5.544   6.055   1.176 -0.1813 -0.2811  0.3061
 8742TIP3    H126190   5.623   6.052   1.231  0.1841 -0.2318 -0.2069
 8742TIP3    H226191   5.519   6.148   1.177  0.0878 -0.2025  0.0298
 8743TIP3   OH226192   5.243   3.826   2.587 -0.2559 -0.4816  0.0209
 8743TIP3    H126193   5.336   3.816   2.607 -0.3003 -0.8710  0.0400
 8743TIP3    H226194   5.241   3.848   2.494 -0.0677  1.0070  0.3434
 8744TIP3   OH226195   1.375   4.913   0.460 -0.6485  0.1373  0.4801
 8744TIP3    H126196   1.322   4.880   0.387  0.1499  1.1759 -0.6244
 8744TIP3    H226197   1.438   4.843   0.478 -0.2927  0.2073 -0.4338
 8745TIP3   OH226198   5.390   3.482   1.445  0.0599 -0.4310  0.2101
 8745TIP3    H126199   5.365   3.440   1.527  0.8621  0.0382  0.6983
 8745TIP3    H226200   5.483   3.500   1.454  0.1973 -0.5283 -0.8763
 8746TIP3   OH226201   3.867   5.520   1.876  0.0951  0.1526  0.4612
 8746TIP3    H126202   3.937   5.467   1.914 -0.0882  0.2680  0.9563
 8746TIP3    H226203   3.895   5.535   1.785  0.8314  0.4018  0.7248
 8747TIP3   OH226204   0.786   4.824   0.197 -0.9574 -0.2578 -0.5810
 8747TIP3    H126205   0.827   4.816   0.111 -1.3368  0.0418 -0.7935
 8747TIP3    H226206   0.836   4.892   0.242  1.3935 -2.6609  0.7131
 8748TIP3   OH226207   6.221   5.371   4.241  0.5641 -0.0364 -0.4486
 8748TIP3    H126208   6.167   5.295   4.220  1.5942 -0.8178 -0.3606
 8748TIP3    H226209   6.225   5.420   4.159  1.0370 -0.8213 -0.9091
 8749TIP3   OH226210   0.384   1.376   1.310  0.9273 -0.6526  0.2105
 8749TIP3    H126211   0.360   1.367   1.218  2.4164 -1.1524 -0.1545
 8749TIP3    H226212   0.350   1.462   1.336 -0.5684 -1.0155 -0.4425
 8750TIP3   OH226213   4.102   1.573   3.472  0.1635  0.0786 -0.5396
 8750TIP3    H126214   4.027   1.630   3.454  1.1121  1.2262 -0.9868
 8750TIP3    H226215   4.178   1.623   3.443  1.1210 -1.0416 -0.0603
 8751TIP3   OH226216   4.838   3.596   5.597  0.4734 -0.0026 -0.1063
 8751TIP3    H126217   4.805   3.662   5.535  1.3482 -0.3415 -0.9609
 8751TIP3    H226218   4.911   3.640   5.642 -0.6384  0.5051  1.2704
 8752TIP3   OH226219   2.778   4.729   1.941 -0.4236 -0.1051  0.0131
 8752TIP3    H126220   2.852   4.677   1.910 -1.3552 -1.2793 -0.3348
 8752TIP3    H226221   2.751   4.686   2.022  0.7256  1.7357  1.4222
 8753TIP3   OH226222   7.126   3.367   3.861  0.3982  0.8556 -0.7386
 8753TIP3    H126223   7.132   3.461   3.879  0.7199  0.7701 -0.3941
 8753TIP3    H226224   7.037   3.343   3.886  0.5396  0.9267 -0.1566
 8754TIP3   OH226225   4.289   6.135   3.283 -0.1181  0.1625 -0.2206
 8754TIP3    H126226   4.195   6.136   3.297  0.1277  1.2559  1.7249
 8754TIP3    H226227   4.302   6.189   3.205 -0.9497  2.4373  1.1161
 8755TIP3   OH226228   3.562   4.607   0.128 -0.2621 -0.3256  0.0032
 8755TIP3    H126229   3.533   4.615   0.037  0.5635  0.6671 -0.1913
 8755TIP3    H226230   3.545   4.693   0.166  1.6955  0.0783  0.0753
 8756TIP3   OH226231   2.732   2.789   4.626  0.2258 -0.3447 -0.3683
 8756TIP3    H126232   2.773   2.727   4.686  1.1292  0.1913 -0.4198
 8756TIP3    H226233   2.783   2.870   4.636 -0.8914  0.3727 -0.3516
 8757TIP3   OH226234   2.346   3.559   1.942  0.4160  0.2932  0.1423
 8757TIP3    H126235   2.310   3.647   1.949 -0.0809  0.0306  0.9454
 8757TIP3    H226236   2.280   3.502   1.981 -1.5424 -1.0799 -4.5449
 8758TIP3   OH226237   6.947   1.720   4.086  0.0566  0.1018 -0.2250
 8758TIP3    H126238   6.927   1.677   4.169  1.2238 -3.3922 -1.5941
 8758TIP3    H226239   6.864   1.759   4.060 -0.8336 -0.4032  1.6245
 8759TIP3   OH226240   3.547   3.555   0.135  0.2592  0.0165  0.0521
 8759TIP3    H126241   3.512   3.487   0.192  1.4551 -1.0438 -0.4342
 8759TIP3    H226242   3.584   3.508   0.061  0.5199  1.2499 -0.6342
 8760TIP3   OH226243   3.049   4.060   2.744 -0.4370  0.0472  0.3141
 8760TIP3    H126244   2.982   3.992   2.755 -2.2156  1.2668 -2.0351
 8760TIP3    H226245   3.011   4.137   2.788 -0.2121  0.5182 -0.2973
 8761TIP3   OH226246   5.026   6.602   3.068  0.4494 -0.5635 -0.2316
 8761TIP3    H126247   5.033   6.604   3.163  1.1962 -0.5414 -0.2860
 8761TIP3    H226248   4.969   6.528   3.049  0.4096 -0.6474  0.2250
 8762TIP3   OH226249   7.104   5.697   3.649  0.8355  0.1676  0.5405
 8762TIP3    H126250   7.072   5.687   3.560 -0.1623 -0.5393  0.9575
 8762TIP3    H226251   7.148   5.782   3.649 -1.2926  1.3514 -0.0330
 8763TIP3   OH226252   0.620   3.804   0.939  0.5846  0.0089  0.3054
 8763TIP3    H126253   0.632   3.710   0.926  2.2766  0.2844 -0.4283
 8763TIP3    H226254   0.634   3.842   0.852 -1.6855  0.8438  0.2322
 8764TIP3   OH226255   6.180   6.445   2.903 -0.2925  0.7256 -0.4886
 8764TIP3    H126256   6.142   6.438   2.991 -2.2113 -0.0689 -1.3346
 8764TIP3    H226257   6.267   6.483   2.918 -1.0233  1.7343  1.6409
 8765TIP3   OH226258   6.625   3.107   2.496  0.0898  0.4860 -0.0186
 8765TIP3    H126259   6.639   3.121   2.402  1.7401  3.1432  0.5310
 8765TIP3    H226260   6.688   3.038   2.519  0.9838  1.1077 -0.5452
 8766TIP3   OH226261   3.123   2.380   4.088 -0.1005  0.2944  0.3804
 8766TIP3    H126262   3.138   2.347   4.000 -0.4881  1.3013 -0.0804
 8766TIP3    H226263   3.082   2.466   4.075  1.2316  1.1485  1.5132
 8767TIP3   OH226264   5.753   5.095   2.046 -0.3450 -0.4403  0.2382
 8767TIP3    H126265   5.758   5.079   2.140 -0.5090 -0.3389  0.2652
 8767TIP3    H226266   5.842   5.120   2.021 -0.4789  0.3488  0.5200
 8768TIP3   OH226267   6.210   4.461   4.546  0.1888  0.4971 -0.4259
 8768TIP3    H126268   6.121   4.439   4.571  0.8236 -0.2728  1.2992
 8768TIP3    H226269   6.262   4.385   4.574  1.5757  1.5374 -0.0797
 8769TIP3   OH226270   2.579   2.762   3.924  0.3200 -0.0932  0.0764
 8769TIP3    H126271   2.560   2.730   4.012  1.3332  0.4362  0.5028
 8769TIP3    H226272   2.652   2.822   3.935  0.1210  0.3912 -1.0628
 8770TIP3   OH226273   6.932   1.174   1.248  0.2573 -0.3654 -0.1398
 8770TIP3    H126274   6.853   1.128   1.275  0.5719 -0.8890 -0.0954
 8770TIP3    H226275   6.936   1.251   1.304  1.3219 -1.8188  1.9191
 8771TIP3   OH226276   3.545   4.722   2.424 -0.0575 -0.2751 -0.4008
 8771TIP3    H126277   3.622   4.690   2.377  0.4973 -0.1382  0.3934
 8771TIP3    H226278   3.543   4.816   2.406  0.0795 -0.2450 -0.2633
 8772TIP3   OH226279   5.645   0.917   5.182  0.5989 -0.9044  0.2947
 8772TIP3    H126280   5.720   0.923   5.122  0.4578 -2.1245 -0.0364
 8772TIP3    H226281   5.591   0.993   5.160  1.3817 -0.4037  0.0420
 8773TIP3   OH226282   4.748   3.705   1.415 -0.4484  0.3446 -0.5387
 8773TIP3    H126283   4.801   3.741   1.486  0.5312 -3.3075  0.8312
 8773TIP3    H226284   4.661   3.692   1.453 -0.3511 -0.1606 -0.4754
 8774TIP3   OH226285   1.535   2.314   4.390  0.4218  0.1578  0.1723
 8774TIP3    H126286   1.522   2.387   4.330  1.2370  2.2050  2.3271
 8774TIP3    H226287   1.618   2.333   4.434  0.2218 -1.5968  1.4231
 8775TIP3   OH226288   4.990   2.123   0.989  0.4859 -0.4899 -0.6241
 8775TIP3    H126289   4.993   2.168   1.073 -1.1287  0.0208 -0.8029
 8775TIP3    H226290   4.996   2.193   0.924 -1.2458 -0.5659 -0.9041
 8776TIP3   OH226291   0.363   5.045   1.529  0.0327 -0.1918  0.3052
 8776TIP3    H126292   0.285   5.065   1.477 -0.5353 -0.9012  0.8711
 8776TIP3    H226293   0.431   5.027   1.464 -1.1638 -3.1655 -0.2995
 8777TIP3   OH226294   5.635   5.144   5.371 -0.0407  0.0451 -0.4329
 8777TIP3    H126295   5.598   5.118   5.286  1.2865  0.6618 -1.2263
 8777TIP3    H226296   5.572   5.207   5.406 -2.9191 -3.3333  1.1509
 8778TIP3   OH226297   4.550   5.139   5.784 -0.0693  0.0254 -0.0220
 8778TIP3    H126298   4.501   5.119   5.705  0.0834  0.0936 -0.1354
 8778TIP3    H226299   4.623   5.076   5.783 -1.0967 -1.2286  1.0330
 8779TIP3   OH226300   3.663   2.596   3.374  0.0360 -0.3020 -0.7128
 8779TIP3    H126301   3.654   2.652   3.451 -1.9154 -1.7437  0.1843
 8779TIP3    H226302   3.652   2.655   3.300 -4.1438  0.3729  0.1893
 8780TIP3   OH226303   3.970   0.510   2.509  0.4463 -0.0017 -0.2413
 8780TIP3    H126304   3.909   0.506   2.583 -0.5115 -0.9472 -1.0551
 8780TIP3    H226305   4.051   0.471   2.543  0.0170 -0.4283  0.3147
 8781TIP3   OH226306   5.089   4.051   5.415  0.5499 -0.0649 -0.1171
 8781TIP3    H126307   5.134   4.015   5.491 -0.0599  0.3080  0.4306
 8781TIP3    H226308   5.003   4.077   5.448  0.5393  0.7623 -0.7646
 8782TIP3   OH226309   0.199   1.236   3.726 -0.0239 -0.4543  0.2890
 8782TIP3    H126310   0.235   1.151   3.702 -0.2324 -0.5951  0.4682
 8782TIP3    H226311   0.234   1.297   3.661  0.9982 -0.4844  0.7935
 8783TIP3   OH226312   4.530   0.484   1.127  0.6014 -0.2117  0.2981
 8783TIP3    H126313   4.489   0.565   1.097  0.7909 -0.9368 -2.0965
 8783TIP3    H226314   4.621   0.509   1.144  0.3234  0.3740  0.9771
 8784TIP3   OH226315   6.210   5.687   5.474  0.9070 -0.4653  0.3200
 8784TIP3    H126316   6.142   5.625   5.447 -1.7406  1.5246  1.9726
 8784TIP3    H226317   6.230   5.737   5.395 -1.3785  0.4773  0.2660
 8785TIP3   OH226318   5.375   5.721   2.236  0.1965 -0.2345 -0.1259
 8785TIP3    H126319   5.373   5.720   2.332 -0.0202 -3.6661 -0.0283
 8785TIP3    H226320   5.282   5.724   2.211  0.2227 -0.1684 -0.2150
 8786TIP3   OH226321   7.119   3.921   4.398  0.1854 -0.2938 -0.2126
 8786TIP3    H126322   7.081   3.993   4.347 -0.8672 -0.2795  0.5691
 8786TIP3    H226323   7.213   3.927   4.380 -0.0389  0.3934 -1.2705
 8787TIP3   OH226324   6.846   6.018   5.527  0.2234  0.3349  0.2651
 8787TIP3    H126325   6.937   6.046   5.523  0.3663  0.0054  1.0361
 8787TIP3    H226326   6.844   5.950   5.594 -0.6502  0.5846  0.5155
 8788TIP3   OH226327   6.703   0.964   4.956  0.1388  0.2945  0.0791
 8788TIP3    H126328   6.764   0.897   4.926 -0.6741 -0.3955 -0.0723
 8788TIP3    H226329   6.618   0.937   4.921 -0.1660  1.5584 -0.2290
 8789TIP3   OH226330   1.140   0.390   3.517 -0.4418  0.3600 -0.6064
 8789TIP3    H126331   1.123   0.464   3.576 -0.3701  0.0753 -0.2202
 8789TIP3    H226332   1.061   0.337   3.520 -0.3323  0.1969 -0.5426
 8790TIP3   OH226333   6.490   2.292   1.568  0.5629 -0.1100  0.1266
 8790TIP3    H126334   6.557   2.350   1.603  0.1759  0.6888 -0.4111
 8790TIP3    H226335   6.409   2.344   1.571  0.2082 -0.6200 -0.3578
 8791TIP3   OH226336   3.162   1.674   2.232  0.3258 -0.0751  0.0360
 8791TIP3    H126337   3.186   1.693   2.141  2.3606  0.4461  0.6401
 8791TIP3    H226338   3.107   1.748   2.258  2.0088  1.2258  0.0407
 8792TIP3   OH226339   4.376   1.867   1.665 -0.1899 -0.9415  0.4323
 8792TIP3    H126340   4.301   1.882   1.608  0.0766 -2.1118 -0.2551
 8792TIP3    H226341   4.359   1.782   1.705  0.5449 -1.0031  0.6385
 8793TIP3   OH226342   1.700   1.987   3.601  0.5586  0.0875 -0.5466
 8793TIP3    H126343   1.701   2.043   3.523 -0.0017  1.0811  0.1301
 8793TIP3    H226344   1.791   1.988   3.631  0.3568  1.6374  0.1165
 8794TIP3   OH226345   7.057   6.576   5.614  0.2441  0.0946  0.5140
 8794TIP3    H126346   7.147   6.588   5.582  0.1514  1.9143  0.8409
 8794TIP3    H226347   7.010   6.538   5.540  0.9325  0.5712 -0.1780
 8795TIP3   OH226348   5.897   0.055   3.215 -0.1857  0.4417 -0.3638
 8795TIP3    H126349   5.899   0.053   3.119  1.7789 -0.1562 -0.3484
 8795TIP3    H226350   5.931   0.141   3.238 -0.3938  0.4767 -0.1786
 8796TIP3   OH226351   4.085   6.160   1.535 -0.1775  0.1478 -0.5348
 8796TIP3    H126352   4.137   6.135   1.458  1.0259 -1.4850  0.7569
 8796TIP3    H226353   4.112   6.099   1.603 -2.0294  0.8590  0.9002
 8797TIP3   OH226354   0.237   1.052   5.688 -1.0924 -0.4001 -0.0111
 8797TIP3    H126355   0.153   1.059   5.735 -1.9605  1.5989 -1.6916
 8797TIP3    H226356   0.220   1.093   5.603  2.2759  2.5574  0.5109
 8798TIP3   OH226357   1.885   3.342   1.902  0.2664 -0.3264 -0.0027
 8798TIP3    H126358   1.815   3.281   1.926  0.2273 -0.3870 -0.2722
 8798TIP3    H226359   1.925   3.304   1.824 -0.4344  0.5270 -0.7954
 8799TIP3   OH226360   4.392   5.461   1.923 -0.5745 -0.3379 -0.1443
 8799TIP3    H126361   4.397   5.546   1.967  0.8302 -0.1554 -0.6024
 8799TIP3    H226362   4.387   5.397   1.994  1.0574 -0.0066  0.3148
 8800TIP3   OH226363   6.196   2.331   2.910 -0.0685  0.3501 -0.7270
 8800TIP3    H126364   6.261   2.313   2.978 -1.3195 -2.1568 -0.0743
 8800TIP3    H226365   6.149   2.407   2.941 -0.6971 -0.8238  1.3597
 8801TIP3   OH226366   2.773   4.495   4.715  0.5194  0.3229 -0.8399
 8801TIP3    H126367   2.732   4.410   4.726 -0.1633  0.5959 -1.2614
 8801TIP3    H226368   2.725   4.537   4.644  1.3222  0.7724 -1.1348
 8802TIP3   OH226369   3.643   2.058   5.542 -0.0898  0.0650 -0.3343
 8802TIP3    H126370   3.662   1.987   5.603  1.8123  0.6625 -0.1545
 8802TIP3    H226371   3.706   2.127   5.564 -0.1556  0.7820 -2.1554
 8803TIP3   OH226372   0.975   2.674   2.605 -0.2711 -0.0249 -0.5768
 8803TIP3    H126373   1.031   2.688   2.529  1.2780  1.6422  0.7856
 8803TIP3    H226374   1.019   2.605   2.655 -1.0252 -0.7697 -0.9062
 8804TIP3   OH226375   6.025   3.767   1.672 -0.5579  0.0595 -0.1179
 8804TIP3    H126376   6.043   3.853   1.633  1.7435  0.3080  1.2657
 8804TIP3    H226377   6.052   3.704   1.605 -0.8178  0.4259 -0.5729
 8805TIP3   OH226378   4.300   5.426   0.068 -0.0103  0.6264  0.4898
 8805TIP3    H126379   4.328   5.481   0.140  0.6968  0.9420 -0.0159
 8805TIP3    H226380   4.263   5.487   0.004  0.3811  0.4753  0.1136
 8806TIP3   OH226381   3.952   5.783   3.835 -0.3874 -0.1216  0.4263
 8806TIP3    H126382   4.013   5.841   3.881 -2.1682  3.4744 -1.3598
 8806TIP3    H226383   3.874   5.781   3.891 -1.3925  1.7174 -0.8026
 8807TIP3   OH226384   3.637   6.589   0.769  0.2875 -0.0621 -0.5405
 8807TIP3    H126385   3.585   6.626   0.697 -0.7936  0.0545  0.2853
 8807TIP3    H226386   3.630   6.494   0.757 -0.5387 -0.0607 -0.1625
 8808TIP3   OH226387   4.434   1.594   4.514  0.3855  0.4556  0.3183
 8808TIP3    H126388   4.468   1.509   4.485  1.0599  0.8632 -0.0973
 8808TIP3    H226389   4.349   1.573   4.553 -0.6114 -0.1157 -2.0019
 8809TIP3   OH226390   3.727   5.601   5.084 -0.4416  0.1027 -0.3210
 8809TIP3    H126391   3.734   5.673   5.022 -1.0841  0.2786 -0.1990
 8809TIP3    H226392   3.755   5.524   5.035 -3.3517 -0.2147 -1.6823
 8810TIP3   OH226393   3.816   3.972   2.211  0.4007  0.4999 -0.1292
 8810TIP3    H126394   3.727   3.982   2.246 -0.0603 -0.0916 -1.0827
 8810TIP3    H226395   3.844   4.062   2.193 -0.3086  0.6481 -0.5459
 8811TIP3   OH226396   6.905   2.377   3.665 -0.0827 -0.0955  0.5687
 8811TIP3    H126397   6.960   2.421   3.730  0.7974  0.4526 -0.5017
 8811TIP3    H226398   6.936   2.287   3.664 -0.8692 -0.3904  1.7011
 8812TIP3   OH226399   2.003   6.777   2.118 -0.5224 -0.1429 -0.3819
 8812TIP3    H126400   1.937   6.842   2.092 -1.8374 -1.3161 -0.0662
 8812TIP3    H226401   1.975   6.748   2.204 -0.5361 -1.8367 -0.9288
 8813TIP3   OH226402   2.297   5.519   4.065  0.0543  0.2065 -0.3349
 8813TIP3    H126403   2.333   5.538   4.152  2.0997  0.9185 -1.2781
 8813TIP3    H226404   2.317   5.597   4.013 -2.1710  0.2801 -1.1773
 8814TIP3   OH226405   0.523   2.264   0.977 -0.0757  0.2489 -0.3411
 8814TIP3    H126406   0.614   2.291   0.991 -0.1198  0.6753 -0.8766
 8814TIP3    H226407   0.503   2.292   0.888 -1.5345  2.4410  0.5907
 8815TIP3   OH226408   5.497   5.117   2.163  0.0197  0.3580  0.2223
 8815TIP3    H126409   5.518   5.028   2.191 -3.7221 -1.6934 -2.5031
 8815TIP3    H226410   5.557   5.134   2.090  0.1354 -0.3959  0.1316
 8816TIP3   OH226411   3.096   3.242   2.539 -0.4265 -0.7554 -0.2365
 8816TIP3    H126412   3.087   3.293   2.619 -1.6091 -0.5316 -0.4990
 8816TIP3    H226413   3.172   3.280   2.494  2.7220 -3.2370  2.4459
 8817TIP3   OH226414   0.121   4.890   3.675  0.0731 -0.7822  0.0488
 8817TIP3    H126415   0.178   4.860   3.604  1.5500  2.0648 -0.1246
 8817TIP3    H226416   0.171   4.875   3.755 -0.7011 -2.0220  0.3245
 8818TIP3   OH226417   6.459   5.914   4.264 -0.0188  0.1171 -0.0361
 8818TIP3    H126418   6.507   5.899   4.183  0.8115 -0.7165  0.5953
 8818TIP3    H226419   6.466   6.008   4.280 -1.6554  0.5920 -1.8105
 8819TIP3   OH226420   5.509   5.713   0.496 -0.3837 -0.1698 -0.1461
 8819TIP3    H126421   5.569   5.774   0.455 -1.9222 -0.2176 -2.6765
 8819TIP3    H226422   5.422   5.748   0.477 -1.2906 -2.4458 -0.5936
 8820TIP3   OH226423   0.639   2.912   0.874  0.5252 -0.0989 -0.1806
 8820TIP3    H126424   0.656   2.892   0.967 -1.4701  2.0793  0.7474
 8820TIP3    H226425   0.705   2.978   0.852  0.5366 -0.0787 -0.0905
 8821TIP3   OH226426   3.189   0.323   4.451 -0.0517 -0.6212 -0.3409
 8821TIP3    H126427   3.256   0.257   4.469  0.1017 -0.4711 -0.3565
 8821TIP3    H226428   3.140   0.288   4.377 -1.8365 -2.0995  1.4475
 8822TIP3   OH226429   2.382   3.043   2.392  0.0371  0.1284  0.5793
 8822TIP3    H126430   2.465   3.077   2.358  0.8284 -1.9510  0.2826
 8822TIP3    H226431   2.403   2.955   2.425 -1.9797 -0.3274  0.8009
 8823TIP3   OH226432   6.868   4.983   1.288 -0.2129  0.3249  0.4125
 8823TIP3    H126433   6.909   5.019   1.367 -0.0571  0.1806  0.3977
 8823TIP3    H226434   6.833   5.060   1.242  2.2674  0.8044 -0.8833
 8824TIP3   OH226435   6.383   1.030   3.262  0.2579  0.6910 -0.0348
 8824TIP3    H126436   6.322   0.986   3.202  0.4141 -1.2161  1.1173
 8824TIP3    H226437   6.470   0.998   3.235  0.4130  0.5967  0.5670
 8825TIP3   OH226438   4.783   5.538   5.467  0.1944  0.1046 -0.0738
 8825TIP3    H126439   4.828   5.453   5.459 -0.1003 -0.0153 -0.4743
 8825TIP3    H226440   4.851   5.602   5.446  0.3189 -0.0516 -0.1524
 8826TIP3   OH226441   1.745   6.391   0.804  0.1959 -0.3025  0.7165
 8826TIP3    H126442   1.806   6.324   0.837 -0.3078 -1.5800 -0.7995
 8826TIP3    H226443   1.699   6.422   0.881  0.8508 -1.3209  1.5451
 8827TIP3   OH226444   2.142   4.193   3.569  0.0663 -0.0190 -0.8743
 8827TIP3    H126445   2.230   4.185   3.605  0.2235  3.0882 -0.2950
 8827TIP3    H226446   2.085   4.166   3.641  0.5219  1.3978  0.0722
 8828TIP3   OH226447   4.838   6.142   1.880  0.4065 -0.2917  0.1672
 8828TIP3    H126448   4.786   6.090   1.818  1.5976  0.0038 -1.1215
 8828TIP3    H226449   4.908   6.180   1.827  2.6368 -1.5691  2.0353
 8829TIP3   OH226450   1.165   4.892   4.077  0.1492 -0.1742 -0.2536
 8829TIP3    H126451   1.153   4.985   4.093  0.0964 -0.0487 -1.0284
 8829TIP3    H226452   1.172   4.883   3.982  2.4444 -0.6912 -0.1011
 8830TIP3   OH226453   5.008   5.225   1.659 -0.1623 -0.9654  0.2427
 8830TIP3    H126454   5.071   5.186   1.721 -1.8664  0.3693  2.9936
 8830TIP3    H226455   5.013   5.319   1.675 -0.8825 -0.5817 -1.5223
 8831TIP3   OH226456   6.273   5.137   3.722  0.2786 -0.3077  0.3350
 8831TIP3    H126457   6.192   5.120   3.769  1.1857 -1.8248  1.4644
 8831TIP3    H226458   6.324   5.193   3.782  0.4221 -0.1004  0.0231
 8832TIP3   OH226459   2.577   5.128   2.983  0.6783  0.3007  0.1843
 8832TIP3    H126460   2.497   5.163   3.023  0.2217 -0.7556  0.2220
 8832TIP3    H226461   2.646   5.187   3.012 -0.0516  1.1198  0.3141
 8833TIP3   OH226462   1.641   0.196   0.670  0.3161  0.0566 -0.0649
 8833TIP3    H126463   1.729   0.168   0.644  0.2391 -1.2969  0.9974
 8833TIP3    H226464   1.646   0.209   0.764 -0.3303  1.1937 -0.1650
 8834TIP3   OH226465   3.894   6.700   1.789  0.6750  0.3575 -0.8607
 8834TIP3    H126466   3.823   6.710   1.853  0.1862 -1.0356 -1.1471
 8834TIP3    H226467   3.867   6.756   1.716  0.5563  0.8905 -0.4214
 8835TIP3   OH226468   2.826   1.149   4.010 -0.4556 -0.5007 -0.6174
 8835TIP3    H126469   2.850   1.199   4.088 -0.0086 -1.5448 -0.0788
 8835TIP3    H226470   2.905   1.101   3.987 -1.1409 -1.6586 -0.6017
 8836TIP3   OH226471   7.128   6.453   4.538  0.8005 -0.3730 -0.0201
 8836TIP3    H126472   7.139   6.466   4.444 -1.9307  1.8106 -0.1910
 8836TIP3    H226473   7.153   6.537   4.577 -1.2468 -0.0560  0.7769
 8837TIP3   OH226474   6.388   3.803   0.126  0.4727  0.3514  0.4063
 8837TIP3    H126475   6.345   3.874   0.174 -0.3654  0.7532 -0.8804
 8837TIP3    H226476   6.320   3.768   0.069  1.8972  1.2819 -2.0190
 8838TIP3   OH226477   6.300   1.473   5.310  0.2112  0.3400  0.2862
 8838TIP3    H126478   6.256   1.389   5.319 -0.0468  0.5026  0.5714
 8838TIP3    H226479   6.243   1.535   5.356  0.5259  0.6249  0.2965
 8839TIP3   OH226480   3.217   4.949   2.480  0.3673  0.3426 -0.5283
 8839TIP3    H126481   3.222   5.041   2.452  0.8591  0.5607  0.2442
 8839TIP3    H226482   3.277   4.943   2.554 -0.9430 -0.1821  0.5496
 8840TIP3   OH226483   0.635   1.146   5.295 -0.6290 -0.8744 -0.4660
 8840TIP3    H126484   0.703   1.212   5.310 -1.6663 -0.3530  2.8643
 8840TIP3    H226485   0.571   1.189   5.239  0.1171 -0.1050 -0.7443
 8841TIP3   OH226486   2.888   3.693   0.606  0.4004  0.2118  0.1057
 8841TIP3    H126487   2.908   3.785   0.625 -1.0417  0.5441  0.1275
 8841TIP3    H226488   2.898   3.648   0.690 -0.4781  0.6604  0.4658
 8842TIP3   OH226489   5.789   4.425   5.342  0.1375  0.3885  0.0198
 8842TIP3    H126490   5.735   4.444   5.419  0.3195  0.9186  0.0229
 8842TIP3    H226491   5.739   4.361   5.293 -0.6510  1.1093 -0.1399
 8843TIP3   OH226492   2.311   3.743   5.587 -0.3548 -0.1139 -0.1990
 8843TIP3    H126493   2.353   3.817   5.632 -0.9170 -0.6457  1.2496
 8843TIP3    H226494   2.366   3.727   5.511  0.9288  0.5063  0.5694
 8844TIP3   OH226495   2.875   0.039   4.143  0.2650  0.2445 -0.0158
 8844TIP3    H126496   2.861   0.030   4.049  1.0766 -0.0496 -0.1207
 8844TIP3    H226497   2.850  -0.045   4.180  0.1328  0.2929  0.0031
 8845TIP3   OH226498   5.421   2.085   3.206  0.1277 -0.1554 -0.4305
 8845TIP3    H126499   5.512   2.114   3.216 -0.3421  1.1937  0.1066
 8845TIP3    H226500   5.387   2.136   3.133 -0.3425 -0.3082 -0.3231
 8846TIP3   OH226501   2.857   2.605   5.222 -0.0756 -0.5061 -0.3122
 8846TIP3    H126502   2.832   2.546   5.151  0.9878  0.6219 -1.6760
 8846TIP3    H226503   2.786   2.668   5.229 -0.3735 -0.8653 -0.0793
 8847TIP3   OH226504   0.782   4.476   3.987  0.2060 -0.6890 -0.4036
 8847TIP3    H126505   0.810   4.447   3.900 -0.1251  1.5899 -1.3399
 8847TIP3    H226506   0.856   4.528   4.020 -0.3945  0.0062 -0.1273
 8848TIP3   OH226507   6.116   1.744   2.447  0.4504  0.1641  0.1621
 8848TIP3    H126508   6.089   1.768   2.358 -0.0445  1.3194  0.6021
 8848TIP3    H226509   6.128   1.649   2.444  0.1098  0.1427 -1.0476
 8849TIP3   OH226510   0.430   3.941   0.288 -0.6300  0.2044  0.3969
 8849TIP3    H126511   0.342   3.947   0.325 -0.3998 -1.7790  1.3991
 8849TIP3    H226512   0.444   3.847   0.275  1.3959  0.4623  0.4420
 8850TIP3   OH226513   2.703   6.279   2.538 -0.3235 -0.0838 -0.1613
 8850TIP3    H126514   2.720   6.350   2.600 -1.0575  0.2661 -0.3568
 8850TIP3    H226515   2.787   6.265   2.494 -0.2607  0.9012 -0.3770
 8851TIP3   OH226516   4.623   2.256   4.452  0.1565 -0.1600  0.2451
 8851TIP3    H126517   4.529   2.275   4.455  0.5571  2.2984 -0.4413
 8851TIP3    H226518   4.645   2.231   4.542 -0.6987  2.0687  1.1655
 8852TIP3   OH226519   2.555   6.379   5.472  0.0788  0.3910 -0.2803
 8852TIP3    H126520   2.563   6.284   5.483  0.2985  0.6035  1.8907
 8852TIP3    H226521   2.538   6.411   5.560 -3.0585  2.1244 -1.3845
 8853TIP3   OH226522   5.236   2.839   0.278  0.4490 -0.1701 -0.1638
 8853TIP3    H126523   5.273   2.916   0.235  0.4556  0.1863  0.4560
 8853TIP3    H226524   5.312   2.789   0.308  0.4956 -1.5099 -2.3806
 8854TIP3   OH226525   5.477   0.063   0.771  0.7144  0.4670  0.0147
 8854TIP3    H126526   5.493  -0.031   0.782  3.4105  0.7956 -0.4283
 8854TIP3    H226527   5.530   0.104   0.839  0.3946  1.7075 -0.4705
 8855TIP3   OH226528   4.897   3.448   4.453 -0.3376 -0.1475 -0.4223
 8855TIP3    H126529   4.890   3.352   4.447  1.0264 -0.2436 -0.6967
 8855TIP3    H226530   4.807   3.477   4.471 -0.8841 -1.4272 -0.9522
 8856TIP3   OH226531   0.479   3.349   1.593  0.6103 -0.0866 -0.3055
 8856TIP3    H126532   0.568   3.382   1.599  0.0052  1.5953 -0.0395
 8856TIP3    H226533   0.434   3.387   1.669 -0.4615 -0.4994 -0.7132
 8857TIP3   OH226534   1.844   4.743   1.474 -0.1489  0.2300 -0.6087
 8857TIP3    H126535   1.775   4.780   1.419 -0.3175  0.7411 -0.0602
 8857TIP3    H226536   1.804   4.669   1.518 -0.7629  1.3053  0.7209
 8858TIP3   OH226537   0.371   6.320   3.570 -0.3275 -0.3400  0.0328
 8858TIP3    H126538   0.407   6.350   3.653 -1.5790  1.1617  0.0607
 8858TIP3    H226539   0.375   6.224   3.576  1.0971 -0.2579  1.1212
 8859TIP3   OH226540   4.961   5.612   3.753  0.1981  0.3391  0.1661
 8859TIP3    H126541   4.926   5.563   3.679  1.1662  0.5051 -0.4212
 8859TIP3    H226542   5.032   5.557   3.786 -0.6262 -0.0328  1.3797
 8860TIP3   OH226543   5.753   6.598   3.930 -0.0259 -0.0220 -0.2027
 8860TIP3    H126544   5.818   6.568   3.994 -0.9513  2.4729  2.1174
 8860TIP3    H226545   5.805   6.636   3.859  1.2141  2.7106  1.9912
 8861TIP3   OH226546   1.296   2.970   5.722  0.4725  0.0551 -0.5340
 8861TIP3    H126547   1.227   2.917   5.682 -1.1697  1.5284  0.1852
 8861TIP3    H226548   1.376   2.921   5.706 -0.6163 -1.3226 -2.1574
 8862TIP3   OH226549   4.508   4.834   1.592  0.2361  0.4383 -0.5581
 8862TIP3    H126550   4.464   4.749   1.588  0.1123  0.5133 -0.7594
 8862TIP3    H226551   4.592   4.815   1.635 -0.1305  0.3563  0.1375
 8863TIP3   OH226552   5.163   0.126   4.807  0.2514 -0.1700  0.2258
 8863TIP3    H126553   5.194   0.134   4.717 -1.5679 -2.0839 -0.6714
 8863TIP3    H226554   5.232   0.077   4.852  0.3695 -0.8528 -0.6564
 8864TIP3   OH226555   3.912   1.017   4.078  0.2730 -0.9800  0.5147
 8864TIP3    H126556   3.861   0.999   3.999  0.3003  2.9585 -0.6011
 8864TIP3    H226557   3.847   1.038   4.145  0.3147 -1.6676  0.7751
 8865TIP3   OH226558   3.519   4.296   3.913 -0.2772 -0.2177  0.3877
 8865TIP3    H126559   3.451   4.302   3.845  1.6641  0.8780 -1.5748
 8865TIP3    H226560   3.539   4.387   3.934  0.4435 -0.5319  1.0703
 8866TIP3   OH226561   6.440   0.920   1.728 -0.0381  0.2028 -0.0919
 8866TIP3    H126562   6.475   0.841   1.685 -1.0430 -0.4932  0.3289
 8866TIP3    H226563   6.476   0.993   1.677  3.4387 -0.3427  1.2899
 8867TIP3   OH226564   1.530   0.437   0.560  0.4067  0.0470  0.1200
 8867TIP3    H126565   1.568   0.359   0.600 -0.3558 -0.1041  0.5650
 8867TIP3    H226566   1.598   0.504   0.570  1.9678 -1.0766 -2.2213
 8868TIP3   OH226567   5.363   2.915   3.755 -0.2333  0.3984  0.1450
 8868TIP3    H126568   5.435   2.858   3.784 -2.8252 -2.2652  1.9743
 8868TIP3    H226569   5.328   2.951   3.836 -0.8377  1.8579 -0.7363
 8869TIP3   OH226570   6.398   1.002   4.498 -0.5650 -0.2621  0.4909
 8869TIP3    H126571   6.448   1.084   4.499 -0.9469 -0.0258  0.9068
 8869TIP3    H226572   6.450   0.941   4.549 -0.0775 -0.4101 -0.1622
 8870TIP3   OH226573   1.018   3.676   2.962  0.8380  0.0766 -0.2151
 8870TIP3    H126574   1.043   3.672   2.870 -0.9799 -2.2497 -0.6947
 8870TIP3    H226575   1.030   3.587   2.995 -0.4193  0.4024  1.2605
 8871TIP3   OH226576   2.857   3.774   2.555  0.4654  0.2239  0.3776
 8871TIP3    H126577   2.920   3.833   2.514 -0.6045  1.2699  0.1810
 8871TIP3    H226578   2.855   3.800   2.647 -0.8353  1.3109  0.0791
 8872TIP3   OH226579   2.756   5.325   3.781 -0.0020  0.1348  0.0715
 8872TIP3    H126580   2.798   5.295   3.862  1.3558  1.6905 -0.0198
 8872TIP3    H226581   2.674   5.365   3.811  0.2487  0.2525  0.6209
 8873TIP3   OH226582   1.944   1.623   3.751  0.2473 -0.0985  0.0448
 8873TIP3    H126583   2.027   1.622   3.799  0.1301  0.4850  0.2637
 8873TIP3    H226584   1.939   1.536   3.711  0.2383 -0.6665  1.2561
 8874TIP3   OH226585   0.464   4.711   3.261 -0.0661 -0.7248  0.1827
 8874TIP3    H126586   0.506   4.630   3.290 -1.2207 -0.9034  1.3987
 8874TIP3    H226587   0.425   4.688   3.176  1.3269 -0.8511 -0.4573
 8875TIP3   OH226588   3.350   0.579   3.275  0.2965 -0.6583  0.1316
 8875TIP3    H126589   3.371   0.587   3.182  1.1739 -0.9018  0.2952
 8875TIP3    H226590   3.332   0.485   3.288  0.8144 -0.7367  0.3241
 8876TIP3   OH226591   2.148   1.110   0.949  0.4563  0.6537  0.4569
 8876TIP3    H126592   2.123   1.025   0.914  1.8025 -0.0207  1.0487
 8876TIP3    H226593   2.142   1.100   1.044  1.8141  0.7995  0.5827
 8877TIP3   OH226594   6.991   6.073   3.734  0.4468  0.5049 -0.0060
 8877TIP3    H126595   6.953   6.031   3.657 -3.6747  0.4008  1.8413
 8877TIP3    H226596   7.010   6.163   3.705  1.4045 -0.1889 -1.7196
 8878TIP3   OH226597   1.177   5.526   4.242  0.7841 -0.5332 -0.1666
 8878TIP3    H126598   1.086   5.499   4.229  0.2328  0.9999  0.3133
 8878TIP3    H226599   1.223   5.445   4.264 -0.6718 -1.1866  0.6119
 8879TIP3   OH226600   0.062   4.172   2.687 -0.0417 -0.3447  0.2722
 8879TIP3    H126601   0.056   4.176   2.591 -0.1461  0.3659  0.3062
 8879TIP3    H226602   0.094   4.083   2.705  0.6024 -0.2764 -0.4558
 8880TIP3   OH226603   1.313   2.434   2.919 -0.2212 -0.0252  0.6942
 8880TIP3    H126604   1.234   2.437   2.972  0.1495 -0.6274  1.3081
 8880TIP3    H226605   1.377   2.387   2.974 -0.0008 -1.1999 -0.5083
 8881TIP3   OH226606   0.779   4.177   0.246  0.3452 -0.1078  0.0212
 8881TIP3    H126607   0.822   4.246   0.195  0.2284 -0.9948 -1.3281
 8881TIP3    H226608   0.734   4.224   0.317  2.4419  0.9591  0.7469
 8882TIP3   OH226609   3.232   3.590   2.677  0.3115 -0.0916  0.6495
 8882TIP3    H126610   3.182   3.517   2.713  0.2026  0.1463  0.9887
 8882TIP3    H226611   3.319   3.580   2.716  0.3823 -0.2122  0.4608
 8883TIP3   OH226612   3.185   2.772   4.720 -0.7956 -0.0766  0.2521
 8883TIP3    H126613   3.269   2.755   4.761 -0.4789  1.2622  0.1921
 8883TIP3    H226614   3.205   2.831   4.648 -1.9703  1.5347  1.1862
 8884TIP3   OH226615   4.280   6.375   3.705 -0.2401  0.6740  0.1206
 8884TIP3    H126616   4.213   6.440   3.685 -2.1987 -0.4820  2.3426
 8884TIP3    H226617   4.237   6.291   3.688  1.2930 -0.0957 -0.1020
 8885TIP3   OH226618   4.821   5.635   0.421  0.5807 -0.4475 -0.6975
 8885TIP3    H126619   4.871   5.710   0.454  1.0519 -0.9085 -0.3431
 8885TIP3    H226620   4.819   5.573   0.494 -0.4236 -0.4897 -0.7384
 8886TIP3   OH226621   4.301   6.450   5.630  0.4173  0.1477 -0.2035
 8886TIP3    H126622   4.346   6.381   5.581 -0.1995 -1.9040  1.9319
 8886TIP3    H226623   4.354   6.462   5.708 -1.4520 -0.6868  1.2686
 8887TIP3   OH226624   1.170   4.193   3.786 -0.3588  0.5819  0.2245
 8887TIP3    H126625   1.177   4.195   3.690 -1.9102  0.2624  0.0750
 8887TIP3    H226626   1.202   4.278   3.815  0.1000  0.6925 -0.5887
 8888TIP3   OH226627   5.892   5.571   5.768  0.0848  0.3591 -0.8598
 8888TIP3    H126628   5.979   5.531   5.766  0.1842  0.4859 -3.6825
 8888TIP3    H226629   5.858   5.551   5.855  2.6393 -0.3082  0.0731
 8889TIP3   OH226630   4.780   6.157   0.666  0.3623  0.0700  0.6589
 8889TIP3    H126631   4.766   6.211   0.588 -2.0256 -1.3451  0.0058
 8889TIP3    H226632   4.869   6.124   0.655  0.4198  0.6382 -0.9965
 8890TIP3   OH226633   1.766   0.658   5.009  0.3637 -0.3671  0.6475
 8890TIP3    H126634   1.772   0.564   5.027 -0.6798 -0.6949 -0.5933
 8890TIP3    H226635   1.856   0.684   4.987  0.5432 -1.2212  0.3441
 8891TIP3   OH226636   2.692   2.957   3.436  0.4327 -0.0369 -0.5783
 8891TIP3    H126637   2.782   2.931   3.419  0.3162 -1.0265  0.1935
 8891TIP3    H226638   2.661   2.895   3.503 -0.6980  0.5130 -0.5568
 8892TIP3   OH226639   0.575   4.699   5.107 -0.1401 -0.0473 -0.1580
 8892TIP3    H126640   0.611   4.711   5.194 -1.8100  0.1783  0.5434
 8892TIP3    H226641   0.613   4.770   5.055 -0.0921  0.5824  0.7132
 8893TIP3   OH226642   0.991   5.460   4.480  0.4857 -0.0774 -0.0613
 8893TIP3    H126643   1.067   5.418   4.520  0.4490 -0.7708 -0.6814
 8893TIP3    H226644   1.025   5.539   4.439  1.0191 -0.7313 -0.9170
 8894TIP3   OH226645   4.577   2.697   1.480 -0.0962  0.3146 -0.0358
 8894TIP3    H126646   4.670   2.708   1.500 -0.1881  1.7587 -0.2622
 8894TIP3    H226647   4.544   2.787   1.469 -1.1188 -0.2089 -1.7137
 8895TIP3   OH226648   0.303   4.205   5.754  0.6454  0.4594 -0.0878
 8895TIP3    H126649   0.325   4.205   5.661  2.3750 -2.4222  0.2224
 8895TIP3    H226650   0.382   4.240   5.796  0.3706  0.4951  0.3975
 8896TIP3   OH226651   5.036   3.153   2.554  0.2329 -0.2222 -0.0870
 8896TIP3    H126652   5.084   3.138   2.473 -0.5003  2.4095 -1.1103
 8896TIP3    H226653   4.944   3.139   2.530  0.0171  0.5067  0.2876
 8897TIP3   OH226654   7.136   5.683   4.226 -0.2586  0.5910 -0.4446
 8897TIP3    H126655   7.064   5.745   4.214 -1.2374 -0.5126 -0.3657
 8897TIP3    H226656   7.095   5.604   4.261  0.9856 -0.0887 -0.4561
 8898TIP3   OH226657   6.056   0.953   3.203  0.2973 -0.0313 -0.0612
 8898TIP3    H126658   6.037   0.873   3.253  1.5075 -1.1997 -1.3689
 8898TIP3    H226659   6.101   0.921   3.124  2.1785  2.0614  0.0897
 8899TIP3   OH226660   4.994   4.782   3.339 -0.0182  0.2913 -0.0641
 8899TIP3    H126661   4.934   4.708   3.331  0.9103 -0.7931  2.1081
 8899TIP3    H226662   4.938   4.859   3.346 -1.0445 -0.3659 -0.7603
 8900TIP3   OH226663   5.297   4.258   5.707  0.8646  0.0593 -0.0013
 8900TIP3    H126664   5.248   4.244   5.788  0.2602 -2.0341 -0.6694
 8900TIP3    H226665   5.280   4.349   5.684  0.3500  0.4479  1.7499
 8901TIP3   OH226666   4.332   1.870   5.497  0.5601 -0.1741  0.8768
 8901TIP3    H126667   4.413   1.821   5.510  0.6093 -0.5744 -0.6987
 8901TIP3    H226668   4.361   1.956   5.465  0.4102 -1.2559 -2.6029
 8902TIP3   OH226669   2.389   6.495   1.073 -0.4873  0.3494  0.0015
 8902TIP3    H126670   2.334   6.555   1.124 -1.4104 -0.3023 -0.1911
 8902TIP3    H226671   2.331   6.422   1.053 -0.1884  0.6053 -2.0159
 8903TIP3   OH226672   1.356   2.504   3.693 -0.2743 -0.1726  0.0267
 8903TIP3    H126673   1.412   2.561   3.640 -1.9763 -0.0617 -1.7610
 8903TIP3    H226674   1.400   2.419   3.691  1.4458  0.6017  1.3701
 8904TIP3   OH226675   4.019   3.118   1.995  0.6903 -0.2637  0.2464
 8904TIP3    H126676   3.926   3.141   1.992  0.9810  0.9903  0.3614
 8904TIP3    H226677   4.032   3.082   2.083  0.2665 -0.6927  0.1381
 8905TIP3   OH226678   3.199   6.289   0.982 -0.0569 -1.0440 -0.2614
 8905TIP3    H126679   3.204   6.229   0.907  1.5673  0.4196 -1.4339
 8905TIP3    H226680   3.201   6.376   0.942 -0.9916 -0.1914  1.4393
 8906TIP3   OH226681   6.400   4.330   3.729 -0.2233  0.4078 -0.0655
 8906TIP3    H126682   6.420   4.396   3.663 -2.8168  2.0062  0.5637
 8906TIP3    H226683   6.483   4.312   3.772  0.7044  2.8486 -0.6815
 8907TIP3   OH226684   4.829   6.082   2.642 -0.0953  0.5046  0.0445
 8907TIP3    H126685   4.856   6.115   2.556 -0.4096  1.2652  0.2275
 8907TIP3    H226686   4.895   6.016   2.665 -1.0751 -1.1912 -1.6671
 8908TIP3   OH226687   1.954   5.645   5.290  0.0535  0.2659  0.4130
 8908TIP3    H126688   1.981   5.726   5.333  1.8052 -0.1097  0.0729
 8908TIP3    H226689   2.035   5.604   5.261 -0.9298 -0.4597 -1.5310
 8909TIP3   OH226690   2.078   4.911   2.542 -0.0405 -0.4334  0.2770
 8909TIP3    H126691   2.153   4.914   2.482 -0.7654  0.4865 -0.6326
 8909TIP3    H226692   2.114   4.939   2.626  0.6046  0.2171 -0.1968
 8910TIP3   OH226693   6.657   5.620   3.061 -0.0473 -0.4710 -0.3231
 8910TIP3    H126694   6.611   5.648   3.140 -3.1527  2.4016 -2.8648
 8910TIP3    H226695   6.749   5.638   3.078 -0.8041  1.5544  2.0863
 8911TIP3   OH226696   4.885   2.704   1.978 -0.0771 -0.1862  0.0936
 8911TIP3    H126697   4.919   2.793   1.987  0.9161 -0.1086 -3.0825
 8911TIP3    H226698   4.796   2.715   1.943 -0.0044 -0.4320 -0.1739
 8912TIP3   OH226699   3.735   6.176   3.443 -0.2847  0.3863 -0.7503
 8912TIP3    H126700   3.819   6.135   3.461 -0.6281 -0.9749 -2.0211
 8912TIP3    H226701   3.733   6.254   3.499  1.0357 -0.5235  0.6405
 8913TIP3   OH226702   5.282   5.121   3.422 -0.2471  0.1695  0.3701
 8913TIP3    H126703   5.275   5.062   3.347  1.3339 -0.5977  0.7618
 8913TIP3    H226704   5.277   5.062   3.498 -0.8728  0.8217  0.8402
 8914TIP3   OH226705   4.308   2.044   5.761  0.0775  0.0431 -1.1935
 8914TIP3    H126706   4.305   2.063   5.668 -0.5986  0.9902 -0.9983
 8914TIP3    H226707   4.223   2.006   5.781 -0.1427  0.7315 -0.7915
 8915TIP3   OH226708   2.874   3.504   2.491 -0.1023 -0.0362  0.0624
 8915TIP3    H126709   2.830   3.488   2.574 -0.2249 -0.0049  0.0036
 8915TIP3    H226710   2.864   3.598   2.475  1.5084  0.3179  0.9169
 8916TIP3   OH226711   4.149   2.938  -0.007  0.4846 -0.1062  0.5341
 8916TIP3    H126712   4.194   2.965   0.073 -0.2974 -0.4518  1.0916
 8916TIP3    H226713   4.091   3.011  -0.028  0.7448  0.0176  0.2285
 8917TIP3   OH226714   7.016   3.865   4.035  0.1063 -0.1843 -0.2250
 8917TIP3    H126715   7.038   3.949   4.074 -0.3709 -0.1605 -0.0050
 8917TIP3    H226716   6.934   3.881   3.988  0.5984 -0.2407 -1.1431
 8918TIP3   OH226717   3.138   5.421   1.826 -0.0468 -0.0403  0.1145
 8918TIP3    H126718   3.074   5.492   1.818  0.2800  0.1007 -1.4653
 8918TIP3    H226719   3.193   5.447   1.901 -0.1621  1.1882 -0.2007
 8919TIP3   OH226720   4.294   5.650   1.539  0.2385 -0.3518 -0.3168
 8919TIP3    H126721   4.221   5.657   1.600 -0.9467  0.2511 -1.7281
 8919TIP3    H226722   4.334   5.565   1.558  0.2446  0.0269  1.5946
 8920TIP3   OH226723   1.018   0.814   0.735  0.0046  0.1966  0.7015
 8920TIP3    H126724   0.925   0.832   0.744  0.0365  2.2195 -1.8207
 8920TIP3    H226725   1.022   0.729   0.691 -0.7288  0.8251 -0.6153
 8921TIP3   OH226726   1.467   2.931   2.335  0.6875 -0.2305 -0.1933
 8921TIP3    H126727   1.387   2.980   2.314  0.0153 -1.7483 -1.3347
 8921TIP3    H226728   1.526   2.997   2.372 -1.2361  0.8578  1.1323
 8922TIP3   OH226729   4.249   3.017   1.916  0.2456 -0.1114 -0.0946
 8922TIP3    H126730   4.160   3.024   1.948  0.1005  0.5494 -0.6134
 8922TIP3    H226731   4.299   3.078   1.969  0.4661 -0.7456  0.4377
 8923TIP3   OH226732   1.128   4.911   0.970  0.5965 -0.1813 -0.7034
 8923TIP3    H126733   1.191   4.980   0.988  0.9349 -0.4328 -0.9146
 8923TIP3    H226734   1.181   4.832   0.959  0.1321 -0.8465  1.2709
 8924TIP3   OH226735   3.630   1.202   3.726 -0.0469  0.1721 -0.0155
 8924TIP3    H126736   3.612   1.282   3.776  0.5752 -2.1753  4.5227
 8924TIP3    H226737   3.550   1.150   3.734  0.6037 -0.8825 -0.1439
 8925TIP3   OH226738   4.711   4.439   0.220 -0.3408 -0.1318  0.0742
 8925TIP3    H126739   4.700   4.403   0.308 -1.4412 -0.7698 -0.3022
 8925TIP3    H226740   4.664   4.522   0.223  0.2065  0.1751  0.2764
 8926TIP3   OH226741   4.540   5.637   3.179 -0.2639 -0.5362  0.3366
 8926TIP3    H126742   4.455   5.647   3.221  0.3994  1.3149  1.3986
 8926TIP3    H226743   4.561   5.725   3.147 -0.0327 -1.5438 -2.5960
 8927TIP3   OH226744   2.073   4.228   4.815 -0.6228  0.7111  0.4363
 8927TIP3    H126745   2.051   4.290   4.746 -2.7917 -1.3330 -0.8680
 8927TIP3    H226746   2.088   4.145   4.770 -0.3320 -0.3010  2.2786
 8928TIP3   OH226747   6.711   1.022   2.926 -0.4511 -0.2251 -0.1699
 8928TIP3    H126748   6.734   1.114   2.916  0.9048 -0.6834 -1.9398
 8928TIP3    H226749   6.669   0.998   2.843  1.9097 -1.8407 -1.0295
 8929TIP3   OH226750   0.456   6.457   0.320  0.3194  0.4463 -0.4862
 8929TIP3    H126751   0.373   6.490   0.355 -0.7024 -0.7318 -1.7016
 8929TIP3    H226752   0.474   6.378   0.371  0.4852  0.4705 -0.5068
 8930TIP3   OH226753   5.716   3.325   5.366 -0.3183  0.3938 -0.1397
 8930TIP3    H126754   5.738   3.344   5.457  2.4981 -0.8935 -0.4588
 8930TIP3    H226755   5.632   3.279   5.370 -0.3343  0.5402  1.7853
 8931TIP3   OH226756   6.423   0.576   4.747 -0.6016 -0.4644 -0.1477
 8931TIP3    H126757   6.439   0.511   4.816 -0.9384 -0.2972  0.0950
 8931TIP3    H226758   6.463   0.539   4.669  1.5927  0.2539  0.5631
 8932TIP3   OH226759   4.445   1.271   3.522  0.1392  0.4642  0.2624
 8932TIP3    H126760   4.444   1.218   3.442  0.8825  0.2445  0.3910
 8932TIP3    H226761   4.498   1.347   3.500 -1.9260  1.8261 -0.3091
 8933TIP3   OH226762   6.073   0.258   0.427  0.1024 -0.0890  0.0942
 8933TIP3    H126763   6.012   0.212   0.370  0.1785  0.2289 -0.2452
 8933TIP3    H226764   6.051   0.228   0.515 -0.1844 -0.3851 -0.0775
 8934TIP3   OH226765   3.125   5.793   3.911 -0.2292 -0.0119 -0.5211
 8934TIP3    H126766   3.071   5.727   3.869  0.1549  0.7889 -2.4085
 8934TIP3    H226767   3.074   5.874   3.904  0.3968  0.3834 -0.6147
 8935TIP3   OH226768   3.912   1.172   2.359  0.0425  0.2959 -0.0962
 8935TIP3    H126769   3.834   1.228   2.351 -0.2772 -0.2643 -1.1561
 8935TIP3    H226770   3.950   1.172   2.271  1.7546  1.2505  0.6076
 8936TIP3   OH226771   3.998   6.517   0.892 -0.4439 -0.3483  0.0441
 8936TIP3    H126772   3.989   6.612   0.882 -0.0201 -0.3012  0.1174
 8936TIP3    H226773   4.085   6.497   0.858 -0.0506 -0.5462  1.1174
 8937TIP3   OH226774   5.084   0.513   0.496  0.2546 -0.4731  0.2994
 8937TIP3    H126775   5.045   0.440   0.544 -1.1394  0.8407  1.2589
 8937TIP3    H226776   5.050   0.591   0.540  2.3621  0.7656 -0.1760
 8938TIP3   OH226777   4.301   5.716   4.230  0.4353  0.1049 -0.0093
 8938TIP3    H126778   4.303   5.652   4.159 -0.1591 -1.6156  1.4540
 8938TIP3    H226779   4.393   5.741   4.242  0.6460 -0.2776 -0.7494
 8939TIP3   OH226780   5.815   3.270   1.649  0.4691  0.3471 -0.1899
 8939TIP3    H126781   5.748   3.255   1.716  0.1150  1.5730 -0.2322
 8939TIP3    H226782   5.811   3.193   1.594 -0.6354  0.2050  0.0537
 8940TIP3   OH226783   5.172   4.315   2.372 -0.0337  0.0838 -0.1452
 8940TIP3    H126784   5.086   4.290   2.406  0.6434 -1.4218  0.5382
 8940TIP3    H226785   5.153   4.380   2.305 -1.5892  1.1677  1.2611
 8941TIP3   OH226786   0.800   1.810   5.257  0.8242  0.4902  0.5072
 8941TIP3    H126787   0.725   1.819   5.198 -0.5849 -1.0175  1.9504
 8941TIP3    H226788   0.847   1.733   5.223  0.8259  0.4766  0.5414
 8942TIP3   OH226789   1.333   4.977   3.819  0.6741 -0.0992  0.2105
 8942TIP3    H126790   1.252   4.931   3.799 -0.5214  1.3508  1.4556
 8942TIP3    H226791   1.380   4.980   3.736 -1.7636  1.3098 -1.2265
 8943TIP3   OH226792   6.719   2.987   3.516  0.4762  0.2759 -0.4122
 8943TIP3    H126793   6.629   3.018   3.503  0.5165  0.8368  0.5513
 8943TIP3    H226794   6.748   3.032   3.595  0.6729 -1.9620  0.8737
 8944TIP3   OH226795   1.871   3.394   0.571 -0.1710  0.2160 -0.0003
 8944TIP3    H126796   1.783   3.375   0.539  0.0954  0.2553 -0.7605
 8944TIP3    H226797   1.921   3.315   0.552  0.0871  0.3895 -0.0460
 8945TIP3   OH226798   3.098   4.408   1.083  0.0902  0.1643 -0.2458
 8945TIP3    H126799   3.069   4.317   1.083  0.0573  0.1712  0.0975
 8945TIP3    H226800   3.193   4.404   1.089  0.0851  0.1533 -0.1745
 8946TIP3   OH226801   4.966   0.843   4.611 -0.0351  0.0747  0.1453
 8946TIP3    H126802   5.038   0.871   4.668  0.0769  0.1953 -0.0534
 8946TIP3    H226803   5.009   0.813   4.531 -0.1943 -0.0443  0.1047
 8947TIP3   OH226804   7.103   1.383   5.389  0.3032  0.1826  0.9953
 8947TIP3    H126805   7.011   1.387   5.415 -0.1240  0.4622 -0.4951
 8947TIP3    H226806   7.105   1.322   5.316  1.2280  0.5587  0.6937
 8948TIP3   OH226807   6.191   5.171   5.159  0.2020  0.0043  0.2292
 8948TIP3    H126808   6.151   5.204   5.240 -1.1062  1.1945 -0.8396
 8948TIP3    H226809   6.197   5.077   5.172 -1.4762 -0.0265  1.1003
 8949TIP3   OH226810   5.899   4.277   2.172  0.1665 -0.0934  0.1606
 8949TIP3    H126811   5.938   4.263   2.258  0.0193 -1.6997 -0.0132
 8949TIP3    H226812   5.807   4.296   2.190  0.2000 -0.1278  0.3724
 8950TIP3   OH226813   3.033   2.896   0.636  0.2031 -0.2346  0.0509
 8950TIP3    H126814   3.039   2.986   0.669 -0.1572 -0.4895  0.8131
 8950TIP3    H226815   3.065   2.903   0.546 -1.8537  1.0871 -0.6577
 8951TIP3   OH226816   0.517   2.433   4.170 -0.0379 -0.8664  0.2671
 8951TIP3    H126817   0.525   2.477   4.255 -1.4120 -0.2843  0.1348
 8951TIP3    H226818   0.583   2.475   4.115 -0.5086  0.2228  0.4916
 8952TIP3   OH226819   5.405   1.117   3.601  0.0767 -0.0974 -0.0573
 8952TIP3    H126820   5.447   1.048   3.551 -1.5262 -1.4928  0.4317
 8952TIP3    H226821   5.359   1.072   3.672 -0.0390  1.5732  0.9966
 8953TIP3   OH226822   0.595   5.190   3.762 -0.1718 -0.0002  0.0380
 8953TIP3    H126823   0.655   5.115   3.767 -0.3207 -0.1329 -0.1432
 8953TIP3    H226824   0.572   5.196   3.670  0.3250  0.6570 -0.0448
 8954TIP3   OH226825   7.148   3.860   2.738  0.3124 -0.2460 -0.1027
 8954TIP3    H126826   7.216   3.824   2.680 -0.0487  0.2162 -0.8343
 8954TIP3    H226827   7.067   3.847   2.689 -0.0114  0.0841  0.3439
 8955TIP3   OH226828   1.688   3.603   2.453  0.4546  0.7501  0.3670
 8955TIP3    H126829   1.738   3.645   2.383  2.2147  1.8490  2.1674
 8955TIP3    H226830   1.654   3.675   2.506  0.1607 -0.0484  1.3044
 8956TIP3   OH226831   3.234   1.577   3.928 -0.1862 -0.4776  0.6810
 8956TIP3    H126832   3.268   1.525   4.002  0.8621 -0.0001  0.5463
 8956TIP3    H226833   3.237   1.667   3.959 -1.0925 -0.4025  0.5612
 8957TIP3   OH226834   4.662   6.168   5.013  0.0620  0.0067 -0.4088
 8957TIP3    H126835   4.616   6.149   5.095  1.3853  1.5781  0.7801
 8957TIP3    H226836   4.633   6.256   4.989  2.6525  1.2846  0.6644
 8958TIP3   OH226837   0.355   0.170   5.762 -0.2369 -0.2665 -0.1177
 8958TIP3    H126838   0.280   0.224   5.737 -0.2894 -0.5764 -0.6500
 8958TIP3    H226839   0.369   0.188   5.855  0.0059  0.9953 -0.3777
 8959TIP3   OH226840   2.689   1.046   1.180  0.4056 -0.4289 -0.1187
 8959TIP3    H126841   2.696   1.129   1.227 -0.1852  0.0009 -0.7823
 8959TIP3    H226842   2.692   1.070   1.088 -2.0892 -0.8810 -0.3712
 8960TIP3   OH226843   6.100   1.233   1.490  0.3983 -0.3054 -0.1812
 8960TIP3    H126844   6.184   1.188   1.482 -0.0589 -1.3472  0.5446
 8960TIP3    H226845   6.042   1.168   1.531 -0.6029  0.5830 -0.1356
 8961TIP3   OH226846   6.700   4.508   2.146 -0.3877 -0.3844 -0.5496
 8961TIP3    H126847   6.691   4.601   2.124 -1.6627 -0.3025  0.2173
 8961TIP3    H226848   6.649   4.463   2.078 -0.3033 -0.4769 -0.5511
 8962TIP3   OH226849   3.766   5.641   3.553 -0.0645  0.0297  0.4241
 8962TIP3    H126850   3.861   5.635   3.561  0.0428  1.9471  1.1741
 8962TIP3    H226851   3.749   5.634   3.460  0.9694  1.0249  0.1359
 8963TIP3   OH226852   7.194   0.896   3.223 -0.2116  0.6813  0.1225
 8963TIP3    H126853   7.231   0.813   3.192 -2.3547 -0.5411  0.5671
 8963TIP3    H226854   7.182   0.948   3.144 -0.7320 -0.2768 -0.4536
 8964TIP3   OH226855   4.553   1.032   4.188  0.3016  0.7739 -0.0823
 8964TIP3    H126856   4.580   1.065   4.274 -0.4975  1.1624  0.0285
 8964TIP3    H226857   4.462   1.059   4.179 -0.2045 -0.8469 -0.2665
 8965TIP3   OH226858   4.506   5.604   0.782 -0.0373  0.2544  0.2608
 8965TIP3    H126859   4.432   5.635   0.833 -1.4224  0.1638 -1.5722
 8965TIP3    H226860   4.496   5.647   0.697  1.4771 -0.5190 -0.3519
 8966TIP3   OH226861   0.188   3.230   1.456  0.4046  0.1946  0.8273
 8966TIP3    H126862   0.120   3.183   1.409  0.9872  2.2289 -2.3412
 8966TIP3    H226863   0.199   3.182   1.538 -2.2485 -2.2944 -0.1408
 8967TIP3   OH226864   0.976   0.811   5.874  0.3438 -0.2308  0.1031
 8967TIP3    H126865   0.944   0.726   5.843 -1.0379  0.2442  0.1872
 8967TIP3    H226866   0.970   0.868   5.798 -2.6540  0.8303  0.9849
 8968TIP3   OH226867   2.691   0.590   1.131 -0.3370 -0.0996  0.3294
 8968TIP3    H126868   2.613   0.641   1.110 -0.2989 -0.2096 -0.1003
 8968TIP3    H226869   2.679   0.564   1.222 -0.5263  0.3695  0.4429
 8969TIP3   OH226870   7.128   6.314   3.063  0.3617 -0.4443  0.0391
 8969TIP3    H126871   7.115   6.408   3.076  0.1662 -0.3224 -0.9535
 8969TIP3    H226872   7.213   6.308   3.019 -0.7848 -0.4983 -2.3338
 8970TIP3   OH226873   0.358   5.930   1.898 -0.0974 -0.1712  0.2730
 8970TIP3    H126874   0.420   5.864   1.930  2.2316  1.4169 -0.6544
 8970TIP3    H226875   0.338   5.983   1.975  1.3817  0.5337  0.1979
 8971TIP3   OH226876   5.623   0.991   3.078 -0.0115 -0.3044 -0.3080
 8971TIP3    H126877   5.702   1.045   3.082 -0.9269  1.1682 -1.1078
 8971TIP3    H226878   5.629   0.934   3.155 -0.2419  2.7227  2.1566
 8972TIP3   OH226879   0.458   6.183   2.994 -0.3262  0.2852 -0.4408
 8972TIP3    H126880   0.405   6.225   3.062 -0.4346 -1.0572  0.3386
 8972TIP3    H226881   0.498   6.109   3.038  0.3821 -0.0513 -1.6161
 8973TIP3   OH226882   2.853   3.784   1.258 -0.1401  0.2410 -0.1716
 8973TIP3    H126883   2.811   3.715   1.207  1.7236 -1.5344  0.5456
 8973TIP3    H226884   2.929   3.810   1.206 -0.5109  1.3878 -0.1750
 8974TIP3   OH226885   6.306   0.516   3.714  0.1965  0.0642 -0.3630
 8974TIP3    H126886   6.372   0.557   3.658  2.1154 -2.7470 -0.3609
 8974TIP3    H226887   6.357   0.475   3.784 -1.8071 -0.1118  1.0506
 8975TIP3   OH226888   6.187   0.854   1.798  0.1152 -0.6561  0.5729
 8975TIP3    H126889   6.171   0.905   1.878  2.1322  0.1110  0.5510
 8975TIP3    H226890   6.280   0.866   1.781  0.0170 -1.9816 -1.1191
 8976TIP3   OH226891   6.467   0.827   0.215 -0.7825  0.4593 -0.1299
 8976TIP3    H126892   6.474   0.888   0.141  3.2978  2.7052  1.7712
 8976TIP3    H226893   6.527   0.756   0.194  1.9225  2.0444  1.5270
 8977TIP3   OH226894   5.346   2.215   0.183 -0.2519 -0.0202  0.7179
 8977TIP3    H126895   5.332   2.215   0.277  0.6996  0.1725  0.8698
 8977TIP3    H226896   5.314   2.300   0.154  0.1208  0.2088  0.9754
 8978TIP3   OH226897   5.657   3.187   2.869 -0.6872  0.4347  0.2649
 8978TIP3    H126898   5.583   3.132   2.843  0.9909 -1.0931 -1.6203
 8978TIP3    H226899   5.719   3.127   2.911  0.7088  1.0540 -0.8118
 8979TIP3   OH226900   2.364   3.685   2.637  0.4054 -0.1397  0.1388
 8979TIP3    H126901   2.292   3.698   2.574  1.2865 -1.5378 -1.2350
 8979TIP3    H226902   2.334   3.730   2.716 -2.0423 -0.7508 -0.3366
 8980TIP3   OH226903   4.728   3.887   3.611 -0.2832  0.5646 -0.2079
 8980TIP3    H126904   4.655   3.945   3.632 -0.4668  0.2795 -0.0462
 8980TIP3    H226905   4.773   3.874   3.695 -0.2379  0.4827 -0.2443
 8981TIP3   OH226906   0.256   5.865   4.638  0.1083  0.1043 -0.3967
 8981TIP3    H126907   0.347   5.845   4.618  0.3212 -0.0644  0.7218
 8981TIP3    H226908   0.234   5.937   4.578  1.2043  0.6527 -0.1587
 8982TIP3   OH226909   6.469   3.093   1.840 -0.0372 -0.5899 -0.3729
 8982TIP3    H126910   6.425   3.068   1.922  2.4726  0.7832  1.5331
 8982TIP3    H226911   6.412   3.160   1.803 -1.3845 -1.4494  0.0238
 8983TIP3   OH226912   4.715   5.988   1.709 -0.1616  0.2249  0.4580
 8983TIP3    H126913   4.673   5.904   1.727  0.6446 -0.2031  0.3668
 8983TIP3    H226914   4.755   5.977   1.623 -0.7738  0.9959  0.0562
 8984TIP3   OH226915   0.324   3.092   2.901  0.0858  0.4243  0.2056
 8984TIP3    H126916   0.293   3.034   2.831  1.5695 -0.8819  0.5779
 8984TIP3    H226917   0.390   3.040   2.948  1.1845  2.2856  0.8185
 8985TIP3   OH226918   5.622   0.997   3.511  0.3561 -0.0819 -0.3339
 8985TIP3    H126919   5.674   0.981   3.591  0.3834 -0.2946 -0.3931
 8985TIP3    H226920   5.688   1.012   3.443  0.3799 -1.4404 -0.6430
 8986TIP3   OH226921   0.134   6.088   0.857 -0.2656  1.0520 -0.1727
 8986TIP3    H126922   0.155   6.089   0.764 -0.8158  0.9138 -0.2978
 8986TIP3    H226923   0.214   6.055   0.899 -0.2021  0.5990 -0.6389
 8987TIP3   OH226924   5.302   1.156  -0.012  0.2385  0.0082  0.1028
 8987TIP3    H126925   5.225   1.196   0.027  0.3159 -0.5102  0.7942
 8987TIP3    H226926   5.375   1.190   0.039  0.3173 -0.8986  0.6121
 8988TIP3   OH226927   0.815   2.873   1.896 -0.1245  0.2437 -0.3477
 8988TIP3    H126928   0.784   2.792   1.855 -2.6214 -0.2437  2.1907
 8988TIP3    H226929   0.835   2.931   1.823 -0.2844 -1.9304 -2.2303
 8989TIP3   OH226930   3.321   0.870   5.152 -0.2874 -0.0820 -0.3076
 8989TIP3    H126931   3.262   0.919   5.209  0.9727 -0.6222  1.5235
 8989TIP3    H226932   3.312   0.779   5.180  1.9564 -0.0960  0.5935
 8990TIP3   OH226933   0.226   6.430   1.385  0.1614 -0.8359 -0.1570
 8990TIP3    H126934   0.137   6.401   1.405 -0.8749  1.7230 -0.5899
 8990TIP3    H226935   0.217   6.476   1.301  1.9735 -0.7631 -0.3480
 8991TIP3   OH226936   6.697   2.768   2.286  0.2746 -0.9305  0.0262
 8991TIP3    H126937   6.765   2.833   2.306 -0.9834  0.1403  0.9294
 8991TIP3    H226938   6.746   2.688   2.269  1.8515  0.1529 -0.7724
 8992TIP3   OH226939   0.561   2.367   2.101 -0.4138  0.4892 -0.2985
 8992TIP3    H126940   0.635   2.342   2.045 -0.2153  0.1610  0.1092
 8992TIP3    H226941   0.589   2.450   2.140 -0.0624  0.1367  0.2116
 8993TIP3   OH226942   2.658   2.528   5.506 -0.3354  0.3822  0.2110
 8993TIP3    H126943   2.625   2.505   5.592 -1.4735 -2.4643 -0.8800
 8993TIP3    H226944   2.591   2.586   5.469 -1.5221 -1.0201  0.0676
 8994TIP3   OH226945   7.139   6.562   1.049 -0.1821  0.0634 -0.6644
 8994TIP3    H126946   7.083   6.545   1.125  0.1815  0.8847 -0.2021
 8994TIP3    H226947   7.208   6.497   1.055  0.7670  1.1396  0.6510
 8995TIP3   OH226948   3.252   3.305   5.282  0.2058  0.7274  0.3738
 8995TIP3    H126949   3.230   3.228   5.334 -1.3312  0.0523 -1.1572
 8995TIP3    H226950   3.274   3.270   5.196  0.9264  1.9171  0.0518
 8996TIP3   OH226951   2.600   5.942   3.654 -0.3520  0.1425 -0.1063
 8996TIP3    H126952   2.532   5.877   3.638  0.5102 -0.5410 -1.1413
 8996TIP3    H226953   2.656   5.938   3.576  1.5219 -0.1383  1.1859
 8997TIP3   OH226954   6.725   0.673   4.107  0.6586 -0.3232 -0.6209
 8997TIP3    H126955   6.641   0.709   4.135  1.1181 -0.3862  0.9360
 8997TIP3    H226956   6.703   0.608   4.041 -0.4701  0.0160 -0.5936
 8998TIP3   OH226957   3.443   0.886   2.940  0.1425  0.1243  0.5167
 8998TIP3    H126958   3.436   0.947   2.866  2.7408  0.0576  0.1343
 8998TIP3    H226959   3.411   0.936   3.015  0.7823  1.4681 -0.0624
 8999TIP3   OH226960   2.719   1.360   0.330  0.2334 -0.1181  0.1787
 8999TIP3    H126961   2.777   1.292   0.294  1.9719  0.5766  1.5308
 8999TIP3    H226962   2.774   1.407   0.392 -1.0498  2.2964 -0.4189
 9000TIP3   OH226963   4.945   5.787   5.378  0.3435  0.0612  0.2667
 9000TIP3    H126964   4.947   5.852   5.449  1.0160 -0.2503  0.5497
 9000TIP3    H226965   5.022   5.733   5.394 -0.0207 -0.5966 -0.1662
 9001TIP3   OH226966   6.630   0.775   1.290  0.5568  0.1963  0.3641
 9001TIP3    H126967   6.666   0.839   1.352  2.7522 -0.1158 -0.5246
 9001TIP3    H226968   6.697   0.765   1.223 -0.8431 -1.1172 -0.9303
 9002TIP3   OH226969   1.637   3.433   3.836 -0.7880  0.0135 -0.5584
 9002TIP3    H126970   1.597   3.365   3.782 -3.3869  0.6271  0.4388
 9002TIP3    H226971   1.629   3.513   3.783 -2.5775  0.4572  0.3005
 9003TIP3   OH226972   1.479   3.856   5.514  0.0260 -0.3564 -0.0532
 9003TIP3    H126973   1.486   3.928   5.576 -0.8978 -0.0951 -0.2334
 9003TIP3    H226974   1.396   3.813   5.536  0.6589 -1.4987  0.1857
 9004TIP3   OH226975   4.730   3.887   2.387 -0.0572 -0.2085 -0.3898
 9004TIP3    H126976   4.790   3.925   2.324 -0.4388 -1.0286 -1.2657
 9004TIP3    H226977   4.738   3.943   2.464  1.2493  0.1456 -0.7550
 9005TIP3   OH226978   3.879   5.369   3.984 -0.2670 -0.3071  0.5698
 9005TIP3    H126979   3.966   5.349   3.948  0.0221 -1.1617  1.6963
 9005TIP3    H226980   3.895   5.435   4.051 -0.5971  0.1191  0.2333
 9006TIP3   OH226981   5.144   5.917   2.781 -0.1483 -0.1064  0.6970
 9006TIP3    H126982   5.154   5.957   2.867  1.1975 -0.8343  0.9042
 9006TIP3    H226983   5.157   5.823   2.796 -0.4443 -0.3053 -0.2076
 9007TIP3   OH226984   4.742   0.825   1.190 -0.9913  0.1405 -0.7377
 9007TIP3    H126985   4.757   0.910   1.232  0.4707 -0.9757  1.1401
 9007TIP3    H226986   4.689   0.776   1.253  0.3303 -1.1969 -0.6033
 9008TIP3   OH226987   0.954   4.639   0.936 -0.4630  0.3995  0.4645
 9008TIP3    H126988   0.948   4.597   1.022 -0.6484  0.7755  0.6352
 9008TIP3    H226989   0.901   4.583   0.879 -0.5955  0.3229  0.6611
 9009TIP3   OH226990   6.794   6.420   4.962 -0.4335 -0.3274 -0.0717
 9009TIP3    H126991   6.699   6.427   4.948 -0.8427 -1.1053  1.9046
 9009TIP3    H226992   6.802   6.369   5.043  1.6691  0.2310  0.1281
 9010TIP3   OH226993   1.391   3.057   5.048 -0.2759  0.1049  0.0332
 9010TIP3    H126994   1.425   3.144   5.028  0.9818 -0.4753 -0.5007
 9010TIP3    H226995   1.438   3.030   5.127  2.8956 -1.8576 -2.2700
 9011TIP3   OH226996   5.666   6.166   2.644 -0.2439 -0.1654  0.2991
 9011TIP3    H126997   5.678   6.078   2.679 -0.1712  0.1624  1.1368
 9011TIP3    H226998   5.679   6.224   2.720 -0.8012  0.5381 -0.1243
 9012TIP3   OH226999   4.509   2.802   3.583  0.0145  0.2376  0.0060
 9012TIP3    H127000   4.482   2.715   3.554  0.3595 -1.0904  3.2313
 9012TIP3    H227001   4.427   2.847   3.603 -0.1183 -0.5083  1.2252
 9013TIP3   OH227002   3.829   0.513   2.766  0.3247  0.3492  0.2532
 9013TIP3    H127003   3.833   0.517   2.861  2.1293 -2.9843  0.4518
 9013TIP3    H227004   3.773   0.587   2.741 -1.6360  0.3281  3.9488
 9014TIP3   OH227005   6.428   2.046   1.016 -0.8038  0.7608  0.0663
 9014TIP3    H127006   6.409   2.139   1.003 -0.8161  0.9271  1.1662
 9014TIP3    H227007   6.365   2.000   0.960  0.1638  1.4155 -1.6273
 9015TIP3   OH227008   1.447   3.751   2.569 -0.5786  0.1510  0.8750
 9015TIP3    H127009   1.505   3.827   2.562  1.3121 -1.2474  0.2907
 9015TIP3    H227010   1.412   3.754   2.658 -0.5311  1.6772  0.8557
 9016TIP3   OH227011   0.244   4.964   2.317  0.0051  0.0949  0.2274
 9016TIP3    H127012   0.271   5.056   2.325 -2.6092  0.8769  0.8600
 9016TIP3    H227013   0.220   4.938   2.405  0.6191 -1.2142  0.0362
 9017TIP3   OH227014   2.565   2.655   4.206  0.2483 -0.5082  1.1622
 9017TIP3    H127015   2.528   2.568   4.220 -1.4360  0.0189  0.2039
 9017TIP3    H227016   2.512   2.713   4.259 -0.9773  0.3792 -0.9098
 9018TIP3   OH227017   5.042   2.394   0.100 -0.2180 -0.8570  0.5006
 9018TIP3    H127018   5.133   2.423   0.094 -0.1555 -0.8491  1.3513
 9018TIP3    H227019   5.025   2.349   0.018 -0.4033  1.8019 -1.0529
 9019TIP3   OH227020   4.885   4.727   0.323 -0.5624 -0.2905 -0.2871
 9019TIP3    H127021   4.894   4.750   0.230  2.8135 -1.9077 -0.5405
 9019TIP3    H227022   4.866   4.810   0.366  1.5064  1.2586 -2.0897
 9020TIP3   OH227023   6.880   5.960   0.454  0.0660 -0.5004 -0.4539
 9020TIP3    H127024   6.941   5.917   0.514  0.3567 -0.9080 -1.0291
 9020TIP3    H227025   6.814   5.893   0.435 -0.3065 -0.2091 -0.1980
 9021TIP3   OH227026   5.328   6.537   0.756  0.0584 -0.2003 -0.4384
 9021TIP3    H127027   5.297   6.627   0.752  1.4131  0.2761 -0.4727
 9021TIP3    H227028   5.339   6.511   0.665 -0.4605 -0.4676 -0.4338
 9022TIP3   OH227029   5.066   1.627   0.614 -0.0531 -0.6098  0.3032
 9022TIP3    H127030   5.041   1.700   0.671 -0.4615 -0.0966 -0.5255
 9022TIP3    H227031   5.089   1.668   0.531  2.8871 -1.1027  0.7663
 9023TIP3   OH227032   5.685   3.981   4.663  0.2211 -0.2146 -0.0017
 9023TIP3    H127033   5.704   4.064   4.707  1.8276 -0.3896 -0.2822
 9023TIP3    H227034   5.710   3.996   4.572  0.5500 -1.0048 -0.0501
 9024TIP3   OH227035   3.055   5.160   0.532 -0.5765 -0.5229 -0.4767
 9024TIP3    H127036   2.996   5.157   0.456 -1.5559  0.0697  0.2463
 9024TIP3    H227037   3.000   5.136   0.606 -0.6456  2.6816  0.6365
 9025TIP3   OH227038   2.977   2.279   5.818 -0.0510 -0.0743  0.1637
 9025TIP3    H127039   2.884   2.300   5.812 -0.5529 -2.3519 -0.9778
 9025TIP3    H227040   3.020   2.350   5.770 -0.8114  2.6125  3.0602
 9026TIP3   OH227041   5.603   6.258   4.955 -0.2853  0.5393 -0.2141
 9026TIP3    H127042   5.651   6.340   4.948 -2.6164  2.0606  0.6347
 9026TIP3    H227043   5.571   6.256   5.045 -1.0624 -0.8472 -0.4934
 9027TIP3   OH227044   6.902   5.453   0.404  0.1608  0.3928 -0.1863
 9027TIP3    H127045   6.831   5.390   0.395  0.6066 -0.0753 -0.5037
 9027TIP3    H227046   6.886   5.496   0.488 -1.8290  2.0045 -1.2831
 9028TIP3   OH227047   6.094   2.901   3.016  0.3114  0.0772  0.1261
 9028TIP3    H127048   6.084   2.806   3.023  0.3431 -0.0495 -1.2563
 9028TIP3    H227049   6.187   2.914   2.997  0.1381  0.3127 -0.5911
 9029TIP3   OH227050   1.113   3.572   0.399  0.5983  0.3459  0.0796
 9029TIP3    H127051   1.081   3.635   0.334  1.1961  1.2047  0.6012
 9029TIP3    H227052   1.115   3.488   0.352 -3.2617 -0.0060  0.2515
 9030TIP3   OH227053   1.256   3.333   4.817  0.0453 -0.0504 -0.4063
 9030TIP3    H127054   1.286   3.402   4.876 -0.6426 -0.7485  0.8150
 9030TIP3    H227055   1.324   3.266   4.823 -1.4048 -1.4796  2.0917
 9031TIP3   OH227056   0.447   0.839   5.747  0.3433  0.0345  0.1281
 9031TIP3    H127057   0.484   0.862   5.832  0.7362  3.7799 -0.8445
 9031TIP3    H227058   0.372   0.898   5.736  0.2344 -0.3926 -2.0595
 9032TIP3   OH227059   2.394   5.930   1.421  0.7383 -0.0665 -0.0832
 9032TIP3    H127060   2.401   5.836   1.435 -1.7591 -0.3484 -0.3588
 9032TIP3    H227061   2.411   5.968   1.507 -0.7330 -0.9472  0.6339
 9033TIP3   OH227062   6.095   4.086   4.594  0.6540  0.1557  0.0344
 9033TIP3    H127063   6.090   4.061   4.502 -0.6156 -1.3984  0.4664
 9033TIP3    H227064   6.121   4.005   4.639 -0.6415  0.3627  1.2149
 9034TIP3   OH227065   2.809   4.770   4.406 -0.2834 -0.2666 -0.3677
 9034TIP3    H127066   2.811   4.851   4.457 -1.1473 -0.6428  0.2715
 9034TIP3    H227067   2.758   4.793   4.328 -1.1828 -0.3931  0.1730
 9035TIP3   OH227068   1.421   6.107   2.620 -0.3033 -0.1638 -0.0157
 9035TIP3    H127069   1.463   6.166   2.682 -1.4582 -0.0355  0.6770
 9035TIP3    H227070   1.327   6.121   2.633 -0.5955  0.1876 -2.0919
 9036TIP3   OH227071   1.876   1.043   3.595 -0.2051 -0.5129 -0.2466
 9036TIP3    H127072   1.875   0.988   3.517 -0.1467  0.9730 -1.3388
 9036TIP3    H227073   1.783   1.051   3.619 -0.3668  0.2841 -1.1022
 9037TIP3   OH227074   2.300   5.757   3.904  0.1500  0.0259  0.6374
 9037TIP3    H127075   2.244   5.835   3.896 -1.2418 -0.8881  0.9607
 9037TIP3    H227076   2.325   5.736   3.815  0.9038  1.0902  0.5853
 9038TIP3   OH227077   5.168   6.632   3.863 -0.5809  0.5050  0.2241
 9038TIP3    H127078   5.099   6.587   3.815  0.2690  1.1357 -1.6823
 9038TIP3    H227079   5.247   6.617   3.811  0.2416  1.8820  1.0068
 9039TIP3   OH227080   5.204   1.785   5.882  0.0346  0.1791 -0.4245
 9039TIP3    H127081   5.197   1.691   5.865 -0.0869  0.3461 -1.3148
 9039TIP3    H227082   5.152   1.826   5.814 -2.1391  0.8097  1.5071
 9040TIP3   OH227083   6.606   4.191   2.310 -0.1179  0.6248 -0.4721
 9040TIP3    H127084   6.542   4.120   2.301  1.2137 -0.4214 -2.4148
 9040TIP3    H227085   6.579   4.256   2.246  0.9242 -0.0017 -1.5910
 9041TIP3   OH227086   4.666   3.670   4.544 -0.3566 -0.3278 -0.4855
 9041TIP3    H127087   4.596   3.681   4.608 -1.3567 -1.2896 -1.3758
 9041TIP3    H227088   4.636   3.718   4.467  1.3599  1.8112  0.0694
 9042TIP3   OH227089   0.232   2.044   5.608  0.3221  0.3760 -0.4535
 9042TIP3    H127090   0.188   2.075   5.529  1.1915 -2.0695 -2.0412
 9042TIP3    H227091   0.231   1.948   5.599  4.8473  0.0521 -0.1106
 9043TIP3   OH227092   2.065   3.553   3.443 -0.4179 -0.1176 -0.0385
 9043TIP3    H127093   2.035   3.573   3.355  0.0377 -1.5940 -0.5453
 9043TIP3    H227094   2.054   3.459   3.452  0.4649 -0.1326  1.1352
 9044TIP3   OH227095   2.153   5.253   5.550 -0.1507 -0.2243 -0.0747
 9044TIP3    H127096   2.136   5.338   5.510 -2.0184 -0.6288 -0.2184
 9044TIP3    H227097   2.241   5.230   5.521  1.7366  2.9765  2.3666
 9045TIP3   OH227098   6.727   6.257   5.346 -0.0314  0.4906 -0.1557
 9045TIP3    H127099   6.650   6.254   5.402 -0.1027  0.4209 -0.2583
 9045TIP3    H227100   6.748   6.165   5.328 -2.0634  0.4802 -3.0732
 9046TIP3   OH227101   6.768   1.586   4.615 -0.2916  0.2170  0.1900
 9046TIP3    H127102   6.785   1.497   4.586  0.6843  0.8610 -1.3275
 9046TIP3    H227103   6.800   1.588   4.705  0.8166 -0.6429 -0.1565
 9047TIP3   OH227104   1.083   1.658   1.483  0.5381  1.1266 -0.2507
 9047TIP3    H127105   1.033   1.679   1.404  1.6953  1.0909 -1.0314
 9047TIP3    H227106   1.090   1.563   1.483 -1.1341  0.9728  0.9960
 9048TIP3   OH227107   2.496   0.321   4.856 -0.1332  0.0105  0.0718
 9048TIP3    H127108   2.544   0.313   4.939 -0.3623  0.6021  0.2629
 9048TIP3    H227109   2.479   0.230   4.830 -1.8077 -0.2028  1.6952
 9049TIP3   OH227110   2.793   3.804   3.202  0.2310 -0.6032 -0.1076
 9049TIP3    H127111   2.837   3.750   3.137  0.0475 -1.4195  0.4250
 9049TIP3    H227112   2.700   3.787   3.189  0.1163  0.3113 -0.5441
 9050TIP3   OH227113   0.169   5.108   4.459 -0.4610  0.0035 -0.4269
 9050TIP3    H127114   0.167   5.020   4.421 -1.1777 -0.2353  0.1445
 9050TIP3    H227115   0.234   5.103   4.528 -2.1234 -0.7554  1.1589
 9051TIP3   OH227116   2.304   6.309   5.179 -0.0123  0.0528 -0.4344
 9051TIP3    H127117   2.224   6.326   5.129  0.7483 -0.4112 -1.8433
 9051TIP3    H227118   2.373   6.306   5.114  0.9866 -0.8383  0.6307
 9052TIP3   OH227119   4.637   0.088   0.132 -0.9407  0.2023  0.3508
 9052TIP3    H127120   4.716   0.037   0.115 -1.2337 -0.0334 -0.3797
 9052TIP3    H227121   4.653   0.132   0.215 -0.2199 -0.1852  0.4210
 9053TIP3   OH227122   2.740   6.191   0.096 -1.0900  0.3106  0.0049
 9053TIP3    H127123   2.814   6.242   0.062 -0.9307 -0.2169 -0.4414
 9053TIP3    H227124   2.681   6.182   0.021 -1.2078 -0.0073  0.1367
 9054TIP3   OH227125   3.417   3.735   3.186 -0.4308 -0.5088  0.2290
 9054TIP3    H127126   3.408   3.829   3.205 -0.2318 -0.5105  0.3401
 9054TIP3    H227127   3.331   3.698   3.206 -0.1464 -0.5645  1.4649
 9055TIP3   OH227128   7.210   5.810   3.148  1.2237  0.0685  0.3753
 9055TIP3    H127129   7.124   5.852   3.141  1.6487  1.0746  0.9416
 9055TIP3    H227130   7.272   5.883   3.146  2.0891 -0.6734 -0.3728
 9056TIP3   OH227131   2.413   4.585   1.974 -0.5092  0.3580 -0.1324
 9056TIP3    H127132   2.433   4.501   2.016  0.3276  1.3803  1.6704
 9056TIP3    H227133   2.427   4.570   1.881  0.8516 -1.1798  0.2769
 9057TIP3   OH227134   5.632   0.925   0.670  0.2428 -0.5342  0.2303
 9057TIP3    H127135   5.713   0.952   0.628 -0.4549  2.0980  0.3997
 9057TIP3    H227136   5.648   0.937   0.764 -0.2949 -0.1290  0.2738
 9058TIP3   OH227137   0.778   2.720   2.136  0.4134  0.2919  0.4194
 9058TIP3    H127138   0.687   2.697   2.120  0.4603  0.9683 -0.8906
 9058TIP3    H227139   0.796   2.792   2.077  1.8292  0.1095  0.5905
 9059TIP3   OH227140   0.372   0.692   5.075  0.0708 -0.0219 -0.2936
 9059TIP3    H127141   0.327   0.686   5.159 -0.5827  1.6967 -0.4687
 9059TIP3    H227142   0.441   0.626   5.079  2.0817  2.0458  2.8234
 9060TIP3   OH227143   3.497   0.861   1.285  0.2858  0.6926 -0.9026
 9060TIP3    H127144   3.584   0.871   1.323  0.0323  1.2250 -0.4585
 9060TIP3    H227145   3.459   0.787   1.333 -0.2096  1.6565  0.2395
 9061TIP3   OH227146   6.727   5.148   5.086 -0.7437 -0.1410  0.1570
 9061TIP3    H127147   6.722   5.240   5.059  3.3845 -0.0162 -0.8376
 9061TIP3    H227148   6.786   5.148   5.161  0.4099 -2.0546 -0.6788
 9062TIP3   OH227149   5.009   0.674   1.394 -0.2569 -0.4249 -0.4217
 9062TIP3    H127150   5.024   0.648   1.303 -1.7697  1.5405 -1.3041
 9062TIP3    H227151   4.951   0.606   1.429 -0.8941 -0.4198 -1.4136
 9063TIP3   OH227152   2.527   1.424   5.576  0.4152  0.4571 -0.0794
 9063TIP3    H127153   2.597   1.480   5.609  0.7008  0.5111 -0.7755
 9063TIP3    H227154   2.571   1.351   5.533  0.0418  0.1584  0.0314
 9064TIP3   OH227155   2.613   4.360   0.184  0.0496 -0.6082  0.4688
 9064TIP3    H127156   2.524   4.351   0.216  0.3677 -0.4634  1.4167
 9064TIP3    H227157   2.616   4.305   0.105 -0.7507 -0.9391  0.6607
 9065TIP3   OH227158   2.551   0.895   2.381  0.0237 -0.1475  0.0092
 9065TIP3    H127159   2.464   0.865   2.405 -0.6484  0.1185 -1.9089
 9065TIP3    H227160   2.565   0.861   2.293  1.3957  0.7390 -0.1528
 9066TIP3   OH227161   1.666   1.894   0.047  0.1241  0.1004  0.1177
 9066TIP3    H127162   1.755   1.870   0.018  0.5055  0.3393  1.0527
 9066TIP3    H227163   1.674   1.984   0.076  0.1210 -0.5424  2.3089
 9067TIP3   OH227164   4.138   1.927   5.120 -0.4587  0.1185  0.5990
 9067TIP3    H127165   4.169   1.854   5.172 -1.4424 -0.0543  0.9585
 9067TIP3    H227166   4.150   1.899   5.029  1.5807  0.5571  0.6822
 9068TIP3   OH227167   5.032   2.426   2.502 -0.2488 -0.1578  0.1701
 9068TIP3    H127168   5.086   2.425   2.582  0.1913  0.2112 -0.1144
 9068TIP3    H227169   5.078   2.486   2.443  0.5952 -2.0267 -1.1649
 9069TIP3   OH227170   0.872   4.758   3.894 -0.4031 -0.4576 -0.2553
 9069TIP3    H127171   0.811   4.687   3.875 -0.9016  0.0689 -0.6625
 9069TIP3    H227172   0.816   4.832   3.918  0.1576 -0.6697  1.8759
 9070TIP3   OH227173   4.414   2.559   2.841 -0.2471  0.0627 -0.5378
 9070TIP3    H127174   4.479   2.567   2.771 -1.7512  3.6956 -1.7857
 9070TIP3    H227175   4.459   2.592   2.919  0.0018  0.6838 -0.9359
 9071TIP3   OH227176   2.074   2.781   1.308  0.0961 -0.0033  0.2883
 9071TIP3    H127177   2.011   2.711   1.322 -0.0654  0.3132  1.1856
 9071TIP3    H227178   2.158   2.746   1.339 -0.0110  0.2385  0.8666
 9072TIP3   OH227179   3.690   3.963   1.306  0.2653 -0.0204  0.4782
 9072TIP3    H127180   3.600   3.965   1.340 -0.2637  2.1196 -0.8504
 9072TIP3    H227181   3.694   3.886   1.250 -0.7564 -0.1073  0.5153
 9073TIP3   OH227182   5.937   1.351   2.202 -0.0927  0.8187 -0.0885
 9073TIP3    H127183   5.855   1.396   2.182 -1.1206 -0.5481  0.9090
 9073TIP3    H227184   5.998   1.422   2.223 -1.8216  1.8045  2.0332
 9074TIP3   OH227185   0.082   6.090   5.285 -0.6386  0.2399 -0.3745
 9074TIP3    H127186   0.022   6.015   5.290 -2.7941  1.5849 -3.2817
 9074TIP3    H227187   0.153   6.060   5.228 -1.4002  0.3275 -1.3832
 9075TIP3   OH227188   5.735   1.943   2.921 -0.1939 -0.1065 -0.2910
 9075TIP3    H127189   5.733   1.975   2.831  0.3301  1.0486  0.0902
 9075TIP3    H227190   5.828   1.934   2.942 -0.3161 -1.4338 -0.2051
 9076TIP3   OH227191   4.124   3.109   3.804 -0.1832 -0.1319  0.3061
 9076TIP3    H127192   4.107   3.064   3.887  0.0711  0.5456  0.7377
 9076TIP3    H227193   4.056   3.078   3.745 -0.6085 -0.3239  0.8879
 9077TIP3   OH227194   0.892   2.087   1.979  0.1221  0.1690  0.0337
 9077TIP3    H127195   0.931   2.115   1.896 -0.4602  1.1742  0.0772
 9077TIP3    H227196   0.831   2.017   1.954  0.5303 -0.0833 -0.2766
 9078TIP3   OH227197   7.053   1.393   2.557 -0.4462 -0.0402 -0.0197
 9078TIP3    H127198   7.005   1.459   2.608 -1.0274  0.8387 -1.6367
 9078TIP3    H227199   7.037   1.417   2.466  0.0011 -1.9675 -0.6526
 9079TIP3   OH227200   4.321   0.419   1.756  0.3091  0.1701 -0.4391
 9079TIP3    H127201   4.349   0.436   1.666 -0.3920 -1.6228 -1.0277
 9079TIP3    H227202   4.237   0.375   1.746  0.5464 -0.6569  1.0897
 9080TIP3   OH227203   5.731   0.724   4.669 -0.1772  0.5619  0.8145
 9080TIP3    H127204   5.820   0.693   4.685  0.0732 -0.5450 -2.0714
 9080TIP3    H227205   5.741   0.817   4.652  1.2559 -0.1229 -3.4206
 9081TIP3   OH227206   1.665   5.926   2.734 -0.4389  0.2116 -0.4716
 9081TIP3    H127207   1.598   5.983   2.696 -0.0882  0.5694 -0.5594
 9081TIP3    H227208   1.643   5.839   2.701  0.2655  0.6127 -2.1053
 9082TIP3   OH227209   3.992   3.526   2.726 -0.5798  0.2559 -0.1130
 9082TIP3    H127210   4.052   3.525   2.801  0.7916 -0.8722 -1.1579
 9082TIP3    H227211   3.967   3.434   2.715 -0.4255  0.3351 -1.2587
 9083TIP3   OH227212   1.551   0.782   3.847  0.0026  0.2512 -0.2299
 9083TIP3    H127213   1.546   0.777   3.751  0.4979 -0.9594 -0.2140
 9083TIP3    H227214   1.599   0.703   3.872 -0.8145  0.1450  1.0741
 9084TIP3   OH227215   4.926   2.492   1.014 -0.1197 -0.5033  0.1326
 9084TIP3    H127216   5.019   2.481   1.034  0.1479  0.5082 -0.4821
 9084TIP3    H227217   4.893   2.544   1.087  0.5720  2.0642 -1.2785
 9085TIP3   OH227218   6.638   2.986   1.550  0.1890 -0.1562 -0.0210
 9085TIP3    H127219   6.681   3.059   1.506 -1.5829  1.3842  0.7307
 9085TIP3    H227220   6.639   3.009   1.643 -2.0694 -0.1377  0.0494
 9086TIP3   OH227221   4.128   5.857   4.692 -1.1083 -0.2495  0.2619
 9086TIP3    H127222   4.187   5.907   4.749  0.2241  1.1717 -2.1822
 9086TIP3    H227223   4.187   5.802   4.640 -2.1644 -0.7231 -0.4615
 9087TIP3   OH227224   0.302   1.208   1.510 -0.0328  0.1523 -0.4333
 9087TIP3    H127225   0.342   1.239   1.428  0.3194 -1.0616 -0.7307
 9087TIP3    H227226   0.351   1.130   1.533  0.6526  1.1195  1.6002
 9088TIP3   OH227227   2.875   1.950   4.947 -0.4180  0.2890 -0.3540
 9088TIP3    H127228   2.957   1.904   4.968  0.5343  1.0740 -2.0740
 9088TIP3    H227229   2.831   1.960   5.031 -0.0070 -2.4492  0.3005
 9089TIP3   OH227230   5.599   2.080   4.077 -0.0621 -0.3925 -0.2154
 9089TIP3    H127231   5.606   2.171   4.105 -1.1308 -0.2981 -0.2194
 9089TIP3    H227232   5.612   2.083   3.983  1.0614 -0.4021 -0.0767
 9090TIP3   OH227233   6.154   1.481   4.382 -0.0211  0.2357 -0.3395
 9090TIP3    H127234   6.109   1.510   4.462 -1.8793 -1.2597 -0.7672
 9090TIP3    H227235   6.240   1.453   4.412 -1.0895 -1.4358  1.3934
 9091TIP3   OH227236   4.555   5.928   0.645  0.2891 -0.0407 -0.5688
 9091TIP3    H127237   4.599   6.013   0.655  0.0584 -0.0607  0.7507
 9091TIP3    H227238   4.590   5.893   0.563  0.0183  1.5465 -1.4051
 9092TIP3   OH227239   3.226   0.970   2.696  0.3510 -0.1376 -0.4283
 9092TIP3    H127240   3.203   0.923   2.616 -1.7774  1.2747 -0.7302
 9092TIP3    H227241   3.174   0.929   2.764  0.4873  0.0861 -0.1866
 9093TIP3   OH227242   5.508   5.940   2.136  0.2586  0.5657 -0.2704
 9093TIP3    H127243   5.523   6.002   2.208 -0.4642  1.0196 -0.5081
 9093TIP3    H227244   5.461   5.868   2.177  0.5549  0.4553 -0.1218
 9094TIP3   OH227245   0.687   1.044   2.980 -0.2757 -0.2804  0.1194
 9094TIP3    H127246   0.674   0.973   3.043 -0.4792  0.1469  0.5615
 9094TIP3    H227247   0.765   1.019   2.932 -0.9390 -1.3461 -0.4574
 9095TIP3   OH227248   1.436   2.822   3.850 -0.0874 -0.3892  0.2604
 9095TIP3    H127249   1.507   2.800   3.789  2.2447 -1.1607  3.0217
 9095TIP3    H227250   1.362   2.846   3.794  1.6474 -1.7117 -2.8228
 9096TIP3   OH227251   5.795   6.573   2.854  0.4872  0.0457  0.2531
 9096TIP3    H127252   5.710   6.602   2.823  0.5111  1.7676  1.6428
 9096TIP3    H227253   5.847   6.560   2.775 -0.6364  0.3939 -0.5524
 9097TIP3   OH227254   6.762   3.195   1.430  0.0224 -0.3078  0.4504
 9097TIP3    H127255   6.757   3.176   1.336 -0.3842  1.0249  0.1855
 9097TIP3    H227256   6.741   3.288   1.437  1.9147  0.0864  1.6904
 9098TIP3   OH227257   0.878   6.806   0.705  0.2510  0.1006 -0.8622
 9098TIP3    H127258   0.912   6.758   0.781  0.4256 -1.8168 -2.0622
 9098TIP3    H227259   0.794   6.762   0.686 -0.1374  1.0398 -1.3507
 9099TIP3   OH227260   1.328   5.225   3.628  0.6913 -0.1526  0.9386
 9099TIP3    H127261   1.364   5.310   3.654 -0.8797  0.2575  1.9093
 9099TIP3    H227262   1.405   5.170   3.615  1.7431  1.2866  0.6984
 9100TIP3   OH227263   3.367   3.242   4.840  0.0245  0.1221  0.1364
 9100TIP3    H127264   3.360   3.315   4.901 -0.8471 -0.5167  0.8353
 9100TIP3    H227265   3.355   3.164   4.894 -0.9257 -0.4566 -0.8667
 9101TIP3   OH227266   3.231   5.226   4.088  0.0610 -0.4524  0.2247
 9101TIP3    H127267   3.308   5.169   4.092  0.4274  0.0436  0.3448
 9101TIP3    H227268   3.192   5.221   4.175  1.4709  1.3443  1.0242
 9102TIP3   OH227269   3.582   1.217   1.856 -0.5282 -0.7019  0.1621
 9102TIP3    H127270   3.621   1.177   1.933  2.2788  2.6003  0.6729
 9102TIP3    H227271   3.511   1.271   1.890 -0.1810 -0.3216  0.2914
 9103TIP3   OH227272   5.826   3.696   5.121  0.0208  0.2462  0.2738
 9103TIP3    H127273   5.898   3.709   5.184  0.2618  1.0015 -0.1398
 9103TIP3    H227274   5.782   3.781   5.117  0.0385  0.2228 -0.6089
 9104TIP3   OH227275   0.603   2.595   2.305 -0.0158  0.6490 -0.2475
 9104TIP3    H127276   0.677   2.652   2.322 -0.1591  0.4526  1.1258
 9104TIP3    H227277   0.608   2.527   2.372 -0.1247 -0.6971 -1.5467
 9105TIP3   OH227278   6.161   0.260   5.089 -0.4415 -0.1418  0.1193
 9105TIP3    H127279   6.186   0.345   5.124 -0.6601  0.1854 -0.5108
 9105TIP3    H227280   6.132   0.210   5.166  0.8617 -0.0856  0.6844
 9106TIP3   OH227281   3.996   2.332   3.695  0.5784  0.0018  0.3039
 9106TIP3    H127282   3.961   2.248   3.666 -1.3569  0.4638  1.1782
 9106TIP3    H227283   3.940   2.398   3.653  0.0713  0.7571  2.0898
 9107TIP3   OH227284   5.705   0.656   5.109 -0.1422  0.4942 -0.6467
 9107TIP3    H127285   5.639   0.633   5.043  0.0428 -0.2919 -0.5674
 9107TIP3    H227286   5.688   0.748   5.129 -2.1565 -0.0514  0.4398
 9108TIP3   OH227287   1.990   6.280   5.460  0.2251 -0.0435 -0.2430
 9108TIP3    H127288   1.987   6.337   5.537 -1.6022 -0.9317  0.3951
 9108TIP3    H227289   2.080   6.248   5.457  0.3858  0.1920  1.3755
 9109TIP3   OH227290   6.819   4.319   0.524  0.4591  0.3615 -0.1564
 9109TIP3    H127291   6.756   4.373   0.476 -0.9595  0.0021  1.2091
 9109TIP3    H227292   6.764   4.259   0.576  1.9514 -0.6021  0.3670
 9110TIP3   OH227293   4.571   2.253   5.138 -0.1984 -0.2434 -0.1162
 9110TIP3    H127294   4.565   2.206   5.221 -1.7169 -0.7783 -0.4998
 9110TIP3    H227295   4.546   2.188   5.072 -1.2243  0.7777 -0.7669
 9111TIP3   OH227296   4.543   0.571   4.324 -0.3827 -0.2017  0.1722
 9111TIP3    H127297   4.630   0.570   4.363 -0.3197  1.2555  0.1506
 9111TIP3    H227298   4.517   0.663   4.328 -1.0746 -0.2736 -1.6938
 9112TIP3   OH227299   5.228   3.835   1.118  0.2486 -0.2250 -0.1359
 9112TIP3    H127300   5.197   3.919   1.151  0.5254  0.6921 -2.0691
 9112TIP3    H227301   5.182   3.823   1.035  0.0617 -2.0986  0.2019
 9113TIP3   OH227302   4.777   2.270   1.504 -0.2684 -0.5734 -0.2141
 9113TIP3    H127303   4.808   2.210   1.572 -1.4734 -0.2332  0.6500
 9113TIP3    H227304   4.726   2.214   1.445 -2.8047 -0.2075  1.4834
 9114TIP3   OH227305   0.869   3.871   5.759  0.3014  0.4969 -0.0842
 9114TIP3    H127306   0.883   3.964   5.747 -0.8966  0.9983  1.9380
 9114TIP3    H227307   0.893   3.854   5.851 -2.0469 -0.5761  0.4257
 9115TIP3   OH227308   4.527   1.978   0.234  0.1919  0.0950 -0.3255
 9115TIP3    H127309   4.601   1.962   0.293  0.0686 -0.9936 -0.4469
 9115TIP3    H227310   4.557   1.945   0.150  0.2641  1.3959 -0.8373
 9116TIP3   OH227311   5.870   0.445   3.427 -0.1454  0.0630 -0.1015
 9116TIP3    H127312   5.947   0.432   3.483  0.5087  2.2396 -0.3735
 9116TIP3    H227313   5.896   0.413   3.341  0.6825  1.1810 -0.3016
 9117TIP3   OH227314   4.094   2.185   3.327  0.0530 -0.0070  0.1024
 9117TIP3    H127315   4.034   2.146   3.264  0.1010  0.3672 -0.1843
 9117TIP3    H227316   4.089   2.279   3.309  0.8999  0.0109 -0.0948
 9118TIP3   OH227317   0.005   2.571   4.003 -0.5044  0.1500 -0.4550
 9118TIP3    H127318   0.068   2.538   4.067 -2.9757 -1.3363  1.4360
 9118TIP3    H227319   0.007   2.506   3.932  0.1184  0.1542 -0.4462
 9119TIP3   OH227320   0.222   2.200   4.495  0.1513 -0.0218  0.2054
 9119TIP3    H127321   0.268   2.118   4.511 -0.1669 -0.3977 -0.7870
 9119TIP3    H227322   0.249   2.227   4.408  0.5694  1.1507  0.6796
 9120TIP3   OH227323   0.946   1.086   5.178  0.1059 -0.1766  0.2750
 9120TIP3    H127324   0.925   1.170   5.218 -1.6018  0.4901 -1.8337
 9120TIP3    H227325   1.026   1.103   5.127 -0.5433  0.3523 -0.5899
 9121TIP3   OH227326   2.524   4.539   5.624 -0.1287 -0.6115 -0.1154
 9121TIP3    H127327   2.440   4.569   5.590  0.6785  0.3863 -1.3539
 9121TIP3    H227328   2.555   4.476   5.559 -0.3020 -1.6633  0.7898
 9122TIP3   OH227329   5.859   5.833   5.457  0.3450 -0.0534  0.0298
 9122TIP3    H127330   5.928   5.816   5.394  0.0294  1.4708 -0.7785
 9122TIP3    H227331   5.792   5.880   5.408 -2.0492 -2.8017  0.3657
 9123TIP3   OH227332   4.694   0.337   2.174  0.2189  0.6629  0.1430
 9123TIP3    H127333   4.663   0.331   2.083 -1.0822  0.0699  0.6054
 9123TIP3    H227334   4.703   0.246   2.202  1.8226  0.8177  0.2474
 9124TIP3   OH227335   3.109   3.166   4.687 -0.0751 -0.0971  0.7202
 9124TIP3    H127336   3.190   3.187   4.733 -0.2326 -0.6036  1.2322
 9124TIP3    H227337   3.122   3.200   4.598  1.3198 -1.5472  0.3346
 9125TIP3   OH227338   5.877   2.945   0.088 -0.4339  0.0462 -0.1798
 9125TIP3    H127339   5.837   2.982   0.166 -1.5680  0.0153 -0.7200
 9125TIP3    H227340   5.962   2.912   0.117 -0.0383  1.6956  0.6266
 9126TIP3   OH227341   1.119   1.624   3.583  0.2264 -0.1506  0.3902
 9126TIP3    H127342   1.122   1.665   3.496  0.7699  0.0205  0.4840
 9126TIP3    H227343   1.053   1.675   3.630  1.1512  0.8869  0.6214
 9127TIP3   OH227344   3.934   5.155   5.694  0.2561  0.0615  0.9552
 9127TIP3    H127345   3.994   5.133   5.622  0.8743  0.4734  1.3313
 9127TIP3    H227346   3.981   5.130   5.773 -0.2542 -0.0141  1.2368
 9128TIP3   OH227347   0.839   3.915   1.411 -0.1907  0.1073 -0.5175
 9128TIP3    H127348   0.765   3.969   1.384 -0.4172 -0.2944 -0.7172
 9128TIP3    H227349   0.850   3.852   1.340  0.0368 -0.1359 -0.2712
 9129TIP3   OH227350   6.417   4.696   1.243  0.1709 -0.1649 -0.2711
 9129TIP3    H127351   6.335   4.720   1.200 -0.0780 -1.1041 -0.3513
 9129TIP3    H227352   6.484   4.709   1.176  0.0119  0.0481 -0.3899
 9130TIP3   OH227353   6.228   3.395   2.375 -0.2722  0.6931  0.2141
 9130TIP3    H127354   6.178   3.469   2.341 -0.6112 -0.6643 -2.4158
 9130TIP3    H227355   6.315   3.431   2.391  0.3978  1.1691 -3.6839
 9131TIP3   OH227356   4.893   1.477   0.928 -0.0965 -0.1747 -0.0701
 9131TIP3    H127357   4.913   1.544   0.994  0.1937 -1.8574  1.6549
 9131TIP3    H227358   4.799   1.487   0.912 -0.6512 -1.0232  2.2209
 9132TIP3   OH227359   1.651   4.381   5.845 -0.2330  0.0906 -0.0411
 9132TIP3    H127360   1.561   4.400   5.870  0.2861  1.1948  1.0945
 9132TIP3    H227361   1.696   4.465   5.847  0.9708 -0.5237  0.0234
 9133TIP3   OH227362   3.501   6.618   1.025 -0.1606 -0.0839  0.1876
 9133TIP3    H127363   3.497   6.683   0.954  0.4832  0.4469  0.6230
 9133TIP3    H227364   3.466   6.538   0.986 -0.7955  0.4678 -0.4180
 9134TIP3   OH227365   0.196   1.860   4.949 -0.4764  0.2115  0.1567
 9134TIP3    H127366   0.234   1.788   4.901 -1.4885 -1.2269  1.4099
 9134TIP3    H227367   0.256   1.933   4.936  0.6570 -0.8907 -1.0002
 9135TIP3   OH227368   1.129   6.219   2.013  0.1518 -0.2096  0.4890
 9135TIP3    H127369   1.169   6.228   2.100 -0.2378 -0.5032  0.7076
 9135TIP3    H227370   1.036   6.204   2.032  0.0125  0.0396  0.0068
 9136TIP3   OH227371   1.879   0.335   2.387  0.6134 -0.1569 -0.2721
 9136TIP3    H127372   1.898   0.319   2.295 -1.1902 -2.1085 -0.3582
 9136TIP3    H227373   1.788   0.364   2.389  1.2460  2.0180  0.7587
 9137TIP3   OH227374   2.626   1.475   1.060  0.4913  0.1543 -0.6873
 9137TIP3    H127375   2.641   1.436   1.146  0.8268  0.1903 -0.7256
 9137TIP3    H227376   2.667   1.562   1.066  0.9651 -0.0369 -1.0402
 9138TIP3   OH227377   5.315   0.339   3.524  0.3234 -0.7174  0.4707
 9138TIP3    H127378   5.251   0.344   3.453 -0.0316  3.3389  0.8437
 9138TIP3    H227379   5.368   0.262   3.503 -2.2892 -2.0426 -1.8978
 9139TIP3   OH227380  -0.009   4.615   3.463  0.1585  0.2482 -0.1056
 9139TIP3    H127381  -0.048   4.626   3.549 -0.9797  0.0826 -0.5859
 9139TIP3    H227382   0.084   4.635   3.476  0.1398 -0.4659  1.2863
 9140TIP3   OH227383   4.282   2.734   0.964  0.2328 -0.2246 -0.0053
 9140TIP3    H127384   4.346   2.671   0.996 -0.0079 -0.7262 -0.4962
 9140TIP3    H227385   4.298   2.813   1.016 -0.3529 -1.0917  1.5691
 9141TIP3   OH227386   3.850   1.030   1.533  0.1287  0.9020 -0.0155
 9141TIP3    H127387   3.774   1.085   1.549  0.0809  0.4767  1.3829
 9141TIP3    H227388   3.885   1.011   1.620  1.1154  0.0847 -0.5615
 9142TIP3   OH227389   0.776   1.062   4.639  0.6683  0.4927  1.1005
 9142TIP3    H127390   0.740   1.151   4.646  0.4925  0.4480  0.7830
 9142TIP3    H227391   0.843   1.059   4.707  1.7304  1.3956  0.1480
 9143TIP3   OH227392   1.961   2.488   3.381  0.1067  0.6261 -0.1887
 9143TIP3    H127393   2.023   2.415   3.382 -0.6579 -0.0737  2.0491
 9143TIP3    H227394   1.878   2.448   3.354 -0.3554  0.5939  1.2120
 9144TIP3   OH227395   3.898   6.209   2.138  0.2363  0.0352 -0.0651
 9144TIP3    H127396   3.916   6.292   2.094  0.8833 -0.6206 -1.0647
 9144TIP3    H227397   3.957   6.210   2.214  0.2382  0.4916 -0.0682
 9145TIP3   OH227398   5.454   1.989   3.623 -0.3885  0.4544  0.0051
 9145TIP3    H127399   5.480   1.922   3.686  2.4977 -0.1098 -1.6087
 9145TIP3    H227400   5.393   1.944   3.564  1.0864 -0.6372 -0.7298
 9146TIP3   OH227401   4.642   0.315   1.450  0.0287 -0.1179 -0.0190
 9146TIP3    H127402   4.591   0.276   1.522 -0.0815  0.8540  0.4380
 9146TIP3    H227403   4.732   0.285   1.466 -0.1525 -0.6842 -0.0280
 9147TIP3   OH227404   3.568   5.719   0.205 -0.1211  0.8161  0.1369
 9147TIP3    H127405   3.506   5.710   0.277  1.2948 -2.2587  1.1293
 9147TIP3    H227406   3.626   5.643   0.212  2.2099  2.1599 -2.2486
 9148TIP3   OH227407   0.748   4.118   3.749 -0.7558 -0.3784 -0.1396
 9148TIP3    H127408   0.817   4.178   3.721 -0.5228 -0.5709  0.0115
 9148TIP3    H227409   0.784   4.076   3.827 -0.5568 -1.3514 -0.7418
 9149TIP3   OH227410   2.326   1.687   2.528  0.0685  0.2780 -0.0766
 9149TIP3    H127411   2.390   1.650   2.467  2.4421  0.9499  1.8554
 9149TIP3    H227412   2.255   1.623   2.529  2.8282 -3.0942  1.2074
 9150TIP3   OH227413   1.231   4.117   3.213  0.4035 -0.1718 -0.3434
 9150TIP3    H127414   1.264   4.098   3.125 -0.3501 -0.5934 -0.5446
 9150TIP3    H227415   1.202   4.032   3.247 -0.2227  0.1451 -0.0708
 9151TIP3   OH227416   5.389   2.491   4.519  0.1174 -0.4379 -0.0862
 9151TIP3    H127417   5.455   2.525   4.459  2.4175 -0.1910  2.3803
 9151TIP3    H227418   5.400   2.396   4.515  0.3583 -0.4155  0.0411
 9152TIP3   OH227419   0.151   2.275   3.580 -0.1242 -0.7163 -0.1129
 9152TIP3    H127420   0.089   2.293   3.509 -0.3524 -0.6359  0.1042
 9152TIP3    H227421   0.148   2.180   3.591 -2.3175 -0.5468  1.7392
 9153TIP3   OH227422   6.286   6.125   0.904 -0.3713 -0.1073 -0.0209
 9153TIP3    H127423   6.323   6.143   0.990  0.5497  2.1266 -0.8260
 9153TIP3    H227424   6.282   6.029   0.900  1.6575 -0.3347  1.6419
 9154TIP3   OH227425   0.139   1.228   2.907 -0.3694 -0.3245 -0.2078
 9154TIP3    H127426   0.229   1.195   2.898 -0.2736 -0.0807 -0.1438
 9154TIP3    H227427   0.139   1.277   2.989 -1.2970 -2.6974  1.2906
 9155TIP3   OH227428   2.990   2.926   0.958 -0.0261 -0.0322 -0.3345
 9155TIP3    H127429   3.042   2.914   0.878 -0.5234 -2.4863 -0.3516
 9155TIP3    H227430   3.046   2.979   1.015  0.6779  1.0558 -1.9565
 9156TIP3   OH227431   4.458   1.662   3.564  0.8176  0.0047 -0.5693
 9156TIP3    H127432   4.542   1.615   3.565  0.8494  0.0692  0.0491
 9156TIP3    H227433   4.427   1.659   3.654  0.4914  0.5887 -0.6534
 9157TIP3   OH227434   5.212   2.820   4.853 -0.3061 -0.1319 -1.0374
 9157TIP3    H127435   5.164   2.765   4.915 -2.0947  2.1147 -0.2977
 9157TIP3    H227436   5.235   2.760   4.781  0.6614 -2.5129  1.0921
 9158TIP3   OH227437   0.466   6.515   2.198  0.3132 -0.0859  0.3492
 9158TIP3    H127438   0.462   6.610   2.186 -0.7303 -0.3163 -1.8053
 9158TIP3    H227439   0.417   6.481   2.123  0.1784 -2.3132  1.3991
 9159TIP3   OH227440   4.405   1.657   2.617 -0.3882 -0.0340 -0.1824
 9159TIP3    H127441   4.377   1.674   2.706 -0.7823  1.4021 -0.5499
 9159TIP3    H227442   4.500   1.670   2.619 -0.3936 -0.0249  0.0274
 9160TIP3   OH227443   5.751   3.497   3.100  0.6986 -0.0967 -0.3215
 9160TIP3    H127444   5.698   3.418   3.097  1.6811 -0.8976  1.5740
 9160TIP3    H227445   5.820   3.477   3.164  2.3485  1.4539 -1.5047
 9161TIP3   OH227446   7.160   2.255   5.640  0.2828 -0.3927  0.7428
 9161TIP3    H127447   7.157   2.163   5.616  0.0297 -0.2825  0.3488
 9161TIP3    H227448   7.189   2.300   5.560  1.8995 -0.2868  1.3503
 9162TIP3   OH227449   1.216   0.700   1.133  0.3977 -0.1561 -0.0777
 9162TIP3    H127450   1.302   0.727   1.166 -1.1818  0.8750  3.7037
 9162TIP3    H227451   1.193   0.767   1.068  1.4036  0.9737  0.7000
 9163TIP3   OH227452   1.200   6.143   0.533  0.0958 -0.0665 -0.0770
 9163TIP3    H127453   1.121   6.172   0.488  0.4058  1.3305  0.2546
 9163TIP3    H227454   1.271   6.166   0.473  0.3603  0.0230  0.2725
 9164TIP3   OH227455   4.094   2.793   2.165  1.0275 -0.3566 -0.4558
 9164TIP3    H127456   4.087   2.887   2.185  1.0471 -0.4301 -0.0961
 9164TIP3    H227457   4.007   2.758   2.180  0.9391 -0.3388 -0.9093
 9165TIP3   OH227458   1.488   4.514   4.971 -0.6404  0.0337  0.4774
 9165TIP3    H127459   1.440   4.583   5.017  2.8555  1.5741  2.1224
 9165TIP3    H227460   1.481   4.437   5.027  0.0034  0.6627  1.4315
 9166TIP3   OH227461   6.843   6.147   0.707 -0.5932 -0.5229 -0.4144
 9166TIP3    H127462   6.866   6.101   0.626 -1.7647 -0.2747 -0.9132
 9166TIP3    H227463   6.925   6.183   0.739  0.2405 -2.3108 -0.4187
 9167TIP3   OH227464   2.563   0.397   2.149  0.3332 -0.5195  0.1906
 9167TIP3    H127465   2.656   0.379   2.139  0.2694 -0.4719 -0.4743
 9167TIP3    H227466   2.520   0.338   2.089 -0.0500 -0.2904  0.2362
 9168TIP3   OH227467   6.249   0.391   0.579 -0.7059  0.3241 -0.3307
 9168TIP3    H127468   6.172   0.351   0.540  0.2372 -1.5089 -0.3950
 9168TIP3    H227469   6.222   0.410   0.669 -1.0535 -0.8559 -0.1718
 9169TIP3   OH227470   1.773   5.480   5.403 -0.0842 -0.0887  0.6168
 9169TIP3    H127471   1.853   5.513   5.361 -0.4339 -0.1530 -0.1195
 9169TIP3    H227472   1.732   5.558   5.440  0.1417 -0.0014  0.6837
 9170TIP3   OH227473   1.024   6.429   0.157 -0.3371 -0.0308  0.2379
 9170TIP3    H127474   1.097   6.374   0.185 -0.1156 -1.2685 -2.4605
 9170TIP3    H227475   1.065   6.498   0.104 -0.9569  0.3614  0.2637
 9171TIP3   OH227476   7.017   3.893   1.332  0.4973  0.2541  0.1206
 9171TIP3    H127477   7.077   3.966   1.322 -0.8132  1.4768  0.7231
 9171TIP3    H227478   7.054   3.823   1.278  0.9030  1.9168 -1.8826
 9172TIP3   OH227479   2.054   4.245   2.762  0.0876  0.3128  0.0685
 9172TIP3    H127480   1.992   4.284   2.824 -0.6756  1.2468 -1.2361
 9172TIP3    H227481   2.001   4.182   2.713  0.6715 -0.3770  0.3097
 9173TIP3   OH227482   5.043   1.278   0.595 -0.1423  0.6770 -0.1215
 9173TIP3    H127483   5.053   1.272   0.690 -0.0252  0.5432 -0.1420
 9173TIP3    H227484   5.095   1.205   0.561  0.4948  1.2149 -0.3272
 9174TIP3   OH227485   2.363   1.172   1.690 -0.0973  0.1295  0.1255
 9174TIP3    H127486   2.368   1.124   1.773  1.0642 -2.0100 -1.0774
 9174TIP3    H227487   2.317   1.112   1.631 -0.7636  1.5461 -0.8352
 9175TIP3   OH227488   6.830   5.597   3.685 -0.1645  0.0685 -0.0070
 9175TIP3    H127489   6.774   5.600   3.608 -1.7602  1.0183  1.1049
 9175TIP3    H227490   6.895   5.665   3.671 -1.1356  1.0226 -0.0726
 9176TIP3   OH227491   4.701   6.530   2.145  0.0635  0.2330  0.1366
 9176TIP3    H127492   4.746   6.455   2.184  0.3396  0.0624 -0.4921
 9176TIP3    H227493   4.610   6.501   2.136  0.1031  0.0900  0.1930
 9177TIP3   OH227494   4.063   5.366   3.227  0.5733 -0.3108 -0.0465
 9177TIP3    H127495   4.052   5.330   3.315 -2.1406 -1.5431 -0.7873
 9177TIP3    H227496   4.015   5.307   3.170 -1.3855  2.6931 -1.8019
 9178TIP3   OH227497   2.112   6.547   2.371  0.2221 -0.1789  0.0956
 9178TIP3    H127498   2.065   6.630   2.377  0.0630 -0.1951 -0.7310
 9178TIP3    H227499   2.049   6.481   2.401  0.2852 -0.0280  0.5719
 9179TIP3   OH227500   3.600   0.905   5.148 -0.1212 -0.4652 -0.0536
 9179TIP3    H127501   3.637   0.895   5.236 -0.7400 -0.8364  0.1714
 9179TIP3    H227502   3.508   0.880   5.158 -0.4089  0.3437 -0.6219
 9180TIP3   OH227503   0.396   5.812   3.672  0.7616  0.0580  0.3127
 9180TIP3    H127504   0.480   5.769   3.663  0.5040 -0.4129  0.1460
 9180TIP3    H227505   0.331   5.742   3.663  0.3767  0.1841  1.7233
 9181TIP3   OH227506   4.076   4.024   3.269 -0.3487  0.4215  0.6018
 9181TIP3    H127507   4.168   4.048   3.279  0.0964 -0.6793 -0.5418
 9181TIP3    H227508   4.044   4.015   3.358  1.3174 -1.4960  1.0779
 9182TIP3   OH227509   5.277   5.991   4.966 -0.7961  0.3828  0.0905
 9182TIP3    H127510   5.237   6.024   5.046 -1.4962 -1.5925  0.6050
 9182TIP3    H227511   5.214   6.014   4.897 -1.7736 -0.7332  0.5854
 9183TIP3   OH227512   6.044   0.759   2.879 -0.3114 -0.5792  0.5392
 9183TIP3    H127513   6.067   0.711   2.959  3.1589  1.6463  1.1097
 9183TIP3    H227514   6.120   0.747   2.822 -0.6321  1.7540 -0.4652
 9184TIP3   OH227515   3.918   5.988   3.592  0.3679  0.3160  0.1538
 9184TIP3    H127516   3.924   5.946   3.506 -1.9904  1.2599 -0.5634
 9184TIP3    H227517   3.874   5.924   3.647  0.3423  0.3457  0.1685
 9185TIP3   OH227518   3.681   1.167   5.309  0.2070 -0.5449  0.0495
 9185TIP3    H127519   3.676   1.215   5.392 -1.5145 -0.9402  0.2161
 9185TIP3    H227520   3.661   1.077   5.333 -0.9792 -0.5438 -0.8783
 9186TIP3   OH227521   4.538   4.333   3.564  0.3270 -0.1002 -0.1821
 9186TIP3    H127522   4.517   4.304   3.653  1.2030  2.8974  1.1039
 9186TIP3    H227523   4.544   4.251   3.513  0.6311 -1.9676  2.6498
 9187TIP3   OH227524   3.118   5.046   4.531 -0.3764  0.1607 -0.0100
 9187TIP3    H127525   3.100   5.109   4.461  0.7888  0.6446  0.1014
 9187TIP3    H227526   3.152   4.969   4.486 -0.5471  0.1114 -0.0528
 9188TIP3   OH227527   5.209   3.170   5.269 -0.2974 -0.1114  0.2177
 9188TIP3    H127528   5.214   3.260   5.299  1.2064 -0.0153 -0.2018
 9188TIP3    H227529   5.205   3.176   5.173 -0.8057 -0.4808  0.2094
 9189TIP3   OH227530   3.483   2.931   3.476  0.0076 -0.2332 -0.1434
 9189TIP3    H127531   3.499   2.883   3.394  0.7089  2.2125 -1.5226
 9189TIP3    H227532   3.529   2.879   3.543 -1.0564 -2.6060 -1.1194
 9190TIP3   OH227533   1.817   4.731   5.104  0.0526 -0.1211 -0.2680
 9190TIP3    H127534   1.741   4.673   5.100  0.6136 -1.0016  1.0293
 9190TIP3    H227535   1.782   4.815   5.131 -0.7049  0.0523 -1.6661
 9191TIP3   OH227536   1.821   3.641   4.583  0.4018  0.0387  0.3720
 9191TIP3    H127537   1.746   3.700   4.582 -0.6272 -1.2261 -0.7124
 9191TIP3    H227538   1.839   3.623   4.490  2.2744  0.5660  0.5854
 9192TIP3   OH227539   6.063   0.263   1.738 -0.2473  0.6980 -0.5929
 9192TIP3    H127540   6.034   0.177   1.709  0.2898 -0.1102  1.1533
 9192TIP3    H227541   6.044   0.265   1.832 -0.9638  2.7994 -0.7293
 9193TIP3   OH227542   0.392   0.816   2.307  0.2716  0.4026  0.2319
 9193TIP3    H127543   0.308   0.807   2.261  0.8336  0.3061 -0.7927
 9193TIP3    H227544   0.402   0.734   2.354 -0.7775  0.8872  1.3506
 9194TIP3   OH227545   0.671   5.107   2.706 -0.0486  0.6101 -0.2773
 9194TIP3    H127546   0.663   5.012   2.719  1.1387  0.5239 -0.0948
 9194TIP3    H227547   0.608   5.145   2.767  0.1362 -0.0399  0.3322
 9195TIP3   OH227548   0.608   2.976   2.059  0.1994  0.1337 -0.1110
 9195TIP3    H127549   0.556   2.899   2.037 -1.5316  1.4810 -1.0027
 9195TIP3    H227550   0.675   2.980   1.990  1.6646 -1.6826  1.1174
 9196TIP3   OH227551   0.964   6.587   3.535 -0.1506 -0.1730  0.2270
 9196TIP3    H127552   1.010   6.544   3.607  0.2430 -2.1151 -1.0946
 9196TIP3    H227553   0.874   6.598   3.567  0.3257  0.1586  1.4643
 9197TIP3   OH227554   3.778   5.076   2.285  0.1784  0.1193  0.2086
 9197TIP3    H127555   3.820   4.991   2.295  1.0838  0.6036  0.7210
 9197TIP3    H227556   3.791   5.099   2.193 -1.5070 -1.0010 -0.3451
 9198TIP3   OH227557   5.687   3.260   2.609 -0.4627  0.5220  0.1443
 9198TIP3    H127558   5.678   3.269   2.704  1.0481 -0.8631  0.4657
 9198TIP3    H227559   5.742   3.182   2.597 -1.0125  0.3853 -1.8881
 9199TIP3   OH227560   5.677   1.535   1.980 -0.3485  0.1676  0.2844
 9199TIP3    H127561   5.735   1.607   2.004  0.4104 -0.5134  0.5402
 9199TIP3    H227562   5.655   1.494   2.064 -1.3269  0.4962  0.2072
 9200TIP3   OH227563   4.581   0.726   2.280  0.1422  0.4958  0.2055
 9200TIP3    H127564   4.668   0.755   2.306  0.6674 -0.7453 -0.1035
 9200TIP3    H227565   4.560   0.655   2.341  0.0611 -0.3299 -0.7632
 9201TIP3   OH227566   2.480   6.136   0.181 -0.0884 -0.0328  0.1490
 9201TIP3    H127567   2.437   6.192   0.115  0.8532  0.8937  0.2861
 9201TIP3    H227568   2.570   6.169   0.184  0.5347 -1.6824  0.1363
 9202TIP3   OH227569   0.514   4.423   2.659  0.1437  0.0930  0.0269
 9202TIP3    H127570   0.532   4.426   2.565  0.2932 -2.1037 -0.0707
 9202TIP3    H227571   0.519   4.329   2.681 -1.2758  0.4220  1.9554
 9203TIP3   OH227572   1.987   1.852   5.135 -0.1059  0.0789  0.2218
 9203TIP3    H127573   2.074   1.844   5.095  0.3823 -1.8525  1.5425
 9203TIP3    H227574   1.940   1.774   5.107 -1.2850  0.8998 -0.1329
 9204TIP3   OH227575   6.467   0.304   3.872 -0.7127  0.1600 -0.3493
 9204TIP3    H127576   6.428   0.239   3.930 -1.8771  0.6495 -0.5358
 9204TIP3    H227577   6.507   0.253   3.802 -1.4635 -0.3754 -0.4054
 9205TIP3   OH227578   4.172   3.082   0.708 -0.1187  0.2322 -0.3885
 9205TIP3    H127579   4.186   3.137   0.786  1.6786 -0.9294  0.1835
 9205TIP3    H227580   4.187   3.141   0.634  1.0079  0.7324  0.2068
 9206TIP3   OH227581   5.744   6.444   1.263 -0.0134 -0.2768 -0.4161
 9206TIP3    H127582   5.677   6.384   1.298  0.6511 -0.2220  1.0203
 9206TIP3    H227583   5.709   6.531   1.281  0.6473 -0.2447  0.8092
 9207TIP3   OH227584   0.035   2.355   1.911 -0.2000  0.3793  0.3923
 9207TIP3    H127585   0.022   2.260   1.900  1.4969  0.1651 -0.1128
 9207TIP3    H227586   0.059   2.385   1.823 -0.9644  1.3487  0.5013
 9208TIP3   OH227587   2.740   1.841   1.773  0.3775 -0.4068  0.3757
 9208TIP3    H127588   2.801   1.813   1.705 -1.7492  0.1441 -1.8690
 9208TIP3    H227589   2.693   1.762   1.798  0.5596 -0.4453  0.6057
 9209TIP3   OH227590   4.918   6.371   4.695  0.3076  0.0218 -0.1399
 9209TIP3    H127591   4.912   6.275   4.690  2.6536 -0.1738 -0.3107
 9209TIP3    H227592   4.928   6.399   4.604 -0.6509  0.4809 -0.1170
 9210TIP3   OH227593   5.638   0.740   2.856 -0.1331 -0.6220  0.2326
 9210TIP3    H127594   5.693   0.713   2.930  2.3683 -1.1677 -1.6854
 9210TIP3    H227595   5.574   0.800   2.894  1.6297 -0.1463  2.6699
 9211TIP3   OH227596   4.224   4.100   3.979  0.0847 -0.2187  0.4171
 9211TIP3    H127597   4.144   4.132   4.021  1.4010  0.8431  2.2350
 9211TIP3    H227598   4.295   4.141   4.028  1.8061  1.5870 -3.1593
 9212TIP3   OH227599   6.187   0.829   4.019 -0.4143  0.4472  0.3160
 9212TIP3    H127600   6.137   0.895   4.068 -0.9657  0.0668  0.2725
 9212TIP3    H227601   6.128   0.754   4.014  0.1707 -0.0090  0.2650
 9213TIP3   OH227602   0.479   1.045   2.427  0.4881 -0.0396  0.1342
 9213TIP3    H127603   0.455   0.969   2.375  0.1783 -0.1842  0.4821
 9213TIP3    H227604   0.473   1.119   2.366  0.6030 -0.2685 -0.1532
 9214TIP3   OH227605   3.999   4.887   1.268  0.1446  0.0304  0.5790
 9214TIP3    H127606   4.010   4.982   1.270 -0.7253  0.3057 -2.4967
 9214TIP3    H227607   3.927   4.870   1.329  0.4444  1.3048  1.3218
 9215TIP3   OH227608   3.354   6.439   2.182 -0.0264 -0.0353 -0.0426
 9215TIP3    H127609   3.366   6.397   2.267 -0.7408  0.4289  0.2971
 9215TIP3    H227610   3.340   6.531   2.202  2.5441  0.5978 -0.8479
 9216TIP3   OH227611   5.180   4.545   3.386 -0.4207 -0.0628  0.6100
 9216TIP3    H127612   5.117   4.618   3.387 -0.0096  0.2900  0.7314
 9216TIP3    H227613   5.212   4.540   3.476  0.3716  0.3253  0.3597
 9217TIP3   OH227614   1.381   3.040   3.176  0.2906  0.1773 -0.0818
 9217TIP3    H127615   1.320   2.972   3.148  0.2399  0.4533 -0.6438
 9217TIP3    H227616   1.466   2.995   3.181 -0.0637 -0.3920  1.4323
 9218TIP3   OH227617   2.736   5.255   5.471  0.3384  0.3557  0.2407
 9218TIP3    H127618   2.759   5.181   5.414 -0.1697  0.7316 -0.4713
 9218TIP3    H227619   2.684   5.313   5.415 -0.2741  0.6825  1.1340
 9219TIP3   OH227620   5.733   6.035   1.396 -0.2032  0.4367  0.2099
 9219TIP3    H127621   5.706   6.056   1.486 -0.3606 -0.1307  0.2988
 9219TIP3    H227622   5.770   6.117   1.363  0.4414  0.4777  1.0042
 9220TIP3   OH227623   5.728   4.745   1.591 -0.5911  0.0679  0.2741
 9220TIP3    H127624   5.700   4.749   1.683  1.6230 -3.7277  1.3505
 9220TIP3    H227625   5.682   4.669   1.555 -0.5109  0.7962 -1.4751
 9221TIP3   OH227626   3.247   0.382   2.727  0.2875  0.1539  0.4288
 9221TIP3    H127627   3.224   0.290   2.735  0.6199 -0.0174 -0.4465
 9221TIP3    H227628   3.252   0.414   2.817 -2.7350  0.0753  0.7322
 9222TIP3   OH227629   2.949   4.508   1.867  0.4914  0.1847  0.2987
 9222TIP3    H127630   2.960   4.479   1.776  1.0501 -2.9072  1.2480
 9222TIP3    H227631   3.036   4.500   1.906  0.1706  1.0666  1.2472
 9223TIP3   OH227632   2.792   3.971   0.099  0.0226 -0.2102 -0.0556
 9223TIP3    H127633   2.836   3.886   0.102 -0.4007 -0.4406 -0.4307
 9223TIP3    H227634   2.803   4.006   0.188  0.2193 -0.6418  0.0932
 9224TIP3   OH227635   2.557   0.794   4.657  0.2538  0.4062  0.4308
 9224TIP3    H127636   2.647   0.803   4.688 -0.5347  0.8816  2.7977
 9224TIP3    H227637   2.530   0.707   4.686 -0.0571  0.2555 -0.2847
 9225TIP3   OH227638   4.843   3.151   1.127  0.5411  0.3875  0.3842
 9225TIP3    H127639   4.863   3.074   1.074  0.3461  1.2709 -0.9967
 9225TIP3    H227640   4.763   3.187   1.088  0.9000  1.5667  0.7179
 9226TIP3   OH227641   3.529   2.663   5.326 -0.2343 -0.0020  0.3479
 9226TIP3    H127642   3.480   2.581   5.319 -0.1609  0.0183 -0.4103
 9226TIP3    H227643   3.614   2.637   5.362 -0.3276 -0.2163  0.4131
 9227TIP3   OH227644   4.627   1.911   1.873  0.2049 -0.7071 -0.1314
 9227TIP3    H127645   4.648   2.005   1.869  0.7532 -0.8643 -1.8757
 9227TIP3    H227646   4.680   1.877   1.944  0.3272  0.2354  0.2395
 9228TIP3   OH227647   6.633   1.412   1.756 -0.0781 -0.1911  0.3931
 9228TIP3    H127648   6.558   1.422   1.815  1.0367  0.4749  1.7747
 9228TIP3    H227649   6.611   1.465   1.679 -2.4709 -2.7268 -0.8238
 9229TIP3   OH227650   3.746   3.456   1.920  0.1769  0.1022  0.1615
 9229TIP3    H127651   3.691   3.510   1.864 -0.7981 -0.2280  0.7752
 9229TIP3    H227652   3.829   3.448   1.872 -0.2916  0.6322 -0.7631
 9230TIP3   OH227653   2.094   4.054   0.642 -0.3133 -0.2340 -0.1045
 9230TIP3    H127654   2.003   4.028   0.624 -0.3249 -1.5208  1.6420
 9230TIP3    H227655   2.087   4.120   0.711  0.1283 -1.9994  1.7211
 9231TIP3   OH227656   4.611   4.691   3.283  0.5244 -0.0406  0.0103
 9231TIP3    H127657   4.655   4.711   3.365 -0.9833 -0.0941  0.8646
 9231TIP3    H227658   4.534   4.747   3.282  0.3103 -0.3242 -1.1844
 9232TIP3   OH227659   2.568   3.240   4.550 -0.8288  0.4798 -0.1587
 9232TIP3    H127660   2.474   3.251   4.534 -0.7527 -0.3591 -1.2428
 9232TIP3    H227661   2.582   3.146   4.548  0.1031  0.6146 -0.4080
 9233TIP3   OH227662   1.809   6.277   4.869  0.1875 -0.1314  0.2816
 9233TIP3    H127663   1.735   6.268   4.808  1.3274 -0.6221 -1.0780
 9233TIP3    H227664   1.788   6.217   4.940 -0.1491 -1.1996 -0.6916
 9234TIP3   OH227665   1.476   1.846   0.429 -0.2353  0.5042  0.0364
 9234TIP3    H127666   1.556   1.831   0.380 -1.1477  0.3361 -1.4721
 9234TIP3    H227667   1.437   1.924   0.389 -0.1457  1.4474  1.6881
 9235TIP3   OH227668   0.641   2.592   5.755  0.2225  0.1422  0.8020
 9235TIP3    H127669   0.549   2.577   5.774 -0.6140  1.7521 -1.5358
 9235TIP3    H227670   0.681   2.504   5.757 -1.2388 -0.5293  2.2397
 9236TIP3   OH227671   2.309   3.203   4.457  0.0170 -0.2007  0.7730
 9236TIP3    H127672   2.350   3.226   4.374  0.6549  0.5693  1.2849
 9236TIP3    H227673   2.229   3.156   4.432 -0.3779  0.9724 -0.3152
 9237TIP3   OH227674   4.507   5.349   2.179 -0.2751 -0.1480  0.4187
 9237TIP3    H127675   4.593   5.370   2.143  0.4245 -2.5241  0.5155
 9237TIP3    H227676   4.504   5.394   2.263  0.0141  1.5701 -0.4321
 9238TIP3   OH227677   5.659   3.226   1.869 -0.2545 -0.0111 -0.2265
 9238TIP3    H127678   5.613   3.284   1.929 -1.5112  0.2249 -1.3644
 9238TIP3    H227679   5.639   3.138   1.899 -0.8927  0.1039 -0.3111
 9239TIP3   OH227680   1.132   1.842   3.838 -0.1144 -0.5582 -0.0485
 9239TIP3    H127681   1.205   1.839   3.776 -0.3641  1.0774 -0.4581
 9239TIP3    H227682   1.057   1.869   3.785 -0.8927 -1.6007  0.4941
 9240TIP3   OH227683   5.037   0.904   2.441 -0.1843  0.4901 -0.4883
 9240TIP3    H127684   4.993   0.964   2.381 -0.2204  1.3841  0.3974
 9240TIP3    H227685   5.008   0.932   2.528  1.0705  0.2342  0.0385
 9241TIP3   OH227686   5.580   1.119   2.133 -0.0646 -0.2875  0.0909
 9241TIP3    H127687   5.539   1.104   2.218  1.0068 -0.3889  0.5974
 9241TIP3    H227688   5.538   1.198   2.099 -0.8795 -0.5519  0.4671
 9242TIP3   OH227689   6.505   4.195   4.974 -0.4535  0.1319 -0.2815
 9242TIP3    H127690   6.503   4.102   4.950  0.9281  0.2143 -0.8428
 9242TIP3    H227691   6.482   4.197   5.067 -3.0419 -0.4911 -0.8270
 9243TIP3   OH227692   2.975   3.201   5.189 -0.0755 -0.0741 -0.1368
 9243TIP3    H127693   2.970   3.235   5.100  1.0740 -3.4323 -1.6595
 9243TIP3    H227694   3.006   3.111   5.178 -0.2726 -0.7551  3.6623
 9244TIP3   OH227695   3.054   4.245   3.678  0.5641 -0.8626  0.0792
 9244TIP3    H127696   3.017   4.171   3.630  0.6160 -1.0191  0.2812
 9244TIP3    H227697   3.003   4.251   3.758  0.1337 -0.2683 -0.2307
 9245TIP3   OH227698   5.955   4.913   1.760  0.3697 -0.0288 -0.4425
 9245TIP3    H127699   5.861   4.927   1.760  0.6037  1.8841  0.7844
 9245TIP3    H227700   5.972   4.855   1.834  0.2408  0.4551 -0.0292
 9246TIP3   OH227701   3.478   4.125   3.637  0.0402  0.0829 -0.2950
 9246TIP3    H127702   3.415   4.196   3.650  0.3361  0.1012  1.2095
 9246TIP3    H227703   3.425   4.049   3.614 -0.6186 -0.0435  1.5145
 9247TIP3   OH227704   0.020   4.766   5.858 -0.2950 -0.1614 -0.4227
 9247TIP3    H127705   0.018   4.851   5.902  0.5534  1.4088 -3.1267
 9247TIP3    H227706   0.112   4.740   5.859 -0.3347 -0.3340 -0.7971
 9248TIP3   OH227707   6.282   2.088   2.828 -0.0055 -0.0575  0.2610
 9248TIP3    H127708   6.229   2.166   2.847 -1.5959 -0.6320 -1.4054
 9248TIP3    H227709   6.228   2.038   2.767  1.0829 -2.3715  1.1050
 9249TIP3   OH227710   1.536   1.006   1.865 -0.0631 -0.3908 -0.6965
 9249TIP3    H127711   1.570   0.981   1.951 -1.6128 -1.4101 -0.3324
 9249TIP3    H227712   1.447   0.971   1.864 -0.6215  0.9763 -2.1224
 9250TIP3   OH227713   2.897   3.595   1.800  0.0446  0.0160  0.2611
 9250TIP3    H127714   2.904   3.558   1.888 -0.4711  0.3379  0.4392
 9250TIP3    H227715   2.804   3.607   1.787  0.0526 -0.7687 -0.6393
 9251TIP3   OH227716   7.175   1.023   3.471 -0.6670  0.0703 -0.2305
 9251TIP3    H127717   7.188   0.982   3.386  0.3717  0.8043 -0.4544
 9251TIP3    H227718   7.137   1.109   3.451 -0.1929  0.3422  0.0143
 9252TIP3   OH227719   2.351   5.832   3.337  0.0071 -0.1624 -0.1138
 9252TIP3    H127720   2.436   5.818   3.297 -0.1524  0.2946 -0.6391
 9252TIP3    H227721   2.294   5.767   3.296 -0.5480  1.3897 -1.9462
 9253TIP3   OH227722   0.163   6.575   2.937  0.3429  0.2848  0.3708
 9253TIP3    H127723   0.159   6.480   2.921  1.9030  0.3205 -0.3885
 9253TIP3    H227724   0.170   6.613   2.849  0.2842  1.0839  0.7091
 9254TIP3   OH227725   5.290   6.663   4.314 -0.5097 -0.5259  0.3717
 9254TIP3    H127726   5.269   6.603   4.242  0.4491 -0.1563 -0.2377
 9254TIP3    H227727   5.312   6.606   4.387 -3.2067 -0.9470  0.9897
 9255TIP3   OH227728   7.007   3.145   4.820  0.3889  0.1305  0.0296
 9255TIP3    H127729   7.042   3.057   4.808  1.3154  0.4978 -0.0743
 9255TIP3    H227730   6.996   3.179   4.731  1.7305  0.7408  0.0592
 9256TIP3   OH227731   3.385   3.208   2.717  0.4953 -0.0900 -0.4399
 9256TIP3    H127732   3.457   3.162   2.760 -0.3748 -2.6584 -1.5896
 9256TIP3    H227733   3.377   3.167   2.631 -1.8485  0.6353 -0.6408
 9257TIP3   OH227734   0.566   6.260   2.756  0.3750  0.2892 -0.0313
 9257TIP3    H127735   0.550   6.240   2.848  0.7890  0.9495  0.1972
 9257TIP3    H227736   0.479   6.276   2.719  0.2319  0.3717  0.3358
 9258TIP3   OH227737   6.206   4.771   5.882 -0.1074  0.2263  0.2519
 9258TIP3    H127738   6.124   4.777   5.833 -0.3332  1.5591  0.7331
 9258TIP3    H227739   6.267   4.828   5.835 -0.0105  0.6750  0.9002
 9259TIP3   OH227740   4.774   1.983   2.743 -0.0897  0.1611  0.2035
 9259TIP3    H127741   4.758   2.030   2.825  0.0554  0.3465  0.1258
 9259TIP3    H227742   4.690   1.941   2.723 -0.3872  0.8527 -0.0286
 9260TIP3   OH227743   0.793   3.596   2.568 -0.0285  0.2585 -0.1777
 9260TIP3    H127744   0.770   3.625   2.656  0.6601  1.2426 -0.3035
 9260TIP3    H227745   0.709   3.583   2.525 -0.4157 -1.8961  1.1049
 9261TIP3   OH227746   0.953   5.222   1.797 -0.3066 -0.0231 -0.3395
 9261TIP3    H127747   0.939   5.143   1.849  0.1811 -1.0852 -1.7965
 9261TIP3    H227748   0.951   5.193   1.706  0.8517  1.4797 -0.8858
 9262TIP3   OH227749   0.296   1.871   3.783  0.2680  0.4922 -0.1557
 9262TIP3    H127750   0.319   1.856   3.875  0.3732  0.2646 -0.2168
 9262TIP3    H227751   0.334   1.956   3.762  1.2416  0.0349 -0.3119
 9263TIP3   OH227752   3.048   3.947   2.469  0.0476 -0.1690  0.0348
 9263TIP3    H127753   3.076   3.999   2.545  0.9823 -1.5696  0.6780
 9263TIP3    H227754   3.118   3.884   2.455 -0.0290  0.1480 -2.1380
 9264TIP3   OH227755   3.006   1.613   1.827  0.5955  0.1128  0.1529
 9264TIP3    H127756   2.975   1.655   1.747 -0.0727 -2.3741 -1.0121
 9264TIP3    H227757   2.935   1.626   1.890 -0.2794 -0.5114 -0.6640
 9265TIP3   OH227758   1.691   0.607   2.468  0.6603 -0.1237  0.0643
 9265TIP3    H127759   1.611   0.558   2.450 -1.1699  2.3286  0.9197
 9265TIP3    H227760   1.752   0.578   2.400 -2.6205  1.4792 -4.0260
 9266TIP3   OH227761   1.637   4.114   4.093 -0.1778 -0.0075  0.1296
 9266TIP3    H127762   1.550   4.144   4.118 -0.9745 -2.5759  0.8028
 9266TIP3    H227763   1.623   4.023   4.065  2.4483 -0.9046  1.4335
 9267TIP3   OH227764   4.045   6.045   3.183  0.5567 -0.0432 -0.4284
 9267TIP3    H127765   3.977   5.985   3.214  1.2391 -0.3164  0.6192
 9267TIP3    H227766   4.091   5.996   3.114 -0.9918  0.5732 -1.9578
 9268TIP3   OH227767   2.824   5.717   5.023  0.3052 -0.5405 -0.8744
 9268TIP3    H127768   2.747   5.711   5.079  0.2743 -0.9084 -0.9545
 9268TIP3    H227769   2.796   5.770   4.949 -0.0318 -1.1135 -1.1665
 9269TIP3   OH227770   2.595   3.809   1.550  0.2082 -0.4056  0.1841
 9269TIP3    H127771   2.583   3.904   1.541  3.0602  0.2130  1.5161
 9269TIP3    H227772   2.688   3.795   1.530  0.6266 -2.4079  2.9489
 9270TIP3   OH227773   0.853   0.022   1.912 -0.1056 -0.4886  0.6598
 9270TIP3    H127774   0.939  -0.002   1.878 -0.0231 -1.0444  1.2471
 9270TIP3    H227775   0.819   0.085   1.848  1.3948  0.9620  1.2170
 9271TIP3   OH227776   2.790   5.344   1.366 -0.3428  0.2698 -0.0275
 9271TIP3    H127777   2.884   5.362   1.359 -0.4353  0.4073 -1.1206
 9271TIP3    H227778   2.770   5.353   1.459  0.9981 -1.1731  0.4380
 9272TIP3   OH227779   0.842   5.304   4.793  0.3384  0.0196  0.0982
 9272TIP3    H127780   0.751   5.321   4.816  0.0597  0.5145 -1.2732
 9272TIP3    H227781   0.890   5.380   4.828  0.3100 -0.4596  1.2160
 9273TIP3   OH227782   3.187   1.559   4.691 -0.0135 -0.4437  0.1537
 9273TIP3    H127783   3.145   1.563   4.777  1.1824 -1.1858  0.8015
 9273TIP3    H227784   3.123   1.597   4.631 -1.5479 -1.4233  1.1006
 9274TIP3   OH227785   1.690   4.859   2.295  0.0519 -0.2562  0.2517
 9274TIP3    H127786   1.675   4.862   2.201 -0.8927 -1.6871  0.3254
 9274TIP3    H227787   1.628   4.922   2.332 -0.0346 -0.1715 -0.0406
 9275TIP3   OH227788   3.697   6.362   4.010 -0.0637  0.1297 -0.5545
 9275TIP3    H127789   3.746   6.328   4.085  0.7576 -0.5605 -1.3831
 9275TIP3    H227790   3.670   6.284   3.961 -0.0983  0.5908 -1.2839
 9276TIP3   OH227791   2.156   5.763   2.701  0.5144  0.0425  0.0771
 9276TIP3    H127792   2.194   5.850   2.707 -1.6848  0.9860  1.7497
 9276TIP3    H227793   2.117   5.759   2.613  0.5770  0.7634  0.0160
 9277TIP3   OH227794   6.071   1.810   4.455 -0.1476 -0.2461  0.3026
 9277TIP3    H127795   6.141   1.838   4.396  0.0960  3.2297  2.0113
 9277TIP3    H227796   6.114   1.800   4.540 -1.2601 -0.9240  0.8140
 9278TIP3   OH227797   3.416   3.378   0.294 -0.2249 -0.1192  0.2166
 9278TIP3    H127798   3.476   3.304   0.307  0.1502 -0.0999 -1.2320
 9278TIP3    H227799   3.351   3.345   0.232  0.3498  0.9509 -1.0095
 9279TIP3   OH227800   3.349   0.391   4.805  0.0645  0.2307 -0.3442
 9279TIP3    H127801   3.359   0.295   4.803  0.8480  0.2714  0.7418
 9279TIP3    H227802   3.410   0.423   4.738 -3.1182 -0.1436 -3.7753
 9280TIP3   OH227803   3.162   4.549   2.655  0.1962 -0.0323 -0.0751
 9280TIP3    H127804   3.226   4.562   2.586 -0.0823 -1.3676 -0.6251
 9280TIP3    H227805   3.089   4.505   2.612 -0.4721  0.1492  0.8399
 9281TIP3   OH227806   3.736   3.929   4.054 -0.3192 -0.0549 -0.1657
 9281TIP3    H127807   3.752   3.873   3.978  0.3311  0.7464 -0.6270
 9281TIP3    H227808   3.653   3.973   4.035  0.0020  0.3857 -0.5705
 9282TIP3   OH227809   2.101   0.751   1.531 -0.1246 -0.4461  0.6988
 9282TIP3    H127810   2.132   0.746   1.441  0.0597  0.1879  0.7241
 9282TIP3    H227811   2.176   0.785   1.580 -0.6499  0.5249  0.8583
 9283TIP3   OH227812   4.432   5.945   5.735 -0.2491 -0.4535 -0.0141
 9283TIP3    H127813   4.391   5.995   5.806 -1.1730  1.3083 -1.6742
 9283TIP3    H227814   4.364   5.886   5.705  0.0753 -1.0512  0.4029
 9284TIP3   OH227815   2.365   5.646   4.789  0.2193 -0.2397  0.5350
 9284TIP3    H127816   2.385   5.607   4.704 -2.4346 -0.9643  0.1794
 9284TIP3    H227817   2.341   5.736   4.769 -2.0991 -0.8794  0.2397
 9285TIP3   OH227818   5.242   5.673   0.741 -0.3808  0.7378  0.2521
 9285TIP3    H127819   5.200   5.613   0.803 -0.3608 -0.0323 -0.4599
 9285TIP3    H227820   5.312   5.622   0.701 -0.4327  1.2014 -0.4541
 9286TIP3   OH227821   3.459   2.621   0.828 -0.0481 -0.0340 -0.4905
 9286TIP3    H127822   3.485   2.536   0.792 -0.2249 -0.7088  0.8701
 9286TIP3    H227823   3.386   2.649   0.773 -0.5152 -1.1658 -0.4794
 9287TIP3   OH227824   6.926   5.860   5.067  0.2688  0.1002  0.3511
 9287TIP3    H127825   6.873   5.796   5.115  0.2158  0.2143  0.4459
 9287TIP3    H227826   6.905   5.943   5.108  0.2618  0.1924  0.1627
 9288TIP3   OH227827   1.008   1.307   4.978 -0.1359 -0.5511  0.1408
 9288TIP3    H127828   1.079   1.299   5.042 -0.6229 -0.1565  0.7420
 9288TIP3    H227829   1.000   1.401   4.962 -1.1812 -0.5084  0.8399
 9289TIP3   OH227830   3.852   2.049   2.092  0.5611 -0.1108 -0.5259
 9289TIP3    H127831   3.798   2.120   2.124  0.6412 -0.2927  0.0234
 9289TIP3    H227832   3.942   2.078   2.106  0.5944 -0.3191 -0.3064
 9290TIP3   OH227833   1.686   0.142   1.500 -0.2802  0.2317 -0.2514
 9290TIP3    H127834   1.650   0.202   1.565 -0.9034 -0.4913  0.0882
 9290TIP3    H227835   1.762   0.102   1.544 -0.8446 -0.4370  0.1416
 9291TIP3   OH227836   3.899   4.049   1.144  0.3907 -0.6088 -0.1231
 9291TIP3    H127837   3.822   4.003   1.177  0.3195  0.2014  0.8949
 9291TIP3    H227838   3.890   4.138   1.178  3.0161 -1.0952  2.1913
 9292TIP3   OH227839   1.436   0.599   2.220 -0.8279 -0.2390  0.2735
 9292TIP3    H127840   1.513   0.655   2.217 -0.1146 -1.2160  0.0734
 9292TIP3    H227841   1.411   0.587   2.128 -0.5434 -0.8303  0.2695
 9293TIP3   OH227842   4.008   6.656   0.497 -0.2398 -0.0039 -0.6020
 9293TIP3    H127843   3.933   6.707   0.465 -0.1254 -0.1363 -1.0837
 9293TIP3    H227844   3.998   6.657   0.592 -0.8015  0.0598 -0.6558
 9294TIP3   OH227845   1.952   1.393   0.378 -0.2810  0.3058  0.2704
 9294TIP3    H127846   1.931   1.407   0.285  0.8826 -0.9166 -0.2040
 9294TIP3    H227847   1.942   1.299   0.391  0.6725  0.3089  1.1068
 9295TIP3   OH227848   3.202   4.385   1.940 -0.0228  0.2954 -0.0104
 9295TIP3    H127849   3.214   4.417   2.030  1.4706  1.8192 -0.6895
 9295TIP3    H227850   3.290   4.361   1.911 -0.6423 -1.2258 -0.7214
 9296TIP3   OH227851   1.817   0.577   2.195  0.1247  0.2410  0.2842
 9296TIP3    H127852   1.864   0.534   2.123  1.1720  0.9281  0.5259
 9296TIP3    H227853   1.777   0.654   2.154 -0.1846  0.0495  0.2248
 9297TIP3   OH227854   4.006   1.801   4.452 -0.6319  0.1485  0.4622
 9297TIP3    H127855   3.956   1.880   4.474  0.5964  0.8066  0.9634
 9297TIP3    H227856   4.093   1.833   4.428 -0.5944 -0.9314 -1.0056
 9298TIP3   OH227857   0.907   5.831   3.647 -0.4996  0.5139  0.7048
 9298TIP3    H127858   0.827   5.829   3.699 -0.8866  0.8188  0.1262
 9298TIP3    H227859   0.895   5.904   3.586 -0.4220 -0.3691 -0.3969
 9299TIP3   OH227860   1.140   3.070   1.855  0.8870 -0.5013 -0.0678
 9299TIP3    H127861   1.141   3.154   1.900 -0.3683 -0.1117 -0.7304
 9299TIP3    H227862   1.194   3.082   1.777  1.5543 -0.6344  0.3633
 9300TIP3   OH227863   2.209   0.809   1.864 -0.2230 -0.1131  0.1365
 9300TIP3    H127864   2.143   0.850   1.807 -0.7782  0.1868  0.9737
 9300TIP3    H227865   2.274   0.877   1.879  0.4313 -0.4841 -0.8902
 9301TIP3   OH227866   1.274   5.822   0.400  0.3621 -0.1450  0.3913
 9301TIP3    H127867   1.370   5.823   0.398  0.3736  1.7849  0.7193
 9301TIP3    H227868   1.248   5.914   0.393 -1.4955 -0.6691 -0.3073
 9302TIP3   OH227869   2.745   3.256   3.142  0.0694 -0.5377  0.2620
 9302TIP3    H127870   2.831   3.221   3.116  0.4197  0.2992  0.2410
 9302TIP3    H227871   2.762   3.302   3.224 -0.7119 -1.7799  1.1350
 9303TIP3   OH227872   6.410   1.792   2.407 -0.5855 -0.4502 -0.3740
 9303TIP3    H127873   6.365   1.821   2.328 -0.9287 -0.4404 -0.1788
 9303TIP3    H227874   6.370   1.707   2.428 -1.0350 -0.1063  0.2093
 9304TIP3   OH227875   1.361  -0.000   3.361 -0.4235 -0.0384  0.3283
 9304TIP3    H127876   1.271  -0.014   3.333 -0.4487 -0.3437  0.5463
 9304TIP3    H227877   1.355   0.064   3.432 -0.2528  1.5367 -1.0512
 9305TIP3   OH227878   2.089   4.550   3.626 -0.0976  0.4966 -0.4288
 9305TIP3    H127879   2.010   4.495   3.625  0.1702  0.0681  0.6454
 9305TIP3    H227880   2.128   4.536   3.540 -0.4232 -0.4356 -0.4480
 9306TIP3   OH227881   1.217   3.363   4.170  0.3113  0.3888  0.1619
 9306TIP3    H127882   1.294   3.368   4.227 -0.9339 -0.0532  1.9787
 9306TIP3    H227883   1.161   3.297   4.212 -1.1201  0.8057 -1.0297
 9307TIP3   OH227884   0.659   2.838   3.678 -0.2135 -0.2092 -0.0838
 9307TIP3    H127885   0.600   2.869   3.610 -0.5013 -0.6270 -0.0296
 9307TIP3    H227886   0.743   2.880   3.658 -0.2857 -0.3550 -0.7181
 9308TIP3   OH227887   5.450   1.842   0.225  0.4263 -0.0297 -0.0908
 9308TIP3    H127888   5.406   1.901   0.164  0.1335  0.6098  0.7053
 9308TIP3    H227889   5.388   1.834   0.299  0.3512 -1.5389 -0.2838
 9309TIP3   OH227890   3.441   2.513   1.187 -0.3991 -0.1634 -0.4772
 9309TIP3    H127891   3.489   2.475   1.113 -1.2610  1.3440 -1.8815
 9309TIP3    H227892   3.386   2.581   1.147 -2.0264 -0.3144  1.3588
 9310TIP3   OH227893   2.665   1.662   4.900 -0.5475  0.2610  0.4177
 9310TIP3    H127894   2.730   1.696   4.961  1.1178  0.0728 -1.1793
 9310TIP3    H227895   2.589   1.719   4.911  0.7093  1.9545  0.7105
 9311TIP3   OH227896   2.153   1.384   0.602  0.3238  0.1178 -0.3468
 9311TIP3    H127897   2.092   1.345   0.666  0.0430 -1.0290 -1.2779
 9311TIP3    H227898   2.100   1.448   0.554  0.0842 -0.2213 -0.5416
 9312TIP3   OH227899   5.386   6.149   0.856  0.2031  0.4706 -0.5327
 9312TIP3    H127900   5.337   6.070   0.882  2.7691 -0.6347  1.4082
 9312TIP3    H227901   5.341   6.181   0.778 -1.3714 -2.5192 -0.9897
 9313TIP3   OH227902   1.476   3.292   1.820  0.1892 -0.8503  0.2966
 9313TIP3    H127903   1.449   3.201   1.825  1.9600 -1.5121 -1.1633
 9313TIP3    H227904   1.566   3.293   1.854  0.1723  0.3667  0.3771
 9314TIP3   OH227905   6.762   3.403   1.707 -0.3865 -0.2103 -0.1504
 9314TIP3    H127906   6.737   3.339   1.773 -0.0530 -1.4975 -1.2441
 9314TIP3    H227907   6.687   3.407   1.648  0.0619 -0.4605 -0.7373
 9315TIP3   OH227908   2.504   3.791   3.104  0.4875 -0.3571 -0.0291
 9315TIP3    H127909   2.443   3.774   3.176  1.9293 -2.4902  0.7923
 9315TIP3    H227910   2.506   3.886   3.096 -1.6595 -0.1759  1.0073
 9316TIP3   OH227911   6.797   4.031   5.726  0.0917  0.0245  0.3953
 9316TIP3    H127912   6.810   4.115   5.682 -1.0150  1.7401  3.1172
 9316TIP3    H227913   6.849   4.036   5.806 -1.9097 -0.8118  1.8444
 9317TIP3   OH227914   0.180   3.441   5.732  0.0516 -0.1384  0.0409
 9317TIP3    H127915   0.178   3.528   5.691  0.2330 -0.0237  0.2759
 9317TIP3    H227916   0.234   3.452   5.810 -0.3177 -0.3525  0.3319
 9318TIP3   OH227917   2.359   0.091   4.620  0.4107 -0.0342  0.6722
 9318TIP3    H127918   2.337   0.012   4.669  0.8055 -0.1479  0.6753
 9318TIP3    H227919   2.301   0.158   4.655 -0.2067 -0.4180  0.3840
 9319TIP3   OH227920   2.120   5.445   1.065 -0.8185 -0.5530 -0.0025
 9319TIP3    H127921   2.081   5.528   1.039  2.1668  1.1265  0.4003
 9319TIP3    H227922   2.050   5.398   1.111 -3.0692  0.9732 -1.6728
 9320TIP3   OH227923   0.740   6.773   3.267 -0.0133  0.2696  0.0180
 9320TIP3    H127924   0.673   6.761   3.199  1.1773 -0.7696 -1.0220
 9320TIP3    H227925   0.816   6.727   3.234  0.3841 -0.9955  2.4519
 9321TIP3   OH227926   2.629   0.179   1.134  0.1178 -0.1558 -0.4835
 9321TIP3    H127927   2.581   0.209   1.211  0.1233 -2.4323  0.4855
 9321TIP3    H227928   2.560   0.147   1.075  0.1633  0.9721 -1.1831
 9322TIP3   OH227929   5.116   5.024   3.204  0.5246  0.1240  0.2366
 9322TIP3    H127930   5.076   5.043   3.119  0.0778  1.8842  0.8140
 9322TIP3    H227931   5.085   4.936   3.226  0.9108 -0.4987 -1.5458
 9323TIP3   OH227932   6.485   1.005   2.700 -0.5674  0.2718  0.1286
 9323TIP3    H127933   6.399   0.971   2.674 -0.8395  1.5393 -0.7054
 9323TIP3    H227934   6.468   1.095   2.728  0.7298  1.2204 -1.8780
 9324TIP3   OH227935   4.719   1.683   4.048 -0.0177  0.0444  0.1589
 9324TIP3    H127936   4.654   1.718   4.110 -0.1336 -2.2447  1.4346
 9324TIP3    H227937   4.803   1.700   4.090 -0.0790 -1.1637  0.8359
 9325TIP3   OH227938   4.261   0.920   1.708  0.2897 -0.1400  0.0555
 9325TIP3    H127939   4.309   0.979   1.766 -1.6514 -0.1752  1.8231
 9325TIP3    H227940   4.285   0.832   1.739 -0.5610 -0.1629  0.6804
 9326TIP3   OH227941   2.744   4.852   5.061 -0.4504 -0.6442  0.6597
 9326TIP3    H127942   2.834   4.872   5.084 -0.6653  0.5711  0.5150
 9326TIP3    H227943   2.744   4.851   4.965 -0.6059 -0.5410  0.6580
 9327TIP3   OH227944   5.217   2.117   3.455  0.4815  0.4685  0.1951
 9327TIP3    H127945   5.254   2.116   3.544  0.9303 -2.0488  0.0420
 9327TIP3    H227946   5.285   2.080   3.400 -0.5008  0.1994 -0.8775
 9328TIP3   OH227947   4.107   3.040   2.303 -0.0400  0.1911  0.1194
 9328TIP3    H127948   4.096   3.135   2.299 -0.4609  0.1246 -0.3760
 9328TIP3    H227949   4.027   3.009   2.345 -0.2639 -0.0103 -0.4500
 9329TIP3   OH227950   1.328   0.873  -0.009  0.3224  0.2361 -0.4108
 9329TIP3    H127951   1.365   0.868   0.079 -0.1979  0.2942 -0.1856
 9329TIP3    H227952   1.401   0.851  -0.067  1.1497  1.9099 -0.0732
 9330TIP3   OH227953   0.710   5.309   2.064  0.1090 -0.5525  0.3282
 9330TIP3    H127954   0.677   5.321   2.154 -0.0841 -1.8726  0.4615
 9330TIP3    H227955   0.668   5.228   2.035 -0.7539  0.4635 -1.4018
 9331TIP3   OH227956   4.806   3.013   3.784  0.2840  0.2666  0.5851
 9331TIP3    H127957   4.872   3.082   3.776  1.7172 -1.1578 -0.4960
 9331TIP3    H227958   4.774   3.001   3.694  0.3088 -0.7036  0.7008
 9332TIP3   OH227959   3.446   6.603   3.707 -0.0991 -0.0214  0.3893
 9332TIP3    H127960   3.442   6.512   3.678 -0.2107  0.0111  0.3018
 9332TIP3    H227961   3.470   6.598   3.800  2.0230 -0.0713 -0.1235
 9333TIP3   OH227962   2.449   2.403   4.770  0.3400  0.2926  0.0075
 9333TIP3    H127963   2.474   2.462   4.840 -1.4116  2.2247 -0.8870
 9333TIP3    H227964   2.445   2.317   4.812 -1.3585  1.4621  2.5154
 9334TIP3   OH227965   3.496   5.367   2.406  0.1787 -0.2752 -0.0151
 9334TIP3    H127966   3.413   5.414   2.420 -1.3400 -2.3336 -1.3909
 9334TIP3    H227967   3.482   5.319   2.324  3.2786  0.3206 -0.9879
 9335TIP3   OH227968   3.591   6.611   2.630  0.2690  0.3450  0.2504
 9335TIP3    H127969   3.511   6.559   2.640 -0.2441  1.1242  0.2554
 9335TIP3    H227970   3.622   6.624   2.719  0.2264  0.3088  0.2707
 9336TIP3   OH227971   0.111   2.307   2.181  0.2620 -0.4499  0.6326
 9336TIP3    H127972   0.050   2.271   2.245 -0.0424  1.5970  1.5695
 9336TIP3    H227973   0.055   2.354   2.119  0.7494  0.0508  0.5626
 9337TIP3   OH227974   6.510   5.314   0.930 -0.8429 -0.1567 -0.2298
 9337TIP3    H127975   6.567   5.249   0.889  0.6318  0.4570  0.7487
 9337TIP3    H227976   6.527   5.305   1.024  0.0471  2.1432 -0.0944
 9338TIP3   OH227977   2.082   1.031   1.229  0.1679 -0.2604  0.3497
 9338TIP3    H127978   2.120   1.074   1.306  0.1714  0.3997 -0.0105
 9338TIP3    H227979   2.088   0.938   1.249  1.0185 -0.1378  0.7576
 9339TIP3   OH227980   3.819   4.900   5.492  0.3714 -0.5073  0.2621
 9339TIP3    H127981   3.772   4.863   5.417  1.5147  0.5289 -1.0129
 9339TIP3    H227982   3.848   4.824   5.542 -1.0658 -1.1982  0.0830
 9340TIP3   OH227983   2.162   0.699   4.707  0.0835 -0.2169 -0.5319
 9340TIP3    H127984   2.245   0.733   4.742  0.4705  0.9283 -2.3700
 9340TIP3    H227985   2.184   0.670   4.618 -1.4883  0.1368 -1.0710
 9341TIP3   OH227986   1.192   3.124   5.284 -0.2532 -0.3121 -0.0070
 9341TIP3    H127987   1.264   3.090   5.338  0.5827  0.5531 -0.5489
 9341TIP3    H227988   1.119   3.066   5.303  1.0675 -2.3389 -0.7787
 9342TIP3   OH227989   6.919   0.821   3.230 -0.3990 -1.0618  0.0552
 9342TIP3    H127990   6.869   0.901   3.246 -0.7321 -0.2917 -3.9812
 9342TIP3    H227991   7.010   0.846   3.249 -0.7110 -0.3946  0.7481
 9343TIP3   OH227992   4.618   1.865   5.503  0.5557 -0.2983 -0.5100
 9343TIP3    H127993   4.680   1.864   5.576 -0.5765 -0.9525  0.4695
 9343TIP3    H227994   4.649   1.795   5.445  1.6374  0.4295 -0.8427
 9344TIP3   OH227995   4.333   4.641   1.641  0.3352  0.5424 -0.3872
 9344TIP3    H127996   4.324   4.548   1.660 -0.4185  1.1001  2.4722
 9344TIP3    H227997   4.270   4.684   1.699  0.9884  2.8771 -1.2760
 9345TIP3   OH227998   0.628   5.883   0.977 -0.8631  0.2168 -0.1409
 9345TIP3    H127999   0.653   5.886   1.069 -0.7722  5.3320 -0.0103
 9345TIP3    H228000   0.703   5.919   0.930 -1.3415 -1.1763 -2.1136
 9346TIP3   OH228001   2.599   3.514   5.485  0.7747  0.4830 -0.2789
 9346TIP3    H128002   2.542   3.559   5.423  0.5542  3.1184  1.6415
 9346TIP3    H228003   2.540   3.455   5.533  0.0696  1.5688  0.2256
 9347TIP3   OH228004   6.593   3.376   4.954  0.2754 -0.8792 -0.2618
 9347TIP3    H128005   6.504   3.352   4.979 -0.1888  0.5210 -0.4847
 9347TIP3    H228006   6.611   3.325   4.875 -0.5786 -0.7091 -0.5739
 9348TIP3   OH228007   1.807   5.348   0.590  0.2299  0.4552  0.0714
 9348TIP3    H128008   1.770   5.272   0.635  0.7539 -1.1953 -2.1435
 9348TIP3    H228009   1.750   5.362   0.515 -1.2149  3.7737  1.5432
 9349TIP3   OH228010   4.787   1.920   4.616 -0.6194  0.1490 -0.3851
 9349TIP3    H128011   4.760   2.002   4.657  0.8151  0.1203  0.7183
 9349TIP3    H228012   4.872   1.900   4.657 -0.8198 -1.7549 -0.8076
 9350TIP3   OH228013   7.122   4.591   3.857  0.4488 -0.6096 -0.4565
 9350TIP3    H128014   7.133   4.602   3.951  1.5338 -0.6399 -0.5681
 9350TIP3    H228015   7.063   4.515   3.848  0.3923 -0.6457  0.1911
 9351TIP3   OH228016   6.573   0.060   5.118 -0.8618 -0.4906 -0.1582
 9351TIP3    H128017   6.601   0.147   5.086 -1.4847 -0.4263 -0.5385
 9351TIP3    H228018   6.540   0.077   5.206 -0.0932 -0.5005  0.1385
 9352TIP3   OH228019   3.107   1.296   4.459  0.4306 -0.0604  0.1091
 9352TIP3    H128020   3.146   1.269   4.542  1.3071  1.3800  0.1883
 9352TIP3    H228021   3.128   1.389   4.451 -1.1729  0.2566 -0.8912
 9353TIP3   OH228022   4.227   1.724   0.500  0.4555 -0.0625 -0.2391
 9353TIP3    H128023   4.200   1.721   0.408  0.9957 -0.2457 -0.3944
 9353TIP3    H228024   4.171   1.660   0.543 -0.4535  0.6968 -0.2584
 9354TIP3   OH228025   1.628   0.806   4.806  0.0859 -0.3730 -0.2591
 9354TIP3    H128026   1.636   0.750   4.883 -1.2324 -0.9399 -0.5101
 9354TIP3    H228027   1.637   0.747   4.731  1.0238  0.1213 -0.5494
 9355TIP3   OH228028   3.762   2.128   2.415 -0.3746  0.4282 -0.0360
 9355TIP3    H128029   3.688   2.127   2.476 -1.8514 -2.6520 -1.6335
 9355TIP3    H228030   3.836   2.099   2.468 -0.6497  1.8252  1.1854
 9356TIP3   OH228031   6.343   5.409   0.737 -0.5294  0.3012 -0.2545
 9356TIP3    H128032   6.261   5.413   0.787 -0.3915  0.0126  0.0015
 9356TIP3    H228033   6.410   5.396   0.804 -0.2734  0.5275 -0.4639
 9357TIP3   OH228034   0.845   6.259   2.760  0.3195 -0.2719 -0.1802
 9357TIP3    H128035   0.884   6.273   2.846  0.6595  1.1791 -0.5408
 9357TIP3    H228036   0.759   6.221   2.779  0.6776 -0.6482  0.7602
 9358TIP3   OH228037   5.096   5.287   2.516 -0.1939  0.5158  0.2709
 9358TIP3    H128038   5.068   5.288   2.424 -0.4828  0.0683  0.3562
 9358TIP3    H228039   5.078   5.376   2.547  0.9989  1.0383 -0.4289
 9359TIP3   OH228040   2.734   2.494   0.262 -0.2908 -0.2755 -0.7560
 9359TIP3    H128041   2.704   2.583   0.241 -0.4706 -0.3105 -0.6600
 9359TIP3    H228042   2.666   2.460   0.321 -0.1461 -0.4224 -0.6730
 9360TIP3   OH228043   4.945   0.228   1.252  1.0077 -0.3891 -0.3605
 9360TIP3    H128044   5.011   0.159   1.242  0.9050 -0.8266  1.6697
 9360TIP3    H228045   4.948   0.252   1.344 -0.2953  1.0068 -0.6364
 9361TIP3   OH228046   7.143   2.356   3.398 -0.5473 -0.4548 -0.3719
 9361TIP3    H128047   7.083   2.371   3.471 -0.3500  0.6051 -0.4147
 9361TIP3    H228048   7.159   2.443   3.361  0.0365 -0.8728 -1.1400
 9362TIP3   OH228049   1.115   0.065   2.814 -0.2497  0.1930  0.4388
 9362TIP3    H128050   1.150   0.111   2.890 -2.1542  0.0993  1.4280
 9362TIP3    H228051   1.081  -0.017   2.848 -0.9554  0.0573 -0.5300
 9363TIP3   OH228052   1.400   0.258   5.306  0.2356 -0.3558 -0.1078
 9363TIP3    H128053   1.311   0.292   5.304  0.2758 -0.2642 -0.3218
 9363TIP3    H228054   1.452   0.329   5.344  0.1342 -0.6039  0.5166
 9364TIP3   OH228055   4.850   6.077   1.262 -0.0923 -0.6010  0.4514
 9364TIP3    H128056   4.766   6.107   1.226  0.5020 -0.6367 -1.0262
 9364TIP3    H228057   4.902   6.157   1.270  0.2582 -0.7743 -0.0861
 9365TIP3   OH228058   4.406   0.915   0.880  0.3409 -0.1009  0.7149
 9365TIP3    H128059   4.364   0.858   0.816 -0.0662  0.4770  0.4622
 9365TIP3    H228060   4.489   0.939   0.840  0.0306  0.3629  0.3415
 9366TIP3   OH228061   2.374   0.093   2.166  0.4888  0.4238 -0.0796
 9366TIP3    H128062   2.299   0.109   2.223 -0.0657 -0.8894 -0.4030
 9366TIP3    H228063   2.401   0.180   2.137 -1.0524  0.9145 -0.1423
 9367TIP3   OH228064   0.788   5.317   0.409 -1.0551 -0.0779 -0.2565
 9367TIP3    H128065   0.810   5.264   0.486  2.0919 -1.2462 -1.7924
 9367TIP3    H228066   0.699   5.347   0.426  0.0205  1.2545  4.6445
 9368TIP3   OH228067   0.017   3.062   5.825 -0.3062  0.4001 -0.4814
 9368TIP3    H128068   0.042   3.113   5.748 -0.0732 -0.3715 -0.9299
 9368TIP3    H228069   0.082   2.992   5.829 -0.5749  0.1782  0.1715
 9369TIP3   OH228070   3.017   3.944   5.053 -0.4954 -0.2186  0.1056
 9369TIP3    H128071   3.072   3.876   5.091 -1.8272 -0.7858  1.0799
 9369TIP3    H228072   3.000   3.915   4.964 -0.5450 -0.8485  0.3214
 9370TIP3   OH228073   1.071   0.563   3.722 -0.0245  0.2379 -0.3275
 9370TIP3    H128074   1.033   0.645   3.689  0.8482  0.6486 -0.3588
 9370TIP3    H228075   1.040   0.557   3.812 -0.8035  0.1465 -0.5954
 9371TIP3   OH228076   1.128   4.401   4.118 -0.0406  0.0384 -0.2120
 9371TIP3    H128077   1.104   4.366   4.203  1.4722 -0.4194  0.0545
 9371TIP3    H228078   1.099   4.492   4.120  0.2422  0.1128  0.9009
 9372TIP3   OH228079   1.369   5.306   4.244 -0.5120  0.1451 -0.2689
 9372TIP3    H128080   1.431   5.334   4.311  0.0418  3.7093 -2.0556
 9372TIP3    H228081   1.422   5.256   4.181 -0.0248  0.8429 -0.4183
 9373TIP3   OH228082   2.804   0.147   3.319  0.4000  0.7722  0.1369
 9373TIP3    H128083   2.716   0.111   3.327  0.1762  1.4172  0.6288
 9373TIP3    H228084   2.836   0.114   3.235 -0.8313  1.6525 -0.7030
 9374TIP3   OH228085   3.185   3.855   4.401  0.6497  0.7277  0.7995
 9374TIP3    H128086   3.165   3.886   4.313 -0.4097 -1.3588  0.2591
 9374TIP3    H228087   3.112   3.885   4.455  0.0281 -0.1038  0.4397
 9375TIP3   OH228088   2.798   3.930   5.750  0.2655 -0.4903  0.1154
 9375TIP3    H128089   2.846   4.013   5.748 -0.4683 -0.0153  1.3548
 9375TIP3    H228090   2.707   3.955   5.733  0.0706 -1.0680  0.2945
 9376TIP3   OH228091   5.267   0.958   1.367  0.2041  0.4186  0.3981
 9376TIP3    H128092   5.240   1.011   1.292 -0.0563 -0.9503 -0.4969
 9376TIP3    H228093   5.355   0.990   1.388  0.6517  0.2349 -1.0586
 9377TIP3   OH228094   4.954   4.870   1.046  0.1334  0.4636  0.2073
 9377TIP3    H128095   4.998   4.796   1.089 -0.4113  0.8772  1.5526
 9377TIP3    H228096   4.868   4.835   1.021  0.4212  0.2443 -0.4901
 9378TIP3   OH228097   4.425   4.852   2.782 -0.0608 -0.6990 -0.3155
 9378TIP3    H128098   4.453   4.937   2.747 -0.4637 -1.2026 -1.9605
 9378TIP3    H228099   4.481   4.838   2.859 -0.3797  1.2940  0.3302
 9379TIP3   OH228100   7.035   6.565   1.681 -0.8406 -0.1660 -0.6983
 9379TIP3    H128101   6.946   6.533   1.666 -0.4895 -2.9473  2.1640
 9379TIP3    H228102   7.092   6.506   1.632 -0.4439 -0.4413  0.0710
 9380TIP3   OH228103   1.237   2.531   1.793  0.6862 -0.0077 -0.4466
 9380TIP3    H128104   1.289   2.459   1.826  0.3652 -0.2857 -0.5428
 9380TIP3    H228105   1.160   2.533   1.850  0.4517 -0.0642 -0.7581
 9381TIP3   OH228106   2.894   0.001   0.186  0.7190 -0.1786 -0.3062
 9381TIP3    H128107   2.886   0.002   0.091  1.4978 -0.4966 -0.3805
 9381TIP3    H228108   2.907   0.093   0.210 -1.0250  0.1108 -0.3520
 9382TIP3   OH228109   2.652   4.445   2.604  0.2896 -0.5982  0.2709
 9382TIP3    H128110   2.608   4.392   2.538  1.0229 -0.8589 -0.0089
 9382TIP3    H228111   2.625   4.535   2.584 -0.7665 -0.8206  0.6031
 9383TIP3   OH228112   4.309   3.865   2.139  0.3362  0.5842 -0.0743
 9383TIP3    H128113   4.219   3.856   2.170  0.1907  0.1106 -0.6224
 9383TIP3    H228114   4.345   3.776   2.144  0.8102  0.7862  0.2371
 9384TIP3   OH228115   6.776   3.461   4.178 -0.3643  0.3445 -0.4095
 9384TIP3    H128116   6.796   3.547   4.216 -1.4532  0.3751  0.1288
 9384TIP3    H228117   6.861   3.426   4.153  0.0945  1.6632 -0.8146
 9385TIP3   OH228118   6.309   3.608   4.735  0.4437 -0.4886 -0.5408
 9385TIP3    H128119   6.369   3.660   4.788  0.5698 -0.7941 -0.3834
 9385TIP3    H228120   6.246   3.572   4.798 -0.3684  0.4366 -0.7836
 9386TIP3   OH228121   6.470  -0.007   0.812 -0.3001  0.1011 -0.0074
 9386TIP3    H128122   6.558   0.029   0.806 -0.6585  0.9216 -0.4108
 9386TIP3    H228123   6.415   0.067   0.838 -1.0879 -0.0711 -1.1216
 9387TIP3   OH228124   4.632   0.110   1.992 -0.1452  0.8650 -0.3272
 9387TIP3    H128125   4.590   0.106   1.906  0.0391 -0.3109 -0.3657
 9387TIP3    H228126   4.582   0.050   2.046  0.3025  0.9088  0.1406
 9388TIP3   OH228127   0.919   4.479   1.164  0.4075  0.0045 -0.4536
 9388TIP3    H128128   0.895   4.561   1.207  1.0717 -0.1018  0.1321
 9388TIP3    H228129   0.927   4.416   1.236  0.2964 -0.4780 -0.8600
 9389TIP3   OH228130   1.634   3.985   3.663 -0.3305  0.0551  0.1326
 9389TIP3    H128131   1.542   4.004   3.643  0.0888  0.6421 -1.4147
 9389TIP3    H228132   1.681   4.062   3.632  0.7536 -0.5248  0.2975
 9390TIP3   OH228133   3.582   4.421   2.949 -0.2933  0.3229 -0.2229
 9390TIP3    H128134   3.521   4.418   2.875  0.2971  0.7619 -0.7439
 9390TIP3    H228135   3.604   4.514   2.958 -0.0111  0.2143  0.2064
 9391TIP3   OH228136   2.889   5.304   5.700 -0.4531  0.2658  0.0179
 9391TIP3    H128137   2.979   5.279   5.681  0.2154  1.8809  0.8911
 9391TIP3    H228138   2.841   5.281   5.620  0.6694 -0.8304 -0.3753
 9392TIP3   OH228139   5.027   0.624   3.761 -0.5900 -0.0693  0.0039
 9392TIP3    H128140   4.946   0.638   3.810 -1.5121 -2.4474 -0.6550
 9392TIP3    H228141   5.052   0.534   3.783  1.4846  0.3701 -0.3933
 9393TIP3   OH228142   2.361   6.753   3.201 -0.5477 -0.6172  0.3976
 9393TIP3    H128143   2.351   6.659   3.190  0.9071 -0.8165  0.5940
 9393TIP3    H228144   2.389   6.784   3.115 -0.7925 -0.4087  0.3943
 9394TIP3   OH228145   5.044   2.451   4.141 -0.0366  0.6227  0.1708
 9394TIP3    H128146   5.095   2.532   4.139 -1.0784  1.2974 -0.0020
 9394TIP3    H228147   5.023   2.434   4.049  1.6200 -0.8165  0.0078
 9395TIP3   OH228148   1.676   1.133   1.557  0.4618  0.5692  0.1829
 9395TIP3    H128149   1.721   1.134   1.472 -1.5390  0.0631 -0.9354
 9395TIP3    H228150   1.728   1.073   1.610  1.0274 -0.1301 -1.1056
 9396TIP3   OH228151   2.120   3.193   5.840  0.0341 -0.1747 -0.0993
 9396TIP3    H128152   2.120   3.231   5.753 -0.2249 -1.9543 -0.9206
 9396TIP3    H228153   2.060   3.118   5.834  0.7528 -0.9121  1.3147
 9397TIP3   OH228154   1.264   4.954   2.291 -0.9083  0.2183  0.1833
 9397TIP3    H128155   1.293   4.873   2.333 -0.9192  0.7110  1.1758
 9397TIP3    H228156   1.341   5.010   2.292 -1.1981  0.6140  0.5033
 9398TIP3   OH228157   3.953   0.968   5.282  0.5814  0.4552 -0.4300
 9398TIP3    H128158   3.934   0.973   5.376 -1.7708  2.4168 -0.9186
 9398TIP3    H228159   4.043   1.000   5.274  1.0588 -0.3588  1.1713
 9399TIP3   OH228160   7.071   3.495   2.052  0.5860 -0.0907 -0.1462
 9399TIP3    H128161   6.982   3.461   2.060 -0.3948  2.3010 -0.0384
 9399TIP3    H228162   7.082   3.513   1.959  0.6563  0.3565 -0.0530
 9400TIP3   OH228163   3.619   3.812   3.552  0.1051 -0.3363  1.0967
 9400TIP3    H128164   3.640   3.801   3.645  0.3764 -0.7408  0.9931
 9400TIP3    H228165   3.629   3.724   3.515 -1.8300 -0.5817  1.0457
 9401TIP3   OH228166   5.475   6.298   1.778 -0.2043  0.3617  0.6284
 9401TIP3    H128167   5.453   6.258   1.861  0.1278  0.3101  0.6925
 9401TIP3    H228168   5.469   6.392   1.794 -1.7190  0.3432  0.2785
 9402TIP3   OH228169   2.439   2.298   5.221  0.3360  0.1742 -0.0515
 9402TIP3    H128170   2.453   2.387   5.188  1.3666  0.3280  0.7518
 9402TIP3    H228171   2.356   2.303   5.268 -0.5781  0.2307 -1.5931
 9403TIP3   OH228172   3.317   1.987   2.574  0.3905  0.4413  0.4678
 9403TIP3    H128173   3.266   2.018   2.499  1.5140  2.1407  0.3381
 9403TIP3    H228174   3.354   1.904   2.545 -1.1087 -0.1148  0.0546
 9404TIP3   OH228175   5.710   5.324   4.149  0.5995 -0.5941  0.0476
 9404TIP3    H128176   5.718   5.314   4.244 -0.3535  1.2941  0.3679
 9404TIP3    H228177   5.625   5.366   4.135  0.3343 -1.5985 -1.7226
 9405TIP3   OH228178   4.453   5.870   3.935 -0.8113 -0.4105 -0.2881
 9405TIP3    H128179   4.546   5.850   3.932 -1.2575 -2.9666  0.6691
 9405TIP3    H228180   4.444   5.933   4.007 -0.0468 -1.7384  1.0060
 9406TIP3   OH228181   3.524   4.094   0.971 -0.0584 -0.3271  0.4915
 9406TIP3    H128182   3.475   4.152   0.913 -0.5972 -2.0498 -0.8497
 9406TIP3    H228183   3.583   4.046   0.913  3.2674  1.5889  2.0181
 9407TIP3   OH228184   2.185   6.017   3.900  0.5471 -0.0944  0.2563
 9407TIP3    H128185   2.196   6.110   3.922 -1.0188  0.0626  0.4829
 9407TIP3    H228186   2.121   6.016   3.829 -1.2844 -1.0845  1.8194
 9408TIP3   OH228187   6.840   5.629   4.896 -0.3427 -0.4866 -0.4293
 9408TIP3    H128188   6.825   5.715   4.936 -0.6637 -0.4128 -0.7102
 9408TIP3    H228189   6.881   5.649   4.812  2.8238 -0.7060  0.9129
 9409TIP3   OH228190   1.582   1.216   2.666 -0.0537 -0.1792 -0.2040
 9409TIP3    H128191   1.634   1.287   2.706  0.6829 -0.5804 -0.4284
 9409TIP3    H228192   1.623   1.201   2.581  0.5626 -1.6586  0.3037
 9410TIP3   OH228193   1.329   2.091   0.588  0.0308 -0.2703  0.7360
 9410TIP3    H128194   1.316   2.172   0.637 -0.5381 -0.3468  0.7121
 9410TIP3    H228195   1.246   2.076   0.543  0.3137 -0.5750  0.3029
 9411TIP3   OH228196   4.366   2.458   5.222  0.4915  0.0421  0.2170
 9411TIP3    H128197   4.398   2.382   5.173 -0.0163 -0.0974  0.1009
 9411TIP3    H228198   4.272   2.459   5.207  0.4465  0.4931  0.5038
 9412TIP3   OH228199   2.201   5.659   4.458 -0.0704 -0.4835 -0.2234
 9412TIP3    H128200   2.117   5.633   4.496  1.0428  0.7434  3.5681
 9412TIP3    H228201   2.255   5.580   4.462 -0.4848 -0.7981 -0.8718
 9413TIP3   OH228202   1.812   0.837   0.462 -0.0918  0.2575  0.0745
 9413TIP3    H128203   1.824   0.910   0.523  1.1264  0.2036 -0.0690
 9413TIP3    H228204   1.779   0.878   0.382  0.4500  0.6408  0.0406
 9414TIP3   OH228205   3.459   2.036   0.130  1.0841 -0.1857  0.0066
 9414TIP3    H128206   3.537   2.091   0.123  2.0160 -1.2874  1.1617
 9414TIP3    H228207   3.477   1.979   0.205 -0.2767 -1.3627 -0.5156
 9415TIP3   OH228208   5.706   1.932   0.346  0.7951  0.8363 -0.4727
 9415TIP3    H128209   5.687   1.911   0.437 -2.1261  1.3342 -0.8723
 9415TIP3    H228210   5.637   1.890   0.296  0.9340  2.5357 -2.2437
 9416TIP3   OH228211   5.173   6.276   1.106 -0.0302  0.0632 -0.1434
 9416TIP3    H128212   5.249   6.250   1.053  1.0570  0.1748  1.3036
 9416TIP3    H228213   5.197   6.360   1.143 -1.0564  0.3040  0.0025
 9417TIP3   OH228214   6.580   3.752   5.239 -0.3120  0.0567 -0.6963
 9417TIP3    H128215   6.495   3.713   5.262 -0.2392  0.7177  0.8345
 9417TIP3    H228216   6.586   3.741   5.144 -1.5948 -1.0188 -0.6978
 9418TIP3   OH228217   6.665   5.558   2.644  0.2169  0.1638  0.1318
 9418TIP3    H128218   6.711   5.485   2.686  0.3556 -0.7545 -1.5141
 9418TIP3    H228219   6.696   5.556   2.554 -0.8489  1.3955 -0.2865
 9419TIP3   OH228220   3.319   5.480   2.696 -0.0848  0.5555  0.2481
 9419TIP3    H128221   3.395   5.535   2.680  0.2469 -0.1290 -0.6145
 9419TIP3    H228222   3.252   5.513   2.636 -0.2936  0.8142  0.6223
 9420TIP3   OH228223   5.254   1.399   1.110 -0.5411 -0.5949  0.0730
 9420TIP3    H128224   5.202   1.448   1.046  1.4888  0.5909 -0.7723
 9420TIP3    H228225   5.273   1.463   1.179 -1.7199 -1.5408  1.3231
 9421TIP3   OH228226   0.291   4.509   0.247 -0.0329  0.2543 -0.6661
 9421TIP3    H128227   0.200   4.540   0.240  0.1737  0.5938 -2.3420
 9421TIP3    H228228   0.316   4.528   0.337 -1.2817  1.1450 -0.4765
 9422TIP3   OH228229   1.446   1.937   4.731 -0.0515 -0.0309  0.2305
 9422TIP3    H128230   1.451   1.842   4.745 -1.9500 -0.0281  1.2998
 9422TIP3    H228231   1.354   1.958   4.743  0.1762  1.8392 -0.9146
 9423TIP3   OH228232   4.388   2.335   2.655  0.0318  0.7788 -0.5094
 9423TIP3    H128233   4.295   2.354   2.644 -0.7983 -2.4033 -0.0776
 9423TIP3    H228234   4.433   2.405   2.608 -2.5560  2.5091 -0.5739
 9424TIP3   OH228235   3.190   2.129   0.035 -0.6490  0.2697  0.0900
 9424TIP3    H128236   3.144   2.211   0.055  0.7708  0.8677  1.0466
 9424TIP3    H228237   3.245   2.113   0.111  0.7075 -0.4202 -0.9967
 9425TIP3   OH228238   3.920   0.878   3.085 -0.1368 -0.2479  0.0361
 9425TIP3    H128239   3.947   0.968   3.069 -0.6541 -0.0140  0.4687
 9425TIP3    H228240   3.913   0.871   3.180 -1.4857 -0.3317 -0.0555
 9426TIP3   OH228241   3.267   6.191   1.711 -0.2854  0.1980  0.4717
 9426TIP3    H128242   3.329   6.143   1.767  0.0322 -2.9322 -2.2191
 9426TIP3    H228243   3.312   6.273   1.690  2.2514 -1.1888  0.0311
 9427TIP3   OH228244   2.230   3.365   0.314  0.0294  0.9170 -0.0687
 9427TIP3    H128245   2.156   3.403   0.265  1.2565  2.2061 -0.9884
 9427TIP3    H228246   2.202   3.369   0.405 -2.0068 -0.8402 -0.5224
 9428TIP3   OH228247   5.900   2.695   0.444  0.1706  0.2526 -0.5028
 9428TIP3    H128248   5.814   2.739   0.449 -0.0855 -0.1758 -0.9853
 9428TIP3    H228249   5.960   2.764   0.417  0.5241  1.2249  2.4405
 9429TIP3   OH228250   5.512   4.814   2.179  0.0189  0.0265 -0.1399
 9429TIP3    H128251   5.550   4.731   2.208  0.3068 -0.4950 -1.9210
 9429TIP3    H228252   5.453   4.839   2.251  1.5405 -0.5899  1.4000
 9430TIP3   OH228253   4.053   5.698   3.597  0.1707 -0.7222  0.0234
 9430TIP3    H128254   4.035   5.737   3.682 -0.9350 -1.7142  0.2757
 9430TIP3    H228255   4.117   5.756   3.557 -1.9765  1.8225  0.0048
 9431TIP3   OH228256   3.869   5.589   1.120  0.1645  0.3933 -0.3431
 9431TIP3    H128257   3.846   5.508   1.166 -0.2329  1.1668  0.8567
 9431TIP3    H228258   3.787   5.619   1.080 -0.1839  1.2971  0.9909
 9432TIP3   OH228259   3.366   5.545   4.210 -0.0451 -0.2938 -0.4214
 9432TIP3    H128260   3.391   5.460   4.248  0.4100  0.3118  0.6813
 9432TIP3    H228261   3.442   5.601   4.226 -1.3610  1.0969  1.3840
 9433TIP3   OH228262   6.989   5.484   4.365  0.1021 -0.0889 -0.0304
 9433TIP3    H128263   7.027   5.406   4.405  2.8115  1.4087  0.4833
 9433TIP3    H228264   6.945   5.529   4.437 -0.0707 -0.2996 -0.0007
 9434TIP3   OH228265   3.483   0.529   1.736  0.4318  0.2422 -0.1547
 9434TIP3    H128266   3.482   0.459   1.802 -1.9212  0.5763  0.2250
 9434TIP3    H228267   3.565   0.576   1.754  0.1702 -0.0436  2.1440
 9435TIP3   OH228268   3.193   6.055   5.516 -0.0496  0.3061  0.0786
 9435TIP3    H128269   3.261   6.015   5.571 -1.1564 -1.6274  0.1141
 9435TIP3    H228270   3.115   6.004   5.534 -0.9465  0.9482 -1.7784
 9436TIP3   OH228271   6.252   2.781   1.303  0.5463  0.0032  0.1329
 9436TIP3    H128272   6.160   2.755   1.297  1.1602 -2.2315 -0.5425
 9436TIP3    H228273   6.249   2.877   1.311 -1.7994  0.0430 -0.3700
 9437TIP3   OH228274   3.705   1.983   3.515  0.2522  0.2485 -0.0882
 9437TIP3    H128275   3.699   2.037   3.594  2.2427 -1.1654  1.1269
 9437TIP3    H228276   3.631   1.923   3.521  0.1795  0.3908  0.5175
 9438TIP3   OH228277   3.005   0.408   3.291  0.1627 -0.3614 -0.1716
 9438TIP3    H128278   3.089   0.362   3.282 -0.1977 -1.0167 -0.1816
 9438TIP3    H228279   2.951   0.373   3.221  0.2556  0.9271 -0.9300
 9439TIP3   OH228280   4.750   6.676   5.352  0.5851  0.1104  0.5145
 9439TIP3    H128281   4.812   6.606   5.372 -0.5746 -1.2595 -0.4830
 9439TIP3    H228282   4.736   6.669   5.257 -0.8166  0.6065  0.6663
 9440TIP3   OH228283   6.171   3.312   1.970  0.0364  0.2144 -0.2125
 9440TIP3    H128284   6.183   3.268   2.053 -0.0338  0.9362  0.1925
 9440TIP3    H228285   6.102   3.262   1.926 -0.0450 -0.0717  0.2340
 9441TIP3   OH228286   4.028   6.295   4.474  0.4242  0.4554  0.7627
 9441TIP3    H128287   4.023   6.239   4.397 -1.3616 -0.0417  1.1962
 9441TIP3    H228288   3.992   6.379   4.446  0.7533  0.6055  0.7825
 9442TIP3   OH228289   1.508   5.942   1.273  0.0528 -0.0258  0.1235
 9442TIP3    H128290   1.562   5.864   1.283 -2.0099 -1.4956  0.2516
 9442TIP3    H228291   1.452   5.923   1.198 -1.5705  0.6402  1.1125
 9443TIP3   OH228292   1.806   0.791   1.377 -0.1693  0.0362 -0.0290
 9443TIP3    H128293   1.842   0.732   1.312  0.8336  0.8324 -0.2179
 9443TIP3    H228294   1.868   0.787   1.450 -1.0278 -0.4831  0.6977
 9444TIP3   OH228295   2.584   4.959   2.750  1.0953  0.4113  0.5614
 9444TIP3    H128296   2.678   4.976   2.753  1.0490  0.7428  0.2021
 9444TIP3    H228297   2.547   5.014   2.819  1.1601  0.3169  0.6712
 9445TIP3   OH228298   5.490   4.001   2.774 -0.1108  0.1628 -0.9718
 9445TIP3    H128299   5.474   3.927   2.833  0.3346  1.4332  0.8213
 9445TIP3    H228300   5.514   3.960   2.691  1.5247 -1.7471  0.3354
 9446TIP3   OH228301   2.997   4.187   4.203  0.0397  0.6353 -0.0015
 9446TIP3    H128302   2.913   4.234   4.201 -0.3969 -0.0783  0.7109
 9446TIP3    H228303   2.973   4.096   4.182  0.2906 -0.0132  2.2441
 9447TIP3   OH228304   2.113   5.344   4.185 -1.0134  0.6446 -0.1136
 9447TIP3    H128305   2.171   5.399   4.133 -0.1889  0.3043  0.4186
 9447TIP3    H228306   2.066   5.404   4.241  1.1347  0.7539  1.7177
 9448TIP3   OH228307   4.019   3.757   4.815 -0.2067  0.0325 -0.1393
 9448TIP3    H128308   3.994   3.665   4.807  0.8174 -0.2801  0.1225
 9448TIP3    H228309   4.086   3.770   4.748 -0.5091  0.6476 -0.3265
 9449TIP3   OH228310   3.572   1.771   1.351  0.1530 -0.0833  0.4559
 9449TIP3    H128311   3.651   1.768   1.297 -0.3451  0.3166 -0.2974
 9449TIP3    H228312   3.541   1.681   1.353  0.3346 -0.1489  0.3227
 9450TIP3   OH228313   0.332   2.392   1.878  0.4587  0.2166  0.1340
 9450TIP3    H128314   0.422   2.402   1.846 -0.1934  2.8307 -1.1041
 9450TIP3    H228315   0.277   2.418   1.805 -1.6411 -4.7204 -0.4877
 9451TIP3   OH228316   6.553   4.074   1.458  0.1810 -0.4026  0.3091
 9451TIP3    H128317   6.547   4.162   1.420  0.7689 -0.4778  0.0289
 9451TIP3    H228318   6.626   4.033   1.412 -0.5410 -1.2923 -0.0771
 9452TIP3   OH228319   7.019   4.363   5.818 -0.3419  0.3406  0.0206
 9452TIP3    H128320   7.052   4.444   5.858  0.8534 -0.8868  1.6662
 9452TIP3    H228321   7.098   4.313   5.798 -1.1122 -1.2539  0.8673
 9453TIP3   OH228322   0.473   1.140   1.975  0.2452 -0.3819 -0.4159
 9453TIP3    H128323   0.514   1.055   1.995 -1.3084 -1.2341 -0.7224
 9453TIP3    H228324   0.429   1.164   2.056 -0.2582 -0.4309 -0.6716
 9454TIP3   OH228325   5.940   6.666   4.804  0.0618 -0.3195  0.6692
 9454TIP3    H128326   5.940   6.670   4.900  1.1791  2.2454  0.6497
 9454TIP3    H228327   5.905   6.751   4.777 -0.6146 -1.1558 -1.2296
 9455TIP3   OH228328   0.934   1.761   1.714  0.9553  0.2364 -0.2748
 9455TIP3    H128329   0.937   1.855   1.698  0.8680  0.0649 -1.4091
 9455TIP3    H228330   0.982   1.723   1.640 -1.0474 -0.7218 -1.1605
 9456TIP3   OH228331   6.040   2.840   3.960  0.8099  0.3707 -0.3172
 9456TIP3    H128332   6.101   2.767   3.974  0.2346 -0.1036 -0.2619
 9456TIP3    H228333   6.023   2.874   4.048 -0.3483 -0.6049 -0.1441
 9457TIP3   OH228334   0.768   4.249   0.618 -0.0434 -0.2267  0.2452
 9457TIP3    H128335   0.839   4.190   0.595 -2.0094 -2.1264 -1.3644
 9457TIP3    H228336   0.706   4.194   0.667 -1.8842  0.4674 -1.1851
 9458TIP3   OH228337   6.791   0.386   0.596  0.2164  0.0983  0.8429
 9458TIP3    H128338   6.818   0.477   0.612  0.6263  0.2926 -0.7548
 9458TIP3    H228339   6.710   0.376   0.645 -0.2023  1.5541  0.4958
 9459TIP3   OH228340   4.904   1.920   2.520 -0.1014  0.3710  0.0035
 9459TIP3    H128341   4.871   1.948   2.605  0.5967  0.4930  0.2370
 9459TIP3    H228342   4.992   1.956   2.515  0.3077 -0.6390 -0.2742
 9460TIP3   OH228343   5.394   4.714   4.408 -0.2222  0.1848  0.0194
 9460TIP3    H128344   5.464   4.661   4.446 -0.6967 -0.1497  0.4344
 9460TIP3    H228345   5.411   4.803   4.439  1.2774  0.5372 -1.6529
 9461TIP3   OH228346   4.689   1.370   4.684  0.1729 -0.5253  0.1067
 9461TIP3    H128347   4.721   1.454   4.650 -0.4353 -0.8140 -1.2233
 9461TIP3    H228348   4.603   1.359   4.644  0.6813 -2.2753 -0.5783
 9462TIP3   OH228349   0.500   3.771   4.633 -1.2445  0.4640 -0.1797
 9462TIP3    H128350   0.474   3.685   4.601  1.1144  0.0602 -1.1821
 9462TIP3    H228351   0.546   3.752   4.715 -2.7466  1.0311  0.8337
 9463TIP3   OH228352   6.277   4.625   4.981  0.2451  0.0773 -0.1519
 9463TIP3    H128353   6.312   4.536   4.987  0.8217  0.3789  2.0826
 9463TIP3    H228354   6.182   4.613   4.975 -0.2078 -0.8635  4.6149
 9464TIP3   OH228355   1.613   2.295   0.616  0.1163  0.7541  0.3550
 9464TIP3    H128356   1.633   2.201   0.611  1.1811  0.9991 -0.5198
 9464TIP3    H228357   1.570   2.306   0.701 -1.1154 -0.7021 -0.0366
 9465TIP3   OH228358   1.625   6.057   2.415  0.1860 -0.0807 -0.5064
 9465TIP3    H128359   1.616   5.991   2.346  0.2206 -0.7739  0.1357
 9465TIP3    H228360   1.550   6.042   2.472  1.4492 -1.1850  0.9679
 9466TIP3   OH228361   0.242   1.829   2.552 -0.2581  0.1971  0.4801
 9466TIP3    H128362   0.271   1.814   2.642 -0.9919  2.7499  1.2273
 9466TIP3    H228363   0.302   1.895   2.518 -0.3259 -0.3395 -0.7400
 9467TIP3   OH228364   7.157   3.520   5.060  0.4564 -0.3056  0.1669
 9467TIP3    H128365   7.180   3.521   4.967  1.1885  1.5956  0.3313
 9467TIP3    H228366   7.141   3.428   5.080 -0.3051 -0.6836 -1.9744
 9468TIP3   OH228367   1.274   2.246   1.030 -0.0867  0.2990 -0.2401
 9468TIP3    H128368   1.338   2.175   1.023 -0.9608 -0.4424 -0.8169
 9468TIP3    H228369   1.270   2.284   0.942  0.5868  1.2811  0.1246
 9469TIP3   OH228370   1.485   1.950   2.639 -0.2088  0.5675 -0.4264
 9469TIP3    H128371   1.572   1.989   2.644  0.4974 -0.5529 -2.8179
 9469TIP3    H228372   1.442   1.980   2.720  2.3271  1.1773  0.8267
 9470TIP3   OH228373   0.163   1.367   0.579 -0.2265 -0.8619  0.2443
 9470TIP3    H128374   0.122   1.332   0.500 -0.0752  0.1879 -0.3266
 9470TIP3    H228375   0.121   1.320   0.651 -3.1602  0.7864 -0.2383
 9471TIP3   OH228376   0.652   4.118  -0.025 -0.4127  0.8542  0.1956
 9471TIP3    H128377   0.579   4.179  -0.012 -0.2041  1.1608 -0.0743
 9471TIP3    H228378   0.697   4.116   0.060  0.1392  1.8090 -0.0613
 9472TIP3   OH228379   0.893   4.159   4.248 -0.0839 -0.3245 -0.1452
 9472TIP3    H128380   0.900   4.066   4.267 -1.6147 -0.7192 -1.2867
 9472TIP3    H228381   0.914   4.166   4.155 -0.8401  0.3235 -0.2849
 9473TIP3   OH228382   2.761   4.952   3.915  0.2932 -0.6939 -0.2422
 9473TIP3    H128383   2.795   4.895   3.846  2.3086 -0.0136  0.1127
 9473TIP3    H228384   2.839   4.978   3.965 -0.9838 -0.4663  1.7690
 9474TIP3   OH228385   6.317   4.397   5.233 -0.1341  0.7339  0.2073
 9474TIP3    H128386   6.361   4.312   5.245  0.8590  1.4011  1.5845
 9474TIP3    H228387   6.224   4.377   5.240  0.0223 -0.4053 -0.6311
 9475TIP3   OH228388   6.234   1.309   3.479  0.0241 -0.2778  0.7582
 9475TIP3    H128389   6.188   1.302   3.396  0.0574 -0.0453  0.7210
 9475TIP3    H228390   6.310   1.363   3.460 -0.2934  0.2920  1.0749
 9476TIP3   OH228391   0.454   1.006   1.600  0.7710 -0.0620 -0.3064
 9476TIP3    H128392   0.544   1.005   1.631  0.5394 -1.3922  0.3900
 9476TIP3    H228393   0.435   0.915   1.578 -0.4401  0.1837 -0.3379
 9477TIP3   OH228394   2.170   5.509   3.795 -0.2116 -0.2085  0.5685
 9477TIP3    H128395   2.212   5.548   3.871  1.0107 -0.1322 -0.1225
 9477TIP3    H228396   2.076   5.520   3.811  0.0389  2.3792  0.7554
 9478TIP3   OH228397   1.421   3.689   3.952  0.3767 -0.0622 -0.1525
 9478TIP3    H128398   1.396   3.619   3.892  1.6764  1.0440 -2.0527
 9478TIP3    H228399   1.491   3.737   3.907 -0.8934  2.8806  0.7470
 9479TIP3   OH228400   1.500   6.192   5.404 -0.2128 -0.1041  0.1243
 9479TIP3    H128401   1.583   6.143   5.405 -0.9074 -1.2946  0.4904
 9479TIP3    H228402   1.472   6.187   5.313  1.3467  2.5061 -0.6156
 9480TIP3   OH228403   2.986   6.250   1.625  0.1232  0.0617  0.1212
 9480TIP3    H128404   3.068   6.206   1.599  0.5044 -0.6348  2.2758
 9480TIP3    H228405   2.918   6.202   1.578  0.7193 -1.4514  0.7325
 9481TIP3   OH228406   1.368   4.590   2.569 -0.3008 -0.3858  0.3277
 9481TIP3    H128407   1.365   4.602   2.474  0.8126  0.8614  0.4160
 9481TIP3    H228408   1.428   4.659   2.599 -2.2708  0.6517  2.1452
 9482TIP3   OH228409   1.261   5.320   2.029  0.1506  0.6659 -0.1234
 9482TIP3    H128410   1.214   5.404   2.030 -1.0023  0.1956 -3.2177
 9482TIP3    H228411   1.294   5.312   1.939 -0.5987 -2.5941 -0.2344
 9483TIP3   OH228412   1.847   5.193   1.099  0.4864 -0.0603 -0.0284
 9483TIP3    H128413   1.823   5.271   1.049 -1.3331 -0.6904 -0.2387
 9483TIP3    H228414   1.845   5.220   1.190 -1.4877 -0.1318 -0.0109
 9484TIP3   OH228415   2.335   0.898   1.607 -0.1515  0.1242  0.1392
 9484TIP3    H128416   2.412   0.863   1.652 -1.3637 -0.1035  2.1346
 9484TIP3    H228417   2.372   0.952   1.537  1.7910 -1.3967 -0.1132
 9485TIP3   OH228418   6.900   6.042   1.056  0.5685 -0.1253 -0.3282
 9485TIP3    H128419   6.862   5.965   1.099  0.5295 -0.1831 -0.4661
 9485TIP3    H228420   6.968   6.007   0.999  1.1880  0.0152  0.2970
 9486TIP3   OH228421   6.220   1.705   5.039 -0.5996  0.2045 -0.1313
 9486TIP3    H128422   6.241   1.623   5.082 -1.8992 -0.8220 -1.3463
 9486TIP3    H228423   6.286   1.714   4.970  0.1656  0.7314  0.6541
 9487TIP3   OH228424   6.965   6.166   4.462 -0.0168  0.4632  0.2079
 9487TIP3    H128425   7.002   6.081   4.486 -1.3997  0.0368  0.9419
 9487TIP3    H228426   6.991   6.225   4.534 -1.4988 -0.0642  1.2269
 9488TIP3   OH228427   0.561   4.570   1.414 -0.0605 -0.2109 -0.5689
 9488TIP3    H128428   0.523   4.487   1.386  2.0296 -0.6263 -2.3837
 9488TIP3    H228429   0.538   4.576   1.507  0.0334 -2.9914 -0.2796
 9489TIP3   OH228430   0.359   4.393   1.922  0.5055 -0.4013 -0.0184
 9489TIP3    H128431   0.336   4.485   1.932  1.6059 -0.2758  2.0786
 9489TIP3    H228432   0.395   4.386   1.834 -0.7579  0.8777 -0.6738
 9490TIP3   OH228433   2.450   1.503   1.465  0.4182  0.6393  0.0028
 9490TIP3    H128434   2.381   1.515   1.400  0.7918 -0.7539 -0.7051
 9490TIP3    H228435   2.518   1.452   1.420  0.9511  0.1301  1.2995
 9491TIP3   OH228436   1.762   3.619   0.050 -0.1091  0.1018  0.1727
 9491TIP3    H128437   1.718   3.535   0.063  0.0627  0.0337  0.3077
 9491TIP3    H228438   1.717   3.679   0.109 -0.0743  0.0516  0.2488
 9492TIP3   OH228439   4.791   0.844   1.607  0.7087 -0.5960  0.3382
 9492TIP3    H128440   4.725   0.782   1.575  0.0808  0.7595 -1.1638
 9492TIP3    H228441   4.874   0.807   1.580  0.3231 -0.7063 -0.7403
 9493TIP3   OH228442   2.055   2.608   5.222  0.5291  0.1923 -0.1127
 9493TIP3    H128443   1.981   2.669   5.218  0.7673  0.4854 -0.0492
 9493TIP3    H228444   2.129   2.661   5.251  1.2230  0.3279 -1.9736
 9494TIP3   OH228445   0.618   6.536   3.807 -0.0323  0.2292  0.1116
 9494TIP3    H128446   0.643   6.515   3.717 -2.0602  1.8313 -0.8911
 9494TIP3    H228447   0.579   6.455   3.841  1.2245 -0.5482 -0.2001
 9495TIP3   OH228448   0.204   3.910   2.154  0.0949  0.2394 -0.0523
 9495TIP3    H128449   0.198   3.844   2.223  2.3062 -2.3387 -2.1343
 9495TIP3    H228450   0.141   3.882   2.088 -0.4833  1.4865 -0.0685
 9496TIP3   OH228451   4.268   3.887   5.481 -0.0970 -0.1224  0.0401
 9496TIP3    H128452   4.199   3.875   5.416 -0.0432  0.6376 -0.1672
 9496TIP3    H228453   4.251   3.820   5.547 -1.2463  0.2824  0.1741
 9497TIP3   OH228454   2.222   1.430   2.527  0.0809  0.2319 -0.4563
 9497TIP3    H128455   2.287   1.380   2.576  1.0611  0.0858 -1.8364
 9497TIP3    H228456   2.140   1.382   2.540  0.2188  0.4183  1.3140
 9498TIP3   OH228457   4.667   2.155   4.187 -0.6122  0.2602 -0.3822
 9498TIP3    H128458   4.706   2.212   4.121  1.1550  1.1936  1.3627
 9498TIP3    H228459   4.733   2.087   4.202  0.6026  1.9070  2.6799
 9499TIP3   OH228460   0.791   5.861   1.644  0.0648 -0.0742  0.1420
 9499TIP3    H128461   0.702   5.896   1.645 -0.1451 -0.6086  0.3885
 9499TIP3    H228462   0.817   5.859   1.736  0.2817 -0.0587  0.0813
 9500TIP3   OH228463   6.868   6.182   0.179  0.2176 -0.6619 -0.2444
 9500TIP3    H128464   6.833   6.095   0.200  1.0396 -0.2225  3.5553
 9500TIP3    H228465   6.957   6.182   0.214  0.7391  1.2856 -1.4098
 9501TIP3   OH228466   1.136   4.597   0.285  0.7795 -0.5882  0.1293
 9501TIP3    H128467   1.171   4.679   0.252 -1.8216  0.3658 -0.5043
 9501TIP3    H228468   1.202   4.531   0.263  2.8935  1.2663  0.5953
 9502TIP3   OH228469   4.179   2.779   0.464 -0.5245  0.3353  0.1837
 9502TIP3    H128470   4.100   2.754   0.510  0.0558 -1.4339  0.2798
 9502TIP3    H228471   4.247   2.781   0.531  0.3879 -2.5466 -0.5203
 9503TIP3   OH228472   1.848   6.107   3.379  0.2530 -0.2604 -0.1109
 9503TIP3    H128473   1.916   6.170   3.359 -1.7644  1.8215 -0.8663
 9503TIP3    H228474   1.822   6.070   3.295 -0.7868  0.3573 -0.0826
 9504TIP3   OH228475   5.481   2.053   0.681 -0.1697  0.1081  0.6757
 9504TIP3    H128476   5.563   2.012   0.653 -0.3074  0.1672  0.1817
 9504TIP3    H228477   5.499   2.147   0.678 -0.7330  0.1816 -0.9518
 9505TIP3   OH228478   3.518   0.810   3.342 -0.3393 -0.2192  0.4924
 9505TIP3    H128479   3.467   0.747   3.290  0.9070 -0.7417 -0.1404
 9505TIP3    H228480   3.609   0.786   3.326  0.1879  1.8054  0.1671
 9506TIP3   OH228481   6.241   5.991   0.207 -0.2380 -0.1069 -0.2653
 9506TIP3    H128482   6.262   6.017   0.297 -1.1133  1.8016 -0.5542
 9506TIP3    H228483   6.153   6.026   0.192 -0.6346 -1.5224 -1.4645
 9507TIP3   OH228484   3.940   6.260   4.732 -0.4149  0.0279 -0.2129
 9507TIP3    H128485   3.990   6.334   4.767  1.8349 -1.1887 -0.6099
 9507TIP3    H228486   3.956   6.264   4.638 -0.9212 -0.5276 -0.3269
 9508TIP3   OH228487   3.909   0.647   5.796  0.3701 -0.4089 -0.3394
 9508TIP3    H128488   3.891   0.587   5.724  1.0970 -2.3245  0.9760
 9508TIP3    H228489   3.845   0.624   5.863 -0.0578  1.0803 -0.2047
 9509TIP3   OH228490   6.193   5.846   4.411 -0.3521 -0.2400  0.3180
 9509TIP3    H128491   6.268   5.867   4.355 -1.2682  1.0122 -0.4984
 9509TIP3    H228492   6.195   5.913   4.480 -2.4717  1.8368 -1.4878
 9510TIP3   OH228493   5.071   5.936   1.793  0.1620 -0.1779  0.0423
 9510TIP3    H128494   5.073   6.020   1.748 -0.5720  0.5413  1.2926
 9510TIP3    H228495   5.156   5.931   1.837  1.1748 -1.2097 -1.9148
 9511TIP3   OH228496   0.605   0.089   4.163 -0.9661  0.1867  0.1775
 9511TIP3    H128497   0.528   0.044   4.198  0.5613 -1.0517  2.1528
 9511TIP3    H228498   0.669   0.019   4.149 -0.0022  1.2427 -0.8998
 9512TIP3   OH228499   2.288   4.198   3.934  0.0408 -0.1496  0.2731
 9512TIP3    H128500   2.323   4.155   3.856 -1.3062 -2.8050  0.9971
 9512TIP3    H228501   2.227   4.264   3.901  0.9594  0.1240 -0.9049
 9513TIP3   OH228502   4.165   2.494   2.909  0.1758  0.2668 -0.3052
 9513TIP3    H128503   4.110   2.469   2.835 -0.2033  1.6984 -0.5419
 9513TIP3    H228504   4.251   2.509   2.871  0.3761 -0.5365 -0.1810
 9514TIP3   OH228505   2.071   6.447   4.496 -0.1098 -0.2995  0.5906
 9514TIP3    H128506   1.999   6.510   4.509  2.1202  2.8490 -1.1136
 9514TIP3    H228507   2.059   6.416   4.407 -1.4259 -2.8439  1.5437
 9515TIP3   OH228508   4.087   1.165   4.508 -0.4144 -0.3202 -0.4457
 9515TIP3    H128509   4.148   1.149   4.436 -0.7141  1.1385 -1.0622
 9515TIP3    H228510   4.116   1.107   4.578  2.4910  1.1652 -0.2572
 9516TIP3   OH228511   1.749   2.547   2.474  0.2622  0.8513  0.0429
 9516TIP3    H128512   1.687   2.599   2.425 -2.0563 -1.5398  0.2078
 9516TIP3    H228513   1.797   2.497   2.407 -0.9582 -0.3464  0.0138
 9517TIP3   OH228514   6.536   2.723   3.760  0.1207 -0.6982 -0.2051
 9517TIP3    H128515   6.613   2.666   3.765  1.1796  0.7174  0.0793
 9517TIP3    H228516   6.568   2.809   3.787 -1.6022 -0.1048  0.0430
 9518TIP3   OH228517   0.328   4.314   4.856 -0.0081 -0.1972  0.4530
 9518TIP3    H128518   0.235   4.289   4.862  0.4301 -2.2290 -0.4986
 9518TIP3    H228519   0.337   4.352   4.769 -0.1067  0.8665  0.8901
 9519TIP3   OH228520   0.216   1.566   1.054  0.1877 -0.6372 -0.2015
 9519TIP3    H128521   0.156   1.606   0.991 -0.3109  0.0104  0.6622
 9519TIP3    H228522   0.290   1.536   1.001  0.2119  0.7366 -0.9794
 9520TIP3   OH228523   6.401   3.825   4.224 -0.2466 -0.6274  0.1123
 9520TIP3    H128524   6.495   3.821   4.243 -0.0370  1.7423 -0.1650
 9520TIP3    H228525   6.396   3.823   4.129 -0.1857  2.1312 -0.0328
 9521TIP3   OH228526   4.317   1.702   3.345  0.1146  0.2472 -0.0158
 9521TIP3    H128527   4.371   1.650   3.286 -0.1655 -0.2358  0.1529
 9521TIP3    H228528   4.356   1.687   3.432  0.6271  1.0823 -0.0875
 9522TIP3   OH228529   4.194   2.528   5.820 -0.0820  0.2142 -0.5296
 9522TIP3    H128530   4.170   2.503   5.909  1.3660  0.1145 -0.1363
 9522TIP3    H228531   4.285   2.559   5.828  0.5010 -0.9673 -2.1703
 9523TIP3   OH228532   0.519   4.493   3.847 -0.0946 -0.3597 -0.1121
 9523TIP3    H128533   0.428   4.509   3.822 -0.5150  0.5119  1.8317
 9523TIP3    H228534   0.529   4.538   3.931  2.5535  0.8140 -0.9602
 9524TIP3   OH228535   2.798   0.616   0.202  0.1334 -0.4819 -0.0643
 9524TIP3    H128536   2.865   0.560   0.241  0.0980 -0.6910 -0.3000
 9524TIP3    H228537   2.716   0.568   0.214  0.0847 -0.4194 -0.1450
 9525TIP3   OH228538   6.646   2.346   3.527 -0.3071 -0.2567  0.2830
 9525TIP3    H128539   6.624   2.264   3.484  1.1081 -0.1083 -0.8158
 9525TIP3    H228540   6.742   2.347   3.531 -0.2922  1.2803  0.3589
 9526TIP3   OH228541   6.825   6.409   2.091 -0.0518 -0.4220 -0.6246
 9526TIP3    H128542   6.851   6.317   2.099 -2.6281 -1.2924 -1.5221
 9526TIP3    H228543   6.790   6.416   2.003 -0.2998  1.3356 -0.4049
 9527TIP3   OH228544   5.260   2.311   0.426  0.1729 -0.0074 -0.4678
 9527TIP3    H128545   5.339   2.278   0.469 -0.3984  0.3948  0.9399
 9527TIP3    H228546   5.190   2.251   0.454 -0.1333 -0.0706 -1.3087
 9528TIP3   OH228547   1.940   4.347   1.573  0.1788  0.3111  0.3166
 9528TIP3    H128548   2.026   4.389   1.563  0.3795 -0.2781 -0.5344
 9528TIP3    H228549   1.953   4.282   1.642 -0.3678  2.2071  2.2962
 9529TIP3   OH228550   3.982   2.258   4.592 -0.2501 -0.0009  0.5821
 9529TIP3    H128551   3.992   2.327   4.526  0.5008 -0.4416  0.2281
 9529TIP3    H228552   4.068   2.216   4.596 -0.6549 -0.8043  0.9331
 9530TIP3   OH228553   5.510   0.649   4.489  0.3509 -0.3912  0.0855
 9530TIP3    H128554   5.574   0.664   4.559  0.8558 -1.4124 -0.1423
 9530TIP3    H228555   5.560   0.663   4.408  0.4250 -1.6011 -0.1016
 9531TIP3   OH228556   2.179   4.478   1.509 -0.0136  0.2265 -0.2084
 9531TIP3    H128557   2.129   4.493   1.429  0.4352 -0.0911 -0.5478
 9531TIP3    H228558   2.194   4.565   1.545 -1.4189  0.2987  0.2732
 9532TIP3   OH228559   0.312   1.452   3.905  0.1514 -0.6125 -0.1668
 9532TIP3    H128560   0.235   1.495   3.941  0.3981  0.3889 -0.7938
 9532TIP3    H228561   0.278   1.380   3.853 -0.5536  1.0136 -2.1234
 9533TIP3   OH228562   2.043   4.336   3.366 -0.1412 -0.1068  0.1837
 9533TIP3    H128563   2.115   4.399   3.356 -0.2258 -0.2118 -1.2202
 9533TIP3    H228564   2.077   4.272   3.428  0.9583 -0.1113 -0.3888
 9534TIP3   OH228565   0.393   6.396   0.968  0.6167 -0.1385 -0.5664
 9534TIP3    H128566   0.377   6.483   0.931 -1.5200 -0.3421 -0.2484
 9534TIP3    H228567   0.480   6.372   0.935  1.5361  2.3313 -0.1832
 9535TIP3   OH228568   0.013   0.618   5.154  0.6420 -0.0289 -0.4645
 9535TIP3    H128569   0.079   0.661   5.209  1.7119 -1.5215 -0.4977
 9535TIP3    H228570  -0.019   0.687   5.096  3.3257  0.4877 -1.5136
 9536TIP3   OH228571   2.722   0.228   1.674 -0.1102  0.1080  0.3329
 9536TIP3    H128572   2.806   0.213   1.632 -1.2008 -0.3851 -1.8406
 9536TIP3    H228573   2.733   0.310   1.723  1.6538 -0.0628  0.2782
 9537TIP3   OH228574   2.931   5.122   0.792  0.5533  0.7355  0.5330
 9537TIP3    H128575   2.980   5.040   0.793  0.4964  0.6915  0.0017
 9537TIP3    H228576   2.988   5.185   0.837  1.8906  1.1220 -1.5847
 9538TIP3   OH228577   6.825   2.753   0.088  0.5061  0.0737 -0.3149
 9538TIP3    H128578   6.919   2.763   0.099  0.4913  0.2287 -0.3197
 9538TIP3    H228579   6.788   2.771   0.175  0.6517 -2.5992  0.3854
 9539TIP3   OH228580   4.294   0.728   0.247 -0.3666  0.0379  0.5578
 9539TIP3    H128581   4.298   0.811   0.199 -0.1995 -0.0041  0.4984
 9539TIP3    H228582   4.228   0.676   0.201 -1.4345  0.6320  1.3716
 9540TIP3   OH228583   1.836   5.461   2.260 -0.3922 -0.0194 -0.0405
 9540TIP3    H128584   1.813   5.427   2.347 -0.6274  0.7479  0.2066
 9540TIP3    H228585   1.932   5.464   2.261 -0.2899 -1.9568 -0.5788
 9541TIP3   OH228586   0.736   0.248   5.089 -0.3350 -0.7947  0.0182
 9541TIP3    H128587   0.674   0.312   5.055 -0.9131 -2.1210 -1.5282
 9541TIP3    H228588   0.684   0.195   5.150 -0.6148 -1.5720 -0.8767
 9542TIP3   OH228589   1.822   1.871   4.573 -0.3077  0.0006  0.2771
 9542TIP3    H128590   1.789   1.793   4.529  3.5341 -1.5963 -0.1697
 9542TIP3    H228591   1.845   1.931   4.502 -0.5805  0.3670  0.4915
 9543TIP3   OH228592   3.874   1.720   4.063 -0.2771  0.9649 -0.3811
 9543TIP3    H128593   3.806   1.690   4.124  0.3312  0.7601  0.2079
 9543TIP3    H228594   3.953   1.727   4.117  0.4504  0.0989 -1.2946
 9544TIP3   OH228595   3.785   4.713   1.128 -0.5628 -0.3914 -0.2356
 9544TIP3    H128596   3.766   4.678   1.215  0.2446  0.0132  0.1119
 9544TIP3    H228597   3.880   4.725   1.128 -0.8205  1.9708 -0.2797
 9545TIP3   OH228598   1.368   1.605   4.398  0.0474 -0.3484  0.2927
 9545TIP3    H128599   1.371   1.697   4.425 -0.2154 -0.6357  1.3378
 9545TIP3    H228600   1.457   1.586   4.367 -0.0850  0.4447 -0.6284
 9546TIP3   OH228601   2.952   3.918   4.152 -0.3452 -0.1364 -0.3230
 9546TIP3    H128602   2.922   3.843   4.203 -0.0019  0.3735  0.6576
 9546TIP3    H228603   2.901   3.915   4.072 -0.8055 -1.0338 -0.0053
 9547TIP3   OH228604   3.639   4.471   4.269  0.4659  0.2428  0.0294
 9547TIP3    H128605   3.580   4.409   4.311 -0.5853  0.2757 -1.3227
 9547TIP3    H228606   3.726   4.435   4.283  0.6819  2.0725  5.3493
 9548TIP3   OH228607   0.093   3.811   1.910  0.2267 -0.6021 -0.2716
 9548TIP3    H128608   0.117   3.726   1.874 -0.0238 -1.7072  2.0036
 9548TIP3    H228609  -0.001   3.819   1.892 -0.1091 -1.5894  0.9095
 9549TIP3   OH228610   3.632   2.998   5.085 -0.3852  0.0514 -0.2053
 9549TIP3    H128611   3.716   2.964   5.116 -0.2061  0.4503 -0.2546
 9549TIP3    H228612   3.567   2.954   5.140 -0.0334  1.4067  1.3733
 9550TIP3   OH228613   7.113   3.981   3.660 -0.5481  0.1904  0.1556
 9550TIP3    H128614   7.147   4.070   3.651  0.5302 -0.0429  1.5788
 9550TIP3    H228615   7.050   3.987   3.731 -0.0884 -0.2656  0.6122
 9551TIP3   OH228616   2.521   3.193   1.303  0.1650  0.1182 -0.4055
 9551TIP3    H128617   2.604   3.149   1.286 -0.7188 -1.0343 -2.0539
 9551TIP3    H228618   2.474   3.133   1.361  0.3802  0.6564  0.3348
 9552TIP3   OH228619   6.620   5.235   5.706  0.2493  0.1039  0.4676
 9552TIP3    H128620   6.611   5.216   5.613 -0.1860  3.0896 -0.2217
 9552TIP3    H228621   6.636   5.150   5.747 -2.6339 -1.7938 -1.8836
 9553TIP3   OH228622   5.794   2.600   1.585 -0.2694 -0.0052  0.1538
 9553TIP3    H128623   5.767   2.675   1.532  0.5614  0.5177  0.4471
 9553TIP3    H228624   5.792   2.526   1.525 -0.1189  0.4339 -0.4010
 9554TIP3   OH228625   0.359   4.371   4.155 -0.2445  0.2577 -0.8669
 9554TIP3    H128626   0.294   4.436   4.183 -1.2984 -1.1994  0.2749
 9554TIP3    H228627   0.428   4.422   4.113 -0.4633  2.2311  0.9834
 9555TIP3   OH228628   2.472   6.781   2.001 -0.3726  0.3115  0.0016
 9555TIP3    H128629   2.417   6.704   2.014  0.1955 -0.6503 -2.6484
 9555TIP3    H228630   2.410   6.853   1.991 -1.0041 -0.1560  0.4857
 9556TIP3   OH228631   2.317   1.459   1.696  0.6289  0.4034 -0.1491
 9556TIP3    H128632   2.352   1.481   1.609 -1.7978 -1.7481 -1.8048
 9556TIP3    H228633   2.343   1.369   1.710 -2.1741 -0.5651 -0.4883
 9557TIP3   OH228634   1.227   2.757   2.792 -0.4821  0.4521  0.3260
 9557TIP3    H128635   1.273   2.676   2.771 -2.5706 -1.0318  1.1872
 9557TIP3    H228636   1.253   2.818   2.723  2.5518 -0.2984  0.6363
 9558TIP3   OH228637   4.924   0.542   4.876 -0.1093 -0.3222 -0.3733
 9558TIP3    H128638   4.839   0.575   4.850 -0.5738 -0.6018  0.7263
 9558TIP3    H228639   4.913   0.517   4.968  1.3211  0.2226 -0.0272
 9559TIP3   OH228640   1.260   5.642   0.970 -0.2220  0.0330  0.0564
 9559TIP3    H128641   1.234   5.648   1.062 -0.4305 -1.8207  0.1562
 9559TIP3    H228642   1.189   5.686   0.922 -1.0882 -0.6793  0.6560
 9560TIP3   OH228643   5.093   3.608   3.935  1.2787 -0.4912 -0.1436
 9560TIP3    H128644   5.073   3.524   3.893 -0.5092  0.2866 -0.9344
 9560TIP3    H228645   5.046   3.605   4.018  2.2011 -0.7436  0.3760
 9561TIP3   OH228646   1.643   2.950   3.188 -0.1837  0.5192  0.1417
 9561TIP3    H128647   1.656   2.976   3.097 -2.2554  1.4603  0.0757
 9561TIP3    H228648   1.693   2.868   3.197  0.4666  0.6846 -1.6713
 9562TIP3   OH228649   4.626   0.861   0.341  0.0231 -0.0842  0.2558
 9562TIP3    H128650   4.692   0.928   0.358 -0.1921 -0.2363  1.8322
 9562TIP3    H228651   4.572   0.898   0.272  0.6807  0.8066  0.2000
 9563TIP3   OH228652   5.970   3.562   1.256 -0.0609 -0.7368 -0.0720
 9563TIP3    H128653   6.001   3.489   1.202  1.0275  0.6049 -1.3317
 9563TIP3    H228654   5.901   3.602   1.204  1.7720  1.2734 -1.1144
 9564TIP3   OH228655   5.134   0.089   3.049  0.3018 -0.0077  0.3367
 9564TIP3    H128656   5.158   0.172   3.091  1.4743  0.3986 -1.0363
 9564TIP3    H228657   5.073   0.113   2.979 -2.2026 -0.7564  2.1325
 9565TIP3   OH228658   3.734   1.320   2.980  0.1928  0.1931  0.3519
 9565TIP3    H128659   3.742   1.403   3.027  0.1804 -0.0095  0.7155
 9565TIP3    H228660   3.748   1.253   3.048  0.3031 -0.0980  0.0416
 9566TIP3   OH228661   3.865   2.011   4.542 -0.6137  0.0348 -0.1321
 9566TIP3    H128662   3.908   2.090   4.576  1.4633 -1.4914  1.0035
 9566TIP3    H228663   3.784   2.044   4.502  0.3878  2.7853 -0.1551
 9567TIP3   OH228664   1.310   5.984   1.918  0.2843 -0.4342  0.0528
 9567TIP3    H128665   1.335   5.897   1.890  1.1860 -0.1266 -0.1383
 9567TIP3    H228666   1.257   6.018   1.846 -0.8911 -1.1719  0.5507
 9568TIP3   OH228667   2.872   4.341   0.445 -0.5476  0.1346  0.2609
 9568TIP3    H128668   2.966   4.336   0.458 -0.2674 -0.9173 -1.7921
 9568TIP3    H228669   2.837   4.367   0.531  1.6653  1.6718  0.7807
 9569TIP3   OH228670   7.077   5.694   1.137 -0.1774 -0.0389  0.3821
 9569TIP3    H128671   7.056   5.742   1.217  0.6162 -0.0522  0.6095
 9569TIP3    H228672   7.159   5.733   1.107 -0.6249  0.1910 -0.6090
 9570TIP3   OH228673   5.288   2.930   5.086 -0.1908 -0.1467 -0.5218
 9570TIP3    H128674   5.272   3.024   5.092  1.1154  0.0879 -0.4121
 9570TIP3    H228675   5.239   2.902   5.009  0.4575  0.8793 -1.3379
 9571TIP3   OH228676   2.926   6.029   4.322  0.1763  0.3244  0.0097
 9571TIP3    H128677   3.016   6.054   4.344 -0.1327  1.3609  0.1322
 9571TIP3    H228678   2.873   6.064   4.393 -0.0635 -2.9972  1.6673
 9572TIP3   OH228679   5.384   1.821   4.771  0.3803  0.6330  0.5978
 9572TIP3    H128680   5.380   1.798   4.678 -2.2957  0.0306  0.7918
 9572TIP3    H228681   5.386   1.916   4.772  1.0045  0.6381 -0.0727
 9573TIP3   OH228682   4.756   4.391   1.681  0.2085 -0.4592  0.0259
 9573TIP3    H128683   4.847   4.361   1.676  0.1955 -0.2550 -2.1383
 9573TIP3    H228684   4.705   4.318   1.646 -0.3582 -0.1191  0.1277
 9574TIP3   OH228685   0.941   6.229   0.980  0.1724 -0.4081  0.1330
 9574TIP3    H128686   0.959   6.164   1.048  1.1269  0.1102  0.3778
 9574TIP3    H228687   1.027   6.262   0.954 -0.3103  0.8664  0.1063
 9575TIP3   OH228688   0.758   0.322   4.591 -0.4932  0.4026 -0.0621
 9575TIP3    H128689   0.688   0.349   4.532 -2.0187 -1.0666  0.9731
 9575TIP3    H228690   0.714   0.305   4.675  1.3849  1.1109  1.1377
 9576TIP3   OH228691   7.078   6.776   0.602  0.0076 -0.5692  0.1817
 9576TIP3    H128692   6.984   6.788   0.587  0.1633  1.2712  0.5310
 9576TIP3    H228693   7.082   6.704   0.665 -1.1862 -0.4645  0.4120
 9577TIP3   OH228694   1.990   2.843   1.838  0.3725  0.0572 -0.1475
 9577TIP3    H128695   2.043   2.917   1.867  0.5022 -0.4500  0.9594
 9577TIP3    H228696   1.957   2.804   1.919 -1.5387  0.2329 -0.8053
 9578TIP3   OH228697   5.171   0.204   0.061  0.4732 -0.2600 -0.0310
 9578TIP3    H128698   5.133   0.290   0.078 -1.2582  0.0580 -4.1801
 9578TIP3    H228699   5.163   0.157   0.143 -0.8229  2.7079  1.7038
 9579TIP3   OH228700   1.888   3.946   2.065 -0.0532  0.0255  0.0670
 9579TIP3    H128701   1.937   3.893   2.002  0.2812  0.1005  0.2615
 9579TIP3    H228702   1.945   4.020   2.083 -0.8812  0.9327 -0.8761
 9580TIP3   OH228703   0.281   6.556   0.500 -0.6617 -0.5717 -0.1573
 9580TIP3    H128704   0.201   6.503   0.500 -0.5994 -0.7897 -2.5537
 9580TIP3    H228705   0.250   6.644   0.523 -2.0035 -0.2689 -2.6736
 9581TIP3   OH228706   3.878   0.870   5.589 -0.1288  0.8142  0.1032
 9581TIP3    H128707   3.868   0.835   5.678 -0.5913  0.5529 -0.0497
 9581TIP3    H228708   3.965   0.841   5.562  0.5204  1.9090  0.9138
 9582TIP3   OH228709   5.184   2.331   1.878 -0.1180 -0.1497 -0.0505
 9582TIP3    H128710   5.134   2.250   1.887 -1.4071  0.6301 -0.0159
 9582TIP3    H228711   5.148   2.389   1.945  1.3257  0.2132  0.4525
 9583TIP3   OH228712   1.420   6.401   3.571  0.0255 -0.1162 -0.0492
 9583TIP3    H128713   1.484   6.455   3.525 -0.6425  0.1815 -0.6366
 9583TIP3    H228714   1.434   6.313   3.536  0.2122 -0.0775 -0.0727
 9584TIP3   OH228715   0.320   2.056   0.523 -0.3636 -0.0637 -0.5433
 9584TIP3    H128716   0.284   1.994   0.460  1.6479 -1.5743 -0.3059
 9584TIP3    H228717   0.389   2.102   0.475 -1.4741  1.6795 -0.5573
 9585TIP3   OH228718   0.286   4.300   2.836  0.2144  0.5098  0.4433
 9585TIP3    H128719   0.216   4.303   2.771 -0.5292  0.5487  1.2174
 9585TIP3    H228720   0.350   4.364   2.805 -0.4231  0.9912  0.0759
 9586TIP3   OH228721   4.751   5.485   0.078 -0.5616  0.4597 -0.4453
 9586TIP3    H128722   4.717   5.546   0.143  2.0796  2.0534 -0.4402
 9586TIP3    H228723   4.728   5.524  -0.007  1.2374  1.5930 -0.4427
 9587TIP3   OH228724   2.555   4.824   3.595 -0.8949 -0.0405 -0.3291
 9587TIP3    H128725   2.626   4.837   3.658 -1.7190  2.5964  0.1620
 9587TIP3    H228726   2.483   4.787   3.647 -0.5071 -1.0278 -0.4655
 9588TIP3   OH228727   2.992   1.877   0.967 -0.5423 -0.8577  0.1950
 9588TIP3    H128728   2.926   1.835   0.912 -1.1286  0.3076 -0.0337
 9588TIP3    H228729   3.070   1.881   0.913  0.1126 -3.2281  0.8355
 9589TIP3   OH228730   4.389   2.609   1.259 -0.3523  0.5170 -0.1883
 9589TIP3    H128731   4.428   2.561   1.186 -2.2214 -1.5617  0.0618
 9589TIP3    H228732   4.463   2.633   1.314  1.0503  1.6432 -2.4413
 9590TIP3   OH228733   1.072   0.613   0.165  0.3612  0.4977 -0.0885
 9590TIP3    H128734   1.043   0.565   0.242 -2.4213  1.7663 -0.2407
 9590TIP3    H228735   1.166   0.626   0.179  0.6398 -2.3289  1.3475
 9591TIP3   OH228736   4.099   2.683   4.680 -0.2750 -0.3996  0.4325
 9591TIP3    H128737   4.043   2.761   4.686 -0.1386 -0.1785 -0.9075
 9591TIP3    H228738   4.110   2.668   4.586  0.8919 -1.1852  0.6709
 9592TIP3   OH228739   5.380   5.251   0.458 -0.0807  0.0541 -0.1974
 9592TIP3    H128740   5.457   5.223   0.507 -0.2204  1.4933  0.9114
 9592TIP3    H228741   5.407   5.247   0.366  1.4443  0.8615  0.1838
 9593TIP3   OH228742   2.860   0.192   3.842 -0.0642  0.0013  0.3386
 9593TIP3    H128743   2.848   0.187   3.747  3.8204 -0.6193 -0.2961
 9593TIP3    H228744   2.847   0.102   3.872  0.0178 -0.0614  0.1887
 9594TIP3   OH228745   3.042   4.589   3.734  0.7942  0.3522  0.0187
 9594TIP3    H128746   3.068   4.542   3.654 -1.2856 -0.5259 -0.1909
 9594TIP3    H228747   3.061   4.528   3.805 -2.6073 -1.2958 -0.3070
 9595TIP3   OH228748   3.274   1.359   2.608  0.0352  0.1241 -0.6103
 9595TIP3    H128749   3.259   1.295   2.539  1.4073 -0.3371 -0.5149
 9595TIP3    H228750   3.239   1.441   2.572 -2.0910 -0.7095 -0.5726
 9596TIP3   OH228751   3.992   6.121   0.037  0.3837  0.2485  0.5830
 9596TIP3    H128752   4.061   6.111   0.103 -0.3065 -0.0985  1.2614
 9596TIP3    H228753   3.911   6.108   0.085 -0.3472  3.2449  0.3663
 9597TIP3   OH228754   6.739   2.950   0.881  0.3284 -0.6044 -0.1445
 9597TIP3    H128755   6.691   2.881   0.927  0.6385 -0.7313 -0.0018
 9597TIP3    H228756   6.814   2.968   0.939  1.9566 -2.2790 -1.5696
 9598TIP3   OH228757   6.755   3.769   3.473  0.3548 -0.1299 -0.2317
 9598TIP3    H128758   6.689   3.830   3.505  0.5089  0.0263 -0.2061
 9598TIP3    H228759   6.709   3.713   3.411  0.0646 -0.4044  0.2240
 9599TIP3   OH228760   0.950   1.099   1.750 -0.4825  0.2256  0.3902
 9599TIP3    H128761   1.016   1.169   1.743  1.0149 -1.2205 -0.8299
 9599TIP3    H228762   0.974   1.051   1.829 -0.4369  0.0709  0.2833
 9600TIP3   OH228763   0.097   3.068   2.587  0.5106 -0.5652 -0.1708
 9600TIP3    H128764   0.021   3.112   2.625  1.6769  1.8242 -0.4467
 9600TIP3    H228765   0.110   2.991   2.641 -1.5265 -0.5227  0.4517
 9601TIP3   OH228766   0.644   6.507   3.023 -0.0569 -0.2802  0.0356
 9601TIP3    H128767   0.613   6.465   3.104  0.1520  0.2782  0.4133
 9601TIP3    H228768   0.715   6.451   2.992  0.2185 -0.2120  0.5350
 9602TIP3   OH228769   2.192   6.663   2.620 -0.4727  0.4958 -0.4019
 9602TIP3    H128770   2.201   6.598   2.550 -0.0507  0.9543 -0.7866
 9602TIP3    H228771   2.106   6.646   2.658  0.3510 -1.4308  0.6954
 9603TIP3   OH228772   4.930   3.201   0.757 -0.0342 -0.0463 -0.1308
 9603TIP3    H128773   4.926   3.106   0.766  0.1474 -0.4180 -3.1055
 9603TIP3    H228774   4.839   3.229   0.756 -0.0856  0.0053  1.7848
 9604TIP3   OH228775   5.738   3.745   2.356  0.1157  0.1119 -0.3693
 9604TIP3    H128776   5.738   3.681   2.427 -0.4507  1.0800  0.5443
 9604TIP3    H228777   5.801   3.811   2.383 -1.5214  1.5103  0.2518
 9605TIP3   OH228778   4.616   4.921   1.942  0.8217  0.1489  0.8105
 9605TIP3    H128779   4.640   4.924   2.035  1.8090 -1.4666  0.6487
 9605TIP3    H228780   4.597   4.829   1.926 -2.3720  0.8119  0.0972
 9606TIP3   OH228781   4.573   5.717   2.857  0.5143  0.2575  0.3148
 9606TIP3    H128782   4.650   5.742   2.804  0.9773 -0.3466  0.6846
 9606TIP3    H228783   4.574   5.621   2.856 -1.1149  0.2109 -0.9323
 9607TIP3   OH228784   1.232   0.786   0.402 -0.1750  0.0533 -0.2077
 9607TIP3    H128785   1.186   0.853   0.453 -0.6386 -0.8352  0.5675
 9607TIP3    H228786   1.282   0.836   0.337  0.7337  1.2650  1.3470
 9608TIP3   OH228787   7.194   3.077   1.333  0.1858  0.3763  0.0246
 9608TIP3    H128788   7.140   3.134   1.278  0.4923 -0.4723 -1.1911
 9608TIP3    H228789   7.210   3.000   1.279 -0.1030 -0.8196  1.5779
 9609TIP3   OH228790   1.293   5.424   1.502  0.4657  0.4574 -0.3958
 9609TIP3    H128791   1.337   5.508   1.509 -0.3447  0.9515 -1.0293
 9609TIP3    H228792   1.203   5.441   1.529  0.3400 -0.2503 -0.3347
 9610TIP3   OH228793   4.774   1.809   0.937 -0.5846  0.1016 -0.4035
 9610TIP3    H128794   4.751   1.899   0.959  0.2555  0.3152 -0.3897
 9610TIP3    H228795   4.814   1.774   1.017  0.7265  0.2810 -0.9751
 9611TIP3   OH228796   5.220   2.591   3.034 -0.2309 -0.3968  0.6749
 9611TIP3    H128797   5.145   2.622   2.983  0.6992  3.0671  1.1719
 9611TIP3    H228798   5.187   2.587   3.124  0.1551  1.2711  0.9159
 9612TIP3   OH228799   2.417   0.098   3.094  0.1460  0.7072 -0.2464
 9612TIP3    H128800   2.500   0.053   3.076 -0.7986 -1.3869  0.3119
 9612TIP3    H228801   2.376   0.107   3.009 -0.3677 -1.0263 -0.2053
 9613TIP3   OH228802   6.325   1.423   0.035 -0.2043 -0.3551  0.5266
 9613TIP3    H128803   6.287   1.408  -0.052  0.6864  0.7656 -0.0840
 9613TIP3    H228804   6.265   1.379   0.095 -2.7549  1.6563 -0.3353
 9614TIP3   OH228805   5.424   4.906   3.072 -0.4789 -0.1203  0.0885
 9614TIP3    H128806   5.392   4.820   3.097 -0.6564  0.0507  0.4567
 9614TIP3    H228807   5.453   4.946   3.154  1.1508 -0.4635 -0.2950
 9615TIP3   OH228808   2.121   5.383   3.285  0.6596 -0.1289  0.0879
 9615TIP3    H128809   2.067   5.347   3.355  0.3597  0.5289  0.2061
 9615TIP3    H228810   2.204   5.403   3.327  0.7141 -0.3681  0.0967
 9616TIP3   OH228811   0.457   1.775   2.778  0.1796  0.4631  0.1330
 9616TIP3    H128812   0.539   1.806   2.740 -0.4072  0.4459 -1.2196
 9616TIP3    H228813   0.427   1.847   2.833  1.0942  0.4659  0.6468
 9617TIP3   OH228814   6.325   0.231   1.642 -0.2171 -0.0260  0.6303
 9617TIP3    H128815   6.358   0.318   1.621  0.0287  0.0416  1.2624
 9617TIP3    H228816   6.234   0.246   1.669 -0.1700  0.0425  0.7562
 9618TIP3   OH228817   3.087   1.326   0.619 -0.0967  0.2646 -0.2897
 9618TIP3    H128818   3.068   1.248   0.670  0.4300  0.5862  0.4111
 9618TIP3    H228819   3.143   1.379   0.675  0.3756  0.6927 -1.1374
 9619TIP3   OH228820   2.733   6.185   0.370 -0.4517 -0.4302 -0.4125
 9619TIP3    H128821   2.725   6.210   0.278 -2.3300 -1.6798 -0.6335
 9619TIP3    H228822   2.765   6.095   0.367  0.9099  0.0002  0.2339
 9620TIP3   OH228823   1.158   0.385   2.933 -0.3056 -0.2539 -0.1186
 9620TIP3    H128824   1.194   0.474   2.935  0.1086 -0.3924 -1.1121
 9620TIP3    H228825   1.160   0.357   3.025 -0.9781  0.9619  0.2976
 9621TIP3   OH228826   2.815   3.389   2.894  0.1219 -0.4091  0.5681
 9621TIP3    H128827   2.754   3.364   2.825 -0.1789 -1.0660  1.0600
 9621TIP3    H228828   2.777   3.352   2.974  0.7491 -0.1304  1.0006
 9622TIP3   OH228829   2.626   0.406   0.279  0.8453  0.1607  0.8970
 9622TIP3    H128830   2.611   0.312   0.274  1.6169  0.0877 -2.2780
 9622TIP3    H228831   2.626   0.426   0.372 -0.7161 -2.7248  1.6151
 9623TIP3   OH228832   5.332   6.555   4.566 -0.0668 -0.4629 -0.7041
 9623TIP3    H128833   5.273   6.599   4.627  0.0844 -0.0791 -0.8292
 9623TIP3    H228834   5.306   6.463   4.569 -1.2539 -0.1722 -1.4151
 9624TIP3   OH228835   3.818   6.469   0.148  0.4725  0.3838  0.0301
 9624TIP3    H128836   3.850   6.492   0.061 -0.7310  0.5076 -0.4037
 9624TIP3    H228837   3.782   6.381   0.138  0.0570  0.5162  0.3312
 9625TIP3   OH228838   3.399   1.006   3.492 -0.3923 -0.0809 -0.3413
 9625TIP3    H128839   3.447   0.982   3.571 -0.1032  0.6469 -0.2860
 9625TIP3    H228840   3.420   0.937   3.429 -2.2664 -1.8177  0.8232
 9626TIP3   OH228841   6.469   2.716   0.228 -0.4258 -0.4453  0.2508
 9626TIP3    H128842   6.492   2.806   0.204  0.0731 -0.7623 -0.4951
 9626TIP3    H228843   6.551   2.678   0.260 -0.3898 -0.9535 -0.4421
 9627TIP3   OH228844   3.369   5.919   5.677 -0.0044  0.3991  0.1547
 9627TIP3    H128845   3.412   5.837   5.651 -2.3889 -1.4952  1.7079
 9627TIP3    H228846   3.400   5.934   5.767 -1.4918 -0.2787  0.8101
 9628TIP3   OH228847   4.521   4.682   2.573 -0.3298  0.5342  0.2155
 9628TIP3    H128848   4.553   4.767   2.541  1.2392  0.4764  1.4760
 9628TIP3    H228849   4.459   4.704   2.642  0.0454  0.6715  0.5137
 9629TIP3   OH228850   1.956   0.270   1.070  0.4590  0.4830  0.3253
 9629TIP3    H128851   1.988   0.198   1.125  0.1118 -0.5329 -0.7664
 9629TIP3    H228852   1.911   0.328   1.131 -0.3380 -0.8588  1.0646
 9630TIP3   OH228853   4.599   2.260   0.342 -0.1305  0.2946  1.0290
 9630TIP3    H128854   4.566   2.172   0.362 -1.7390  0.6021 -0.0799
 9630TIP3    H228855   4.603   2.263   0.247  0.3271  1.2969  1.0664
 9631TIP3   OH228856   2.193   1.299   2.927 -0.4351 -0.0469  0.7961
 9631TIP3    H128857   2.109   1.306   2.972 -0.8796 -1.7643  0.2908
 9631TIP3    H228858   2.170   1.288   2.835  0.4585  3.1039  0.0797
 9632TIP3   OH228859   2.566   0.256   1.392 -0.0950  0.4272  0.2337
 9632TIP3    H128860   2.599   0.342   1.419 -0.6796  0.7089  0.0765
 9632TIP3    H228861   2.473   0.258   1.417 -0.0093 -0.3298  0.6364
 9633TIP3   OH228862   3.485   3.017   5.687  0.1110  0.2566 -0.9879
 9633TIP3    H128863   3.517   3.099   5.651  0.4080  0.5081 -0.1496
 9633TIP3    H228864   3.553   2.987   5.747 -0.7714  0.3134  0.0782
 9634TIP3   OH228865   2.130   6.498   4.056  0.7395  0.2726  0.5170
 9634TIP3    H128866   2.143   6.463   3.968 -1.4151  0.0817  0.2175
 9634TIP3    H228867   2.214   6.537   4.079  1.3301  0.4155 -1.6687
 9635TIP3   OH228868   3.887   3.851   5.359  0.2281  0.2501  0.2472
 9635TIP3    H128869   3.795   3.873   5.341 -0.0305 -0.3436  0.7873
 9635TIP3    H228870   3.885   3.810   5.446  0.7800 -1.2120 -0.3934
 9636TIP3   OH228871   2.021   0.794   4.966  0.1151 -0.4184 -0.3166
 9636TIP3    H128872   1.968   0.856   4.916  0.6655 -0.7661 -1.3642
 9636TIP3    H228873   2.071   0.746   4.900  2.8914  0.9253  0.6273
 9637TIP3   OH228874   3.216   6.104   4.335 -0.1663 -0.0795  0.1682
 9637TIP3    H128875   3.275   6.038   4.300 -1.3864  0.0200 -2.2194
 9637TIP3    H228876   3.246   6.187   4.297 -0.9081  0.2015  0.1720
 9638TIP3   OH228877   6.612   5.727   0.749 -0.0056 -0.2973 -0.0495
 9638TIP3    H128878   6.557   5.677   0.689  0.1649 -1.3853  0.6734
 9638TIP3    H228879   6.682   5.762   0.695 -0.1705 -0.7845 -0.5780
 9639TIP3   OH228880   5.240   2.623   2.241 -0.3909 -0.1671 -0.1603
 9639TIP3    H128881   5.272   2.638   2.330  0.4875 -1.6063 -0.1984
 9639TIP3    H228882   5.308   2.661   2.185 -2.1700  3.1570 -0.3055
 9640TIP3   OH228883   2.033   2.947   4.664 -0.0220  0.3510 -0.3857
 9640TIP3    H128884   2.019   2.909   4.751  0.5892  0.1441 -0.3750
 9640TIP3    H228885   1.980   3.026   4.664 -2.6630 -1.2761 -0.9530
 9641TIP3   OH228886   4.934   5.319   1.986  0.5906  0.3320 -0.4357
 9641TIP3    H128887   5.001   5.251   1.993 -1.4150 -1.5997  1.6071
 9641TIP3    H228888   4.870   5.284   1.924 -0.7901 -0.0450  1.1212
 9642TIP3   OH228889   6.279   2.295   2.321 -0.0302 -0.0461  0.0254
 9642TIP3    H128890   6.309   2.309   2.410 -1.8522 -0.2878  0.7291
 9642TIP3    H228891   6.248   2.381   2.293  1.2902  0.2194 -0.7172
 9643TIP3   OH228892   6.496   6.579   4.610 -0.2101  0.0227 -0.5175
 9643TIP3    H128893   6.490   6.575   4.705 -1.2975  1.0433 -0.5275
 9643TIP3    H228894   6.535   6.665   4.592  1.9623 -0.9668 -0.9629
 9644TIP3   OH228895   2.230   6.663   2.892  0.9246  0.3342 -0.4260
 9644TIP3    H128896   2.254   6.660   2.799  1.3544  1.5719 -0.3708
 9644TIP3    H228897   2.277   6.589   2.931  2.2388  0.9007 -0.8719
 9645TIP3   OH228898   4.815   0.091   2.972  0.5350  0.0027  0.2543
 9645TIP3    H128899   4.857   0.177   2.975 -1.5342  1.1196 -0.9070
 9645TIP3    H228900   4.782   0.083   2.883 -0.9575 -1.1730  0.8590
 9646TIP3   OH228901   1.002   2.220   5.626  0.5377  0.1910 -0.4489
 9646TIP3    H128902   0.952   2.140   5.607  0.1947  0.5577 -1.1418
 9646TIP3    H228903   0.984   2.238   5.718 -0.4897  0.2175 -0.6387
 9647TIP3   OH228904   1.682   5.566   0.009 -0.3348 -0.2878  1.1991
 9647TIP3    H128905   1.710   5.594   0.096 -2.7019  1.2647  1.5409
 9647TIP3    H228906   1.616   5.498   0.026  1.3148 -2.1675  0.4817
 9648TIP3   OH228907   6.430   2.147   1.333 -0.2096  0.9462  0.4104
 9648TIP3    H128908   6.476   2.210   1.387  0.7129 -0.6995  1.6260
 9648TIP3    H228909   6.498   2.103   1.282 -0.7673  0.5951 -0.0609
 9649TIP3   OH228910   1.954   3.992   2.360 -0.6845  0.2172  0.4949
 9649TIP3    H128911   1.973   3.935   2.286  1.6749 -0.2848  1.4090
 9649TIP3    H228912   1.904   4.064   2.322 -1.2534 -1.0038 -1.1951
 9650TIP3   OH228913   0.761   0.648   4.808 -0.5854  0.2877  0.0868
 9650TIP3    H128914   0.727   0.647   4.719 -1.8822 -0.4946  0.5752
 9650TIP3    H228915   0.684   0.657   4.864  0.1435  0.0764  1.1678
 9651TIP3   OH228916   6.868   1.157   2.306 -0.3227  0.1516  0.1172
 9651TIP3    H128917   6.950   1.198   2.333 -0.8615  0.4082  1.4226
 9651TIP3    H228918   6.808   1.174   2.378 -1.0230 -1.5476 -0.0222
 9652TIP3   OH228919   2.793   2.934   4.179  0.1249  0.0775  0.0582
 9652TIP3    H128920   2.818   2.920   4.087  0.5455 -1.2283  0.3544
 9652TIP3    H228921   2.760   3.024   4.181 -0.2421  0.0006 -1.4447
 9653TIP3   OH228922   5.701   2.587   5.349  0.2202 -0.2283  0.5261
 9653TIP3    H128923   5.634   2.612   5.286  1.5173 -1.2478 -1.3655
 9653TIP3    H228924   5.654   2.541   5.418 -1.1663  0.2431 -0.0756
 9654TIP3   OH228925   0.612   4.680   0.987 -0.5886 -0.0066 -0.1230
 9654TIP3    H128926   0.542   4.714   1.042 -0.4723  0.4855 -0.2767
 9654TIP3    H228927   0.599   4.722   0.902 -0.0956  0.1024 -0.1499
 9655TIP3   OH228928   4.684   3.329   2.069  0.6453  0.3089 -0.0805
 9655TIP3    H128929   4.600   3.325   2.023  0.6312  2.5484 -0.3204
 9655TIP3    H228930   4.698   3.239   2.099 -1.9920 -0.0855  0.2309
 9656TIP3   OH228931   7.123   4.466   4.368  0.3331  0.3497  0.1062
 9656TIP3    H128932   7.154   4.455   4.457 -1.7109 -1.0915  0.7243
 9656TIP3    H228933   7.179   4.408   4.316 -0.1847 -0.9123  0.9151
 9657TIP3   OH228934   4.967   2.873   1.298 -0.3210 -0.3352 -0.2272
 9657TIP3    H128935   5.011   2.853   1.215  1.5546 -1.1138  0.9042
 9657TIP3    H228936   4.874   2.870   1.277  0.0905  1.0403 -2.6597
 9658TIP3   OH228937   6.745   6.599   5.636  0.2199  0.3855  0.1059
 9658TIP3    H128938   6.662   6.608   5.683 -0.3925  1.1438 -1.0555
 9658TIP3    H228939   6.798   6.542   5.691 -0.7107  0.6775  1.3565
 9659TIP3   OH228940   5.296   5.030   1.798  0.2260  0.0492  0.9472
 9659TIP3    H128941   5.327   5.116   1.769 -0.2559  0.5368  1.8537
 9659TIP3    H228942   5.313   4.973   1.723  0.7614  0.8809  0.4129
 9660TIP3   OH228943   5.584   4.748   1.128 -0.0726 -0.2828  0.4308
 9660TIP3    H128944   5.636   4.676   1.162  0.7414  0.0704 -0.0415
 9660TIP3    H228945   5.601   4.820   1.189  0.2627 -0.0686  0.0868
 9661TIP3   OH228946   6.706   1.804   2.403  0.5684  0.0178 -0.2255
 9661TIP3    H128947   6.629   1.751   2.424 -0.4254  0.6297 -2.0969
 9661TIP3    H228948   6.671   1.893   2.392  1.7625  0.5507  0.1334
 9662TIP3   OH228949   4.173   4.154   0.393 -0.4501 -0.5429  0.0542
 9662TIP3    H128950   4.114   4.184   0.462 -0.9813  0.8193 -0.9474
 9662TIP3    H228951   4.240   4.223   0.388 -0.1532 -0.8610 -0.4705
 9663TIP3   OH228952   1.953   4.578   4.402 -0.8056 -0.3313 -0.2337
 9663TIP3    H128953   1.990   4.522   4.333 -1.6045 -0.9561 -0.1588
 9663TIP3    H228954   1.875   4.616   4.362 -0.2664  0.7692 -0.2913
 9664TIP3   OH228955   6.112   5.802   5.720  0.1908 -0.9916  0.2460
 9664TIP3    H128956   6.150   5.765   5.641 -0.9202  1.1622 -1.4109
 9664TIP3    H228957   6.020   5.773   5.719 -0.2795  0.3999 -0.2388
 9665TIP3   OH228958   3.238   0.161   1.805 -0.2090  0.6553  0.0612
 9665TIP3    H128959   3.225   0.086   1.863  0.3133  1.4521  1.2467
 9665TIP3    H228960   3.211   0.130   1.719 -0.6147 -0.6889  0.6518
 9666TIP3   OH228961   1.594   0.344   2.095  0.8720  0.2186 -0.8555
 9666TIP3    H128962   1.636   0.400   2.030 -0.2534  1.6350 -0.4131
 9666TIP3    H228963   1.540   0.284   2.044 -0.0204  1.3320 -1.2519
 9667TIP3   OH228964   6.721   3.618   3.712 -0.1408  0.3973  0.0094
 9667TIP3    H128965   6.704   3.647   3.622 -3.1225  0.0082  0.3486
 9667TIP3    H228966   6.722   3.699   3.763 -3.2651  0.4556  0.2016
 9668TIP3   OH228967   1.206   4.551   5.807  0.3665 -0.5144 -0.1159
 9668TIP3    H128968   1.223   4.645   5.812  0.6699 -0.5392 -0.6183
 9668TIP3    H228969   1.285   4.510   5.841  1.0218 -0.6143 -1.6602
 9669TIP3   OH228970   3.516   5.691   2.162  0.1290 -0.3661  0.2780
 9669TIP3    H128971   3.590   5.730   2.114  0.1984 -0.7284  0.0922
 9669TIP3    H228972   3.525   5.597   2.148  0.1606 -0.4787  1.0163
 9670TIP3   OH228973   3.907   0.344   2.254  0.1148  0.2841 -0.3756
 9670TIP3    H128974   3.852   0.378   2.325 -1.3979 -0.1678 -1.2931
 9670TIP3    H228975   3.848   0.334   2.180  1.6076  0.5297 -1.6656
 9671TIP3   OH228976   1.181   5.643   5.009 -0.4578  0.8386 -0.3967
 9671TIP3    H128977   1.163   5.734   5.035 -0.3191  0.6826  0.2594
 9671TIP3    H228978   1.221   5.604   5.087  0.3269  0.4642 -0.9808
 9672TIP3   OH228979   7.190   2.062   0.593 -0.0697 -0.0454  0.9080
 9672TIP3    H128980   7.256   2.013   0.642  1.2900  2.0640  1.3072
 9672TIP3    H228981   7.153   2.123   0.657 -0.2679  0.8334 -0.0208
 9673TIP3   OH228982   0.005   4.921   1.690  0.0134 -0.5237  0.0905
 9673TIP3    H128983  -0.064   4.984   1.713  1.1354  2.7151 -4.0064
 9673TIP3    H228984   0.074   4.936   1.755 -0.4576  1.3130  0.2231
 9674TIP3   OH228985   1.293   3.845   4.331 -0.3050  0.1166  0.1125
 9674TIP3    H128986   1.317   3.773   4.388  0.3919 -1.3107 -1.8806
 9674TIP3    H228987   1.374   3.894   4.319 -0.9208  1.7676  2.0350
 9675TIP3   OH228988   1.931   3.079   2.240 -0.1954  0.2487  0.1722
 9675TIP3    H128989   1.985   3.023   2.297 -2.1624 -1.7943  0.1563
 9675TIP3    H228990   1.904   3.151   2.297  0.6611  0.0915  0.8070
 9676TIP3   OH228991   6.178   3.524   3.737  0.2804  0.0008 -0.0419
 9676TIP3    H128992   6.165   3.580   3.814  1.4451  2.2914 -1.3901
 9676TIP3    H228993   6.271   3.506   3.736  0.1984 -0.4045 -0.6580
 9677TIP3   OH228994   3.437   0.170   5.613  0.4181 -0.5163  0.3587
 9677TIP3    H128995   3.351   0.194   5.578  1.2584  0.8757 -0.8440
 9677TIP3    H228996   3.484   0.253   5.621  1.5820 -1.2293  1.2163
 9678TIP3   OH228997   5.672   5.227   3.478 -0.3586  0.5325 -0.3277
 9678TIP3    H128998   5.744   5.275   3.520 -0.7295  1.3834 -0.6308
 9678TIP3    H228999   5.707   5.201   3.393  0.3196 -0.9977  0.3975
 9679TIP3   OH229000   3.638   4.718   2.925 -0.0346 -0.2780 -0.4523
 9679TIP3    H129001   3.729   4.694   2.944  0.3495  1.0421 -0.5207
 9679TIP3    H229002   3.643   4.760   2.839 -1.1968 -2.9534 -1.9436
 9680TIP3   OH229003   6.390   0.455   1.911  0.4589 -0.0142  0.1471
 9680TIP3    H129004   6.374   0.366   1.945 -0.6349 -0.1103 -0.5608
 9680TIP3    H229005   6.447   0.495   1.977 -0.6359 -0.5858  1.5110
 9681TIP3   OH229006   1.427   3.375   1.554 -0.1620 -0.1094 -0.8677
 9681TIP3    H129007   1.455   3.366   1.645  0.6996 -0.2472 -1.1359
 9681TIP3    H229008   1.424   3.469   1.538 -2.5394  0.0280 -0.0543
 9682TIP3   OH229009   2.047   4.766   1.661 -0.1992 -0.9445  0.1766
 9682TIP3    H129010   2.009   4.782   1.575  0.1940 -0.0730  0.1482
 9682TIP3    H229011   2.002   4.829   1.719 -0.0504 -1.1244  0.4910
 9683TIP3   OH229012   2.900   3.298   5.684 -0.2485  0.0199  0.0367
 9683TIP3    H129013   2.898   3.299   5.588 -0.5316 -0.5517  0.0315
 9683TIP3    H229014   2.969   3.235   5.705 -0.1863  0.1463  0.2085
 9684TIP3   OH229015   4.131   6.517   4.777 -0.0398  0.3504 -0.4063
 9684TIP3    H129016   4.085   6.591   4.817  0.6325  0.7566 -0.3682
 9684TIP3    H229017   4.224   6.538   4.788  0.2254  0.9910 -3.0306
 9685TIP3   OH229018   3.448   4.716   3.755 -0.2345 -0.1863 -0.1014
 9685TIP3    H129019   3.430   4.796   3.706  0.8010  0.8608  1.1371
 9685TIP3    H229020   3.506   4.665   3.698  0.3770  0.6851 -0.2845
 9686TIP3   OH229021   2.229   4.618   5.575 -0.9240 -0.0056  0.1540
 9686TIP3    H129022   2.218   4.699   5.524 -1.3258 -0.5092 -0.5747
 9686TIP3    H229023   2.186   4.637   5.658 -0.2007  0.8550  0.3486
 9687TIP3   OH229024   6.714   6.636   5.359  0.8856  0.1570 -0.9646
 9687TIP3    H129025   6.691   6.721   5.322 -0.6030  0.5838  0.7745
 9687TIP3    H229026   6.709   6.649   5.454  2.6668 -1.3594 -0.5894
 9688TIP3   OH229027   6.451   4.847   3.370 -0.6739 -0.1855  0.1280
 9688TIP3    H129028   6.414   4.935   3.360  0.5704  0.5946  1.8291
 9688TIP3    H229029   6.412   4.813   3.451 -0.2546 -0.7238  0.1129
 9689TIP3   OH229030   6.553   2.671   5.117  0.0161  0.5476 -0.1918
 9689TIP3    H129031   6.622   2.607   5.136 -1.3246 -0.5853  1.1426
 9689TIP3    H229032   6.472   2.621   5.125 -1.0097  2.0138 -0.9887
 9690TIP3   OH229033   4.966   1.875   1.313 -0.0322  0.0817 -0.0077
 9690TIP3    H129034   4.896   1.841   1.369  0.3717  0.0595  0.4858
 9690TIP3    H229035   4.991   1.958   1.353 -2.5560  2.2270 -2.4208
 9691TIP3   OH229036   1.784   2.675   5.576  0.1133 -0.2232 -0.6419
 9691TIP3    H129037   1.816   2.666   5.666  2.2174 -0.1480 -1.3205
 9691TIP3    H229038   1.690   2.657   5.581 -0.1601  1.4085  1.8309
 9692TIP3   OH229039   2.628   3.502   0.906  0.6297  0.2770  0.1272
 9692TIP3    H129040   2.562   3.563   0.871 -0.0091 -1.4649 -1.9747
 9692TIP3    H229041   2.577   3.439   0.957  1.0241  0.3836  0.6573
 9693TIP3   OH229042   2.151   2.054   1.877  0.2606  0.7001  0.8001
 9693TIP3    H129043   2.129   2.121   1.941 -0.0274  0.8158  0.5788
 9693TIP3    H229044   2.243   2.035   1.893  0.0523  0.3189  1.6349
 9694TIP3   OH229045   3.514   1.138   4.025 -0.1218  0.2689 -0.2707
 9694TIP3    H129046   3.459   1.140   3.947 -2.0707 -0.7541  0.9994
 9694TIP3    H229047   3.555   1.225   4.027 -0.5842  0.5666 -2.0133
 9695TIP3   OH229048   3.706   6.313   2.537 -0.3476 -0.1038  0.1515
 9695TIP3    H129049   3.778   6.268   2.493  0.0930 -0.5200  1.2469
 9695TIP3    H229050   3.749   6.384   2.585 -0.3743 -1.3792  2.2060
 9696TIP3   OH229051   4.706   5.989   3.685 -0.0418  0.2023  0.2948
 9696TIP3    H129052   4.733   5.910   3.731 -0.6888 -0.3867 -0.3068
 9696TIP3    H229053   4.788   6.035   3.667  0.4372 -0.7972 -0.1807
 9697TIP3   OH229054   1.993   5.146   3.990 -0.4026 -0.2699  0.0932
 9697TIP3    H129055   2.033   5.147   3.904 -0.0750  1.5310  0.2196
 9697TIP3    H229056   2.056   5.190   4.047 -1.2991  0.0178  0.9084
 9698TIP3   OH229057   3.165   1.942   1.481 -0.4477  0.0286  0.3279
 9698TIP3    H129058   3.150   2.014   1.541 -2.2460 -0.2603  0.2744
 9698TIP3    H229059   3.118   1.966   1.401  1.8561  0.3921 -1.0389
 9699TIP3   OH229060   2.229   4.592   2.628  0.4027 -0.1777 -0.3459
 9699TIP3    H129061   2.235   4.500   2.602 -0.3582 -0.7215  1.2511
 9699TIP3    H229062   2.315   4.628   2.610  0.2432 -0.7696 -2.4918
 9700TIP3   OH229063   4.374   1.235   2.143  0.4967  0.0124 -0.0548
 9700TIP3    H129064   4.367   1.330   2.133 -0.7764 -0.1734 -1.2960
 9700TIP3    H229065   4.322   1.215   2.221 -0.1993  0.2388 -0.4486
 9701TIP3   OH229066   2.267   3.891   0.855  0.1521 -0.0632  0.5747
 9701TIP3    H129067   2.257   3.928   0.943  0.9644 -0.4136  0.8263
 9701TIP3    H229068   2.263   3.967   0.796 -1.2154  0.0911  0.8323
 9702TIP3   OH229069   4.363   5.716   2.223 -0.7820 -0.0885 -0.1570
 9702TIP3    H129070   4.398   5.729   2.135  0.8023 -0.3671  0.4143
 9702TIP3    H229071   4.314   5.634   2.216  0.3351 -0.7489 -0.5117
 9703TIP3   OH229072   6.438   5.011   1.679 -0.0629  0.2907  0.4840
 9703TIP3    H129073   6.420   5.001   1.586 -1.5908 -0.9251  0.8595
 9703TIP3    H229074   6.354   4.991   1.722  0.1656  2.3337  2.0659
 9704TIP3   OH229075   5.040   6.403   0.190 -0.0835  0.2990 -0.5385
 9704TIP3    H129076   4.988   6.482   0.206  0.2433  0.3131  0.5494
 9704TIP3    H229077   4.977   6.339   0.157 -0.8588  0.2696  0.8850
 9705TIP3   OH229078   2.337   4.094   0.478  0.2929 -0.1350  0.5927
 9705TIP3    H129079   2.258   4.056   0.518  0.5831 -0.1780  1.1319
 9705TIP3    H229080   2.373   4.150   0.546  0.7966 -0.2121  0.3886
 9706TIP3   OH229081   3.560   3.736   4.245 -0.0916 -0.2330  0.0641
 9706TIP3    H129082   3.473   3.721   4.209  0.4193 -0.8854 -0.9329
 9706TIP3    H229083   3.600   3.800   4.186 -0.4029  1.2267  1.3629
 9707TIP3   OH229084   0.301   1.976   2.268 -0.1896 -0.7769 -0.0361
 9707TIP3    H129085   0.360   2.017   2.332  0.5970 -0.3519 -0.9952
 9707TIP3    H229086   0.277   2.048   2.208 -0.3108 -1.3091 -0.6367
 9708TIP3   OH229087   3.832   4.843   5.066  0.1634  0.6379  0.2605
 9708TIP3    H129088   3.742   4.867   5.090  0.6970  2.2232  0.7768
 9708TIP3    H229089   3.858   4.908   5.002  1.6696  1.5337  1.7051
 9709TIP3   OH229090   0.022   0.980   0.501 -0.4222 -0.5570 -0.0023
 9709TIP3    H129091   0.034   0.985   0.596  0.0941 -0.2278 -0.0822
 9709TIP3    H229092   0.107   1.002   0.465 -1.1620  1.6152 -0.5877
 9710TIP3   OH229093   5.454   3.785   4.873 -0.0036 -0.0593 -0.2507
 9710TIP3    H129094   5.533   3.732   4.859 -0.0033 -0.0977 -0.1069
 9710TIP3    H229095   5.384   3.721   4.888  0.7391 -0.1711  4.4950
 9711TIP3   OH229096   5.374   3.149   5.628 -0.0823 -0.7762  0.1844
 9711TIP3    H129097   5.402   3.193   5.708 -0.8014  0.5932 -0.2710
 9711TIP3    H229098   5.289   3.111   5.649 -2.5974  3.4843 -1.0261
 9712TIP3   OH229099   4.744   3.608   3.524  0.4314  0.0459  0.0339
 9712TIP3    H129100   4.837   3.626   3.535  0.3889 -0.5059  1.4655
 9712TIP3    H229101   4.700   3.669   3.584 -0.2278  1.0248 -1.3669
 9713TIP3   OH229102   1.026   5.742   4.675 -0.5281  0.3667 -0.0354
 9713TIP3    H129103   1.097   5.696   4.630 -1.1540 -0.5911 -0.0830
 9713TIP3    H229104   0.988   5.676   4.733 -1.5893  0.7564 -0.2555
 9714TIP3   OH229105   0.547   5.371   0.549  0.1538 -0.1745  0.0961
 9714TIP3    H129106   0.608   5.413   0.609 -0.7451 -0.2680  1.0960
 9714TIP3    H229107   0.503   5.304   0.601 -0.6351 -0.2749 -0.6626
 9715TIP3   OH229108   4.951   6.234   3.224  0.3228  0.0992  0.3348
 9715TIP3    H129109   4.888   6.218   3.295 -1.6199  2.0321 -0.8287
 9715TIP3    H229110   4.947   6.155   3.171 -1.0840  0.1093  0.3701
 9716TIP3   OH229111   0.806   0.166   2.738 -0.1267 -0.6061  0.3657
 9716TIP3    H129112   0.762   0.111   2.673  0.4684 -1.7499  0.8908
 9716TIP3    H229113   0.897   0.136   2.738  0.6480  1.5334 -0.5071
 9717TIP3   OH229114   0.871   0.519   5.862  0.5040 -0.1122 -0.3003
 9717TIP3    H129115   0.847   0.501   5.771  1.1257 -1.1422 -0.2742
 9717TIP3    H229116   0.958   0.481   5.872  0.7367  0.5975  0.5436
 9718TIP3   OH229117   4.106   4.284   4.341  0.3543 -0.5346 -0.1785
 9718TIP3    H129118   4.063   4.296   4.257 -0.5296  0.3625  0.3763
 9718TIP3    H229119   4.182   4.343   4.337 -0.2481  0.2658  0.0209
 9719TIP3   OH229120   4.594   1.254   1.970 -0.0273  0.3111  0.2899
 9719TIP3    H129121   4.523   1.244   2.033  2.0245 -0.4194  2.6220
 9719TIP3    H229122   4.634   1.339   1.990  0.6043  0.1171 -0.0956
 9720TIP3   OH229123   0.381   1.847   4.644 -0.6030  0.1848 -0.0638
 9720TIP3    H129124   0.297   1.851   4.597 -0.2858 -1.4839 -0.8282
 9720TIP3    H229125   0.430   1.778   4.600  0.6280  0.1573  1.2844
 9721TIP3   OH229126   2.797   0.231   4.550 -0.2086 -0.1263 -0.4695
 9721TIP3    H129127   2.882   0.192   4.529  0.6044  0.6960  1.0556
 9721TIP3    H229128   2.747   0.159   4.588  0.3956 -0.2688  0.0790
 9722TIP3   OH229129   1.762   6.581   5.399  0.1697  0.0608 -0.0178
 9722TIP3    H129130   1.754   6.519   5.472 -1.5631 -0.1867 -0.3916
 9722TIP3    H229131   1.673   6.610   5.381  0.9407  3.0308  0.3996
 9723TIP3   OH229132   3.363   1.476   5.694 -0.0879 -0.0784 -0.0196
 9723TIP3    H129133   3.430   1.544   5.688 -0.4907  0.3062 -0.1996
 9723TIP3    H229134   3.404   1.407   5.747 -0.3868  1.1874  1.9595
 9724TIP3   OH229135   6.583   3.904   3.625  0.4724 -0.0730  0.0647
 9724TIP3    H129136   6.532   3.984   3.612 -0.9628 -1.2810 -2.7000
 9724TIP3    H229137   6.657   3.930   3.679 -0.7211  2.7718  0.4675
 9725TIP3   OH229138   3.932   2.932   5.503  0.1351  0.8398  0.0546
 9725TIP3    H129139   3.990   2.891   5.567  0.7522 -0.2887 -1.1779
 9725TIP3    H229140   3.955   3.025   5.505 -0.7695  1.0616  2.3599
 9726TIP3   OH229141   5.198   5.536   2.404 -0.0670  0.1116  0.0105
 9726TIP3    H129142   5.282   5.517   2.364 -0.7380 -0.1551 -1.3121
 9726TIP3    H229143   5.141   5.563   2.331 -1.7242 -1.7229  0.5244
 9727TIP3   OH229144   1.005   0.567   1.490  0.6023 -0.5890  0.4643
 9727TIP3    H129145   1.067   0.613   1.546 -0.3563  0.8182  0.4346
 9727TIP3    H229146   1.023   0.601   1.402  0.3237 -0.7665  0.3385
 9728TIP3   OH229147   1.503   6.711   4.052 -0.3760 -0.0125  0.8135
 9728TIP3    H129148   1.522   6.623   4.085 -1.4635 -0.1796  1.0281
 9728TIP3    H229149   1.410   6.708   4.030 -0.3030  0.9449  0.3692
 9729TIP3   OH229150   2.639   1.355   3.569  0.4704  0.4036 -0.4936
 9729TIP3    H129151   2.580   1.314   3.632  1.6535 -1.0989 -0.2910
 9729TIP3    H229152   2.583   1.414   3.518 -1.5049 -1.9762 -1.2679
 9730TIP3   OH229153   2.846   6.092   2.922  0.4862  0.4186 -0.0800
 9730TIP3    H129154   2.848   6.186   2.943 -2.2403  0.2369  1.4128
 9730TIP3    H229155   2.788   6.054   2.988  0.5367 -2.1295 -1.4028
 9731TIP3   OH229156   2.906   4.943   2.786  0.4509 -0.2959  0.0124
 9731TIP3    H129157   2.908   4.928   2.692  0.9949  3.1481 -0.6397
 9731TIP3    H229158   2.954   4.869   2.823  2.2913 -0.5448 -2.6258
 9732TIP3   OH229159   2.739   0.783   2.548 -0.3120  0.5264  0.3207
 9732TIP3    H129160   2.661   0.817   2.505  0.7038  1.1284 -1.1577
 9732TIP3    H229161   2.810   0.840   2.517  1.0796 -1.4106 -0.2593
 9733TIP3   OH229162   5.467   4.493   4.065  0.1074  0.2564 -0.2926
 9733TIP3    H129163   5.508   4.551   4.130  0.1204 -0.8572  0.7353
 9733TIP3    H229164   5.401   4.444   4.115  1.2471 -1.8156 -0.7042
 9734TIP3   OH229165   6.797   1.145   0.645  0.7732  0.2915 -0.1444
 9734TIP3    H129166   6.830   1.070   0.596 -0.7059  0.2231 -1.0945
 9734TIP3    H229167   6.725   1.109   0.698 -1.1604  1.2703 -1.9462
 9735TIP3   OH229168   5.334   2.722   1.290  0.1332 -0.4768 -0.1637
 9735TIP3    H129169   5.378   2.804   1.313 -0.2575 -0.3055 -0.0203
 9735TIP3    H229170   5.405   2.659   1.279  0.4312 -0.1414 -0.1826
 9736TIP3   OH229171   4.408   2.456   0.291 -0.3753  0.6281 -0.4491
 9736TIP3    H129172   4.467   2.478   0.219  1.1240  0.2343  0.6297
 9736TIP3    H229173   4.432   2.368   0.317  0.0189  1.2314  1.3882
 9737TIP3   OH229174   2.457   3.544   0.292 -0.1514  0.5526 -0.0168
 9737TIP3    H129175   2.542   3.549   0.336  0.5468 -2.2403 -0.8425
 9737TIP3    H229176   2.399   3.504   0.357  0.6635 -2.7510 -1.1364
 9738TIP3   OH229177   1.146   3.765   3.507 -0.2315 -0.2765 -0.4223
 9738TIP3    H129178   1.217   3.713   3.547 -0.0600  0.2787  0.0135
 9738TIP3    H229179   1.102   3.805   3.582 -0.8492 -0.4185 -0.7114
 9739TIP3   OH229180   2.261   5.241   3.941 -0.3690 -0.6102 -0.2851
 9739TIP3    H129181   2.227   5.331   3.937 -1.0880 -0.9124 -1.6110
 9739TIP3    H229182   2.300   5.227   3.855  0.6304 -1.2481  0.2568
 9740TIP3   OH229183   5.230   5.758   0.430 -0.4571  0.1624 -0.7844
 9740TIP3    H129184   5.203   5.682   0.379 -1.2461  0.7322 -1.2512
 9740TIP3    H229185   5.154   5.777   0.486  0.2527 -0.2193  0.3339
 9741TIP3   OH229186   3.382   6.347   4.695  0.7738  0.0353 -0.1575
 9741TIP3    H129187   3.344   6.377   4.778  2.1943  0.4339  0.3814
 9741TIP3    H229188   3.320   6.281   4.664 -1.2017  1.7561 -0.1734
 9742TIP3   OH229189   0.920   0.309   2.067 -0.0869 -0.1324  0.0405
 9742TIP3    H129190   0.842   0.354   2.035  0.6506  0.6328 -0.7048
 9742TIP3    H229191   0.945   0.251   1.995 -0.5523 -1.1534  0.6787
 9743TIP3   OH229192   6.131   4.755   5.352 -0.1487 -0.0370  0.5287
 9743TIP3    H129193   6.153   4.794   5.268  0.1651 -0.4294  0.4252
 9743TIP3    H229194   6.215   4.724   5.387 -0.2363  0.3578  1.1066
 9744TIP3   OH229195   3.688   4.825   2.002 -0.0734  0.0774  0.0786
 9744TIP3    H129196   3.725   4.738   1.987 -1.2777 -0.9215  2.3035
 9744TIP3    H229197   3.613   4.809   2.061 -0.1375  2.6468  0.8290
 9745TIP3   OH229198   1.684   3.397   0.829  0.5748  0.0006 -0.0178
 9745TIP3    H129199   1.750   3.391   0.898  0.4244 -0.5037  0.0853
 9745TIP3    H229200   1.645   3.310   0.825  0.7829 -0.0593 -0.9439
 9746TIP3   OH229201   4.271   1.627   2.863  0.2595  0.2804  0.3842
 9746TIP3    H129202   4.254   1.719   2.884 -1.1535  0.2904 -0.6626
 9746TIP3    H229203   4.220   1.578   2.928  1.1850  0.2063  1.0797
 9747TIP3   OH229204   4.741   2.690   0.830 -0.4029 -0.4123  0.3862
 9747TIP3    H129205   4.721   2.682   0.923 -1.2421  2.1244  0.5046
 9747TIP3    H229206   4.656   2.682   0.786  0.2602 -4.3078 -0.5147
 9748TIP3   OH229207   5.608   0.312   4.625 -0.2645 -0.2895 -0.2258
 9748TIP3    H129208   5.556   0.299   4.705 -1.6206 -0.4626 -1.1029
 9748TIP3    H229209   5.642   0.225   4.603 -0.6297 -0.4093 -0.3209
 9749TIP3   OH229210   2.193   1.241   4.284 -0.4104 -0.1267 -0.0402
 9749TIP3    H129211   2.228   1.276   4.202  1.1242  0.2057  0.6954
 9749TIP3    H229212   2.115   1.192   4.260 -0.0953  0.1346 -1.6605
   7.20290   6.79098   5.88115   0.00000   0.00000  -2.40097   0.00000  -2.40097  -3.39548
